Title t= 203.00000 step= 101500
44434
    1GLY      N    1   5.409   3.851   4.922
    1GLY    HT1    2   5.323   3.902   4.895
    1GLY    HT2    3   5.426   3.765   4.865
    1GLY    HT3    4   5.493   3.911   4.913
    1GLY     CA    5   5.383   3.809   5.065
    1GLY    HA1    6   5.350   3.890   5.128
    1GLY    HA2    7   5.482   3.774   5.091
    1GLY      C    8   5.284   3.699   5.087
    1GLY      O    9   5.260   3.621   4.997
    2PRO      N   10   5.215   3.694   5.202
    2PRO     CD   11   5.261   3.766   5.325
    2PRO    HD1   12   5.257   3.877   5.322
    2PRO    HD2   13   5.369   3.749   5.348
    2PRO     CA   14   5.108   3.600   5.231
    2PRO     HA   15   5.152   3.503   5.248
    2PRO     CB   16   5.052   3.660   5.360
    2PRO    HB1   17   4.994   3.584   5.415
    2PRO    HB2   18   5.003   3.757   5.335
    2PRO     CG   19   5.177   3.709   5.435
    2PRO    HG1   20   5.159   3.764   5.530
    2PRO    HG2   21   5.216   3.615   5.479
    2PRO      C   22   5.003   3.559   5.128
    2PRO      O   23   4.947   3.648   5.063
    3GLY      N   24   4.969   3.430   5.121
    3GLY     HN   25   5.000   3.369   5.194
    3GLY     CA   26   4.872   3.384   5.025
    3GLY    HA1   27   4.773   3.416   5.053
    3GLY    HA2   28   4.868   3.276   5.030
    3GLY      C   29   4.905   3.417   4.879
    3GLY      O   30   5.015   3.455   4.848
    4ASP      N   31   4.810   3.391   4.787
    4ASP     HN   32   4.718   3.374   4.821
    4ASP     CA   33   4.825   3.399   4.644
    4ASP     HA   34   4.909   3.335   4.621
    4ASP     CB   35   4.689   3.356   4.569
    4ASP    HB1   36   4.692   3.367   4.458
    4ASP    HB2   37   4.610   3.428   4.599
    4ASP     CG   38   4.644   3.212   4.580
    4ASP    OD1   39   4.679   3.143   4.680
    4ASP    OD2   40   4.562   3.166   4.504
    4ASP      C   41   4.859   3.536   4.587
    4ASP      O   42   4.811   3.639   4.635
    5PRO      N   43   4.943   3.539   4.483
    5PRO     CD   44   5.022   3.424   4.437
    5PRO    HD1   45   4.957   3.347   4.391
    5PRO    HD2   46   5.078   3.395   4.528
    5PRO     CA   47   4.974   3.659   4.405
    5PRO     HA   48   5.044   3.720   4.460
    5PRO     CB   49   5.035   3.603   4.278
    5PRO    HB1   50   5.104   3.665   4.217
    5PRO    HB2   51   4.957   3.573   4.205
    5PRO     CG   52   5.120   3.493   4.337
    5PRO    HG1   53   5.148   3.420   4.258
    5PRO    HG2   54   5.214   3.526   4.387
    5PRO      C   55   4.852   3.740   4.369
    5PRO      O   56   4.741   3.690   4.341
    6GLY      N   57   4.873   3.872   4.371
    6GLY     HN   58   4.963   3.912   4.390
    6GLY     CA   59   4.779   3.976   4.321
    6GLY    HA1   60   4.782   4.054   4.396
    6GLY    HA2   61   4.679   3.941   4.306
    6GLY      C   62   4.828   4.028   4.181
    6GLY      O   63   4.948   4.008   4.151
    7SER      N   64   4.739   4.099   4.112
    7SER     HN   65   4.648   4.093   4.153
    7SER     CA   66   4.761   4.160   3.983
    7SER     HA   67   4.779   4.083   3.910
    7SER     CB   68   4.629   4.223   3.924
    7SER    HB1   69   4.653   4.267   3.825
    7SER    HB2   70   4.590   4.306   3.986
    7SER     OG   71   4.525   4.125   3.908
    7SER    HG1   72   4.466   4.159   3.840
    7SER      C   73   4.874   4.263   3.977
    7SER      O   74   4.877   4.352   4.056
    8GLY      N   75   4.963   4.252   3.882
    8GLY     HN   76   4.952   4.173   3.824
    8GLY     CA   77   5.056   4.353   3.828
    8GLY    HA1   78   5.124   4.298   3.765
    8GLY    HA2   79   5.118   4.388   3.908
    8GLY      C   80   5.002   4.465   3.756
    8GLY      O   81   4.881   4.477   3.728
    9ASN      N   82   5.088   4.561   3.708
    9ASN     HN   83   5.185   4.541   3.716
    9ASN     CA   84   5.061   4.681   3.637
    9ASN     HA   85   4.970   4.718   3.682
    9ASN     CB   86   5.182   4.785   3.665
    9ASN    HB1   87   5.274   4.735   3.628
    9ASN    HB2   88   5.199   4.793   3.775
    9ASN     CG   89   5.167   4.924   3.598
    9ASN    OD1   90   5.256   4.953   3.516
    9ASN    ND2   91   5.061   5.000   3.627
    9ASN   HD21   92   5.060   5.091   3.585
    9ASN   HD22   93   4.976   4.960   3.661
    9ASN      C   94   5.052   4.639   3.489
    9ASN      O   95   5.140   4.565   3.441
   10PRO      N   96   4.941   4.676   3.410
   10PRO     CD   97   4.818   4.721   3.471
   10PRO    HD1   98   4.820   4.827   3.502
   10PRO    HD2   99   4.782   4.655   3.553
   10PRO     CA  100   4.939   4.692   3.268
   10PRO     HA  101   4.938   4.589   3.234
   10PRO     CB  102   4.805   4.752   3.233
   10PRO    HB1  103   4.771   4.725   3.131
   10PRO    HB2  104   4.810   4.863   3.226
   10PRO     CG  105   4.714   4.717   3.358
   10PRO    HG1  106   4.632   4.791   3.367
   10PRO    HG2  107   4.669   4.616   3.352
   10PRO      C  108   5.064   4.759   3.203
   10PRO      O  109   5.118   4.856   3.262
   11GLY      N  110   5.109   4.708   3.086
   11GLY     HN  111   5.080   4.621   3.048
   11GLY     CA  112   5.223   4.753   3.009
   11GLY    HA1  113   5.236   4.683   2.928
   11GLY    HA2  114   5.312   4.746   3.070
   11GLY      C  115   5.211   4.891   2.953
   11GLY      O  116   5.103   4.961   2.964
   12SER      N  117   5.334   4.934   2.903
   12SER     HN  118   5.409   4.868   2.900
   12SER     CA  119   5.358   5.070   2.853
   12SER     HA  120   5.300   5.139   2.912
   12SER     CB  121   5.508   5.112   2.839
   12SER    HB1  122   5.524   5.209   2.789
   12SER    HB2  123   5.565   5.034   2.784
   12SER     OG  124   5.558   5.129   2.970
   12SER    HG1  125   5.569   5.042   3.008
   12SER      C  126   5.306   5.080   2.704
   12SER      O  127   5.304   4.986   2.628
   13GLY      N  128   5.260   5.203   2.668
   13GLY     HN  129   5.270   5.284   2.725
   13GLY     CA  130   5.197   5.237   2.542
   13GLY    HA1  131   5.127   5.317   2.561
   13GLY    HA2  132   5.158   5.144   2.502
   13GLY      C  133   5.290   5.280   2.433
   13GLY      O  134   5.403   5.228   2.417
   14ASP      N  135   5.242   5.363   2.347
   14ASP     HN  136   5.147   5.394   2.351
   14ASP     CA  137   5.314   5.410   2.223
   14ASP     HA  138   5.354   5.327   2.166
   14ASP     CB  139   5.217   5.498   2.139
   14ASP    HB1  140   5.274   5.533   2.050
   14ASP    HB2  141   5.177   5.586   2.194
   14ASP     CG  142   5.102   5.409   2.095
   14ASP    OD1  143   4.984   5.433   2.137
   14ASP    OD2  144   5.124   5.302   2.033
   14ASP      C  145   5.440   5.502   2.278
   14ASP      O  146   5.416   5.591   2.366
   15PRO      N  147   5.567   5.495   2.235
   15PRO     CD  148   5.617   5.375   2.171
   15PRO    HD1  149   5.630   5.404   2.064
   15PRO    HD2  150   5.551   5.288   2.189
   15PRO     CA  151   5.677   5.574   2.292
   15PRO     HA  152   5.668   5.569   2.400
   15PRO     CB  153   5.803   5.500   2.244
   15PRO    HB1  154   5.880   5.505   2.324
   15PRO    HB2  155   5.854   5.533   2.151
   15PRO     CG  156   5.759   5.355   2.226
   15PRO    HG1  157   5.816   5.293   2.153
   15PRO    HG2  158   5.758   5.316   2.330
   15PRO      C  159   5.681   5.716   2.238
   15PRO    OT1  160   5.693   5.738   2.113
   15PRO    OT2  161   5.692   5.809   2.323
   16LIT    LIT  162   4.493   3.045   4.625
   17LIT    LIT  163   5.588   3.737   2.293
   18LIT    LIT  164   5.016   0.528   2.238
   19LIT    LIT  165   3.497   4.786   4.437
   20LIT    LIT  166   6.103   5.032   4.364
   21LIT    LIT  167   0.622   2.240   6.312
   22LIT    LIT  168   7.033   1.085   5.880
   23LIT    LIT  169   4.989   1.468   0.581
   24LIT    LIT  170   7.935   7.609   3.386
   25LIT    LIT  171   7.355   0.480   4.681
   26LIT    LIT  172   2.447   3.884   3.045
   27LIT    LIT  173   1.564   0.056   3.663
   28LIT    LIT  174   6.048   2.933   2.187
   29LIT    LIT  175   7.285   0.667   2.387
   30LIT    LIT  176   6.353   6.832   6.053
   31LIT    LIT  177   1.564   0.714   1.782
   32LIT    LIT  178   0.997   2.519   5.085
   33LIT    LIT  179   5.276   0.337   0.341
   34LIT    LIT  180   5.490   3.318   6.518
   35LIT    LIT  181   4.448   2.737   1.664
   36LIT    LIT  182   4.462   7.125   2.320
   37LIT    LIT  183   0.256   4.458   1.086
   38LIT    LIT  184   4.565   5.041   4.972
   39LIT    LIT  185   3.778   0.675   3.878
   40LIT    LIT  186   6.689   5.718   3.439
   41LIT    LIT  187   5.682   5.934   2.178
   42LIT    LIT  188   2.394   0.923   5.926
   43LIT    LIT  189   0.207   0.866   2.282
   44LIT    LIT  190   7.252   7.395   1.988
   45LIT    LIT  191   0.492   2.082   2.615
   46LIT    LIT  192   5.203   2.870   0.954
   47LIT    LIT  193   3.514   1.728   1.466
   48LIT    LIT  194   7.509   6.005   4.068
   49LIT    LIT  195   4.943   5.263   2.046
   50LIT    LIT  196   5.399   1.386   1.944
   51LIT    LIT  197   7.589   7.002   0.293
   52LIT    LIT  198   6.140   2.148   5.194
   53LIT    LIT  199   3.352   5.803   2.090
   54LIT    LIT  200   0.635   7.217   3.613
   55LIT    LIT  201   2.328   0.657   4.644
   56LIT    LIT  202   7.562   2.085   5.576
   57LIT    LIT  203   7.754   0.382   2.185
   58LIT    LIT  204   7.184   4.683   0.572
   59LIT    LIT  205   3.498   4.003   1.072
   60CLA    CLA  206   2.641   0.972   2.977
   61CLA    CLA  207   5.890   4.956   4.345
   62CLA    CLA  208   6.667   4.582   1.130
   63CLA    CLA  209   0.561   2.093   1.335
   64CLA    CLA  210   7.197   7.227   2.496
   65CLA    CLA  211   2.826   0.360   0.721
   66CLA    CLA  212   2.995   1.040   4.909
   67CLA    CLA  213   3.560   4.787   0.605
   68CLA    CLA  214   6.480   1.237   5.066
   69CLA    CLA  215   0.893   1.861   4.660
   70CLA    CLA  216   4.428   5.483   0.722
   71CLA    CLA  217   1.697   0.681   4.454
   72CLA    CLA  218   0.423   2.727   2.114
   73CLA    CLA  219   3.889   4.664   4.375
   74CLA    CLA  220   4.740   5.248   1.314
   75CLA    CLA  221   4.430   2.456   3.429
   76CLA    CLA  222   3.792   5.346   3.860
   77CLA    CLA  223   2.973   3.221   5.598
   78CLA    CLA  224   0.750   2.085   0.132
   79CLA    CLA  225   7.035   7.217   0.593
   80CLA    CLA  226   4.999   0.193   0.710
   81CLA    CLA  227   7.938   0.475   2.302
   82CLA    CLA  228   6.999   0.933   6.304
   83CLA    CLA  229   7.735   3.724   4.881
   84CLA    CLA  230   5.290   1.550   5.321
   85CLA    CLA  231   0.311   4.784   5.717
   86CLA    CLA  232   6.009   4.534   2.520
   87CLA    CLA  233   0.315   4.712   2.132
   88CLA    CLA  234   0.858   6.893   3.149
   89CLA    CLA  235   7.284   4.300   5.825
   90CLA    CLA  236   2.223   0.153   1.819
   91CLA    CLA  237   4.939   0.276   1.670
   92CLA    CLA  238   8.074   1.081   0.320
   93CLA    CLA  239   4.604   1.350   4.150
   94CLA    CLA  240   4.740   4.929   6.493
   95CLA    CLA  241   7.287   4.481   0.622
   96CLA    CLA  242   7.587   0.543   4.674
   97CLA    CLA  243   5.051   4.456   2.865
   98CLA    CLA  244   1.405   4.170   5.795
   99CLA    CLA  245   4.405   3.788   0.908
  100CLA    CLA  246   2.222   5.481   2.180
  101CLA    CLA  247   6.242   1.857   0.731
  102TIP3   OH2  248   4.713   2.216   2.813
  102TIP3    H1  249   4.804   2.243   2.808
  102TIP3    H2  250   4.691   2.219   2.906
  103TIP3   OH2  251   4.571   7.325   5.248
  103TIP3    H1  252   4.513   7.303   5.321
  103TIP3    H2  253   4.537   7.275   5.175
  104TIP3   OH2  254   2.177   2.405   5.337
  104TIP3    H1  255   2.253   2.439   5.289
  104TIP3    H2  256   2.102   2.433   5.285
  105TIP3   OH2  257   2.698   6.542   1.078
  105TIP3    H1  258   2.736   6.569   0.994
  105TIP3    H2  259   2.625   6.602   1.093
  106TIP3   OH2  260   7.439   3.744   6.446
  106TIP3    H1  261   7.468   3.672   6.390
  106TIP3    H2  262   7.348   3.723   6.467
  107TIP3   OH2  263   5.054   2.984   0.862
  107TIP3    H1  264   4.961   2.992   0.841
  107TIP3    H2  265   5.093   3.065   0.830
  108TIP3   OH2  266   2.920   6.708   5.963
  108TIP3    H1  267   2.983   6.779   5.974
  108TIP3    H2  268   2.957   6.654   5.893
  109TIP3   OH2  269   4.398   1.626   1.841
  109TIP3    H1  270   4.493   1.618   1.842
  109TIP3    H2  271   4.366   1.539   1.865
  110TIP3   OH2  272   7.524   3.203   2.371
  110TIP3    H1  273   7.524   3.161   2.457
  110TIP3    H2  274   7.561   3.290   2.386
  111TIP3   OH2  275   7.736   3.508   5.552
  111TIP3    H1  276   7.823   3.526   5.517
  111TIP3    H2  277   7.678   3.509   5.476
  112TIP3   OH2  278   5.403   5.783   4.511
  112TIP3    H1  279   5.412   5.850   4.443
  112TIP3    H2  280   5.351   5.714   4.470
  113TIP3   OH2  281   6.328   4.084   1.992
  113TIP3    H1  282   6.380   4.032   2.053
  113TIP3    H2  283   6.246   4.036   1.985
  114TIP3   OH2  284   7.000   0.796   2.929
  114TIP3    H1  285   6.970   0.705   2.918
  114TIP3    H2  286   6.950   0.829   3.004
  115TIP3   OH2  287   7.141   0.924   0.524
  115TIP3    H1  288   7.233   0.908   0.545
  115TIP3    H2  289   7.093   0.856   0.572
  116TIP3   OH2  290   3.392   3.266   3.142
  116TIP3    H1  291   3.349   3.337   3.094
  116TIP3    H2  292   3.467   3.307   3.184
  117TIP3   OH2  293   3.148   6.491   5.524
  117TIP3    H1  294   3.212   6.425   5.497
  117TIP3    H2  295   3.085   6.494   5.452
  118TIP3   OH2  296   7.871   4.327   0.352
  118TIP3    H1  297   7.825   4.312   0.435
  118TIP3    H2  298   7.854   4.247   0.302
  119TIP3   OH2  299   1.866   2.559   1.936
  119TIP3    H1  300   1.855   2.536   1.844
  119TIP3    H2  301   1.794   2.514   1.981
  120TIP3   OH2  302   1.582   6.585   3.977
  120TIP3    H1  303   1.637   6.618   3.906
  120TIP3    H2  304   1.632   6.605   4.057
  121TIP3   OH2  305   1.030   2.058   4.403
  121TIP3    H1  306   0.943   2.033   4.433
  121TIP3    H2  307   1.090   2.001   4.452
  122TIP3   OH2  308   0.507   5.054   0.991
  122TIP3    H1  309   0.600   5.064   0.974
  122TIP3    H2  310   0.498   5.067   1.085
  123TIP3   OH2  311   5.941   5.796   3.628
  123TIP3    H1  312   5.903   5.726   3.682
  123TIP3    H2  313   5.891   5.874   3.651
  124TIP3   OH2  314   4.462   6.680   4.567
  124TIP3    H1  315   4.370   6.668   4.592
  124TIP3    H2  316   4.506   6.705   4.649
  125TIP3   OH2  317   7.895   3.953   4.293
  125TIP3    H1  318   7.832   4.021   4.319
  125TIP3    H2  319   7.923   3.914   4.376
  126TIP3   OH2  320   2.665   3.922   6.558
  126TIP3    H1  321   2.644   4.010   6.590
  126TIP3    H2  322   2.686   3.872   6.637
  127TIP3   OH2  323   6.240   0.389   4.289
  127TIP3    H1  324   6.250   0.449   4.363
  127TIP3    H2  325   6.329   0.356   4.273
  128TIP3   OH2  326   2.953   3.868   6.268
  128TIP3    H1  327   2.891   3.805   6.232
  128TIP3    H2  328   3.026   3.868   6.207
  129TIP3   OH2  329   5.867   1.360   6.578
  129TIP3    H1  330   5.793   1.417   6.597
  129TIP3    H2  331   5.886   1.316   6.660
  130TIP3   OH2  332   2.269   5.391   5.421
  130TIP3    H1  333   2.279   5.346   5.338
  130TIP3    H2  334   2.353   5.435   5.436
  131TIP3   OH2  335   1.360   2.518   1.308
  131TIP3    H1  336   1.429   2.572   1.269
  131TIP3    H2  337   1.285   2.530   1.250
  132TIP3   OH2  338   0.853   6.171   5.592
  132TIP3    H1  339   0.808   6.155   5.509
  132TIP3    H2  340   0.783   6.186   5.655
  133TIP3   OH2  341   6.208   2.507   5.186
  133TIP3    H1  342   6.179   2.595   5.166
  133TIP3    H2  343   6.253   2.478   5.106
  134TIP3   OH2  344   2.989   1.390   5.822
  134TIP3    H1  345   3.015   1.316   5.877
  134TIP3    H2  346   2.969   1.460   5.884
  135TIP3   OH2  347   8.150   1.496   4.938
  135TIP3    H1  348   8.060   1.462   4.933
  135TIP3    H2  349   8.202   1.423   4.970
  136TIP3   OH2  350   5.328   2.593   4.140
  136TIP3    H1  351   5.371   2.629   4.062
  136TIP3    H2  352   5.297   2.507   4.112
  137TIP3   OH2  353   1.473   2.652   4.931
  137TIP3    H1  354   1.422   2.603   4.867
  137TIP3    H2  355   1.542   2.591   4.958
  138TIP3   OH2  356   6.395  -0.056   6.258
  138TIP3    H1  357   6.489  -0.051   6.238
  138TIP3    H2  358   6.369   0.035   6.271
  139TIP3   OH2  359   7.241   7.684   0.436
  139TIP3    H1  360   7.176   7.616   0.419
  139TIP3    H2  361   7.322   7.649   0.398
  140TIP3   OH2  362   2.212   6.767   5.398
  140TIP3    H1  363   2.238   6.675   5.394
  140TIP3    H2  364   2.284   6.814   5.354
  141TIP3   OH2  365   2.760   6.143   2.305
  141TIP3    H1  366   2.759   6.233   2.273
  141TIP3    H2  367   2.668   6.116   2.304
  142TIP3   OH2  368   1.691   4.517   3.276
  142TIP3    H1  369   1.715   4.428   3.303
  142TIP3    H2  370   1.645   4.553   3.351
  143TIP3   OH2  371   5.535   1.721   1.617
  143TIP3    H1  372   5.511   1.629   1.622
  143TIP3    H2  373   5.523   1.745   1.525
  144TIP3   OH2  374   6.863   6.672   4.506
  144TIP3    H1  375   6.811   6.597   4.476
  144TIP3    H2  376   6.803   6.746   4.500
  145TIP3   OH2  377   0.702   1.701   6.768
  145TIP3    H1  378   0.610   1.694   6.793
  145TIP3    H2  379   0.731   1.611   6.755
  146TIP3   OH2  380   5.839   0.270   1.391
  146TIP3    H1  381   5.843   0.205   1.321
  146TIP3    H2  382   5.745   0.287   1.402
  147TIP3   OH2  383   4.612   1.372   2.486
  147TIP3    H1  384   4.592   1.388   2.394
  147TIP3    H2  385   4.528   1.350   2.525
  148TIP3   OH2  386   7.280   2.530   2.890
  148TIP3    H1  387   7.364   2.488   2.907
  148TIP3    H2  388   7.300   2.623   2.878
  149TIP3   OH2  389   7.077   7.439   6.571
  149TIP3    H1  390   7.026   7.514   6.537
  149TIP3    H2  391   7.029   7.362   6.540
  150TIP3   OH2  392   6.028   2.266   5.102
  150TIP3    H1  393   6.011   2.359   5.120
  150TIP3    H2  394   6.022   2.260   5.006
  151TIP3   OH2  395   7.087   0.628   1.458
  151TIP3    H1  396   7.078   0.664   1.370
  151TIP3    H2  397   7.181   0.629   1.476
  152TIP3   OH2  398   5.730   4.243   6.502
  152TIP3    H1  399   5.668   4.304   6.461
  152TIP3    H2  400   5.711   4.251   6.596
  153TIP3   OH2  401   7.464   3.658   1.968
  153TIP3    H1  402   7.466   3.614   1.883
  153TIP3    H2  403   7.382   3.708   1.967
  154TIP3   OH2  404   7.651   6.740   0.719
  154TIP3    H1  405   7.573   6.688   0.738
  154TIP3    H2  406   7.687   6.763   0.804
  155TIP3   OH2  407   2.909   6.642   1.719
  155TIP3    H1  408   2.870   6.648   1.631
  155TIP3    H2  409   2.948   6.555   1.722
  156TIP3   OH2  410   1.494   6.010   6.625
  156TIP3    H1  411   1.436   6.072   6.669
  156TIP3    H2  412   1.449   5.926   6.632
  157TIP3   OH2  413   5.877   4.145   0.196
  157TIP3    H1  414   5.849   4.054   0.190
  157TIP3    H2  415   5.851   4.173   0.284
  158TIP3   OH2  416   6.251   0.085   4.000
  158TIP3    H1  417   6.225   0.166   3.955
  158TIP3    H2  418   6.346   0.081   3.989
  159TIP3   OH2  419   7.862   0.922   0.152
  159TIP3    H1  420   7.898   0.834   0.141
  159TIP3    H2  421   7.921   0.965   0.214
  160TIP3   OH2  422   1.489   1.220   4.430
  160TIP3    H1  423   1.584   1.231   4.429
  160TIP3    H2  424   1.455   1.310   4.436
  161TIP3   OH2  425   2.106   1.679   6.159
  161TIP3    H1  426   2.166   1.743   6.122
  161TIP3    H2  427   2.060   1.725   6.228
  162TIP3   OH2  428   6.626   4.412   3.156
  162TIP3    H1  429   6.568   4.363   3.098
  162TIP3    H2  430   6.711   4.411   3.110
  163TIP3   OH2  431   1.131   2.169   2.083
  163TIP3    H1  432   1.181   2.211   2.013
  163TIP3    H2  433   1.046   2.149   2.044
  164TIP3   OH2  434   7.628   3.498   5.316
  164TIP3    H1  435   7.623   3.425   5.253
  164TIP3    H2  436   7.676   3.566   5.270
  165TIP3   OH2  437   3.120   0.479   1.732
  165TIP3    H1  438   3.184   0.537   1.772
  165TIP3    H2  439   3.052   0.537   1.699
  166TIP3   OH2  440   3.283   0.243   1.011
  166TIP3    H1  441   3.366   0.282   0.986
  166TIP3    H2  442   3.277   0.163   0.959
  167TIP3   OH2  443   0.620   0.143   1.101
  167TIP3    H1  444   0.665   0.068   1.141
  167TIP3    H2  445   0.626   0.212   1.168
  168TIP3   OH2  446   4.550   2.101   2.632
  168TIP3    H1  447   4.603   2.106   2.553
  168TIP3    H2  448   4.603   2.145   2.699
  169TIP3   OH2  449   2.479   7.355   6.564
  169TIP3    H1  450   2.451   7.285   6.623
  169TIP3    H2  451   2.401   7.375   6.512
  170TIP3   OH2  452   2.196   7.709   0.624
  170TIP3    H1  453   2.201   7.802   0.644
  170TIP3    H2  454   2.188   7.666   0.710
  171TIP3   OH2  455   1.554   7.195   6.154
  171TIP3    H1  456   1.567   7.104   6.129
  171TIP3    H2  457   1.520   7.236   6.075
  172TIP3   OH2  458   1.505   3.647   0.139
  172TIP3    H1  459   1.440   3.694   0.191
  172TIP3    H2  460   1.522   3.704   0.064
  173TIP3   OH2  461   0.925   7.391   1.522
  173TIP3    H1  462   0.970   7.443   1.456
  173TIP3    H2  463   0.951   7.301   1.504
  174TIP3   OH2  464   6.013   1.191   4.636
  174TIP3    H1  465   6.005   1.171   4.729
  174TIP3    H2  466   6.107   1.199   4.621
  175TIP3   OH2  467   7.073   5.945  -0.013
  175TIP3    H1  468   7.166   5.936   0.007
  175TIP3    H2  469   7.055   6.038  -0.005
  176TIP3   OH2  470   4.312   0.977   5.267
  176TIP3    H1  471   4.398   0.996   5.302
  176TIP3    H2  472   4.259   0.952   5.343
  177TIP3   OH2  473   7.038   1.886   2.065
  177TIP3    H1  474   7.120   1.920   2.029
  177TIP3    H2  475   6.971   1.913   2.002
  178TIP3   OH2  476   7.303   4.615   5.826
  178TIP3    H1  477   7.310   4.646   5.916
  178TIP3    H2  478   7.270   4.525   5.835
  179TIP3   OH2  479   4.993   5.742   2.014
  179TIP3    H1  480   4.969   5.664   1.965
  179TIP3    H2  481   4.991   5.715   2.105
  180TIP3   OH2  482   4.652   2.109   5.463
  180TIP3    H1  483   4.740   2.145   5.450
  180TIP3    H2  484   4.650   2.030   5.410
  181TIP3   OH2  485   2.727   3.295   3.307
  181TIP3    H1  486   2.821   3.277   3.295
  181TIP3    H2  487   2.684   3.238   3.243
  182TIP3   OH2  488   0.062   3.515   6.090
  182TIP3    H1  489   0.073   3.603   6.126
  182TIP3    H2  490   0.139   3.501   6.034
  183TIP3   OH2  491   5.885   1.715   3.493
  183TIP3    H1  492   5.963   1.766   3.471
  183TIP3    H2  493   5.871   1.731   3.586
  184TIP3   OH2  494   4.328   1.511   3.120
  184TIP3    H1  495   4.273   1.544   3.049
  184TIP3    H2  496   4.385   1.446   3.078
  185TIP3   OH2  497   1.726   6.044   6.779
  185TIP3    H1  498   1.746   6.133   6.751
  185TIP3    H2  499   1.654   6.016   6.722
  186TIP3   OH2  500   3.522   3.931   2.584
  186TIP3    H1  501   3.564   3.847   2.567
  186TIP3    H2  502   3.450   3.911   2.643
  187TIP3   OH2  503   1.812   4.908   5.759
  187TIP3    H1  504   1.720   4.880   5.755
  187TIP3    H2  505   1.847   4.861   5.835
  188TIP3   OH2  506   4.958   1.343   3.764
  188TIP3    H1  507   4.867   1.344   3.737
  188TIP3    H2  508   4.985   1.251   3.755
  189TIP3   OH2  509   4.046   0.290   1.079
  189TIP3    H1  510   4.085   0.270   1.164
  189TIP3    H2  511   4.030   0.205   1.039
  190TIP3   OH2  512   1.770   5.816   2.335
  190TIP3    H1  513   1.843   5.756   2.320
  190TIP3    H2  514   1.746   5.848   2.248
  191TIP3   OH2  515   7.722   1.362   6.148
  191TIP3    H1  516   7.803   1.325   6.113
  191TIP3    H2  517   7.730   1.355   6.243
  192TIP3   OH2  518   1.297   7.551   6.693
  192TIP3    H1  519   1.204   7.533   6.675
  192TIP3    H2  520   1.298   7.583   6.783
  193TIP3   OH2  521   1.950   6.475   4.225
  193TIP3    H1  522   1.979   6.405   4.166
  193TIP3    H2  523   1.894   6.531   4.170
  194TIP3   OH2  524   3.877   4.216   1.526
  194TIP3    H1  525   3.972   4.214   1.517
  194TIP3    H2  526   3.844   4.221   1.436
  195TIP3   OH2  527   1.815   1.360   4.353
  195TIP3    H1  528   1.900   1.343   4.395
  195TIP3    H2  529   1.820   1.314   4.269
  196TIP3   OH2  530   0.626   4.929   3.785
  196TIP3    H1  531   0.668   4.919   3.871
  196TIP3    H2  532   0.551   4.986   3.801
  197TIP3   OH2  533   6.168   6.841   0.106
  197TIP3    H1  534   6.180   6.748   0.084
  197TIP3    H2  535   6.211   6.888   0.035
  198TIP3   OH2  536   5.841   5.810   3.976
  198TIP3    H1  537   5.860   5.721   4.007
  198TIP3    H2  538   5.755   5.804   3.936
  199TIP3   OH2  539   1.195   6.500   5.668
  199TIP3    H1  540   1.225   6.488   5.758
  199TIP3    H2  541   1.245   6.575   5.636
  200TIP3   OH2  542   7.340   3.362   0.215
  200TIP3    H1  543   7.355   3.272   0.242
  200TIP3    H2  544   7.245   3.374   0.218
  201TIP3   OH2  545   1.874   4.933   2.089
  201TIP3    H1  546   1.865   4.952   2.182
  201TIP3    H2  547   1.847   4.841   2.081
  202TIP3   OH2  548   7.866   2.742   6.351
  202TIP3    H1  549   7.807   2.767   6.422
  202TIP3    H2  550   7.809   2.725   6.277
  203TIP3   OH2  551   8.144   2.653   4.017
  203TIP3    H1  552   8.223   2.613   4.054
  203TIP3    H2  553   8.088   2.670   4.093
  204TIP3   OH2  554   1.888   7.640   4.034
  204TIP3    H1  555   1.901   7.551   4.065
  204TIP3    H2  556   1.959   7.690   4.074
  205TIP3   OH2  557   2.143   0.925   5.380
  205TIP3    H1  558   2.121   0.960   5.294
  205TIP3    H2  559   2.065   0.876   5.407
  206TIP3   OH2  560   6.488   1.256   4.758
  206TIP3    H1  561   6.499   1.232   4.850
  206TIP3    H2  562   6.545   1.195   4.711
  207TIP3   OH2  563   6.091   0.654   6.124
  207TIP3    H1  564   6.003   0.670   6.090
  207TIP3    H2  565   6.091   0.561   6.150
  208TIP3   OH2  566   2.533   7.198   3.929
  208TIP3    H1  567   2.611   7.205   3.985
  208TIP3    H2  568   2.547   7.116   3.880
  209TIP3   OH2  569   3.306   4.126   2.632
  209TIP3    H1  570   3.369   4.083   2.574
  209TIP3    H2  571   3.291   4.063   2.702
  210TIP3   OH2  572   2.390   7.398   5.005
  210TIP3    H1  573   2.375   7.490   4.984
  210TIP3    H2  574   2.387   7.394   5.101
  211TIP3   OH2  575   3.122   1.566   5.638
  211TIP3    H1  576   3.087   1.495   5.692
  211TIP3    H2  577   3.071   1.562   5.557
  212TIP3   OH2  578   3.631   3.143   1.280
  212TIP3    H1  579   3.588   3.059   1.299
  212TIP3    H2  580   3.564   3.209   1.295
  213TIP3   OH2  581   6.200   3.784   2.730
  213TIP3    H1  582   6.264   3.724   2.690
  213TIP3    H2  583   6.187   3.748   2.818
  214TIP3   OH2  584   7.799   6.673   4.812
  214TIP3    H1  585   7.750   6.683   4.894
  214TIP3    H2  586   7.861   6.746   4.811
  215TIP3   OH2  587   6.644   6.090   3.500
  215TIP3    H1  588   6.726   6.093   3.549
  215TIP3    H2  589   6.581   6.134   3.556
  216TIP3   OH2  590   7.237   7.229   5.196
  216TIP3    H1  591   7.254   7.164   5.264
  216TIP3    H2  592   7.164   7.193   5.146
  217TIP3   OH2  593   6.356   4.463   5.524
  217TIP3    H1  594   6.382   4.377   5.493
  217TIP3    H2  595   6.431   4.494   5.575
  218TIP3   OH2  596   4.628   1.838   2.790
  218TIP3    H1  597   4.577   1.911   2.754
  218TIP3    H2  598   4.600   1.762   2.738
  219TIP3   OH2  599   0.110   4.880   5.496
  219TIP3    H1  600   0.115   4.975   5.510
  219TIP3    H2  601   0.185   4.845   5.544
  220TIP3   OH2  602   1.973   1.664   4.913
  220TIP3    H1  603   1.910   1.596   4.938
  220TIP3    H2  604   2.046   1.616   4.875
  221TIP3   OH2  605   6.685   2.553   3.429
  221TIP3    H1  606   6.753   2.591   3.374
  221TIP3    H2  607   6.686   2.459   3.408
  222TIP3   OH2  608   4.387   2.553   3.149
  222TIP3    H1  609   4.294   2.569   3.132
  222TIP3    H2  610   4.390   2.514   3.236
  223TIP3   OH2  611   5.529   6.926   3.545
  223TIP3    H1  612   5.573   6.996   3.497
  223TIP3    H2  613   5.569   6.927   3.632
  224TIP3   OH2  614   8.159   1.640   3.383
  224TIP3    H1  615   8.117   1.726   3.391
  224TIP3    H2  616   8.188   1.618   3.472
  225TIP3   OH2  617   7.979   0.632   0.957
  225TIP3    H1  618   8.069   0.655   0.979
  225TIP3    H2  619   7.957   0.561   1.017
  226TIP3   OH2  620   4.772   2.128   4.079
  226TIP3    H1  621   4.760   2.164   3.991
  226TIP3    H2  622   4.802   2.038   4.064
  227TIP3   OH2  623   6.652   7.024   0.529
  227TIP3    H1  624   6.645   7.070   0.446
  227TIP3    H2  625   6.688   7.089   0.589
  228TIP3   OH2  626   0.779   1.486   4.523
  228TIP3    H1  627   0.697   1.502   4.477
  228TIP3    H2  628   0.847   1.523   4.466
  229TIP3   OH2  629   7.607   1.226   5.874
  229TIP3    H1  630   7.611   1.164   5.948
  229TIP3    H2  631   7.698   1.239   5.849
  230TIP3   OH2  632   3.968   5.882   4.997
  230TIP3    H1  633   3.955   5.960   4.942
  230TIP3    H2  634   3.883   5.840   5.000
  231TIP3   OH2  635   1.661   6.885   0.936
  231TIP3    H1  636   1.612   6.939   0.874
  231TIP3    H2  637   1.741   6.935   0.953
  232TIP3   OH2  638   4.826   2.007   5.104
  232TIP3    H1  639   4.831   2.078   5.041
  232TIP3    H2  640   4.861   1.931   5.058
  233TIP3   OH2  641   0.302   5.069   3.127
  233TIP3    H1  642   0.247   5.075   3.205
  233TIP3    H2  643   0.282   5.148   3.076
  234TIP3   OH2  644   3.818   1.637   4.948
  234TIP3    H1  645   3.817   1.721   4.902
  234TIP3    H2  646   3.851   1.657   5.036
  235TIP3   OH2  647   7.478   4.808   2.661
  235TIP3    H1  648   7.393   4.848   2.650
  235TIP3    H2  649   7.478   4.734   2.599
  236TIP3   OH2  650   0.503   3.829   1.213
  236TIP3    H1  651   0.431   3.776   1.247
  236TIP3    H2  652   0.541   3.872   1.290
  237TIP3   OH2  653   3.836   4.745   5.343
  237TIP3    H1  654   3.866   4.782   5.426
  237TIP3    H2  655   3.764   4.802   5.315
  238TIP3   OH2  656   4.577   7.661   1.923
  238TIP3    H1  657   4.535   7.695   1.844
  238TIP3    H2  658   4.543   7.715   1.994
  239TIP3   OH2  659   1.642   4.156   5.238
  239TIP3    H1  660   1.736   4.173   5.242
  239TIP3    H2  661   1.614   4.150   5.329
  240TIP3   OH2  662   7.544   6.981   0.483
  240TIP3    H1  663   7.602   6.908   0.508
  240TIP3    H2  664   7.495   7.000   0.563
  241TIP3   OH2  665   6.931   3.442   1.616
  241TIP3    H1  666   6.973   3.387   1.550
  241TIP3    H2  667   7.003   3.475   1.669
  242TIP3   OH2  668   7.405   3.231   1.105
  242TIP3    H1  669   7.499   3.238   1.087
  242TIP3    H2  670   7.389   3.297   1.173
  243TIP3   OH2  671   7.147   4.975   5.326
  243TIP3    H1  672   7.052   4.972   5.338
  243TIP3    H2  673   7.163   4.920   5.250
  244TIP3   OH2  674   7.079   6.951   1.612
  244TIP3    H1  675   7.039   7.000   1.684
  244TIP3    H2  676   7.008   6.942   1.548
  245TIP3   OH2  677   5.566   5.603   3.209
  245TIP3    H1  678   5.549   5.690   3.174
  245TIP3    H2  679   5.596   5.552   3.134
  246TIP3   OH2  680   1.982   3.315   2.159
  246TIP3    H1  681   1.963   3.229   2.198
  246TIP3    H2  682   1.904   3.336   2.109
  247TIP3   OH2  683   7.248   6.728   5.985
  247TIP3    H1  684   7.184   6.693   6.048
  247TIP3    H2  685   7.194   6.769   5.917
  248TIP3   OH2  686   4.303   3.691   3.686
  248TIP3    H1  687   4.285   3.632   3.612
  248TIP3    H2  688   4.335   3.771   3.645
  249TIP3   OH2  689   2.860   4.984   1.242
  249TIP3    H1  690   2.922   5.054   1.225
  249TIP3    H2  691   2.834   4.954   1.155
  250TIP3   OH2  692   7.841   7.241   5.546
  250TIP3    H1  693   7.816   7.201   5.463
  250TIP3    H2  694   7.935   7.257   5.537
  251TIP3   OH2  695   5.548   0.996   0.478
  251TIP3    H1  696   5.456   1.004   0.453
  251TIP3    H2  697   5.551   1.022   0.570
  252TIP3   OH2  698   2.506   6.106   3.710
  252TIP3    H1  699   2.556   6.180   3.677
  252TIP3    H2  700   2.486   6.129   3.801
  253TIP3   OH2  701   6.523   4.051   2.921
  253TIP3    H1  702   6.450   4.107   2.897
  253TIP3    H2  703   6.483   3.974   2.960
  254TIP3   OH2  704   6.637   5.529   2.150
  254TIP3    H1  705   6.668   5.620   2.146
  254TIP3    H2  706   6.570   5.524   2.083
  255TIP3   OH2  707   1.826   5.015   3.852
  255TIP3    H1  708   1.839   5.083   3.786
  255TIP3    H2  709   1.912   5.004   3.893
  256TIP3   OH2  710   5.887   0.683   2.892
  256TIP3    H1  711   5.858   0.705   2.803
  256TIP3    H2  712   5.879   0.765   2.940
  257TIP3   OH2  713   7.190   5.218   0.216
  257TIP3    H1  714   7.178   5.142   0.159
  257TIP3    H2  715   7.127   5.206   0.286
  258TIP3   OH2  716   3.282   5.743   3.930
  258TIP3    H1  717   3.270   5.670   3.991
  258TIP3    H2  718   3.240   5.818   3.972
  259TIP3   OH2  719   6.615   4.995   1.233
  259TIP3    H1  720   6.605   4.937   1.157
  259TIP3    H2  721   6.600   5.083   1.197
  260TIP3   OH2  722   1.002   2.921   3.779
  260TIP3    H1  723   0.990   2.979   3.704
  260TIP3    H2  724   0.936   2.950   3.843
  261TIP3   OH2  725   6.479   2.147   0.528
  261TIP3    H1  726   6.443   2.076   0.474
  261TIP3    H2  727   6.550   2.106   0.577
  262TIP3   OH2  728   1.031   3.741   5.861
  262TIP3    H1  729   1.004   3.808   5.799
  262TIP3    H2  730   1.119   3.716   5.831
  263TIP3   OH2  731   4.942   3.087   4.475
  263TIP3    H1  732   5.013   3.033   4.510
  263TIP3    H2  733   4.902   3.126   4.553
  264TIP3   OH2  734   0.105   5.821   0.415
  264TIP3    H1  735   0.064   5.880   0.351
  264TIP3    H2  736   0.040   5.813   0.485
  265TIP3   OH2  737   1.773   4.090   3.466
  265TIP3    H1  738   1.762   4.139   3.547
  265TIP3    H2  739   1.792   4.000   3.494
  266TIP3   OH2  740   0.087   1.511   3.898
  266TIP3    H1  741   0.099   1.544   3.987
  266TIP3    H2  742   0.173   1.479   3.873
  267TIP3   OH2  743   2.356   4.551   5.556
  267TIP3    H1  744   2.380   4.470   5.510
  267TIP3    H2  745   2.431   4.609   5.543
  268TIP3   OH2  746   7.108   5.776   5.728
  268TIP3    H1  747   7.125   5.780   5.634
  268TIP3    H2  748   7.194   5.769   5.768
  269TIP3   OH2  749   6.689   3.517   0.786
  269TIP3    H1  750   6.708   3.604   0.822
  269TIP3    H2  751   6.756   3.461   0.823
  270TIP3   OH2  752   5.386   0.749   0.844
  270TIP3    H1  753   5.340   0.744   0.928
  270TIP3    H2  754   5.319   0.728   0.779
  271TIP3   OH2  755   5.875   4.177   4.411
  271TIP3    H1  756   5.964   4.204   4.388
  271TIP3    H2  757   5.819   4.225   4.351
  272TIP3   OH2  758   3.159   0.717   4.556
  272TIP3    H1  759   3.081   0.770   4.574
  272TIP3    H2  760   3.232   0.777   4.570
  273TIP3   OH2  761   1.159   0.333   2.315
  273TIP3    H1  762   1.220   0.393   2.359
  273TIP3    H2  763   1.180   0.247   2.350
  274TIP3   OH2  764   6.584   0.747   3.995
  274TIP3    H1  765   6.518   0.696   4.042
  274TIP3    H2  766   6.539   0.828   3.971
  275TIP3   OH2  767   2.707   1.659   6.011
  275TIP3    H1  768   2.693   1.736   6.067
  275TIP3    H2  769   2.802   1.652   6.005
  276TIP3   OH2  770   7.632   2.019   5.953
  276TIP3    H1  771   7.680   2.070   5.887
  276TIP3    H2  772   7.699   1.987   6.012
  277TIP3   OH2  773   2.721   0.406   4.017
  277TIP3    H1  774   2.755   0.332   3.966
  277TIP3    H2  775   2.646   0.370   4.064
  278TIP3   OH2  776   7.953   2.729   0.611
  278TIP3    H1  777   7.997   2.786   0.674
  278TIP3    H2  778   7.959   2.642   0.651
  279TIP3   OH2  779   4.107   1.656   1.771
  279TIP3    H1  780   4.042   1.647   1.701
  279TIP3    H2  781   4.190   1.668   1.726
  280TIP3   OH2  782   0.701   1.378   4.859
  280TIP3    H1  783   0.625   1.352   4.807
  280TIP3    H2  784   0.664   1.413   4.940
  281TIP3   OH2  785   0.939   1.597   5.684
  281TIP3    H1  786   0.904   1.654   5.615
  281TIP3    H2  787   0.948   1.512   5.642
  282TIP3   OH2  788   4.133   1.854   3.447
  282TIP3    H1  789   4.173   1.858   3.534
  282TIP3    H2  790   4.207   1.840   3.388
  283TIP3   OH2  791   7.131   2.158   1.699
  283TIP3    H1  792   7.182   2.177   1.621
  283TIP3    H2  793   7.144   2.235   1.755
  284TIP3   OH2  794   7.366   4.473   2.943
  284TIP3    H1  795   7.386   4.443   2.855
  284TIP3    H2  796   7.427   4.425   2.999
  285TIP3   OH2  797   1.808   4.015   1.226
  285TIP3    H1  798   1.740   3.956   1.259
  285TIP3    H2  799   1.760   4.077   1.171
  286TIP3   OH2  800   6.816   5.746   4.236
  286TIP3    H1  801   6.774   5.789   4.162
  286TIP3    H2  802   6.749   5.687   4.271
  287TIP3   OH2  803   7.262   1.480   5.315
  287TIP3    H1  804   7.210   1.405   5.343
  287TIP3    H2  805   7.204   1.531   5.259
  288TIP3   OH2  806   5.041   4.314   4.325
  288TIP3    H1  807   5.072   4.249   4.389
  288TIP3    H2  808   5.065   4.399   4.363
  289TIP3   OH2  809   4.757   6.550   0.903
  289TIP3    H1  810   4.745   6.529   0.995
  289TIP3    H2  811   4.694   6.494   0.857
  290TIP3   OH2  812   7.140   5.612   4.763
  290TIP3    H1  813   7.151   5.545   4.695
  290TIP3    H2  814   7.225   5.615   4.807
  291TIP3   OH2  815   7.242   3.521   2.266
  291TIP3    H1  816   7.198   3.585   2.321
  291TIP3    H2  817   7.335   3.534   2.283
  292TIP3   OH2  818   4.407   7.438   4.267
  292TIP3    H1  819   4.350   7.375   4.310
  292TIP3    H2  820   4.414   7.406   4.177
  293TIP3   OH2  821   8.136   5.522   1.672
  293TIP3    H1  822   8.177   5.465   1.606
  293TIP3    H2  823   8.046   5.534   1.641
  294TIP3   OH2  824   7.598   4.454   0.526
  294TIP3    H1  825   7.510   4.436   0.560
  294TIP3    H2  826   7.648   4.376   0.550
  295TIP3   OH2  827   4.213   0.357   5.346
  295TIP3    H1  828   4.174   0.437   5.311
  295TIP3    H2  829   4.168   0.343   5.430
  296TIP3   OH2  830   4.343   1.785   3.240
  296TIP3    H1  831   4.415   1.793   3.303
  296TIP3    H2  832   4.343   1.693   3.216
  297TIP3   OH2  833   0.545   7.250   1.359
  297TIP3    H1  834   0.595   7.189   1.305
  297TIP3    H2  835   0.534   7.205   1.442
  298TIP3   OH2  836   6.664   0.116   4.541
  298TIP3    H1  837   6.571   0.110   4.563
  298TIP3    H2  838   6.710   0.081   4.617
  299TIP3   OH2  839   4.790   3.936   3.395
  299TIP3    H1  840   4.707   3.983   3.391
  299TIP3    H2  841   4.855   3.998   3.361
  300TIP3   OH2  842   2.484   6.667   1.169
  300TIP3    H1  843   2.490   6.741   1.230
  300TIP3    H2  844   2.390   6.646   1.166
  301TIP3   OH2  845   6.883   6.124   3.620
  301TIP3    H1  846   6.935   6.194   3.659
  301TIP3    H2  847   6.948   6.064   3.582
  302TIP3   OH2  848   5.583   7.665   3.943
  302TIP3    H1  849   5.622   7.578   3.948
  302TIP3    H2  850   5.497   7.655   3.983
  303TIP3   OH2  851   7.069   6.687   6.274
  303TIP3    H1  852   7.029   6.640   6.347
  303TIP3    H2  853   7.014   6.666   6.199
  304TIP3   OH2  854   2.822   4.321   0.361
  304TIP3    H1  855   2.838   4.397   0.306
  304TIP3    H2  856   2.869   4.340   0.442
  305TIP3   OH2  857   6.869   6.353   2.865
  305TIP3    H1  858   6.905   6.349   2.776
  305TIP3    H2  859   6.816   6.274   2.873
  306TIP3   OH2  860   0.723   5.556   6.423
  306TIP3    H1  861   0.678   5.471   6.431
  306TIP3    H2  862   0.815   5.535   6.438
  307TIP3   OH2  863   4.922   7.637   4.872
  307TIP3    H1  864   4.961   7.720   4.900
  307TIP3    H2  865   4.984   7.570   4.902
  308TIP3   OH2  866   0.564   4.463   4.224
  308TIP3    H1  867   0.620   4.525   4.272
  308TIP3    H2  868   0.569   4.382   4.275
  309TIP3   OH2  869   2.944   6.849   2.195
  309TIP3    H1  870   2.972   6.889   2.112
  309TIP3    H2  871   3.023   6.850   2.250
  310TIP3   OH2  872   5.761   5.633   1.889
  310TIP3    H1  873   5.808   5.711   1.860
  310TIP3    H2  874   5.753   5.644   1.984
  311TIP3   OH2  875   0.876   2.611   0.732
  311TIP3    H1  876   0.960   2.589   0.692
  311TIP3    H2  877   0.813   2.552   0.689
  312TIP3   OH2  878   8.169   0.444   0.802
  312TIP3    H1  879   8.211   0.385   0.865
  312TIP3    H2  880   8.215   0.428   0.719
  313TIP3   OH2  881   2.401   3.257   0.229
  313TIP3    H1  882   2.350   3.320   0.280
  313TIP3    H2  883   2.335   3.207   0.180
  314TIP3   OH2  884   0.194   0.935   5.694
  314TIP3    H1  885   0.205   0.905   5.604
  314TIP3    H2  886   0.257   0.884   5.745
  315TIP3   OH2  887   3.846   4.250   0.266
  315TIP3    H1  888   3.901   4.241   0.344
  315TIP3    H2  889   3.853   4.166   0.221
  316TIP3   OH2  890   3.928   6.846   0.131
  316TIP3    H1  891   4.000   6.910   0.134
  316TIP3    H2  892   3.971   6.762   0.146
  317TIP3   OH2  893   5.559   2.796   6.121
  317TIP3    H1  894   5.487   2.788   6.184
  317TIP3    H2  895   5.539   2.876   6.072
  318TIP3   OH2  896   7.211   3.459   4.574
  318TIP3    H1  897   7.121   3.475   4.544
  318TIP3    H2  898   7.233   3.373   4.539
  319TIP3   OH2  899   6.592   2.335   6.620
  319TIP3    H1  900   6.532   2.316   6.691
  319TIP3    H2  901   6.568   2.273   6.550
  320TIP3   OH2  902   2.935   0.955   3.676
  320TIP3    H1  903   2.916   1.029   3.618
  320TIP3    H2  904   2.849   0.924   3.705
  321TIP3   OH2  905   7.200   4.124   2.527
  321TIP3    H1  906   7.182   4.207   2.483
  321TIP3    H2  907   7.114   4.087   2.544
  322TIP3   OH2  908   2.343   7.588   4.230
  322TIP3    H1  909   2.416   7.527   4.218
  322TIP3    H2  910   2.299   7.590   4.146
  323TIP3   OH2  911   5.455   5.729   1.129
  323TIP3    H1  912   5.519   5.748   1.197
  323TIP3    H2  913   5.371   5.728   1.174
  324TIP3   OH2  914   1.776   4.708   6.691
  324TIP3    H1  915   1.817   4.645   6.750
  324TIP3    H2  916   1.848   4.745   6.640
  325TIP3   OH2  917   5.945   3.519   0.766
  325TIP3    H1  918   5.890   3.533   0.843
  325TIP3    H2  919   6.032   3.548   0.794
  326TIP3   OH2  920   1.955   4.455   5.881
  326TIP3    H1  921   1.980   4.373   5.924
  326TIP3    H2  922   2.038   4.500   5.866
  327TIP3   OH2  923   7.987   0.484   3.169
  327TIP3    H1  924   7.941   0.490   3.253
  327TIP3    H2  925   7.917   0.477   3.103
  328TIP3   OH2  926   1.054   0.748   1.859
  328TIP3    H1  927   1.086   0.712   1.777
  328TIP3    H2  928   1.133   0.770   1.909
  329TIP3   OH2  929   6.904   3.829   5.155
  329TIP3    H1  930   6.973   3.764   5.139
  329TIP3    H2  931   6.873   3.852   5.067
  330TIP3   OH2  932   4.887   2.949   4.248
  330TIP3    H1  933   4.911   2.996   4.328
  330TIP3    H2  934   4.798   2.977   4.229
  331TIP3   OH2  935   0.893   5.142   6.267
  331TIP3    H1  936   0.936   5.072   6.218
  331TIP3    H2  937   0.819   5.167   6.211
  332TIP3   OH2  938   0.564   5.957   1.647
  332TIP3    H1  939   0.484   6.009   1.647
  332TIP3    H2  940   0.619   5.999   1.714
  333TIP3   OH2  941   4.870   6.615   2.417
  333TIP3    H1  942   4.955   6.575   2.401
  333TIP3    H2  943   4.883   6.672   2.493
  334TIP3   OH2  944   4.156   1.123   2.743
  334TIP3    H1  945   4.205   1.045   2.766
  334TIP3    H2  946   4.116   1.102   2.658
  335TIP3   OH2  947   2.577   4.730   5.021
  335TIP3    H1  948   2.644   4.790   5.054
  335TIP3    H2  949   2.517   4.785   4.971
  336TIP3   OH2  950   6.700   0.527   6.039
  336TIP3    H1  951   6.788   0.540   6.073
  336TIP3    H2  952   6.706   0.549   5.946
  337TIP3   OH2  953   3.655   1.344   0.449
  337TIP3    H1  954   3.727   1.284   0.431
  337TIP3    H2  955   3.691   1.431   0.432
  338TIP3   OH2  956   1.802   6.527   1.483
  338TIP3    H1  957   1.742   6.600   1.465
  338TIP3    H2  958   1.786   6.506   1.575
  339TIP3   OH2  959   8.268   0.304   0.164
  339TIP3    H1  960   8.316   0.352   0.231
  339TIP3    H2  961   8.179   0.296   0.200
  340TIP3   OH2  962   5.171   2.468   6.487
  340TIP3    H1  963   5.076   2.461   6.492
  340TIP3    H2  964   5.195   2.518   6.566
  341TIP3   OH2  965   1.846   6.906   2.332
  341TIP3    H1  966   1.889   6.826   2.302
  341TIP3    H2  967   1.805   6.942   2.254
  342TIP3   OH2  968   8.222   4.876   6.554
  342TIP3    H1  969   8.311   4.869   6.589
  342TIP3    H2  970   8.235   4.901   6.462
  343TIP3   OH2  971   1.369   3.176   1.629
  343TIP3    H1  972   1.333   3.203   1.713
  343TIP3    H2  973   1.294   3.173   1.570
  344TIP3   OH2  974   4.566   2.470   2.756
  344TIP3    H1  975   4.645   2.423   2.781
  344TIP3    H2  976   4.515   2.478   2.836
  345TIP3   OH2  977   0.682   1.274   2.783
  345TIP3    H1  978   0.613   1.339   2.776
  345TIP3    H2  979   0.755   1.321   2.825
  346TIP3   OH2  980   0.874   0.862   4.636
  346TIP3    H1  981   0.941   0.930   4.639
  346TIP3    H2  982   0.828   0.871   4.720
  347TIP3   OH2  983   5.628   3.780   3.565
  347TIP3    H1  984   5.678   3.762   3.486
  347TIP3    H2  985   5.674   3.732   3.634
  348TIP3   OH2  986   5.867   0.814   5.816
  348TIP3    H1  987   5.873   0.792   5.723
  348TIP3    H2  988   5.888   0.907   5.821
  349TIP3   OH2  989   7.587   3.108   4.672
  349TIP3    H1  990   7.569   3.202   4.666
  349TIP3    H2  991   7.533   3.069   4.604
  350TIP3   OH2  992   1.800   0.537   6.334
  350TIP3    H1  993   1.883   0.536   6.380
  350TIP3    H2  994   1.787   0.447   6.304
  351TIP3   OH2  995   0.199   6.813   5.005
  351TIP3    H1  996   0.210   6.722   5.034
  351TIP3    H2  997   0.211   6.865   5.084
  352TIP3   OH2  998   3.466   4.123   6.090
  352TIP3    H1  999   3.561   4.131   6.099
  352TIP3    H2 1000   3.438   4.080   6.171
  353TIP3   OH2 1001   7.132   2.449   1.725
  353TIP3    H1 1002   7.067   2.423   1.659
  353TIP3    H2 1003   7.130   2.544   1.723
  354TIP3   OH2 1004   5.485   0.765   6.693
  354TIP3    H1 1005   5.543   0.742   6.620
  354TIP3    H2 1006   5.473   0.859   6.685
  355TIP3   OH2 1007   8.208   0.677   3.140
  355TIP3    H1 1008   8.175   0.764   3.161
  355TIP3    H2 1009   8.135   0.618   3.158
  356TIP3   OH2 1010   1.140   2.699   3.641
  356TIP3    H1 1011   1.130   2.611   3.678
  356TIP3    H2 1012   1.061   2.745   3.667
  357TIP3   OH2 1013   7.566   7.502   3.405
  357TIP3    H1 1014   7.527   7.544   3.482
  357TIP3    H2 1015   7.519   7.539   3.331
  358TIP3   OH2 1016   2.952   4.777   2.247
  358TIP3    H1 1017   3.010   4.811   2.179
  358TIP3    H2 1018   2.978   4.822   2.327
  359TIP3   OH2 1019   2.359   1.933   3.780
  359TIP3    H1 1020   2.440   1.883   3.770
  359TIP3    H2 1021   2.333   1.918   3.871
  360TIP3   OH2 1022   3.482   3.297   3.698
  360TIP3    H1 1023   3.445   3.250   3.623
  360TIP3    H2 1024   3.439   3.383   3.696
  361TIP3   OH2 1025   5.758   1.931   0.061
  361TIP3    H1 1026   5.742   1.882  -0.019
  361TIP3    H2 1027   5.694   2.003   0.059
  362TIP3   OH2 1028   5.307   3.858   4.187
  362TIP3    H1 1029   5.252   3.881   4.262
  362TIP3    H2 1030   5.371   3.930   4.181
  363TIP3   OH2 1031   5.643   3.005   4.661
  363TIP3    H1 1032   5.598   2.956   4.592
  363TIP3    H2 1033   5.736   3.000   4.638
  364TIP3   OH2 1034   5.664   6.971   1.785
  364TIP3    H1 1035   5.709   6.978   1.870
  364TIP3    H2 1036   5.619   7.055   1.775
  365TIP3   OH2 1037   3.298   4.656   1.062
  365TIP3    H1 1038   3.313   4.707   0.983
  365TIP3    H2 1039   3.217   4.692   1.099
  366TIP3   OH2 1040   1.411   0.779   2.440
  366TIP3    H1 1041   1.383   0.694   2.407
  366TIP3    H2 1042   1.329   0.828   2.454
  367TIP3   OH2 1043   1.872   7.160   5.030
  367TIP3    H1 1044   1.880   7.179   4.937
  367TIP3    H2 1045   1.802   7.216   5.062
  368TIP3   OH2 1046   1.869   6.024   5.271
  368TIP3    H1 1047   1.813   6.057   5.342
  368TIP3    H2 1048   1.910   5.946   5.307
  369TIP3   OH2 1049   3.791   6.074   0.979
  369TIP3    H1 1050   3.712   6.036   0.942
  369TIP3    H2 1051   3.761   6.126   1.053
  370TIP3   OH2 1052   0.177   3.365   2.228
  370TIP3    H1 1053   0.235   3.300   2.189
  370TIP3    H2 1054   0.235   3.421   2.280
  371TIP3   OH2 1055   5.018   2.313   2.845
  371TIP3    H1 1056   5.034   2.407   2.854
  371TIP3    H2 1057   5.105   2.274   2.853
  372TIP3   OH2 1058   0.871   1.582   2.023
  372TIP3    H1 1059   0.888   1.591   2.117
  372TIP3    H2 1060   0.785   1.621   2.011
  373TIP3   OH2 1061   2.711   2.948   5.094
  373TIP3    H1 1062   2.620   2.978   5.092
  373TIP3    H2 1063   2.762   3.029   5.100
  374TIP3   OH2 1064   4.206   0.115   3.895
  374TIP3    H1 1065   4.139   0.064   3.941
  374TIP3    H2 1066   4.285   0.062   3.902
  375TIP3   OH2 1067   7.817   3.414   3.026
  375TIP3    H1 1068   7.864   3.463   3.094
  375TIP3    H2 1069   7.876   3.343   3.002
  376TIP3   OH2 1070   1.031   6.029   1.946
  376TIP3    H1 1071   1.017   6.120   1.920
  376TIP3    H2 1072   1.033   5.980   1.864
  377TIP3   OH2 1073   6.328   3.401   2.899
  377TIP3    H1 1074   6.266   3.345   2.945
  377TIP3    H2 1075   6.327   3.483   2.948
  378TIP3   OH2 1076   8.084   6.511   2.968
  378TIP3    H1 1077   8.179   6.498   2.971
  378TIP3    H2 1078   8.047   6.428   2.997
  379TIP3   OH2 1079   3.454   1.988   4.777
  379TIP3    H1 1080   3.372   1.946   4.806
  379TIP3    H2 1081   3.521   1.953   4.836
  380TIP3   OH2 1082   4.990   6.211   1.479
  380TIP3    H1 1083   5.013   6.118   1.481
  380TIP3    H2 1084   5.043   6.247   1.408
  381TIP3   OH2 1085   3.108   4.224   5.741
  381TIP3    H1 1086   3.189   4.246   5.787
  381TIP3    H2 1087   3.038   4.245   5.803
  382TIP3   OH2 1088   0.393   4.104   4.401
  382TIP3    H1 1089   0.381   4.124   4.308
  382TIP3    H2 1090   0.312   4.060   4.427
  383TIP3   OH2 1091   5.284   4.397   1.893
  383TIP3    H1 1092   5.332   4.480   1.896
  383TIP3    H2 1093   5.260   4.387   1.801
  384TIP3   OH2 1094   7.621   7.561   6.673
  384TIP3    H1 1095   7.657   7.600   6.752
  384TIP3    H2 1096   7.582   7.478   6.702
  385TIP3   OH2 1097   6.882   7.478   6.281
  385TIP3    H1 1098   6.820   7.435   6.222
  385TIP3    H2 1099   6.963   7.485   6.231
  386TIP3   OH2 1100   3.015   3.684   1.014
  386TIP3    H1 1101   3.080   3.714   0.951
  386TIP3    H2 1102   2.943   3.651   0.960
  387TIP3   OH2 1103   3.975   2.259   1.519
  387TIP3    H1 1104   3.985   2.195   1.589
  387TIP3    H2 1105   3.920   2.327   1.557
  388TIP3   OH2 1106   7.816   1.513   3.432
  388TIP3    H1 1107   7.848   1.425   3.413
  388TIP3    H2 1108   7.840   1.528   3.523
  389TIP3   OH2 1109   5.763   4.149   1.719
  389TIP3    H1 1110   5.699   4.167   1.650
  389TIP3    H2 1111   5.712   4.109   1.790
  390TIP3   OH2 1112   2.670   1.736   4.246
  390TIP3    H1 1113   2.596   1.786   4.280
  390TIP3    H2 1114   2.725   1.802   4.204
  391TIP3   OH2 1115   7.416   6.620   5.050
  391TIP3    H1 1116   7.390   6.711   5.056
  391TIP3    H2 1117   7.430   6.605   4.957
  392TIP3   OH2 1118   7.758   2.794   2.545
  392TIP3    H1 1119   7.776   2.887   2.563
  392TIP3    H2 1120   7.845   2.754   2.539
  393TIP3   OH2 1121   7.257   2.489   0.304
  393TIP3    H1 1122   7.324   2.433   0.266
  393TIP3    H2 1123   7.181   2.432   0.315
  394TIP3   OH2 1124   5.298   2.531   4.654
  394TIP3    H1 1125   5.216   2.524   4.702
  394TIP3    H2 1126   5.275   2.508   4.564
  395TIP3   OH2 1127   2.706   5.030   1.601
  395TIP3    H1 1128   2.751   4.968   1.657
  395TIP3    H2 1129   2.775   5.069   1.548
  396TIP3   OH2 1130   2.235   7.269   0.245
  396TIP3    H1 1131   2.175   7.344   0.255
  396TIP3    H2 1132   2.321   7.309   0.237
  397TIP3   OH2 1133   3.656   2.341   0.074
  397TIP3    H1 1134   3.730   2.283   0.091
  397TIP3    H2 1135   3.665   2.412   0.138
  398TIP3   OH2 1136   6.326   0.566   1.284
  398TIP3    H1 1137   6.317   0.572   1.379
  398TIP3    H2 1138   6.243   0.530   1.253
  399TIP3   OH2 1139   5.854   5.041   2.700
  399TIP3    H1 1140   5.881   4.976   2.635
  399TIP3    H2 1141   5.864   4.997   2.784
  400TIP3   OH2 1142   7.779   3.086   2.495
  400TIP3    H1 1143   7.687   3.072   2.515
  400TIP3    H2 1144   7.795   3.177   2.519
  401TIP3   OH2 1145   7.642   6.090   3.947
  401TIP3    H1 1146   7.709   6.155   3.969
  401TIP3    H2 1147   7.680   6.040   3.874
  402TIP3   OH2 1148   0.484   3.945   5.644
  402TIP3    H1 1149   0.424   3.906   5.581
  402TIP3    H2 1150   0.442   4.028   5.669
  403TIP3   OH2 1151   7.969   4.163   1.942
  403TIP3    H1 1152   8.040   4.112   1.981
  403TIP3    H2 1153   7.889   4.121   1.974
  404TIP3   OH2 1154   6.590   1.495   1.905
  404TIP3    H1 1155   6.642   1.537   1.974
  404TIP3    H2 1156   6.644   1.422   1.875
  405TIP3   OH2 1157   6.559   0.483   6.691
  405TIP3    H1 1158   6.471   0.460   6.660
  405TIP3    H2 1159   6.609   0.501   6.612
  406TIP3   OH2 1160   2.594   5.749   4.387
  406TIP3    H1 1161   2.548   5.830   4.362
  406TIP3    H2 1162   2.599   5.699   4.306
  407TIP3   OH2 1163   2.946   4.668   2.974
  407TIP3    H1 1164   2.972   4.733   3.039
  407TIP3    H2 1165   3.021   4.610   2.966
  408TIP3   OH2 1166   7.096   6.138   3.031
  408TIP3    H1 1167   7.128   6.163   3.117
  408TIP3    H2 1168   7.089   6.220   2.983
  409TIP3   OH2 1169   7.931   4.454   2.991
  409TIP3    H1 1170   7.961   4.388   2.928
  409TIP3    H2 1171   8.011   4.481   3.037
  410TIP3   OH2 1172   5.524   5.391   5.199
  410TIP3    H1 1173   5.455   5.349   5.250
  410TIP3    H2 1174   5.483   5.468   5.161
  411TIP3   OH2 1175   0.153   6.948   2.751
  411TIP3    H1 1176   0.102   7.029   2.746
  411TIP3    H2 1177   0.221   6.957   2.684
  412TIP3   OH2 1178   6.245   5.016   2.807
  412TIP3    H1 1179   6.212   5.053   2.889
  412TIP3    H2 1180   6.207   4.928   2.803
  413TIP3   OH2 1181   7.243   7.641   6.696
  413TIP3    H1 1182   7.149   7.626   6.690
  413TIP3    H2 1183   7.281   7.553   6.702
  414TIP3   OH2 1184   4.343   3.436   6.085
  414TIP3    H1 1185   4.341   3.345   6.055
  414TIP3    H2 1186   4.251   3.461   6.090
  415TIP3   OH2 1187   6.466   7.624   2.428
  415TIP3    H1 1188   6.397   7.669   2.477
  415TIP3    H2 1189   6.471   7.671   2.345
  416TIP3   OH2 1190   0.126   0.126   5.713
  416TIP3    H1 1191   0.053   0.091   5.765
  416TIP3    H2 1192   0.084   0.163   5.635
  417TIP3   OH2 1193   7.761   1.645   5.524
  417TIP3    H1 1194   7.725   1.660   5.611
  417TIP3    H2 1195   7.685   1.620   5.470
  418TIP3   OH2 1196   8.031   5.514   2.805
  418TIP3    H1 1197   8.090   5.560   2.745
  418TIP3    H2 1198   7.986   5.450   2.751
  419TIP3   OH2 1199   1.062   2.370   6.272
  419TIP3    H1 1200   1.149   2.381   6.234
  419TIP3    H2 1201   1.070   2.294   6.330
  420TIP3   OH2 1202   3.003   7.100   1.390
  420TIP3    H1 1203   2.921   7.051   1.384
  420TIP3    H2 1204   2.979   7.181   1.434
  421TIP3   OH2 1205   4.111   5.093   6.410
  421TIP3    H1 1206   4.034   5.035   6.407
  421TIP3    H2 1207   4.088   5.160   6.473
  422TIP3   OH2 1208   0.853   7.160   4.995
  422TIP3    H1 1209   0.839   7.068   5.019
  422TIP3    H2 1210   0.868   7.158   4.901
  423TIP3   OH2 1211   0.937   7.360   3.208
  423TIP3    H1 1212   0.936   7.274   3.251
  423TIP3    H2 1213   0.991   7.347   3.130
  424TIP3   OH2 1214   2.538   7.803   5.747
  424TIP3    H1 1215   2.590   7.784   5.825
  424TIP3    H2 1216   2.450   7.772   5.769
  425TIP3   OH2 1217   7.069   1.290   1.124
  425TIP3    H1 1218   7.017   1.329   1.194
  425TIP3    H2 1219   7.042   1.337   1.045
  426TIP3   OH2 1220   6.402   0.279   1.894
  426TIP3    H1 1221   6.453   0.201   1.916
  426TIP3    H2 1222   6.319   0.245   1.861
  427TIP3   OH2 1223   2.425   1.021   2.777
  427TIP3    H1 1224   2.451   1.005   2.686
  427TIP3    H2 1225   2.508   1.016   2.826
  428TIP3   OH2 1226   7.562   5.174   3.087
  428TIP3    H1 1227   7.616   5.108   3.130
  428TIP3    H2 1228   7.610   5.196   3.007
  429TIP3   OH2 1229   7.237   5.632   6.599
  429TIP3    H1 1230   7.313   5.594   6.642
  429TIP3    H2 1231   7.263   5.722   6.578
  430TIP3   OH2 1232   4.685   5.534   2.212
  430TIP3    H1 1233   4.627   5.509   2.284
  430TIP3    H2 1234   4.638   5.604   2.166
  431TIP3   OH2 1235   6.470   5.558   1.918
  431TIP3    H1 1236   6.503   5.495   1.854
  431TIP3    H2 1237   6.377   5.535   1.928
  432TIP3   OH2 1238   2.897   3.940   2.914
  432TIP3    H1 1239   2.900   3.962   2.821
  432TIP3    H2 1240   2.914   3.846   2.917
  433TIP3   OH2 1241   0.531   0.548   5.021
  433TIP3    H1 1242   0.547   0.523   5.112
  433TIP3    H2 1243   0.613   0.589   4.993
  434TIP3   OH2 1244   3.271   2.596   1.189
  434TIP3    H1 1245   3.254   2.669   1.247
  434TIP3    H2 1246   3.190   2.585   1.139
  435TIP3   OH2 1247   7.121   1.452   6.359
  435TIP3    H1 1248   7.159   1.409   6.435
  435TIP3    H2 1249   7.170   1.534   6.351
  436TIP3   OH2 1250   5.587   5.156   6.165
  436TIP3    H1 1251   5.564   5.075   6.209
  436TIP3    H2 1252   5.571   5.138   6.072
  437TIP3   OH2 1253   5.580   0.327   1.418
  437TIP3    H1 1254   5.521   0.391   1.379
  437TIP3    H2 1255   5.529   0.246   1.419
  438TIP3   OH2 1256   0.725   2.619   1.207
  438TIP3    H1 1257   0.754   2.598   1.118
  438TIP3    H2 1258   0.685   2.706   1.199
  439TIP3   OH2 1259   2.928   3.941   1.452
  439TIP3    H1 1260   2.893   3.903   1.372
  439TIP3    H2 1261   2.942   3.866   1.510
  440TIP3   OH2 1262   1.418   4.073   1.906
  440TIP3    H1 1263   1.467   4.087   1.825
  440TIP3    H2 1264   1.409   3.978   1.913
  441TIP3   OH2 1265   1.732   6.887   4.885
  441TIP3    H1 1266   1.740   6.885   4.980
  441TIP3    H2 1267   1.692   6.972   4.866
  442TIP3   OH2 1268   6.834   2.730   1.820
  442TIP3    H1 1269   6.808   2.676   1.745
  442TIP3    H2 1270   6.869   2.667   1.883
  443TIP3   OH2 1271   2.463   3.923   2.567
  443TIP3    H1 1272   2.480   4.008   2.526
  443TIP3    H2 1273   2.527   3.864   2.526
  444TIP3   OH2 1274   6.335   7.085   1.083
  444TIP3    H1 1275   6.260   7.032   1.111
  444TIP3    H2 1276   6.324   7.168   1.130
  445TIP3   OH2 1277   4.390   4.691   0.819
  445TIP3    H1 1278   4.444   4.749   0.872
  445TIP3    H2 1279   4.303   4.731   0.822
  446TIP3   OH2 1280   7.341   4.191   0.725
  446TIP3    H1 1281   7.342   4.207   0.820
  446TIP3    H2 1282   7.308   4.273   0.688
  447TIP3   OH2 1283   2.167   0.245   2.702
  447TIP3    H1 1284   2.167   0.306   2.775
  447TIP3    H2 1285   2.144   0.299   2.626
  448TIP3   OH2 1286   0.984   0.956   3.314
  448TIP3    H1 1287   0.920   0.995   3.255
  448TIP3    H2 1288   1.066   0.957   3.265
  449TIP3   OH2 1289   7.023   6.411   4.443
  449TIP3    H1 1290   7.037   6.479   4.376
  449TIP3    H2 1291   7.040   6.329   4.397
  450TIP3   OH2 1292   4.856   7.649   1.856
  450TIP3    H1 1293   4.880   7.588   1.926
  450TIP3    H2 1294   4.760   7.646   1.853
  451TIP3   OH2 1295   1.967   5.810   5.455
  451TIP3    H1 1296   1.975   5.891   5.506
  451TIP3    H2 1297   1.995   5.741   5.515
  452TIP3   OH2 1298   5.141   2.854   3.260
  452TIP3    H1 1299   5.194   2.810   3.327
  452TIP3    H2 1300   5.059   2.877   3.305
  453TIP3   OH2 1301   3.594   1.487   2.137
  453TIP3    H1 1302   3.680   1.458   2.168
  453TIP3    H2 1303   3.535   1.417   2.163
  454TIP3   OH2 1304   4.947   0.116   5.002
  454TIP3    H1 1305   4.982   0.112   4.913
  454TIP3    H2 1306   5.024   0.114   5.059
  455TIP3   OH2 1307   1.844   6.986   3.648
  455TIP3    H1 1308   1.851   6.923   3.577
  455TIP3    H2 1309   1.880   6.940   3.724
  456TIP3   OH2 1310   3.717   3.209   0.531
  456TIP3    H1 1311   3.664   3.232   0.456
  456TIP3    H2 1312   3.742   3.293   0.571
  457TIP3   OH2 1313   5.799   0.920   2.559
  457TIP3    H1 1314   5.792   0.824   2.566
  457TIP3    H2 1315   5.869   0.943   2.619
  458TIP3   OH2 1316   7.295   4.396   0.022
  458TIP3    H1 1317   7.328   4.317   0.066
  458TIP3    H2 1318   7.280   4.458   0.093
  459TIP3   OH2 1319   8.072   6.322   0.830
  459TIP3    H1 1320   8.021   6.306   0.751
  459TIP3    H2 1321   8.154   6.361   0.799
  460TIP3   OH2 1322   5.041   7.717   0.197
  460TIP3    H1 1323   5.118   7.661   0.211
  460TIP3    H2 1324   4.991   7.710   0.279
  461TIP3   OH2 1325   0.698   1.601   5.965
  461TIP3    H1 1326   0.684   1.575   6.056
  461TIP3    H2 1327   0.719   1.520   5.920
  462TIP3   OH2 1328   5.556   4.371   0.017
  462TIP3    H1 1329   5.505   4.345  -0.060
  462TIP3    H2 1330   5.578   4.463   0.002
  463TIP3   OH2 1331   3.611   3.190   5.647
  463TIP3    H1 1332   3.527   3.214   5.607
  463TIP3    H2 1333   3.671   3.259   5.618
  464TIP3   OH2 1334   7.449   5.742   1.779
  464TIP3    H1 1335   7.365   5.717   1.741
  464TIP3    H2 1336   7.439   5.836   1.799
  465TIP3   OH2 1337   3.346   1.697   3.195
  465TIP3    H1 1338   3.357   1.681   3.101
  465TIP3    H2 1339   3.356   1.792   3.204
  466TIP3   OH2 1340   7.000   0.697  -0.016
  466TIP3    H1 1341   7.040   0.784  -0.020
  466TIP3    H2 1342   7.074   0.636  -0.019
  467TIP3   OH2 1343   5.851   6.626   0.095
  467TIP3    H1 1344   5.923   6.663   0.147
  467TIP3    H2 1345   5.895   6.577   0.026
  468TIP3   OH2 1346   0.943   7.110   5.450
  468TIP3    H1 1347   0.869   7.083   5.395
  468TIP3    H2 1348   0.902   7.157   5.523
  469TIP3   OH2 1349   2.542   3.098   6.296
  469TIP3    H1 1350   2.459   3.136   6.267
  469TIP3    H2 1351   2.593   3.173   6.327
  470TIP3   OH2 1352   3.419   2.496   3.224
  470TIP3    H1 1353   3.375   2.564   3.275
  470TIP3    H2 1354   3.476   2.452   3.287
  471TIP3   OH2 1355   4.661   1.331   6.773
  471TIP3    H1 1356   4.575   1.342   6.815
  471TIP3    H2 1357   4.685   1.418   6.744
  472TIP3   OH2 1358   0.705   0.881   1.772
  472TIP3    H1 1359   0.717   0.871   1.866
  472TIP3    H2 1360   0.770   0.947   1.747
  473TIP3   OH2 1361   2.757   2.275   4.086
  473TIP3    H1 1362   2.780   2.257   4.177
  473TIP3    H2 1363   2.684   2.337   4.091
  474TIP3   OH2 1364   4.817   7.264   3.073
  474TIP3    H1 1365   4.727   7.295   3.070
  474TIP3    H2 1366   4.813   7.174   3.040
  475TIP3   OH2 1367   2.543   4.188   1.147
  475TIP3    H1 1368   2.555   4.151   1.235
  475TIP3    H2 1369   2.618   4.246   1.135
  476TIP3   OH2 1370   1.347   5.560   1.526
  476TIP3    H1 1371   1.421   5.504   1.505
  476TIP3    H2 1372   1.356   5.578   1.620
  477TIP3   OH2 1373   1.358   3.322   0.101
  477TIP3    H1 1374   1.403   3.238   0.088
  477TIP3    H2 1375   1.347   3.329   0.196
  478TIP3   OH2 1376   6.363   3.644   2.392
  478TIP3    H1 1377   6.416   3.724   2.402
  478TIP3    H2 1378   6.378   3.595   2.473
  479TIP3   OH2 1379   6.830   7.744   3.273
  479TIP3    H1 1380   6.796   7.654   3.275
  479TIP3    H2 1381   6.884   7.747   3.195
  480TIP3   OH2 1382   3.332   0.942   3.785
  480TIP3    H1 1383   3.363   0.892   3.861
  480TIP3    H2 1384   3.238   0.924   3.781
  481TIP3   OH2 1385   7.744   3.355   3.365
  481TIP3    H1 1386   7.801   3.373   3.439
  481TIP3    H2 1387   7.746   3.436   3.313
  482TIP3   OH2 1388   4.567   4.323   3.448
  482TIP3    H1 1389   4.568   4.410   3.488
  482TIP3    H2 1390   4.610   4.336   3.363
  483TIP3   OH2 1391   5.732   4.874   1.541
  483TIP3    H1 1392   5.778   4.795   1.512
  483TIP3    H2 1393   5.800   4.941   1.548
  484TIP3   OH2 1394   2.411   1.122   2.031
  484TIP3    H1 1395   2.485   1.090   1.978
  484TIP3    H2 1396   2.448   1.134   2.119
  485TIP3   OH2 1397   4.134   5.241   3.473
  485TIP3    H1 1398   4.043   5.252   3.501
  485TIP3    H2 1399   4.157   5.152   3.501
  486TIP3   OH2 1400   5.016   0.694   6.062
  486TIP3    H1 1401   5.094   0.639   6.060
  486TIP3    H2 1402   5.024   0.750   5.986
  487TIP3   OH2 1403   4.943   1.761   5.898
  487TIP3    H1 1404   4.984   1.695   5.842
  487TIP3    H2 1405   4.919   1.832   5.839
  488TIP3   OH2 1406   0.950   7.755   4.396
  488TIP3    H1 1407   0.972   7.737   4.305
  488TIP3    H2 1408   1.023   7.718   4.446
  489TIP3   OH2 1409   1.311   6.319   4.497
  489TIP3    H1 1410   1.230   6.358   4.464
  489TIP3    H2 1411   1.341   6.262   4.426
  490TIP3   OH2 1412   1.143   2.811   2.893
  490TIP3    H1 1413   1.099   2.726   2.891
  490TIP3    H2 1414   1.167   2.823   2.985
  491TIP3   OH2 1415   4.088   1.473   0.538
  491TIP3    H1 1416   4.118   1.397   0.587
  491TIP3    H2 1417   4.081   1.441   0.447
  492TIP3   OH2 1418   4.974   3.518   2.688
  492TIP3    H1 1419   5.065   3.543   2.672
  492TIP3    H2 1420   4.976   3.424   2.701
  493TIP3   OH2 1421   4.804   4.468   4.317
  493TIP3    H1 1422   4.875   4.417   4.278
  493TIP3    H2 1423   4.783   4.423   4.398
  494TIP3   OH2 1424   4.139   1.645   2.310
  494TIP3    H1 1425   4.180   1.731   2.301
  494TIP3    H2 1426   4.138   1.609   2.222
  495TIP3   OH2 1427   1.100   0.575   1.637
  495TIP3    H1 1428   1.130   0.486   1.654
  495TIP3    H2 1429   1.047   0.568   1.558
  496TIP3   OH2 1430   4.397   0.698   4.309
  496TIP3    H1 1431   4.354   0.640   4.371
  496TIP3    H2 1432   4.379   0.659   4.223
  497TIP3   OH2 1433   5.223   2.007   2.238
  497TIP3    H1 1434   5.235   2.045   2.151
  497TIP3    H2 1435   5.309   2.016   2.281
  498TIP3   OH2 1436   5.534   2.677   6.722
  498TIP3    H1 1437   5.609   2.718   6.765
  498TIP3    H2 1438   5.554   2.584   6.721
  499TIP3   OH2 1439   6.251   4.965   1.097
  499TIP3    H1 1440   6.198   4.901   1.143
  499TIP3    H2 1441   6.341   4.939   1.114
  500TIP3   OH2 1442   0.403   0.977   1.612
  500TIP3    H1 1443   0.384   1.070   1.618
  500TIP3    H2 1444   0.330   0.940   1.562
  501TIP3   OH2 1445   5.887   0.809   2.224
  501TIP3    H1 1446   5.802   0.842   2.255
  501TIP3    H2 1447   5.944   0.814   2.301
  502TIP3   OH2 1448   3.221   5.958   2.138
  502TIP3    H1 1449   3.257   5.978   2.224
  502TIP3    H2 1450   3.126   5.964   2.149
  503TIP3   OH2 1451   1.188   1.252   0.739
  503TIP3    H1 1452   1.242   1.299   0.802
  503TIP3    H2 1453   1.127   1.201   0.793
  504TIP3   OH2 1454   3.007   2.677   2.030
  504TIP3    H1 1455   2.937   2.623   1.993
  504TIP3    H2 1456   2.961   2.741   2.084
  505TIP3   OH2 1457   3.128   5.594   6.262
  505TIP3    H1 1458   3.132   5.505   6.228
  505TIP3    H2 1459   3.157   5.649   6.190
  506TIP3   OH2 1460   5.197   1.279   3.148
  506TIP3    H1 1461   5.152   1.359   3.175
  506TIP3    H2 1462   5.189   1.278   3.053
  507TIP3   OH2 1463   2.890   4.509   6.211
  507TIP3    H1 1464   2.893   4.476   6.121
  507TIP3    H2 1465   2.858   4.599   6.203
  508TIP3   OH2 1466   0.757   6.876   0.943
  508TIP3    H1 1467   0.731   6.845   1.030
  508TIP3    H2 1468   0.674   6.892   0.899
  509TIP3   OH2 1469   0.600   6.143   6.456
  509TIP3    H1 1470   0.506   6.138   6.437
  509TIP3    H2 1471   0.623   6.054   6.484
  510TIP3   OH2 1472   4.520   3.176   1.678
  510TIP3    H1 1473   4.475   3.258   1.658
  510TIP3    H2 1474   4.599   3.178   1.624
  511TIP3   OH2 1475   6.744   3.132   5.605
  511TIP3    H1 1476   6.828   3.142   5.561
  511TIP3    H2 1477   6.700   3.061   5.558
  512TIP3   OH2 1478   5.263   5.021   3.951
  512TIP3    H1 1479   5.293   5.105   3.985
  512TIP3    H2 1480   5.174   5.012   3.984
  513TIP3   OH2 1481   0.451   3.448   0.633
  513TIP3    H1 1482   0.441   3.508   0.559
  513TIP3    H2 1483   0.385   3.477   0.696
  514TIP3   OH2 1484   6.691   6.040   0.917
  514TIP3    H1 1485   6.644   6.112   0.875
  514TIP3    H2 1486   6.625   5.999   0.974
  515TIP3   OH2 1487   3.521   6.363   6.706
  515TIP3    H1 1488   3.611   6.332   6.696
  515TIP3    H2 1489   3.467   6.287   6.686
  516TIP3   OH2 1490   5.565   2.510   5.592
  516TIP3    H1 1491   5.585   2.437   5.532
  516TIP3    H2 1492   5.628   2.577   5.569
  517TIP3   OH2 1493   1.851   3.526   2.430
  517TIP3    H1 1494   1.809   3.552   2.348
  517TIP3    H2 1495   1.827   3.594   2.492
  518TIP3   OH2 1496   7.803   7.258   3.699
  518TIP3    H1 1497   7.790   7.172   3.660
  518TIP3    H2 1498   7.882   7.248   3.753
  519TIP3   OH2 1499   2.542   5.306   0.496
  519TIP3    H1 1500   2.526   5.379   0.435
  519TIP3    H2 1501   2.457   5.261   0.501
  520TIP3   OH2 1502   4.842   0.474   4.889
  520TIP3    H1 1503   4.785   0.411   4.933
  520TIP3    H2 1504   4.783   0.544   4.861
  521TIP3   OH2 1505   2.868   3.482   0.086
  521TIP3    H1 1506   2.941   3.428   0.055
  521TIP3    H2 1507   2.810   3.421   0.132
  522TIP3   OH2 1508   3.020   1.784   3.365
  522TIP3    H1 1509   2.957   1.714   3.380
  522TIP3    H2 1510   3.082   1.776   3.437
  523TIP3   OH2 1511   3.726   0.227   4.430
  523TIP3    H1 1512   3.724   0.229   4.526
  523TIP3    H2 1513   3.731   0.134   4.409
  524TIP3   OH2 1514   3.790   6.487   2.133
  524TIP3    H1 1515   3.782   6.394   2.112
  524TIP3    H2 1516   3.792   6.531   2.048
  525TIP3   OH2 1517   5.549   3.192   2.922
  525TIP3    H1 1518   5.626   3.247   2.933
  525TIP3    H2 1519   5.478   3.254   2.905
  526TIP3   OH2 1520   2.185   5.780   5.271
  526TIP3    H1 1521   2.149   5.779   5.359
  526TIP3    H2 1522   2.210   5.872   5.256
  527TIP3   OH2 1523   2.292   7.005   4.472
  527TIP3    H1 1524   2.206   7.019   4.511
  527TIP3    H2 1525   2.307   7.084   4.420
  528TIP3   OH2 1526   0.082   2.318   6.725
  528TIP3    H1 1527   0.006   2.266   6.751
  528TIP3    H2 1528   0.145   2.254   6.693
  529TIP3   OH2 1529   7.765   0.194   4.456
  529TIP3    H1 1530   7.759   0.289   4.446
  529TIP3    H2 1531   7.842   0.180   4.510
  530TIP3   OH2 1532   6.228   7.624   3.859
  530TIP3    H1 1533   6.293   7.679   3.903
  530TIP3    H2 1534   6.216   7.665   3.773
  531TIP3   OH2 1535   4.956   5.276   6.465
  531TIP3    H1 1536   4.991   5.188   6.449
  531TIP3    H2 1537   4.862   5.264   6.474
  532TIP3   OH2 1538   3.881   5.609   3.058
  532TIP3    H1 1539   3.976   5.607   3.067
  532TIP3    H2 1540   3.863   5.695   3.021
  533TIP3   OH2 1541   0.864   4.398   3.469
  533TIP3    H1 1542   0.832   4.479   3.509
  533TIP3    H2 1543   0.913   4.355   3.539
  534TIP3   OH2 1544   2.206   0.778   4.736
  534TIP3    H1 1545   2.188   0.867   4.765
  534TIP3    H2 1546   2.166   0.722   4.803
  535TIP3   OH2 1547   3.544   1.227   4.410
  535TIP3    H1 1548   3.535   1.288   4.484
  535TIP3    H2 1549   3.562   1.142   4.452
  536TIP3   OH2 1550   2.288   7.331   5.920
  536TIP3    H1 1551   2.256   7.396   5.982
  536TIP3    H2 1552   2.327   7.381   5.849
  537TIP3   OH2 1553   5.897   1.673   0.819
  537TIP3    H1 1554   5.961   1.666   0.748
  537TIP3    H2 1555   5.911   1.759   0.857
  538TIP3   OH2 1556   7.360   6.056   1.518
  538TIP3    H1 1557   7.346   6.059   1.423
  538TIP3    H2 1558   7.273   6.066   1.556
  539TIP3   OH2 1559   1.145   0.542   2.138
  539TIP3    H1 1560   1.129   0.459   2.184
  539TIP3    H2 1561   1.093   0.606   2.185
  540TIP3   OH2 1562   4.713   5.809   4.167
  540TIP3    H1 1563   4.658   5.865   4.221
  540TIP3    H2 1564   4.666   5.726   4.163
  541TIP3   OH2 1565   3.690   0.548   5.425
  541TIP3    H1 1566   3.670   0.477   5.364
  541TIP3    H2 1567   3.605   0.582   5.452
  542TIP3   OH2 1568   4.486   5.316   5.627
  542TIP3    H1 1569   4.420   5.284   5.689
  542TIP3    H2 1570   4.569   5.281   5.660
  543TIP3   OH2 1571   7.301   6.480   6.164
  543TIP3    H1 1572   7.336   6.562   6.128
  543TIP3    H2 1573   7.347   6.411   6.116
  544TIP3   OH2 1574   5.572   1.209   3.023
  544TIP3    H1 1575   5.584   1.244   2.935
  544TIP3    H2 1576   5.551   1.285   3.077
  545TIP3   OH2 1577   4.797   7.340   2.296
  545TIP3    H1 1578   4.743   7.397   2.242
  545TIP3    H2 1579   4.818   7.265   2.239
  546TIP3   OH2 1580   0.156   0.194   3.491
  546TIP3    H1 1581   0.130   0.282   3.516
  546TIP3    H2 1582   0.200   0.158   3.568
  547TIP3   OH2 1583  -0.032   6.945   0.030
  547TIP3    H1 1584   0.040   6.949   0.094
  547TIP3    H2 1585   0.005   6.899  -0.045
  548TIP3   OH2 1586   7.605   2.331   0.667
  548TIP3    H1 1587   7.522   2.289   0.644
  548TIP3    H2 1588   7.603   2.414   0.620
  549TIP3   OH2 1589   5.001   4.750   4.254
  549TIP3    H1 1590   4.906   4.740   4.262
  549TIP3    H2 1591   5.037   4.697   4.325
  550TIP3   OH2 1592   7.754   3.504   4.326
  550TIP3    H1 1593   7.692   3.432   4.335
  550TIP3    H2 1594   7.703   3.582   4.344
  551TIP3   OH2 1595   7.724   4.101   3.047
  551TIP3    H1 1596   7.740   4.105   2.953
  551TIP3    H2 1597   7.808   4.124   3.086
  552TIP3   OH2 1598   3.111   3.457   4.443
  552TIP3    H1 1599   3.097   3.384   4.504
  552TIP3    H2 1600   3.052   3.526   4.475
  553TIP3   OH2 1601   4.030   1.079   1.358
  553TIP3    H1 1602   4.042   1.001   1.304
  553TIP3    H2 1603   3.935   1.088   1.368
  554TIP3   OH2 1604   7.275   5.111   6.603
  554TIP3    H1 1605   7.309   5.022   6.603
  554TIP3    H2 1606   7.248   5.126   6.512
  555TIP3   OH2 1607   7.624   7.066   4.316
  555TIP3    H1 1608   7.611   6.972   4.327
  555TIP3    H2 1609   7.593   7.105   4.397
  556TIP3   OH2 1610   2.535   4.795   5.439
  556TIP3    H1 1611   2.459   4.838   5.479
  556TIP3    H2 1612   2.537   4.827   5.349
  557TIP3   OH2 1613   0.253   5.435   0.255
  557TIP3    H1 1614   0.301   5.361   0.292
  557TIP3    H2 1615   0.163   5.403   0.247
  558TIP3   OH2 1616   8.295   5.727   4.193
  558TIP3    H1 1617   8.313   5.662   4.126
  558TIP3    H2 1618   8.204   5.751   4.181
  559TIP3   OH2 1619   3.580   3.367   2.904
  559TIP3    H1 1620   3.612   3.296   2.960
  559TIP3    H2 1621   3.649   3.433   2.905
  560TIP3   OH2 1622   7.251   1.399   0.505
  560TIP3    H1 1623   7.170   1.449   0.511
  560TIP3    H2 1624   7.303   1.428   0.580
  561TIP3   OH2 1625   3.378   4.071   2.327
  561TIP3    H1 1626   3.287   4.098   2.313
  561TIP3    H2 1627   3.430   4.146   2.296
  562TIP3   OH2 1628   2.701   7.482   2.053
  562TIP3    H1 1629   2.655   7.401   2.031
  562TIP3    H2 1630   2.687   7.539   1.977
  563TIP3   OH2 1631   1.911   7.548   1.317
  563TIP3    H1 1632   1.960   7.514   1.242
  563TIP3    H2 1633   1.899   7.472   1.374
  564TIP3   OH2 1634   2.486   4.898   2.531
  564TIP3    H1 1635   2.567   4.884   2.581
  564TIP3    H2 1636   2.428   4.827   2.559
  565TIP3   OH2 1637   2.859   7.620   0.112
  565TIP3    H1 1638   2.899   7.707   0.113
  565TIP3    H2 1639   2.902   7.574   0.039
  566TIP3   OH2 1640   5.972   6.106   3.168
  566TIP3    H1 1641   5.927   6.055   3.235
  566TIP3    H2 1642   5.913   6.178   3.149
  567TIP3   OH2 1643   4.262   5.549   6.428
  567TIP3    H1 1644   4.338   5.508   6.470
  567TIP3    H2 1645   4.300   5.610   6.365
  568TIP3   OH2 1646   5.874   3.352   3.682
  568TIP3    H1 1647   5.811   3.283   3.702
  568TIP3    H2 1648   5.958   3.317   3.714
  569TIP3   OH2 1649   3.239   4.285   5.162
  569TIP3    H1 1650   3.215   4.215   5.222
  569TIP3    H2 1651   3.167   4.287   5.098
  570TIP3   OH2 1652   2.087   0.733   6.224
  570TIP3    H1 1653   2.032   0.804   6.258
  570TIP3    H2 1654   2.092   0.671   6.297
  571TIP3   OH2 1655   0.672   5.846   6.506
  571TIP3    H1 1656   0.733   5.864   6.578
  571TIP3    H2 1657   0.697   5.759   6.475
  572TIP3   OH2 1658   0.283   3.372   6.463
  572TIP3    H1 1659   0.349   3.318   6.506
  572TIP3    H2 1660   0.255   3.320   6.387
  573TIP3   OH2 1661   3.022   3.957   4.936
  573TIP3    H1 1662   3.098   3.948   4.993
  573TIP3    H2 1663   3.033   4.042   4.895
  574TIP3   OH2 1664   7.229   2.984   3.576
  574TIP3    H1 1665   7.138   3.015   3.575
  574TIP3    H2 1666   7.245   2.960   3.667
  575TIP3   OH2 1667   0.572   0.707   0.912
  575TIP3    H1 1668   0.606   0.683   0.826
  575TIP3    H2 1669   0.649   0.708   0.969
  576TIP3   OH2 1670   3.310   7.450   0.552
  576TIP3    H1 1671   3.329   7.358   0.534
  576TIP3    H2 1672   3.396   7.491   0.560
  577TIP3   OH2 1673   3.782   2.494   3.725
  577TIP3    H1 1674   3.844   2.567   3.724
  577TIP3    H2 1675   3.697   2.535   3.741
  578TIP3   OH2 1676   1.410   2.602   2.842
  578TIP3    H1 1677   1.392   2.604   2.936
  578TIP3    H2 1678   1.501   2.632   2.835
  579TIP3   OH2 1679   3.787   5.446   1.556
  579TIP3    H1 1680   3.837   5.430   1.476
  579TIP3    H2 1681   3.849   5.487   1.616
  580TIP3   OH2 1682   4.841   1.516   2.494
  580TIP3    H1 1683   4.910   1.452   2.478
  580TIP3    H2 1684   4.760   1.466   2.490
  581TIP3   OH2 1685   6.155   1.505   2.071
  581TIP3    H1 1686   6.132   1.561   2.145
  581TIP3    H2 1687   6.149   1.563   1.995
  582TIP3   OH2 1688   6.219   5.165   3.351
  582TIP3    H1 1689   6.144   5.106   3.357
  582TIP3    H2 1690   6.256   5.148   3.265
  583TIP3   OH2 1691   7.033   3.320   0.294
  583TIP3    H1 1692   6.961   3.284   0.347
  583TIP3    H2 1693   6.992   3.344   0.211
  584TIP3   OH2 1694   3.079   7.108   3.817
  584TIP3    H1 1695   3.081   7.165   3.893
  584TIP3    H2 1696   3.028   7.156   3.752
  585TIP3   OH2 1697   7.587   6.141   5.174
  585TIP3    H1 1698   7.623   6.219   5.132
  585TIP3    H2 1699   7.494   6.159   5.184
  586TIP3   OH2 1700   1.502   0.556   0.060
  586TIP3    H1 1701   1.459   0.639   0.039
  586TIP3    H2 1702   1.560   0.577   0.133
  587TIP3   OH2 1703   2.075   6.159   0.087
  587TIP3    H1 1704   2.166   6.189   0.080
  587TIP3    H2 1705   2.082   6.071   0.125
  588TIP3   OH2 1706   6.198   6.966   6.751
  588TIP3    H1 1707   6.255   6.936   6.822
  588TIP3    H2 1708   6.134   6.896   6.740
  589TIP3   OH2 1709   6.565   3.556   1.208
  589TIP3    H1 1710   6.558   3.644   1.170
  589TIP3    H2 1711   6.592   3.500   1.136
  590TIP3   OH2 1712   4.149   0.453   5.802
  590TIP3    H1 1713   4.095   0.482   5.876
  590TIP3    H2 1714   4.163   0.532   5.751
  591TIP3   OH2 1715   3.753   6.001   3.817
  591TIP3    H1 1716   3.777   5.939   3.747
  591TIP3    H2 1717   3.800   5.970   3.894
  592TIP3   OH2 1718   6.132   4.061   5.155
  592TIP3    H1 1719   6.160   4.141   5.110
  592TIP3    H2 1720   6.050   4.086   5.199
  593TIP3   OH2 1721   5.584   4.875   3.066
  593TIP3    H1 1722   5.592   4.783   3.091
  593TIP3    H2 1723   5.527   4.913   3.133
  594TIP3   OH2 1724   2.334   4.934   5.554
  594TIP3    H1 1725   2.277   4.999   5.513
  594TIP3    H2 1726   2.294   4.917   5.639
  595TIP3   OH2 1727   4.190   2.011   5.844
  595TIP3    H1 1728   4.263   2.030   5.785
  595TIP3    H2 1729   4.126   2.080   5.826
  596TIP3   OH2 1730   2.977   6.171   6.382
  596TIP3    H1 1731   2.888   6.164   6.417
  596TIP3    H2 1732   3.030   6.115   6.438
  597TIP3   OH2 1733   7.725   1.292   2.401
  597TIP3    H1 1734   7.633   1.320   2.401
  597TIP3    H2 1735   7.772   1.365   2.441
  598TIP3   OH2 1736   2.684   0.536   5.516
  598TIP3    H1 1737   2.770   0.496   5.526
  598TIP3    H2 1738   2.670   0.539   5.421
  599TIP3   OH2 1739   7.836   4.816   3.437
  599TIP3    H1 1740   7.861   4.770   3.516
  599TIP3    H2 1741   7.876   4.903   3.445
  600TIP3   OH2 1742   7.830   0.470   5.354
  600TIP3    H1 1743   7.781   0.409   5.409
  600TIP3    H2 1744   7.858   0.417   5.279
  601TIP3   OH2 1745   7.151   7.737   4.485
  601TIP3    H1 1746   7.149   7.771   4.575
  601TIP3    H2 1747   7.222   7.672   4.485
  602TIP3   OH2 1748   3.250   2.865   2.127
  602TIP3    H1 1749   3.230   2.902   2.041
  602TIP3    H2 1750   3.180   2.897   2.184
  603TIP3   OH2 1751   1.727   7.749   3.073
  603TIP3    H1 1752   1.757   7.834   3.042
  603TIP3    H2 1753   1.807   7.702   3.096
  604TIP3   OH2 1754   1.581   6.388   6.293
  604TIP3    H1 1755   1.563   6.302   6.330
  604TIP3    H2 1756   1.671   6.407   6.320
  605TIP3   OH2 1757   0.590   2.309   3.794
  605TIP3    H1 1758   0.630   2.227   3.765
  605TIP3    H2 1759   0.645   2.338   3.867
  606TIP3   OH2 1760   0.392   6.757   4.790
  606TIP3    H1 1761   0.316   6.782   4.842
  606TIP3    H2 1762   0.449   6.834   4.791
  607TIP3   OH2 1763   1.944   6.890   2.776
  607TIP3    H1 1764   1.996   6.810   2.770
  607TIP3    H2 1765   1.972   6.943   2.702
  608TIP3   OH2 1766   4.223   3.278   2.346
  608TIP3    H1 1767   4.214   3.303   2.254
  608TIP3    H2 1768   4.277   3.198   2.344
  609TIP3   OH2 1769   5.249   0.669   5.194
  609TIP3    H1 1770   5.298   0.700   5.118
  609TIP3    H2 1771   5.173   0.624   5.155
  610TIP3   OH2 1772   5.798   1.771   0.501
  610TIP3    H1 1773   5.892   1.755   0.513
  610TIP3    H2 1774   5.756   1.707   0.559
  611TIP3   OH2 1775   0.351   0.203   5.866
  611TIP3    H1 1776   0.259   0.175   5.857
  611TIP3    H2 1777   0.367   0.202   5.961
  612TIP3   OH2 1778   2.317   1.507   2.123
  612TIP3    H1 1779   2.361   1.449   2.186
  612TIP3    H2 1780   2.262   1.563   2.177
  613TIP3   OH2 1781   4.163   0.814   1.793
  613TIP3    H1 1782   4.091   0.751   1.788
  613TIP3    H2 1783   4.204   0.796   1.877
  614TIP3   OH2 1784   1.967   7.295   6.596
  614TIP3    H1 1785   1.908   7.352   6.646
  614TIP3    H2 1786   2.049   7.297   6.646
  615TIP3   OH2 1787   1.161   0.856   1.330
  615TIP3    H1 1788   1.200   0.932   1.287
  615TIP3    H2 1789   1.234   0.813   1.375
  616TIP3   OH2 1790   7.169   6.114   3.875
  616TIP3    H1 1791   7.166   6.150   3.786
  616TIP3    H2 1792   7.151   6.189   3.931
  617TIP3   OH2 1793   1.008   5.909   0.216
  617TIP3    H1 1794   1.065   5.840   0.182
  617TIP3    H2 1795   0.925   5.896   0.171
  618TIP3   OH2 1796   1.053   3.236   6.147
  618TIP3    H1 1797   0.994   3.207   6.078
  618TIP3    H2 1798   0.995   3.267   6.217
  619TIP3   OH2 1799   1.705   4.868   2.631
  619TIP3    H1 1800   1.672   4.852   2.719
  619TIP3    H2 1801   1.780   4.808   2.622
  620TIP3   OH2 1802   5.864   0.297   6.537
  620TIP3    H1 1803   5.875   0.299   6.632
  620TIP3    H2 1804   5.775   0.264   6.524
  621TIP3   OH2 1805   0.283   3.255   5.374
  621TIP3    H1 1806   0.326   3.235   5.457
  621TIP3    H2 1807   0.340   3.217   5.307
  622TIP3   OH2 1808   8.248   6.506   1.622
  622TIP3    H1 1809   8.295   6.585   1.597
  622TIP3    H2 1810   8.163   6.513   1.579
  623TIP3   OH2 1811   1.283   0.068   1.681
  623TIP3    H1 1812   1.300   0.038   1.770
  623TIP3    H2 1813   1.306   0.161   1.682
  624TIP3   OH2 1814   8.105   2.079   0.089
  624TIP3    H1 1815   8.068   2.010   0.144
  624TIP3    H2 1816   8.196   2.054   0.077
  625TIP3   OH2 1817   1.044   3.449   5.476
  625TIP3    H1 1818   0.994   3.527   5.452
  625TIP3    H2 1819   1.095   3.428   5.398
  626TIP3   OH2 1820   3.643  -0.011   6.572
  626TIP3    H1 1821   3.722  -0.061   6.554
  626TIP3    H2 1822   3.645   0.004   6.666
  627TIP3   OH2 1823   0.775   5.850   0.825
  627TIP3    H1 1824   0.795   5.778   0.885
  627TIP3    H2 1825   0.712   5.904   0.872
  628TIP3   OH2 1826   7.500   1.533   6.439
  628TIP3    H1 1827   7.463   1.464   6.384
  628TIP3    H2 1828   7.525   1.487   6.520
  629TIP3   OH2 1829   3.355   1.788   2.920
  629TIP3    H1 1830   3.259   1.790   2.912
  629TIP3    H2 1831   3.386   1.773   2.831
  630TIP3   OH2 1832   3.959   0.072   2.940
  630TIP3    H1 1833   3.932  -0.017   2.963
  630TIP3    H2 1834   3.999   0.064   2.854
  631TIP3   OH2 1835   6.758   4.070   6.550
  631TIP3    H1 1836   6.733   4.039   6.463
  631TIP3    H2 1837   6.690   4.036   6.609
  632TIP3   OH2 1838   6.034   7.487   6.613
  632TIP3    H1 1839   5.990   7.571   6.618
  632TIP3    H2 1840   5.971   7.424   6.649
  633TIP3   OH2 1841   2.694   3.298   6.405
  633TIP3    H1 1842   2.779   3.341   6.392
  633TIP3    H2 1843   2.631   3.369   6.408
  634TIP3   OH2 1844   2.859   6.734   6.667
  634TIP3    H1 1845   2.852   6.801   6.735
  634TIP3    H2 1846   2.878   6.784   6.587
  635TIP3   OH2 1847   2.892   6.414   3.434
  635TIP3    H1 1848   2.901   6.509   3.421
  635TIP3    H2 1849   2.911   6.402   3.527
  636TIP3   OH2 1850   3.257   3.205   4.693
  636TIP3    H1 1851   3.202   3.169   4.763
  636TIP3    H2 1852   3.204   3.194   4.614
  637TIP3   OH2 1853   5.503   7.831   5.915
  637TIP3    H1 1854   5.541   7.880   5.988
  637TIP3    H2 1855   5.411   7.819   5.939
  638TIP3   OH2 1856   3.263   7.090   2.209
  638TIP3    H1 1857   3.174   7.124   2.222
  638TIP3    H2 1858   3.259   7.000   2.241
  639TIP3   OH2 1859   3.490   2.977   5.820
  639TIP3    H1 1860   3.437   3.037   5.872
  639TIP3    H2 1861   3.575   3.020   5.813
  640TIP3   OH2 1862   3.313   5.869   5.267
  640TIP3    H1 1863   3.284   5.803   5.330
  640TIP3    H2 1864   3.315   5.950   5.316
  641TIP3   OH2 1865   8.235   4.935   6.277
  641TIP3    H1 1866   8.190   4.861   6.235
  641TIP3    H2 1867   8.272   4.985   6.205
  642TIP3   OH2 1868   1.340   0.620   6.464
  642TIP3    H1 1869   1.428   0.654   6.484
  642TIP3    H2 1870   1.294   0.694   6.426
  643TIP3   OH2 1871   6.217   0.341   1.543
  643TIP3    H1 1872   6.135   0.353   1.591
  643TIP3    H2 1873   6.197   0.369   1.454
  644TIP3   OH2 1874   3.005   5.711   6.721
  644TIP3    H1 1875   3.048   5.722   6.806
  644TIP3    H2 1876   2.932   5.772   6.723
  645TIP3   OH2 1877   4.906   0.478   4.209
  645TIP3    H1 1878   4.900   0.517   4.297
  645TIP3    H2 1879   4.866   0.543   4.152
  646TIP3   OH2 1880   0.309   1.444   1.861
  646TIP3    H1 1881   0.280   1.529   1.828
  646TIP3    H2 1882   0.321   1.391   1.782
  647TIP3   OH2 1883   5.279   5.640   0.766
  647TIP3    H1 1884   5.341   5.580   0.808
  647TIP3    H2 1885   5.291   5.626   0.672
  648TIP3   OH2 1886   4.361   4.068   1.181
  648TIP3    H1 1887   4.404   4.109   1.107
  648TIP3    H2 1888   4.419   3.997   1.207
  649TIP3   OH2 1889   6.380   4.970   3.603
  649TIP3    H1 1890   6.376   5.028   3.528
  649TIP3    H2 1891   6.291   4.968   3.638
  650TIP3   OH2 1892   2.484   1.647   0.364
  650TIP3    H1 1893   2.504   1.645   0.458
  650TIP3    H2 1894   2.390   1.627   0.360
  651TIP3   OH2 1895   5.993   4.685   5.501
  651TIP3    H1 1896   6.069   4.741   5.519
  651TIP3    H2 1897   5.983   4.632   5.580
  652TIP3   OH2 1898   3.003   3.560   2.601
  652TIP3    H1 1899   3.017   3.655   2.605
  652TIP3    H2 1900   3.090   3.523   2.585
  653TIP3   OH2 1901   7.769   0.707   4.414
  653TIP3    H1 1902   7.723   0.790   4.403
  653TIP3    H2 1903   7.724   0.664   4.487
  654TIP3   OH2 1904   2.369   2.004   1.225
  654TIP3    H1 1905   2.363   1.967   1.313
  654TIP3    H2 1906   2.451   2.054   1.225
  655TIP3   OH2 1907   0.372   3.328   1.814
  655TIP3    H1 1908   0.312   3.288   1.878
  655TIP3    H2 1909   0.452   3.343   1.864
  656TIP3   OH2 1910   2.262   5.106   2.474
  656TIP3    H1 1911   2.331   5.055   2.517
  656TIP3    H2 1912   2.267   5.081   2.382
  657TIP3   OH2 1913   5.389   3.795   4.537
  657TIP3    H1 1914   5.328   3.723   4.529
  657TIP3    H2 1915   5.465   3.769   4.484
  658TIP3   OH2 1916   4.838   6.436   4.010
  658TIP3    H1 1917   4.773   6.367   4.020
  658TIP3    H2 1918   4.916   6.391   3.978
  659TIP3   OH2 1919   7.985   4.882   1.159
  659TIP3    H1 1920   7.957   4.946   1.224
  659TIP3    H2 1921   8.030   4.934   1.092
  660TIP3   OH2 1922   4.695   0.180   6.046
  660TIP3    H1 1923   4.629   0.158   6.112
  660TIP3    H2 1924   4.660   0.144   5.965
  661TIP3   OH2 1925   5.624   3.583   3.035
  661TIP3    H1 1926   5.549   3.523   3.031
  661TIP3    H2 1927   5.694   3.538   2.988
  662TIP3   OH2 1928   3.388   4.310   6.749
  662TIP3    H1 1929   3.445   4.387   6.741
  662TIP3    H2 1930   3.309   4.343   6.792
  663TIP3   OH2 1931   8.238   3.797   6.577
  663TIP3    H1 1932   8.171   3.789   6.509
  663TIP3    H2 1933   8.190   3.819   6.656
  664TIP3   OH2 1934   5.144   1.832   4.010
  664TIP3    H1 1935   5.190   1.817   4.093
  664TIP3    H2 1936   5.074   1.767   4.009
  665TIP3   OH2 1937   6.414   1.403   2.142
  665TIP3    H1 1938   6.324   1.435   2.150
  665TIP3    H2 1939   6.443   1.433   2.056
  666TIP3   OH2 1940   0.501   5.713   3.278
  666TIP3    H1 1941   0.449   5.693   3.356
  666TIP3    H2 1942   0.443   5.693   3.205
  667TIP3   OH2 1943   0.924   0.890   0.496
  667TIP3    H1 1944   0.994   0.838   0.457
  667TIP3    H2 1945   0.957   0.980   0.495
  668TIP3   OH2 1946   1.298   3.718   0.503
  668TIP3    H1 1947   1.269   3.719   0.412
  668TIP3    H2 1948   1.304   3.626   0.526
  669TIP3   OH2 1949   6.175   5.771   0.330
  669TIP3    H1 1950   6.089   5.747   0.363
  669TIP3    H2 1951   6.232   5.769   0.407
  670TIP3   OH2 1952   3.770   1.063   1.147
  670TIP3    H1 1953   3.772   1.070   1.243
  670TIP3    H2 1954   3.735   1.147   1.118
  671TIP3   OH2 1955   0.554   1.262   2.289
  671TIP3    H1 1956   0.548   1.343   2.237
  671TIP3    H2 1957   0.647   1.239   2.285
  672TIP3   OH2 1958   4.481   2.026   3.661
  672TIP3    H1 1959   4.545   1.954   3.661
  672TIP3    H2 1960   4.521   2.093   3.716
  673TIP3   OH2 1961   6.667   3.268   4.417
  673TIP3    H1 1962   6.629   3.345   4.461
  673TIP3    H2 1963   6.636   3.194   4.469
  674TIP3   OH2 1964   2.954   3.272   5.288
  674TIP3    H1 1965   2.936   3.365   5.305
  674TIP3    H2 1966   2.954   3.232   5.375
  675TIP3   OH2 1967   5.750   3.730   2.639
  675TIP3    H1 1968   5.731   3.738   2.733
  675TIP3    H2 1969   5.805   3.806   2.620
  676TIP3   OH2 1970   5.093   0.167   3.716
  676TIP3    H1 1971   5.159   0.236   3.722
  676TIP3    H2 1972   5.144   0.086   3.711
  677TIP3   OH2 1973   5.716   4.640   6.374
  677TIP3    H1 1974   5.697   4.650   6.280
  677TIP3    H2 1975   5.655   4.573   6.404
  678TIP3   OH2 1976   1.702   1.615   5.881
  678TIP3    H1 1977   1.759   1.578   5.949
  678TIP3    H2 1978   1.759   1.677   5.834
  679TIP3   OH2 1979   2.044   2.170   3.464
  679TIP3    H1 1980   1.972   2.118   3.500
  679TIP3    H2 1981   2.123   2.129   3.500
  680TIP3   OH2 1982   8.183   3.826   3.430
  680TIP3    H1 1983   8.112   3.812   3.493
  680TIP3    H2 1984   8.247   3.880   3.477
  681TIP3   OH2 1985   3.390   3.378   5.219
  681TIP3    H1 1986   3.410   3.472   5.212
  681TIP3    H2 1987   3.320   3.363   5.155
  682TIP3   OH2 1988   1.102   1.466   1.553
  682TIP3    H1 1989   1.082   1.403   1.623
  682TIP3    H2 1990   1.051   1.544   1.576
  683TIP3   OH2 1991   5.847   0.661   3.239
  683TIP3    H1 1992   5.913   0.592   3.231
  683TIP3    H2 1993   5.896   0.742   3.234
  684TIP3   OH2 1994   3.151   6.656   5.186
  684TIP3    H1 1995   3.106   6.734   5.154
  684TIP3    H2 1996   3.200   6.686   5.262
  685TIP3   OH2 1997   3.147   2.824   5.301
  685TIP3    H1 1998   3.170   2.894   5.240
  685TIP3    H2 1999   3.051   2.829   5.308
  686TIP3   OH2 2000   2.081   4.066   6.182
  686TIP3    H1 2001   2.065   4.057   6.088
  686TIP3    H2 2002   2.176   4.062   6.191
  687TIP3   OH2 2003   4.285   3.212  -0.012
  687TIP3    H1 2004   4.344   3.136  -0.016
  687TIP3    H2 2005   4.343   3.287   0.004
  688TIP3   OH2 2006   5.624   4.713   4.078
  688TIP3    H1 2007   5.529   4.709   4.088
  688TIP3    H2 2008   5.647   4.634   4.029
  689TIP3   OH2 2009   7.115   5.176   1.014
  689TIP3    H1 2010   7.164   5.247   0.973
  689TIP3    H2 2011   7.180   5.131   1.069
  690TIP3   OH2 2012   1.027   5.367   5.050
  690TIP3    H1 2013   1.016   5.317   4.969
  690TIP3    H2 2014   0.962   5.330   5.110
  691TIP3   OH2 2015   2.650   5.828   2.102
  691TIP3    H1 2016   2.668   5.898   2.164
  691TIP3    H2 2017   2.580   5.778   2.143
  692TIP3   OH2 2018   1.116   2.473   5.983
  692TIP3    H1 2019   1.171   2.495   5.908
  692TIP3    H2 2020   1.109   2.555   6.032
  693TIP3   OH2 2021   5.267   1.222   0.852
  693TIP3    H1 2022   5.293   1.195   0.940
  693TIP3    H2 2023   5.214   1.149   0.820
  694TIP3   OH2 2024   4.578   2.496   2.498
  694TIP3    H1 2025   4.661   2.536   2.473
  694TIP3    H2 2026   4.585   2.480   2.592
  695TIP3   OH2 2027   7.750   1.179   5.340
  695TIP3    H1 2028   7.763   1.273   5.327
  695TIP3    H2 2029   7.722   1.147   5.254
  696TIP3   OH2 2030   6.091   5.928   5.797
  696TIP3    H1 2031   6.060   5.897   5.882
  696TIP3    H2 2032   6.178   5.963   5.814
  697TIP3   OH2 2033   4.812   3.570   0.710
  697TIP3    H1 2034   4.897   3.614   0.701
  697TIP3    H2 2035   4.749   3.641   0.707
  698TIP3   OH2 2036   1.594   1.461   5.070
  698TIP3    H1 2037   1.554   1.429   4.989
  698TIP3    H2 2038   1.592   1.557   5.062
  699TIP3   OH2 2039   0.987   4.373   6.649
  699TIP3    H1 2040   0.943   4.296   6.687
  699TIP3    H2 2041   1.056   4.394   6.712
  700TIP3   OH2 2042   6.761   4.632   6.093
  700TIP3    H1 2043   6.686   4.589   6.053
  700TIP3    H2 2044   6.821   4.649   6.020
  701TIP3   OH2 2045   1.559   4.602   1.710
  701TIP3    H1 2046   1.624   4.532   1.707
  701TIP3    H2 2047   1.476   4.557   1.690
  702TIP3   OH2 2048   4.165   5.124   3.175
  702TIP3    H1 2049   4.197   5.212   3.153
  702TIP3    H2 2050   4.142   5.085   3.091
  703TIP3   OH2 2051   0.846   3.197   2.113
  703TIP3    H1 2052   0.900   3.251   2.170
  703TIP3    H2 2053   0.883   3.207   2.026
  704TIP3   OH2 2054   0.208   2.284   2.178
  704TIP3    H1 2055   0.178   2.304   2.267
  704TIP3    H2 2056   0.238   2.194   2.183
  705TIP3   OH2 2057   0.573   0.573   2.850
  705TIP3    H1 2058   0.480   0.573   2.873
  705TIP3    H2 2059   0.578   0.516   2.774
  706TIP3   OH2 2060   3.857   1.664   6.631
  706TIP3    H1 2061   3.898   1.625   6.553
  706TIP3    H2 2062   3.924   1.722   6.667
  707TIP3   OH2 2063   1.164   7.372   3.021
  707TIP3    H1 2064   1.223   7.348   3.093
  707TIP3    H2 2065   1.138   7.289   2.982
  708TIP3   OH2 2066   1.409   7.322   3.190
  708TIP3    H1 2067   1.449   7.403   3.222
  708TIP3    H2 2068   1.483   7.264   3.173
  709TIP3   OH2 2069   2.220   0.817   2.410
  709TIP3    H1 2070   2.179   0.745   2.361
  709TIP3    H2 2071   2.249   0.777   2.492
  710TIP3   OH2 2072   2.412   3.588   1.695
  710TIP3    H1 2073   2.459   3.532   1.634
  710TIP3    H2 2074   2.345   3.632   1.642
  711TIP3   OH2 2075   2.342   2.762   2.588
  711TIP3    H1 2076   2.407   2.692   2.577
  711TIP3    H2 2077   2.307   2.748   2.676
  712TIP3   OH2 2078   6.276   0.082   3.593
  712TIP3    H1 2079   6.369   0.070   3.613
  712TIP3    H2 2080   6.235   0.000   3.621
  713TIP3   OH2 2081   5.746   6.803   2.194
  713TIP3    H1 2082   5.835   6.793   2.228
  713TIP3    H2 2083   5.751   6.880   2.137
  714TIP3   OH2 2084   3.380   3.882   5.941
  714TIP3    H1 2085   3.408   3.952   6.001
  714TIP3    H2 2086   3.352   3.811   5.999
  715TIP3   OH2 2087   5.443   7.178   1.183
  715TIP3    H1 2088   5.385   7.252   1.170
  715TIP3    H2 2089   5.438   7.160   1.277
  716TIP3   OH2 2090   5.114   4.521   6.591
  716TIP3    H1 2091   5.199   4.551   6.625
  716TIP3    H2 2092   5.114   4.427   6.604
  717TIP3   OH2 2093   1.018   2.350   4.333
  717TIP3    H1 2094   1.006   2.368   4.239
  717TIP3    H2 2095   1.022   2.255   4.338
  718TIP3   OH2 2096   3.341   2.092   6.514
  718TIP3    H1 2097   3.401   2.031   6.557
  718TIP3    H2 2098   3.396   2.166   6.489
  719TIP3   OH2 2099   4.642   2.888   5.827
  719TIP3    H1 2100   4.731   2.878   5.862
  719TIP3    H2 2101   4.626   2.806   5.780
  720TIP3   OH2 2102   3.302   1.300   3.060
  720TIP3    H1 2103   3.227   1.304   3.000
  720TIP3    H2 2104   3.307   1.208   3.086
  721TIP3   OH2 2105   5.239   5.817   3.383
  721TIP3    H1 2106   5.288   5.899   3.380
  721TIP3    H2 2107   5.294   5.758   3.435
  722TIP3   OH2 2108   5.897   3.029   0.505
  722TIP3    H1 2109   5.895   3.123   0.488
  722TIP3    H2 2110   5.899   3.021   0.600
  723TIP3   OH2 2111   7.237   5.084   3.696
  723TIP3    H1 2112   7.301   5.046   3.756
  723TIP3    H2 2113   7.153   5.074   3.741
  724TIP3   OH2 2114   0.093   6.068   5.886
  724TIP3    H1 2115   0.175   6.029   5.857
  724TIP3    H2 2116   0.025   6.010   5.849
  725TIP3   OH2 2117   7.172   3.723   5.143
  725TIP3    H1 2118   7.141   3.769   5.220
  725TIP3    H2 2119   7.252   3.679   5.172
  726TIP3   OH2 2120   3.131   0.780   3.466
  726TIP3    H1 2121   3.145   0.874   3.478
  726TIP3    H2 2122   3.036   0.770   3.467
  727TIP3   OH2 2123   7.828   4.766   6.501
  727TIP3    H1 2124   7.874   4.848   6.512
  727TIP3    H2 2125   7.748   4.790   6.453
  728TIP3   OH2 2126   3.608   3.479   6.181
  728TIP3    H1 2127   3.557   3.399   6.193
  728TIP3    H2 2128   3.620   3.486   6.087
  729TIP3   OH2 2129   2.822   3.036   3.755
  729TIP3    H1 2130   2.762   3.025   3.682
  729TIP3    H2 2131   2.831   3.131   3.766
  730TIP3   OH2 2132   7.641   7.490   2.904
  730TIP3    H1 2133   7.621   7.411   2.853
  730TIP3    H2 2134   7.708   7.462   2.966
  731TIP3   OH2 2135   7.089   0.633   5.350
  731TIP3    H1 2136   7.069   0.717   5.310
  731TIP3    H2 2137   7.185   0.633   5.358
  732TIP3   OH2 2138   3.066   3.434   0.756
  732TIP3    H1 2139   3.119   3.405   0.830
  732TIP3    H2 2140   3.010   3.359   0.735
  733TIP3   OH2 2141   6.628   0.926   4.768
  733TIP3    H1 2142   6.632   0.955   4.859
  733TIP3    H2 2143   6.684   0.988   4.721
  734TIP3   OH2 2144   5.964   5.869   2.378
  734TIP3    H1 2145   5.995   5.897   2.292
  734TIP3    H2 2146   5.879   5.829   2.361
  735TIP3   OH2 2147   0.377   2.652   2.872
  735TIP3    H1 2148   0.462   2.693   2.893
  735TIP3    H2 2149   0.312   2.711   2.912
  736TIP3   OH2 2150   1.792   0.266   3.284
  736TIP3    H1 2151   1.699   0.284   3.299
  736TIP3    H2 2152   1.793   0.196   3.219
  737TIP3   OH2 2153   0.926   6.494   5.633
  737TIP3    H1 2154   0.917   6.589   5.646
  737TIP3    H2 2155   1.020   6.479   5.637
  738TIP3   OH2 2156   2.041   2.269   0.477
  738TIP3    H1 2157   1.963   2.318   0.506
  738TIP3    H2 2158   2.104   2.282   0.547
  739TIP3   OH2 2159   5.479   4.349   6.153
  739TIP3    H1 2160   5.453   4.285   6.220
  739TIP3    H2 2161   5.469   4.433   6.197
  740TIP3   OH2 2162   3.487   6.766   5.151
  740TIP3    H1 2163   3.571   6.804   5.125
  740TIP3    H2 2164   3.421   6.825   5.113
  741TIP3   OH2 2165   5.037   3.301   1.923
  741TIP3    H1 2166   5.011   3.370   1.983
  741TIP3    H2 2167   5.064   3.229   1.980
  742TIP3   OH2 2168   4.960   3.897   0.585
  742TIP3    H1 2169   4.940   3.896   0.491
  742TIP3    H2 2170   4.912   3.972   0.620
  743TIP3   OH2 2171   3.059   0.979   3.931
  743TIP3    H1 2172   3.015   0.986   3.846
  743TIP3    H2 2173   3.110   1.060   3.938
  744TIP3   OH2 2174   2.190   6.960   1.680
  744TIP3    H1 2175   2.232   6.906   1.747
  744TIP3    H2 2176   2.210   6.915   1.598
  745TIP3   OH2 2177   7.702   6.154   4.781
  745TIP3    H1 2178   7.778   6.212   4.780
  745TIP3    H2 2179   7.629   6.211   4.805
  746TIP3   OH2 2180   5.501   3.476   5.885
  746TIP3    H1 2181   5.544   3.390   5.880
  746TIP3    H2 2182   5.501   3.497   5.978
  747TIP3   OH2 2183   2.899   7.468   0.950
  747TIP3    H1 2184   2.952   7.478   1.029
  747TIP3    H2 2185   2.960   7.442   0.882
  748TIP3   OH2 2186   2.306   3.562   0.311
  748TIP3    H1 2187   2.274   3.618   0.240
  748TIP3    H2 2188   2.401   3.570   0.307
  749TIP3   OH2 2189   3.230   5.799   3.324
  749TIP3    H1 2190   3.316   5.831   3.350
  749TIP3    H2 2191   3.220   5.828   3.234
  750TIP3   OH2 2192   5.615   5.569   6.288
  750TIP3    H1 2193   5.672   5.522   6.349
  750TIP3    H2 2194   5.577   5.639   6.341
  751TIP3   OH2 2195   5.430   2.048   3.254
  751TIP3    H1 2196   5.434   2.013   3.343
  751TIP3    H2 2197   5.388   2.133   3.263
  752TIP3   OH2 2198   3.932   0.545   3.017
  752TIP3    H1 2199   3.900   0.458   2.992
  752TIP3    H2 2200   4.027   0.535   3.020
  753TIP3   OH2 2201   3.023   2.294   2.319
  753TIP3    H1 2202   2.967   2.266   2.391
  753TIP3    H2 2203   2.966   2.348   2.264
  754TIP3   OH2 2204   2.247   1.923   2.281
  754TIP3    H1 2205   2.201   1.839   2.277
  754TIP3    H2 2206   2.186   1.985   2.243
  755TIP3   OH2 2207   3.638   2.717   0.481
  755TIP3    H1 2208   3.623   2.646   0.543
  755TIP3    H2 2209   3.657   2.793   0.536
  756TIP3   OH2 2210   4.581   6.354   0.800
  756TIP3    H1 2211   4.572   6.300   0.721
  756TIP3    H2 2212   4.528   6.309   0.866
  757TIP3   OH2 2213   2.703   3.616   6.627
  757TIP3    H1 2214   2.715   3.531   6.668
  757TIP3    H2 2215   2.633   3.602   6.562
  758TIP3   OH2 2216   2.652   7.547   3.281
  758TIP3    H1 2217   2.659   7.477   3.216
  758TIP3    H2 2218   2.600   7.509   3.352
  759TIP3   OH2 2219   3.449   4.852   5.635
  759TIP3    H1 2220   3.399   4.903   5.572
  759TIP3    H2 2221   3.389   4.838   5.708
  760TIP3   OH2 2222   0.556   4.235   0.959
  760TIP3    H1 2223   0.581   4.213   0.869
  760TIP3    H2 2224   0.636   4.270   0.998
  761TIP3   OH2 2225   5.966   0.304   1.644
  761TIP3    H1 2226   5.913   0.311   1.724
  761TIP3    H2 2227   5.904   0.277   1.577
  762TIP3   OH2 2228   8.183   1.404   0.609
  762TIP3    H1 2229   8.273   1.428   0.586
  762TIP3    H2 2230   8.153   1.476   0.664
  763TIP3   OH2 2231   6.954   7.804   1.931
  763TIP3    H1 2232   6.986   7.781   1.844
  763TIP3    H2 2233   7.027   7.852   1.971
  764TIP3   OH2 2234   5.874   0.067   4.242
  764TIP3    H1 2235   5.783   0.083   4.269
  764TIP3    H2 2236   5.925   0.078   4.322
  765TIP3   OH2 2237   7.805   1.268   0.140
  765TIP3    H1 2238   7.843   1.219   0.213
  765TIP3    H2 2239   7.839   1.357   0.151
  766TIP3   OH2 2240   2.161   3.450   1.495
  766TIP3    H1 2241   2.165   3.357   1.471
  766TIP3    H2 2242   2.253   3.478   1.497
  767TIP3   OH2 2243   6.913   3.650   5.890
  767TIP3    H1 2244   6.833   3.674   5.937
  767TIP3    H2 2245   6.883   3.629   5.802
  768TIP3   OH2 2246   8.189   4.192   0.143
  768TIP3    H1 2247   8.278   4.157   0.141
  768TIP3    H2 2248   8.140   4.138   0.081
  769TIP3   OH2 2249   7.146   5.262   3.532
  769TIP3    H1 2250   7.194   5.206   3.592
  769TIP3    H2 2251   7.095   5.201   3.478
  770TIP3   OH2 2252   6.874   0.590   3.272
  770TIP3    H1 2253   6.967   0.578   3.292
  770TIP3    H2 2254   6.871   0.666   3.214
  771TIP3   OH2 2255   5.671   6.078   3.016
  771TIP3    H1 2256   5.737   6.097   2.949
  771TIP3    H2 2257   5.675   6.153   3.075
  772TIP3   OH2 2258   3.388   2.676   4.063
  772TIP3    H1 2259   3.337   2.747   4.026
  772TIP3    H2 2260   3.326   2.604   4.074
  773TIP3   OH2 2261   6.071   5.484   6.683
  773TIP3    H1 2262   6.123   5.530   6.749
  773TIP3    H2 2263   6.063   5.395   6.717
  774TIP3   OH2 2264   0.564   7.396   3.613
  774TIP3    H1 2265   0.490   7.427   3.665
  774TIP3    H2 2266   0.632   7.463   3.628
  775TIP3   OH2 2267   5.954   4.354   1.667
  775TIP3    H1 2268   5.962   4.400   1.750
  775TIP3    H2 2269   5.912   4.270   1.689
  776TIP3   OH2 2270   2.665   5.684   5.384
  776TIP3    H1 2271   2.660   5.737   5.465
  776TIP3    H2 2272   2.614   5.734   5.320
  777TIP3   OH2 2273   4.983   6.877   5.737
  777TIP3    H1 2274   4.937   6.793   5.747
  777TIP3    H2 2275   5.004   6.881   5.643
  778TIP3   OH2 2276   5.392   6.352   4.204
  778TIP3    H1 2277   5.339   6.429   4.224
  778TIP3    H2 2278   5.383   6.297   4.281
  779TIP3   OH2 2279   1.461   7.743   5.383
  779TIP3    H1 2280   1.550   7.777   5.389
  779TIP3    H2 2281   1.412   7.791   5.449
  780TIP3   OH2 2282   6.112   4.801   5.756
  780TIP3    H1 2283   6.172   4.858   5.708
  780TIP3    H2 2284   6.102   4.843   5.841
  781TIP3   OH2 2285   4.297   6.894   0.093
  781TIP3    H1 2286   4.280   6.809   0.052
  781TIP3    H2 2287   4.392   6.905   0.088
  782TIP3   OH2 2288   6.255   0.939   3.454
  782TIP3    H1 2289   6.304   0.926   3.535
  782TIP3    H2 2290   6.212   1.024   3.466
  783TIP3   OH2 2291   8.246   2.524   3.263
  783TIP3    H1 2292   8.223   2.431   3.261
  783TIP3    H2 2293   8.315   2.532   3.197
  784TIP3   OH2 2294   4.780   7.092   1.568
  784TIP3    H1 2295   4.793   7.073   1.661
  784TIP3    H2 2296   4.839   7.166   1.550
  785TIP3   OH2 2297   1.350   6.267   1.067
  785TIP3    H1 2298   1.279   6.267   1.003
  785TIP3    H2 2299   1.320   6.323   1.137
  786TIP3   OH2 2300   4.393   4.769   6.545
  786TIP3    H1 2301   4.433   4.839   6.494
  786TIP3    H2 2302   4.317   4.742   6.493
  787TIP3   OH2 2303   1.552   1.043   5.969
  787TIP3    H1 2304   1.535   1.122   5.918
  787TIP3    H2 2305   1.521   0.971   5.914
  788TIP3   OH2 2306   0.798   0.247   2.095
  788TIP3    H1 2307   0.723   0.249   2.154
  788TIP3    H2 2308   0.776   0.308   2.025
  789TIP3   OH2 2309   7.189   4.568   0.210
  789TIP3    H1 2310   7.109   4.527   0.242
  789TIP3    H2 2311   7.160   4.640   0.155
  790TIP3   OH2 2312   2.541   6.827   4.105
  790TIP3    H1 2313   2.572   6.796   4.190
  790TIP3    H2 2314   2.522   6.747   4.056
  791TIP3   OH2 2315   0.265   1.876   6.153
  791TIP3    H1 2316   0.268   1.916   6.066
  791TIP3    H2 2317   0.316   1.796   6.145
  792TIP3   OH2 2318   1.220   5.177   3.133
  792TIP3    H1 2319   1.166   5.192   3.210
  792TIP3    H2 2320   1.248   5.086   3.140
  793TIP3   OH2 2321   0.770   5.990   1.435
  793TIP3    H1 2322   0.737   5.912   1.481
  793TIP3    H2 2323   0.704   6.057   1.453
  794TIP3   OH2 2324   6.129   0.648   5.142
  794TIP3    H1 2325   6.213   0.642   5.188
  794TIP3    H2 2326   6.135   0.729   5.091
  795TIP3   OH2 2327   2.794   0.905   4.034
  795TIP3    H1 2328   2.831   0.946   4.112
  795TIP3    H2 2329   2.745   0.975   3.991
  796TIP3   OH2 2330   1.740   4.518   2.726
  796TIP3    H1 2331   1.766   4.525   2.633
  796TIP3    H2 2332   1.798   4.451   2.761
  797TIP3   OH2 2333   2.601   1.691   4.680
  797TIP3    H1 2334   2.576   1.642   4.758
  797TIP3    H2 2335   2.657   1.762   4.712
  798TIP3   OH2 2336   3.355   6.932   1.345
  798TIP3    H1 2337   3.342   6.935   1.250
  798TIP3    H2 2338   3.369   6.840   1.365
  799TIP3   OH2 2339   0.619   2.344   5.429
  799TIP3    H1 2340   0.646   2.319   5.517
  799TIP3    H2 2341   0.590   2.435   5.438
  800TIP3   OH2 2342   2.617   4.417   6.614
  800TIP3    H1 2343   2.628   4.506   6.648
  800TIP3    H2 2344   2.697   4.399   6.565
  801TIP3   OH2 2345   6.922   6.437   3.213
  801TIP3    H1 2346   6.877   6.365   3.169
  801TIP3    H2 2347   6.852   6.486   3.257
  802TIP3   OH2 2348   7.976   6.552   4.596
  802TIP3    H1 2349   7.934   6.605   4.528
  802TIP3    H2 2350   7.957   6.598   4.677
  803TIP3   OH2 2351   7.895   1.953   6.742
  803TIP3    H1 2352   7.940   1.888   6.796
  803TIP3    H2 2353   7.941   1.949   6.658
  804TIP3   OH2 2354   2.981   5.037   0.965
  804TIP3    H1 2355   2.930   4.974   0.912
  804TIP3    H2 2356   3.071   5.005   0.959
  805TIP3   OH2 2357   0.704   6.538   3.965
  805TIP3    H1 2358   0.686   6.627   3.994
  805TIP3    H2 2359   0.699   6.542   3.869
  806TIP3   OH2 2360   7.421   2.200   1.754
  806TIP3    H1 2361   7.417   2.290   1.787
  806TIP3    H2 2362   7.515   2.183   1.743
  807TIP3   OH2 2363   0.886   0.583   4.042
  807TIP3    H1 2364   0.902   0.593   3.948
  807TIP3    H2 2365   0.972   0.564   4.079
  808TIP3   OH2 2366   6.313   0.418   0.955
  808TIP3    H1 2367   6.358   0.392   0.874
  808TIP3    H2 2368   6.240   0.472   0.925
  809TIP3   OH2 2369   6.716   5.099   0.466
  809TIP3    H1 2370   6.761   5.064   0.542
  809TIP3    H2 2371   6.631   5.128   0.500
  810TIP3   OH2 2372   2.113   7.680   5.329
  810TIP3    H1 2373   2.183   7.745   5.322
  810TIP3    H2 2374   2.149   7.611   5.385
  811TIP3   OH2 2375   8.135   1.031   2.123
  811TIP3    H1 2376   8.058   1.087   2.131
  811TIP3    H2 2377   8.208   1.087   2.152
  812TIP3   OH2 2378   5.870   1.869   4.018
  812TIP3    H1 2379   5.946   1.928   4.016
  812TIP3    H2 2380   5.814   1.903   4.087
  813TIP3   OH2 2381   2.713   2.682   4.585
  813TIP3    H1 2382   2.748   2.736   4.655
  813TIP3    H2 2383   2.619   2.699   4.586
  814TIP3   OH2 2384   1.307   7.262   4.745
  814TIP3    H1 2385   1.379   7.326   4.743
  814TIP3    H2 2386   1.318   7.212   4.664
  815TIP3   OH2 2387   5.265   6.155   4.078
  815TIP3    H1 2388   5.339   6.216   4.078
  815TIP3    H2 2389   5.306   6.068   4.087
  816TIP3   OH2 2390   6.259   2.568   2.043
  816TIP3    H1 2391   6.189   2.548   1.981
  816TIP3    H2 2392   6.218   2.624   2.109
  817TIP3   OH2 2393   2.523   2.232   6.201
  817TIP3    H1 2394   2.472   2.211   6.278
  817TIP3    H2 2395   2.476   2.191   6.128
  818TIP3   OH2 2396   6.911   4.754   1.217
  818TIP3    H1 2397   6.951   4.713   1.293
  818TIP3    H2 2398   6.822   4.722   1.216
  819TIP3   OH2 2399   3.722   5.546   4.806
  819TIP3    H1 2400   3.781   5.512   4.739
  819TIP3    H2 2401   3.644   5.573   4.759
  820TIP3   OH2 2402   6.583   4.143   3.903
  820TIP3    H1 2403   6.498   4.117   3.865
  820TIP3    H2 2404   6.635   4.170   3.828
  821TIP3   OH2 2405   7.114   3.516   3.495
  821TIP3    H1 2406   7.076   3.597   3.527
  821TIP3    H2 2407   7.177   3.543   3.429
  822TIP3   OH2 2408   2.275   6.698   6.753
  822TIP3    H1 2409   2.197   6.643   6.740
  822TIP3    H2 2410   2.343   6.656   6.699
  823TIP3   OH2 2411   6.614   2.517   2.722
  823TIP3    H1 2412   6.528   2.493   2.755
  823TIP3    H2 2413   6.653   2.434   2.693
  824TIP3   OH2 2414   2.035   5.671   4.073
  824TIP3    H1 2415   2.068   5.703   3.989
  824TIP3    H2 2416   1.945   5.644   4.054
  825TIP3   OH2 2417   1.827   7.811   0.355
  825TIP3    H1 2418   1.875   7.729   0.356
  825TIP3    H2 2419   1.881   7.872   0.405
  826TIP3   OH2 2420   2.959   0.328   0.037
  826TIP3    H1 2421   2.935   0.275   0.113
  826TIP3    H2 2422   3.051   0.351   0.052
  827TIP3   OH2 2423   7.443   1.011   5.190
  827TIP3    H1 2424   7.438   1.103   5.217
  827TIP3    H2 2425   7.500   1.012   5.114
  828TIP3   OH2 2426   1.132   1.225   3.429
  828TIP3    H1 2427   1.081   1.152   3.465
  828TIP3    H2 2428   1.090   1.242   3.344
  829TIP3   OH2 2429   1.132   3.530   1.277
  829TIP3    H1 2430   1.168   3.600   1.332
  829TIP3    H2 2431   1.118   3.571   1.192
  830TIP3   OH2 2432   5.455   0.253   4.546
  830TIP3    H1 2433   5.514   0.263   4.621
  830TIP3    H2 2434   5.374   0.296   4.575
  831TIP3   OH2 2435   5.878   3.024   5.214
  831TIP3    H1 2436   5.839   3.057   5.295
  831TIP3    H2 2437   5.821   3.057   5.144
  832TIP3   OH2 2438   6.332   3.879   4.466
  832TIP3    H1 2439   6.266   3.883   4.397
  832TIP3    H2 2440   6.416   3.873   4.419
  833TIP3   OH2 2441   6.255   1.453   2.715
  833TIP3    H1 2442   6.203   1.533   2.708
  833TIP3    H2 2443   6.221   1.395   2.648
  834TIP3   OH2 2444   7.595   3.139   3.481
  834TIP3    H1 2445   7.533   3.097   3.421
  834TIP3    H2 2446   7.647   3.197   3.426
  835TIP3   OH2 2447   5.229   4.144   1.058
  835TIP3    H1 2448   5.249   4.148   0.964
  835TIP3    H2 2449   5.307   4.179   1.101
  836TIP3   OH2 2450   8.062   0.099   1.475
  836TIP3    H1 2451   8.128   0.031   1.458
  836TIP3    H2 2452   8.110   0.181   1.465
  837TIP3   OH2 2453   8.025   3.217   4.014
  837TIP3    H1 2454   8.075   3.257   4.085
  837TIP3    H2 2455   8.040   3.123   4.023
  838TIP3   OH2 2456   1.233   1.346   0.265
  838TIP3    H1 2457   1.249   1.355   0.359
  838TIP3    H2 2458   1.139   1.361   0.255
  839TIP3   OH2 2459   7.720   0.088   2.890
  839TIP3    H1 2460   7.742   0.134   2.972
  839TIP3    H2 2461   7.630   0.058   2.902
  840TIP3   OH2 2462   7.882   1.778   2.675
  840TIP3    H1 2463   7.811   1.724   2.643
  840TIP3    H2 2464   7.890   1.849   2.611
  841TIP3   OH2 2465   6.699   6.673   5.328
  841TIP3    H1 2466   6.641   6.618   5.381
  841TIP3    H2 2467   6.641   6.725   5.274
  842TIP3   OH2 2468   2.247   6.250   6.527
  842TIP3    H1 2469   2.287   6.166   6.552
  842TIP3    H2 2470   2.159   6.227   6.499
  843TIP3   OH2 2471   6.101   4.309   4.323
  843TIP3    H1 2472   6.179   4.293   4.270
  843TIP3    H2 2473   6.095   4.404   4.329
  844TIP3   OH2 2474   6.670   3.500   0.223
  844TIP3    H1 2475   6.626   3.420   0.194
  844TIP3    H2 2476   6.637   3.515   0.312
  845TIP3   OH2 2477   2.961   4.575   5.044
  845TIP3    H1 2478   3.035   4.630   5.069
  845TIP3    H2 2479   2.913   4.627   4.979
  846TIP3   OH2 2480   2.841   7.383   1.327
  846TIP3    H1 2481   2.889   7.438   1.266
  846TIP3    H2 2482   2.749   7.398   1.307
  847TIP3   OH2 2483   5.347   2.446   2.707
  847TIP3    H1 2484   5.403   2.435   2.630
  847TIP3    H2 2485   5.290   2.369   2.706
  848TIP3   OH2 2486   5.566   0.777   5.653
  848TIP3    H1 2487   5.493   0.805   5.597
  848TIP3    H2 2488   5.560   0.681   5.653
  849TIP3   OH2 2489   6.912   6.646   1.537
  849TIP3    H1 2490   6.867   6.598   1.467
  849TIP3    H2 2491   6.889   6.738   1.520
  850TIP3   OH2 2492   1.903   1.535   2.816
  850TIP3    H1 2493   1.954   1.591   2.757
  850TIP3    H2 2494   1.966   1.471   2.849
  851TIP3   OH2 2495   7.040   2.120   4.709
  851TIP3    H1 2496   7.025   2.038   4.757
  851TIP3    H2 2497   7.049   2.093   4.618
  852TIP3   OH2 2498   0.239   3.544   5.424
  852TIP3    H1 2499   0.156   3.542   5.471
  852TIP3    H2 2500   0.254   3.454   5.397
  853TIP3   OH2 2501   5.249   5.083   1.956
  853TIP3    H1 2502   5.290   5.055   2.038
  853TIP3    H2 2503   5.207   5.166   1.977
  854TIP3   OH2 2504   3.694   0.743   2.370
  854TIP3    H1 2505   3.636   0.747   2.447
  854TIP3    H2 2506   3.781   0.758   2.405
  855TIP3   OH2 2507   7.103   4.224   2.791
  855TIP3    H1 2508   7.056   4.306   2.806
  855TIP3    H2 2509   7.192   4.241   2.820
  856TIP3   OH2 2510   8.272   4.336   0.802
  856TIP3    H1 2511   8.193   4.365   0.757
  856TIP3    H2 2512   8.243   4.315   0.891
  857TIP3   OH2 2513   6.669   2.783   3.016
  857TIP3    H1 2514   6.610   2.772   2.940
  857TIP3    H2 2515   6.671   2.697   3.057
  858TIP3   OH2 2516   0.585   1.143   3.387
  858TIP3    H1 2517   0.526   1.205   3.430
  858TIP3    H2 2518   0.527   1.088   3.335
  859TIP3   OH2 2519   6.551   6.624   4.532
  859TIP3    H1 2520   6.517   6.547   4.578
  859TIP3    H2 2521   6.598   6.589   4.457
  860TIP3   OH2 2522   4.394   0.414   3.261
  860TIP3    H1 2523   4.396   0.373   3.347
  860TIP3    H2 2524   4.327   0.482   3.267
  861TIP3   OH2 2525   0.930   0.095   5.257
  861TIP3    H1 2526   0.878   0.075   5.179
  861TIP3    H2 2527   1.018   0.113   5.223
  862TIP3   OH2 2528   5.016   0.013   0.959
  862TIP3    H1 2529   5.107  -0.017   0.953
  862TIP3    H2 2530   5.007   0.075   0.886
  863TIP3   OH2 2531   7.862   0.336   0.880
  863TIP3    H1 2532   7.799   0.403   0.905
  863TIP3    H2 2533   7.929   0.384   0.831
  864TIP3   OH2 2534   1.818   3.820   1.618
  864TIP3    H1 2535   1.846   3.730   1.600
  864TIP3    H2 2536   1.884   3.854   1.678
  865TIP3   OH2 2537   3.684   7.271   0.465
  865TIP3    H1 2538   3.679   7.309   0.553
  865TIP3    H2 2539   3.689   7.176   0.481
  866TIP3   OH2 2540   2.592   2.847   6.177
  866TIP3    H1 2541   2.588   2.923   6.235
  866TIP3    H2 2542   2.646   2.876   6.103
  867TIP3   OH2 2543   1.533   3.677   1.393
  867TIP3    H1 2544   1.610   3.621   1.395
  867TIP3    H2 2545   1.484   3.653   1.472
  868TIP3   OH2 2546   7.192  -0.022   1.722
  868TIP3    H1 2547   7.119  -0.007   1.662
  868TIP3    H2 2548   7.165   0.020   1.804
  869TIP3   OH2 2549   3.761   1.724   3.819
  869TIP3    H1 2550   3.832   1.730   3.883
  869TIP3    H2 2551   3.763   1.807   3.772
  870TIP3   OH2 2552   6.080   3.118   0.756
  870TIP3    H1 2553   6.065   3.205   0.722
  870TIP3    H2 2554   6.039   3.118   0.843
  871TIP3   OH2 2555   2.902   5.714   4.999
  871TIP3    H1 2556   2.990   5.690   4.969
  871TIP3    H2 2557   2.914   5.735   5.092
  872TIP3   OH2 2558   1.871   7.184   2.971
  872TIP3    H1 2559   1.835   7.095   2.973
  872TIP3    H2 2560   1.899   7.201   3.061
  873TIP3   OH2 2561   4.754   4.794   1.174
  873TIP3    H1 2562   4.833   4.753   1.139
  873TIP3    H2 2563   4.777   4.886   1.183
  874TIP3   OH2 2564   2.458   4.870   1.326
  874TIP3    H1 2565   2.421   4.803   1.384
  874TIP3    H2 2566   2.538   4.897   1.370
  875TIP3   OH2 2567   1.631   2.238   6.193
  875TIP3    H1 2568   1.612   2.166   6.133
  875TIP3    H2 2569   1.715   2.216   6.232
  876TIP3   OH2 2570   3.870   0.344   6.075
  876TIP3    H1 2571   3.884   0.254   6.105
  876TIP3    H2 2572   3.938   0.395   6.119
  877TIP3   OH2 2573   6.456   4.554   5.228
  877TIP3    H1 2574   6.533   4.612   5.226
  877TIP3    H2 2575   6.490   4.470   5.257
  878TIP3   OH2 2576   7.742   5.977   2.830
  878TIP3    H1 2577   7.711   5.948   2.745
  878TIP3    H2 2578   7.703   5.915   2.892
  879TIP3   OH2 2579   8.225   2.438   2.594
  879TIP3    H1 2580   8.141   2.408   2.628
  879TIP3    H2 2581   8.277   2.458   2.672
  880TIP3   OH2 2582   8.078   5.496   5.095
  880TIP3    H1 2583   8.040   5.554   5.161
  880TIP3    H2 2584   8.167   5.530   5.082
  881TIP3   OH2 2585   2.802   0.256   2.519
  881TIP3    H1 2586   2.832   0.192   2.583
  881TIP3    H2 2587   2.712   0.228   2.498
  882TIP3   OH2 2588   8.033   1.323   4.477
  882TIP3    H1 2589   8.027   1.273   4.396
  882TIP3    H2 2590   7.971   1.395   4.467
  883TIP3   OH2 2591   8.057   1.055   0.005
  883TIP3    H1 2592   8.066   1.041   0.099
  883TIP3    H2 2593   8.144   1.041  -0.031
  884TIP3   OH2 2594   1.241   2.322   5.307
  884TIP3    H1 2595   1.313   2.315   5.370
  884TIP3    H2 2596   1.271   2.386   5.243
  885TIP3   OH2 2597   7.092   6.971   2.634
  885TIP3    H1 2598   6.996   6.979   2.637
  885TIP3    H2 2599   7.120   7.039   2.574
  886TIP3   OH2 2600   1.927   7.161   0.273
  886TIP3    H1 2601   1.927   7.236   0.214
  886TIP3    H2 2602   1.975   7.190   0.350
  887TIP3   OH2 2603   3.044   2.136   4.263
  887TIP3    H1 2604   3.032   2.231   4.265
  887TIP3    H2 2605   3.007   2.106   4.346
  888TIP3   OH2 2606   4.785   5.843   1.331
  888TIP3    H1 2607   4.722   5.770   1.330
  888TIP3    H2 2608   4.857   5.811   1.385
  889TIP3   OH2 2609   1.282   6.368   2.477
  889TIP3    H1 2610   1.278   6.462   2.462
  889TIP3    H2 2611   1.266   6.357   2.571
  890TIP3   OH2 2612   0.986   4.139   1.220
  890TIP3    H1 2613   1.062   4.172   1.267
  890TIP3    H2 2614   0.944   4.218   1.185
  891TIP3   OH2 2615   0.658   3.146   4.054
  891TIP3    H1 2616   0.684   3.234   4.026
  891TIP3    H2 2617   0.563   3.148   4.054
  892TIP3   OH2 2618   4.286   3.067   4.504
  892TIP3    H1 2619   4.235   3.131   4.552
  892TIP3    H2 2620   4.243   2.983   4.523
  893TIP3   OH2 2621   6.708   2.814   3.780
  893TIP3    H1 2622   6.741   2.903   3.771
  893TIP3    H2 2623   6.663   2.797   3.697
  894TIP3   OH2 2624   1.023   6.977   2.471
  894TIP3    H1 2625   1.054   7.064   2.446
  894TIP3    H2 2626   1.089   6.944   2.532
  895TIP3   OH2 2627   0.285   7.270   6.325
  895TIP3    H1 2628   0.308   7.304   6.238
  895TIP3    H2 2629   0.280   7.175   6.313
  896TIP3   OH2 2630   1.526   1.531   1.408
  896TIP3    H1 2631   1.444   1.490   1.377
  896TIP3    H2 2632   1.577   1.545   1.329
  897TIP3   OH2 2633   7.103   2.990   4.706
  897TIP3    H1 2634   7.181   2.936   4.706
  897TIP3    H2 2635   7.043   2.947   4.645
  898TIP3   OH2 2636   3.855   7.327   3.341
  898TIP3    H1 2637   3.815   7.402   3.297
  898TIP3    H2 2638   3.799   7.253   3.317
  899TIP3   OH2 2639   3.733   1.366   1.530
  899TIP3    H1 2640   3.768   1.364   1.619
  899TIP3    H2 2641   3.809   1.380   1.474
  900TIP3   OH2 2642   5.853   3.305   1.512
  900TIP3    H1 2643   5.944   3.292   1.538
  900TIP3    H2 2644   5.812   3.347   1.588
  901TIP3   OH2 2645   3.880   7.774   6.163
  901TIP3    H1 2646   3.908   7.809   6.078
  901TIP3    H2 2647   3.947   7.710   6.186
  902TIP3   OH2 2648   6.485   2.125   6.466
  902TIP3    H1 2649   6.518   2.076   6.391
  902TIP3    H2 2650   6.390   2.122   6.456
  903TIP3   OH2 2651   1.497   6.883   1.941
  903TIP3    H1 2652   1.589   6.864   1.920
  903TIP3    H2 2653   1.457   6.904   1.856
  904TIP3   OH2 2654   0.173   7.733   1.611
  904TIP3    H1 2655   0.096   7.779   1.579
  904TIP3    H2 2656   0.243   7.797   1.606
  905TIP3   OH2 2657   3.990   1.793   2.853
  905TIP3    H1 2658   3.991   1.742   2.934
  905TIP3    H2 2659   4.024   1.879   2.878
  906TIP3   OH2 2660   3.495   5.559   1.046
  906TIP3    H1 2661   3.558   5.502   1.090
  906TIP3    H2 2662   3.457   5.612   1.117
  907TIP3   OH2 2663   5.459   5.429   3.663
  907TIP3    H1 2664   5.498   5.367   3.725
  907TIP3    H2 2665   5.417   5.375   3.597
  908TIP3   OH2 2666   2.270   3.923   4.082
  908TIP3    H1 2667   2.320   3.852   4.123
  908TIP3    H2 2668   2.334   3.993   4.070
  909TIP3   OH2 2669   2.281   2.778   1.730
  909TIP3    H1 2670   2.302   2.729   1.650
  909TIP3    H2 2671   2.309   2.867   1.712
  910TIP3   OH2 2672   3.734   1.611   0.682
  910TIP3    H1 2673   3.828   1.622   0.696
  910TIP3    H2 2674   3.716   1.656   0.599
  911TIP3   OH2 2675   6.198   2.199   5.372
  911TIP3    H1 2676   6.182   2.186   5.466
  911TIP3    H2 2677   6.293   2.211   5.366
  912TIP3   OH2 2678   2.595   6.840   1.663
  912TIP3    H1 2679   2.662   6.774   1.645
  912TIP3    H2 2680   2.617   6.913   1.604
  913TIP3   OH2 2681   4.858   5.369   3.523
  913TIP3    H1 2682   4.890   5.381   3.612
  913TIP3    H2 2683   4.931   5.396   3.468
  914TIP3   OH2 2684   5.643   7.458   0.321
  914TIP3    H1 2685   5.714   7.393   0.319
  914TIP3    H2 2686   5.679   7.530   0.372
  915TIP3   OH2 2687   8.185   3.373   0.045
  915TIP3    H1 2688   8.101   3.340   0.076
  915TIP3    H2 2689   8.240   3.379   0.123
  916TIP3   OH2 2690   7.183   1.327   1.835
  916TIP3    H1 2691   7.121   1.312   1.906
  916TIP3    H2 2692   7.263   1.283   1.863
  917TIP3   OH2 2693   5.877   0.776   0.272
  917TIP3    H1 2694   5.880   0.871   0.259
  917TIP3    H2 2695   5.794   0.761   0.317
  918TIP3   OH2 2696   2.213   3.535   2.871
  918TIP3    H1 2697   2.238   3.590   2.945
  918TIP3    H2 2698   2.129   3.571   2.841
  919TIP3   OH2 2699   0.990   5.317   1.767
  919TIP3    H1 2700   1.075   5.273   1.770
  919TIP3    H2 2701   0.926   5.246   1.761
  920TIP3   OH2 2702   3.357   5.809   6.445
  920TIP3    H1 2703   3.449   5.813   6.419
  920TIP3    H2 2704   3.309   5.802   6.363
  921TIP3   OH2 2705   2.314   2.678   1.089
  921TIP3    H1 2706   2.255   2.608   1.062
  921TIP3    H2 2707   2.260   2.736   1.143
  922TIP3   OH2 2708   6.469   1.957   3.859
  922TIP3    H1 2709   6.396   1.933   3.802
  922TIP3    H2 2710   6.520   1.876   3.868
  923TIP3   OH2 2711   1.409   6.240   0.353
  923TIP3    H1 2712   1.377   6.314   0.301
  923TIP3    H2 2713   1.329   6.199   0.386
  924TIP3   OH2 2714   6.226   2.469   3.302
  924TIP3    H1 2715   6.289   2.531   3.266
  924TIP3    H2 2716   6.149   2.477   3.246
  925TIP3   OH2 2717  -0.015   3.330   6.491
  925TIP3    H1 2718  -0.004   3.423   6.475
  925TIP3    H2 2719   0.050   3.288   6.435
  926TIP3   OH2 2720   4.965   5.219   5.580
  926TIP3    H1 2721   4.969   5.314   5.576
  926TIP3    H2 2722   4.876   5.199   5.608
  927TIP3   OH2 2723   7.105   3.371   4.218
  927TIP3    H1 2724   7.178   3.390   4.276
  927TIP3    H2 2725   7.051   3.310   4.267
  928TIP3   OH2 2726   4.035   7.606   6.487
  928TIP3    H1 2727   3.954   7.559   6.468
  928TIP3    H2 2728   4.076   7.555   6.557
  929TIP3   OH2 2729   3.636   5.242   1.882
  929TIP3    H1 2730   3.672   5.244   1.794
  929TIP3    H2 2731   3.542   5.254   1.870
  930TIP3   OH2 2732   6.583   7.073   0.053
  930TIP3    H1 2733   6.637   7.134   0.002
  930TIP3    H2 2734   6.503   7.064   0.001
  931TIP3   OH2 2735   7.894   1.463   5.375
  931TIP3    H1 2736   7.846   1.475   5.292
  931TIP3    H2 2737   7.870   1.540   5.426
  932TIP3   OH2 2738   6.600   5.183   5.615
  932TIP3    H1 2739   6.688   5.210   5.588
  932TIP3    H2 2740   6.561   5.263   5.650
  933TIP3   OH2 2741   2.746   7.014   6.641
  933TIP3    H1 2742   2.711   6.949   6.581
  933TIP3    H2 2743   2.669   7.056   6.679
  934TIP3   OH2 2744   5.857   5.786   5.736
  934TIP3    H1 2745   5.935   5.827   5.774
  934TIP3    H2 2746   5.891   5.714   5.683
  935TIP3   OH2 2747   1.483   5.345   6.469
  935TIP3    H1 2748   1.513   5.328   6.558
  935TIP3    H2 2749   1.526   5.278   6.416
  936TIP3   OH2 2750   2.319   1.359   5.223
  936TIP3    H1 2751   2.321   1.317   5.310
  936TIP3    H2 2752   2.411   1.374   5.202
  937TIP3   OH2 2753   7.021   5.302   6.652
  937TIP3    H1 2754   7.022   5.240   6.725
  937TIP3    H2 2755   7.096   5.277   6.598
  938TIP3   OH2 2756   7.686   1.898   3.092
  938TIP3    H1 2757   7.683   1.817   3.143
  938TIP3    H2 2758   7.752   1.881   3.025
  939TIP3   OH2 2759   0.506   2.153   5.213
  939TIP3    H1 2760   0.518   2.234   5.263
  939TIP3    H2 2761   0.590   2.137   5.171
  940TIP3   OH2 2762   7.278   5.477   3.645
  940TIP3    H1 2763   7.213   5.512   3.706
  940TIP3    H2 2764   7.230   5.412   3.593
  941TIP3   OH2 2765   3.022   4.954   4.277
  941TIP3    H1 2766   3.040   4.935   4.185
  941TIP3    H2 2767   3.025   5.049   4.282
  942TIP3   OH2 2768   2.977   1.123   3.350
  942TIP3    H1 2769   2.913   1.140   3.419
  942TIP3    H2 2770   3.057   1.097   3.396
  943TIP3   OH2 2771   5.775   1.897   5.117
  943TIP3    H1 2772   5.733   1.969   5.069
  943TIP3    H2 2773   5.703   1.847   5.154
  944TIP3   OH2 2774   7.832   0.586   5.889
  944TIP3    H1 2775   7.833   0.564   5.796
  944TIP3    H2 2776   7.920   0.619   5.907
  945TIP3   OH2 2777   2.982   5.289   4.309
  945TIP3    H1 2778   3.050   5.323   4.251
  945TIP3    H2 2779   2.902   5.295   4.258
  946TIP3   OH2 2780   1.772   2.812   1.493
  946TIP3    H1 2781   1.713   2.820   1.568
  946TIP3    H2 2782   1.760   2.894   1.445
  947TIP3   OH2 2783   0.868   6.295   1.458
  947TIP3    H1 2784   0.853   6.377   1.505
  947TIP3    H2 2785   0.782   6.272   1.422
  948TIP3   OH2 2786   0.261   6.078   0.756
  948TIP3    H1 2787   0.324   6.057   0.687
  948TIP3    H2 2788   0.303   6.046   0.836
  949TIP3   OH2 2789   0.869   6.485   3.146
  949TIP3    H1 2790   0.897   6.520   3.062
  949TIP3    H2 2791   0.918   6.537   3.211
  950TIP3   OH2 2792   1.810   4.840   4.157
  950TIP3    H1 2793   1.905   4.842   4.159
  950TIP3    H2 2794   1.788   4.806   4.070
  951TIP3   OH2 2795   4.994   7.137   0.862
  951TIP3    H1 2796   4.915   7.123   0.915
  951TIP3    H2 2797   4.962   7.183   0.784
  952TIP3   OH2 2798   5.140   2.615   3.743
  952TIP3    H1 2799   5.129   2.624   3.837
  952TIP3    H2 2800   5.126   2.522   3.725
  953TIP3   OH2 2801   2.052   0.996   2.228
  953TIP3    H1 2802   2.102   0.989   2.310
  953TIP3    H2 2803   1.961   1.000   2.256
  954TIP3   OH2 2804   2.312   2.279   4.597
  954TIP3    H1 2805   2.224   2.314   4.584
  954TIP3    H2 2806   2.335   2.302   4.687
  955TIP3   OH2 2807   5.070   0.579   1.467
  955TIP3    H1 2808   5.044   0.671   1.479
  955TIP3    H2 2809   5.001   0.541   1.413
  956TIP3   OH2 2810   1.973   2.798   3.535
  956TIP3    H1 2811   1.929   2.734   3.479
  956TIP3    H2 2812   1.922   2.797   3.616
  957TIP3   OH2 2813   7.904   6.338   4.772
  957TIP3    H1 2814   7.995   6.309   4.767
  957TIP3    H2 2815   7.903   6.420   4.722
  958TIP3   OH2 2816   6.320   2.261   1.815
  958TIP3    H1 2817   6.277   2.222   1.739
  958TIP3    H2 2818   6.288   2.351   1.817
  959TIP3   OH2 2819   4.861   7.226   2.526
  959TIP3    H1 2820   4.856   7.273   2.610
  959TIP3    H2 2821   4.841   7.292   2.460
  960TIP3   OH2 2822   6.979   2.267   6.816
  960TIP3    H1 2823   7.007   2.233   6.731
  960TIP3    H2 2824   7.058   2.266   6.869
  961TIP3   OH2 2825   1.454   6.175   1.414
  961TIP3    H1 2826   1.533   6.120   1.407
  961TIP3    H2 2827   1.382   6.116   1.391
  962TIP3   OH2 2828   1.530   4.648   0.728
  962TIP3    H1 2829   1.500   4.624   0.641
  962TIP3    H2 2830   1.592   4.579   0.752
  963TIP3   OH2 2831   0.771   7.191   4.463
  963TIP3    H1 2832   0.719   7.269   4.441
  963TIP3    H2 2833   0.862   7.222   4.461
  964TIP3   OH2 2834   7.628  -0.040   4.074
  964TIP3    H1 2835   7.581   0.040   4.048
  964TIP3    H2 2836   7.689  -0.011   4.142
  965TIP3   OH2 2837   4.803   7.125   0.248
  965TIP3    H1 2838   4.742   7.123   0.174
  965TIP3    H2 2839   4.763   7.067   0.313
  966TIP3   OH2 2840   5.956   0.797   3.895
  966TIP3    H1 2841   6.002   0.716   3.871
  966TIP3    H2 2842   5.869   0.768   3.921
  967TIP3   OH2 2843   2.396   6.897   5.244
  967TIP3    H1 2844   2.451   6.853   5.179
  967TIP3    H2 2845   2.395   6.988   5.217
  968TIP3   OH2 2846   5.379   4.528   6.714
  968TIP3    H1 2847   5.374   4.447   6.764
  968TIP3    H2 2848   5.390   4.596   6.780
  969TIP3   OH2 2849   3.420   6.920   4.896
  969TIP3    H1 2850   3.353   6.854   4.877
  969TIP3    H2 2851   3.372   7.002   4.898
  970TIP3   OH2 2852   7.741   4.416   2.742
  970TIP3    H1 2853   7.716   4.480   2.808
  970TIP3    H2 2854   7.805   4.462   2.687
  971TIP3   OH2 2855   3.519   0.654   5.121
  971TIP3    H1 2856   3.578   0.604   5.064
  971TIP3    H2 2857   3.476   0.588   5.175
  972TIP3   OH2 2858   3.913   2.216   4.819
  972TIP3    H1 2859   3.922   2.194   4.912
  972TIP3    H2 2860   3.831   2.264   4.814
  973TIP3   OH2 2861   0.396   5.208   1.573
  973TIP3    H1 2862   0.412   5.171   1.486
  973TIP3    H2 2863   0.475   5.259   1.593
  974TIP3   OH2 2864   1.096   5.564   1.659
  974TIP3    H1 2865   1.067   5.478   1.690
  974TIP3    H2 2866   1.161   5.544   1.592
  975TIP3   OH2 2867   2.044   3.973   0.066
  975TIP3    H1 2868   1.993   3.892   0.072
  975TIP3    H2 2869   2.129   3.945   0.032
  976TIP3   OH2 2870   5.392   4.980   0.147
  976TIP3    H1 2871   5.336   5.002   0.222
  976TIP3    H2 2872   5.448   5.057   0.135
  977TIP3   OH2 2873   6.335   2.684   1.069
  977TIP3    H1 2874   6.309   2.612   1.011
  977TIP3    H2 2875   6.273   2.754   1.050
  978TIP3   OH2 2876   5.126   1.234   2.250
  978TIP3    H1 2877   5.190   1.178   2.208
  978TIP3    H2 2878   5.051   1.177   2.267
  979TIP3   OH2 2879   1.798   6.969   6.478
  979TIP3    H1 2880   1.865   7.008   6.534
  979TIP3    H2 2881   1.731   7.037   6.470
  980TIP3   OH2 2882   8.173   7.061   2.061
  980TIP3    H1 2883   8.172   7.111   2.143
  980TIP3    H2 2884   8.102   6.997   2.071
  981TIP3   OH2 2885   4.583   4.930   6.250
  981TIP3    H1 2886   4.645   4.918   6.321
  981TIP3    H2 2887   4.515   4.988   6.286
  982TIP3   OH2 2888   4.012   4.325   1.840
  982TIP3    H1 2889   3.983   4.253   1.896
  982TIP3    H2 2890   4.059   4.384   1.899
  983TIP3   OH2 2891   6.841   4.143   2.037
  983TIP3    H1 2892   6.848   4.138   2.132
  983TIP3    H2 2893   6.747   4.139   2.019
  984TIP3   OH2 2894   3.480   4.391   1.295
  984TIP3    H1 2895   3.533   4.388   1.374
  984TIP3    H2 2896   3.421   4.465   1.309
  985TIP3   OH2 2897   7.913   3.482   6.637
  985TIP3    H1 2898   7.916   3.387   6.622
  985TIP3    H2 2899   7.989   3.499   6.693
  986TIP3   OH2 2900   3.269   0.179   6.269
  986TIP3    H1 2901   3.335   0.156   6.334
  986TIP3    H2 2902   3.192   0.126   6.291
  987TIP3   OH2 2903   6.544   7.242   1.226
  987TIP3    H1 2904   6.507   7.322   1.189
  987TIP3    H2 2905   6.620   7.223   1.172
  988TIP3   OH2 2906   7.835   4.205   6.477
  988TIP3    H1 2907   7.893   4.179   6.548
  988TIP3    H2 2908   7.801   4.291   6.504
  989TIP3   OH2 2909   2.727   3.393   4.397
  989TIP3    H1 2910   2.663   3.390   4.468
  989TIP3    H2 2911   2.674   3.397   4.317
  990TIP3   OH2 2912   0.350   2.426   3.712
  990TIP3    H1 2913   0.432   2.391   3.746
  990TIP3    H2 2914   0.284   2.362   3.739
  991TIP3   OH2 2915   8.211   0.056   6.801
  991TIP3    H1 2916   8.126   0.016   6.821
  991TIP3    H2 2917   8.275  -0.008   6.833
  992TIP3   OH2 2918   1.560   0.478   5.470
  992TIP3    H1 2919   1.526   0.468   5.559
  992TIP3    H2 2920   1.650   0.447   5.475
  993TIP3   OH2 2921   5.246   4.420   5.366
  993TIP3    H1 2922   5.167   4.375   5.396
  993TIP3    H2 2923   5.275   4.471   5.442
  994TIP3   OH2 2924   7.163   1.631   3.003
  994TIP3    H1 2925   7.244   1.678   3.020
  994TIP3    H2 2926   7.108   1.651   3.079
  995TIP3   OH2 2927   5.794   0.012   3.875
  995TIP3    H1 2928   5.831   0.073   3.811
  995TIP3    H2 2929   5.870  -0.021   3.923
  996TIP3   OH2 2930   6.691   5.068   5.872
  996TIP3    H1 2931   6.648   5.100   5.793
  996TIP3    H2 2932   6.654   4.980   5.885
  997TIP3   OH2 2933   0.875   0.363   6.025
  997TIP3    H1 2934   0.786   0.397   6.017
  997TIP3    H2 2935   0.889   0.313   5.945
  998TIP3   OH2 2936   7.444   4.785   3.642
  998TIP3    H1 2937   7.465   4.748   3.556
  998TIP3    H2 2938   7.516   4.757   3.698
  999TIP3   OH2 2939   4.095   7.351   2.760
  999TIP3    H1 2940   4.162   7.408   2.797
  999TIP3    H2 2941   4.132   7.263   2.764
 1000TIP3   OH2 2942   7.030   0.415   2.369
 1000TIP3    H1 2943   7.012   0.509   2.359
 1000TIP3    H2 2944   6.975   0.387   2.442
 1001TIP3   OH2 2945   6.715   1.847   1.908
 1001TIP3    H1 2946   6.786   1.888   1.859
 1001TIP3    H2 2947   6.654   1.918   1.926
 1002TIP3   OH2 2948   4.084   1.994   6.116
 1002TIP3    H1 2949   4.016   2.050   6.077
 1002TIP3    H2 2950   4.144   1.975   6.043
 1003TIP3   OH2 2951   6.617   7.152   6.741
 1003TIP3    H1 2952   6.683   7.144   6.809
 1003TIP3    H2 2953   6.544   7.199   6.783
 1004TIP3   OH2 2954   6.894   6.122   4.721
 1004TIP3    H1 2955   6.963   6.058   4.739
 1004TIP3    H2 2956   6.903   6.187   4.790
 1005TIP3   OH2 2957   1.083   4.082   3.791
 1005TIP3    H1 2958   1.082   4.008   3.729
 1005TIP3    H2 2959   1.043   4.046   3.871
 1006TIP3   OH2 2960   1.300   1.293   4.247
 1006TIP3    H1 2961   1.366   1.319   4.183
 1006TIP3    H2 2962   1.340   1.222   4.296
 1007TIP3   OH2 2963   3.438   4.236   3.140
 1007TIP3    H1 2964   3.469   4.294   3.071
 1007TIP3    H2 2965   3.408   4.294   3.209
 1008TIP3   OH2 2966   0.590   5.373   1.887
 1008TIP3    H1 2967   0.537   5.320   1.947
 1008TIP3    H2 2968   0.599   5.318   1.809
 1009TIP3   OH2 2969   4.160   2.864   4.709
 1009TIP3    H1 2970   4.211   2.784   4.694
 1009TIP3    H2 2971   4.092   2.837   4.771
 1010TIP3   OH2 2972   5.358   4.876   0.528
 1010TIP3    H1 2973   5.438   4.893   0.479
 1010TIP3    H2 2974   5.287   4.893   0.467
 1011TIP3   OH2 2975   4.622   0.990   5.799
 1011TIP3    H1 2976   4.527   0.986   5.805
 1011TIP3    H2 2977   4.645   1.076   5.834
 1012TIP3   OH2 2978   6.867   3.298   5.980
 1012TIP3    H1 2979   6.875   3.259   5.893
 1012TIP3    H2 2980   6.773   3.302   5.997
 1013TIP3   OH2 2981   5.394   0.146   3.808
 1013TIP3    H1 2982   5.458   0.165   3.877
 1013TIP3    H2 2983   5.313   0.127   3.855
 1014TIP3   OH2 2984   1.627   5.453   4.937
 1014TIP3    H1 2985   1.553   5.436   4.994
 1014TIP3    H2 2986   1.699   5.401   4.973
 1015TIP3   OH2 2987   6.634   5.912   1.450
 1015TIP3    H1 2988   6.591   5.834   1.484
 1015TIP3    H2 2989   6.610   5.982   1.511
 1016TIP3   OH2 2990   3.717   0.072   5.617
 1016TIP3    H1 2991   3.745   0.019   5.691
 1016TIP3    H2 2992   3.642   0.122   5.650
 1017TIP3   OH2 2993   5.264   0.342   5.804
 1017TIP3    H1 2994   5.355   0.313   5.812
 1017TIP3    H2 2995   5.248   0.390   5.886
 1018TIP3   OH2 2996   6.262   7.584   1.592
 1018TIP3    H1 2997   6.192   7.599   1.530
 1018TIP3    H2 2998   6.244   7.645   1.664
 1019TIP3   OH2 2999   0.898   2.087   2.411
 1019TIP3    H1 3000   0.860   2.168   2.376
 1019TIP3    H2 3001   0.989   2.088   2.380
 1020TIP3   OH2 3002   0.599   6.240   1.418
 1020TIP3    H1 3003   0.553   6.261   1.337
 1020TIP3    H2 3004   0.529   6.235   1.484
 1021TIP3   OH2 3005   3.921   6.815   1.848
 1021TIP3    H1 3006   3.959   6.883   1.792
 1021TIP3    H2 3007   3.831   6.805   1.816
 1022TIP3   OH2 3008   7.202   7.359   1.482
 1022TIP3    H1 3009   7.196   7.268   1.454
 1022TIP3    H2 3010   7.116   7.380   1.518
 1023TIP3   OH2 3011   8.219   7.224   3.668
 1023TIP3    H1 3012   8.147   7.202   3.728
 1023TIP3    H2 3013   8.280   7.275   3.721
 1024TIP3   OH2 3014   8.016   3.226   4.726
 1024TIP3    H1 3015   8.068   3.170   4.669
 1024TIP3    H2 3016   7.926   3.215   4.696
 1025TIP3   OH2 3017   1.800   1.260   4.090
 1025TIP3    H1 3018   1.732   1.308   4.044
 1025TIP3    H2 3019   1.881   1.304   4.066
 1026TIP3   OH2 3020   5.478   1.182   4.004
 1026TIP3    H1 3021   5.403   1.240   3.994
 1026TIP3    H2 3022   5.439   1.095   4.018
 1027TIP3   OH2 3023   2.234   1.041   6.291
 1027TIP3    H1 3024   2.298   1.112   6.303
 1027TIP3    H2 3025   2.276   0.980   6.232
 1028TIP3   OH2 3026   5.475   4.351   2.709
 1028TIP3    H1 3027   5.401   4.407   2.685
 1028TIP3    H2 3028   5.435   4.266   2.726
 1029TIP3   OH2 3029   0.435   3.145   1.151
 1029TIP3    H1 3030   0.432   3.239   1.172
 1029TIP3    H2 3031   0.502   3.138   1.084
 1030TIP3   OH2 3032   0.714   2.532   3.944
 1030TIP3    H1 3033   0.774   2.549   4.017
 1030TIP3    H2 3034   0.692   2.619   3.910
 1031TIP3   OH2 3035   1.228   0.856   3.640
 1031TIP3    H1 3036   1.142   0.898   3.648
 1031TIP3    H2 3037   1.250   0.830   3.729
 1032TIP3   OH2 3038   0.107   2.425   4.897
 1032TIP3    H1 3039   0.074   2.381   4.818
 1032TIP3    H2 3040   0.053   2.503   4.904
 1033TIP3   OH2 3041   6.464   2.043   4.667
 1033TIP3    H1 3042   6.507   2.107   4.610
 1033TIP3    H2 3043   6.503   1.959   4.642
 1034TIP3   OH2 3044   1.099   2.420   3.735
 1034TIP3    H1 3045   1.127   2.387   3.820
 1034TIP3    H2 3046   1.006   2.439   3.746
 1035TIP3   OH2 3047   0.217   1.711   5.933
 1035TIP3    H1 3048   0.137   1.731   5.983
 1035TIP3    H2 3049   0.250   1.796   5.906
 1036TIP3   OH2 3050   3.233   5.673   5.452
 1036TIP3    H1 3051   3.320   5.632   5.456
 1036TIP3    H2 3052   3.182   5.625   5.517
 1037TIP3   OH2 3053   5.255   2.254   5.116
 1037TIP3    H1 3054   5.242   2.328   5.058
 1037TIP3    H2 3055   5.337   2.215   5.088
 1038TIP3   OH2 3056   2.342   1.213   0.850
 1038TIP3    H1 3057   2.353   1.144   0.915
 1038TIP3    H2 3058   2.257   1.252   0.869
 1039TIP3   OH2 3059   6.830   6.944   2.662
 1039TIP3    H1 3060   6.760   6.928   2.599
 1039TIP3    H2 3061   6.793   7.006   2.725
 1040TIP3   OH2 3062   7.314   2.501   5.326
 1040TIP3    H1 3063   7.334   2.407   5.329
 1040TIP3    H2 3064   7.362   2.538   5.400
 1041TIP3   OH2 3065   3.763   2.067   2.965
 1041TIP3    H1 3066   3.685   2.030   3.006
 1041TIP3    H2 3067   3.813   2.106   3.038
 1042TIP3   OH2 3068   3.499   1.682   0.907
 1042TIP3    H1 3069   3.527   1.717   0.822
 1042TIP3    H2 3070   3.418   1.728   0.927
 1043TIP3   OH2 3071   5.503   4.426   6.484
 1043TIP3    H1 3072   5.429   4.386   6.439
 1043TIP3    H2 3073   5.463   4.473   6.558
 1044TIP3   OH2 3074   6.370   6.713   2.403
 1044TIP3    H1 3075   6.355   6.793   2.453
 1044TIP3    H2 3076   6.378   6.644   2.469
 1045TIP3   OH2 3077   4.565   4.271   0.229
 1045TIP3    H1 3078   4.610   4.237   0.306
 1045TIP3    H2 3079   4.486   4.312   0.264
 1046TIP3   OH2 3080   5.513   3.639   2.131
 1046TIP3    H1 3081   5.422   3.609   2.138
 1046TIP3    H2 3082   5.561   3.564   2.098
 1047TIP3   OH2 3083   6.260   2.952   0.641
 1047TIP3    H1 3084   6.196   3.014   0.677
 1047TIP3    H2 3085   6.333   3.007   0.612
 1048TIP3   OH2 3086   0.305   0.845   0.886
 1048TIP3    H1 3087   0.388   0.808   0.916
 1048TIP3    H2 3088   0.330   0.926   0.841
 1049TIP3   OH2 3089   4.953   0.470   5.832
 1049TIP3    H1 3090   4.862   0.472   5.863
 1049TIP3    H2 3091   4.967   0.557   5.794
 1050TIP3   OH2 3092   7.482   3.720   3.472
 1050TIP3    H1 3093   7.512   3.649   3.528
 1050TIP3    H2 3094   7.562   3.755   3.433
 1051TIP3   OH2 3095   3.953   1.143   4.165
 1051TIP3    H1 3096   3.891   1.173   4.099
 1051TIP3    H2 3097   4.037   1.142   4.119
 1052TIP3   OH2 3098   7.681   7.188   5.311
 1052TIP3    H1 3099   7.689   7.178   5.216
 1052TIP3    H2 3100   7.611   7.253   5.322
 1053TIP3   OH2 3101   0.035   3.061   1.269
 1053TIP3    H1 3102   0.028   3.145   1.224
 1053TIP3    H2 3103  -0.050   3.019   1.254
 1054TIP3   OH2 3104   5.194   7.279   1.743
 1054TIP3    H1 3105   5.161   7.268   1.654
 1054TIP3    H2 3106   5.246   7.359   1.739
 1055TIP3   OH2 3107   7.409   1.323   6.290
 1055TIP3    H1 3108   7.463   1.245   6.290
 1055TIP3    H2 3109   7.319   1.290   6.299
 1056TIP3   OH2 3110   7.862   4.996   4.884
 1056TIP3    H1 3111   7.813   4.915   4.872
 1056TIP3    H2 3112   7.904   5.011   4.799
 1057TIP3   OH2 3113   0.392   7.440   1.792
 1057TIP3    H1 3114   0.332   7.366   1.779
 1057TIP3    H2 3115   0.347   7.515   1.754
 1058TIP3   OH2 3116   0.072   1.202   1.529
 1058TIP3    H1 3117   0.021   1.223   1.451
 1058TIP3    H2 3118   0.157   1.174   1.496
 1059TIP3   OH2 3119   5.117   3.067   5.670
 1059TIP3    H1 3120   5.144   3.006   5.738
 1059TIP3    H2 3121   5.198   3.094   5.628
 1060TIP3   OH2 3122   8.048   6.029   3.121
 1060TIP3    H1 3123   7.988   5.968   3.162
 1060TIP3    H2 3124   8.062   5.994   3.032
 1061TIP3   OH2 3125   3.474   3.804   6.417
 1061TIP3    H1 3126   3.547   3.801   6.354
 1061TIP3    H2 3127   3.430   3.887   6.398
 1062TIP3   OH2 3128   4.468   7.044   6.435
 1062TIP3    H1 3129   4.450   7.083   6.349
 1062TIP3    H2 3130   4.557   7.074   6.457
 1063TIP3   OH2 3131   5.305   5.846   2.199
 1063TIP3    H1 3132   5.333   5.780   2.262
 1063TIP3    H2 3133   5.257   5.911   2.252
 1064TIP3   OH2 3134   0.283   2.540   2.396
 1064TIP3    H1 3135   0.312   2.572   2.310
 1064TIP3    H2 3136   0.323   2.600   2.459
 1065TIP3   OH2 3137   2.668   0.411   0.106
 1065TIP3    H1 3138   2.763   0.405   0.103
 1065TIP3    H2 3139   2.640   0.331   0.150
 1066TIP3   OH2 3140   1.707   3.648   0.441
 1066TIP3    H1 3141   1.662   3.587   0.382
 1066TIP3    H2 3142   1.797   3.649   0.411
 1067TIP3   OH2 3143   7.155   4.470   5.525
 1067TIP3    H1 3144   7.175   4.416   5.602
 1067TIP3    H2 3145   7.240   4.505   5.497
 1068TIP3   OH2 3146   0.705   4.143   6.449
 1068TIP3    H1 3147   0.643   4.102   6.389
 1068TIP3    H2 3148   0.757   4.202   6.394
 1069TIP3   OH2 3149   4.365   6.141   4.035
 1069TIP3    H1 3150   4.380   6.217   4.090
 1069TIP3    H2 3151   4.287   6.163   3.984
 1070TIP3   OH2 3152   3.347   3.966   0.198
 1070TIP3    H1 3153   3.426   3.994   0.245
 1070TIP3    H2 3154   3.379   3.934   0.114
 1071TIP3   OH2 3155   0.608   4.279   4.440
 1071TIP3    H1 3156   0.536   4.217   4.443
 1071TIP3    H2 3157   0.568   4.365   4.454
 1072TIP3   OH2 3158   4.995   2.678   2.615
 1072TIP3    H1 3159   4.948   2.753   2.651
 1072TIP3    H2 3160   4.934   2.640   2.551
 1073TIP3   OH2 3161   7.752   4.752   4.819
 1073TIP3    H1 3162   7.657   4.764   4.813
 1073TIP3    H2 3163   7.763   4.677   4.878
 1074TIP3   OH2 3164   7.895   2.290   5.622
 1074TIP3    H1 3165   7.986   2.268   5.644
 1074TIP3    H2 3166   7.887   2.268   5.529
 1075TIP3   OH2 3167   1.808   7.403   3.470
 1075TIP3    H1 3168   1.836   7.493   3.485
 1075TIP3    H2 3169   1.834   7.356   3.549
 1076TIP3   OH2 3170   7.874   5.843   1.390
 1076TIP3    H1 3171   7.940   5.775   1.396
 1076TIP3    H2 3172   7.820   5.831   1.469
 1077TIP3   OH2 3173   5.458   5.102   3.711
 1077TIP3    H1 3174   5.403   5.051   3.770
 1077TIP3    H2 3175   5.489   5.038   3.646
 1078TIP3   OH2 3176   2.341   2.239   0.806
 1078TIP3    H1 3177   2.400   2.164   0.805
 1078TIP3    H2 3178   2.319   2.250   0.899
 1079TIP3   OH2 3179   4.059   0.165   2.681
 1079TIP3    H1 3180   4.150   0.185   2.657
 1079TIP3    H2 3181   4.009   0.242   2.653
 1080TIP3   OH2 3182   5.557   6.598   6.443
 1080TIP3    H1 3183   5.572   6.686   6.409
 1080TIP3    H2 3184   5.565   6.541   6.367
 1081TIP3   OH2 3185   5.868   5.137   1.556
 1081TIP3    H1 3186   5.797   5.200   1.541
 1081TIP3    H2 3187   5.946   5.191   1.565
 1082TIP3   OH2 3188   7.863   7.470   5.164
 1082TIP3    H1 3189   7.851   7.474   5.259
 1082TIP3    H2 3190   7.776   7.450   5.130
 1083TIP3   OH2 3191   4.392   3.419   4.884
 1083TIP3    H1 3192   4.352   3.425   4.798
 1083TIP3    H2 3193   4.455   3.491   4.887
 1084TIP3   OH2 3194   4.579   1.614   4.311
 1084TIP3    H1 3195   4.489   1.630   4.282
 1084TIP3    H2 3196   4.597   1.524   4.282
 1085TIP3   OH2 3197   4.899   5.325   2.388
 1085TIP3    H1 3198   4.819   5.282   2.356
 1085TIP3    H2 3199   4.930   5.376   2.313
 1086TIP3   OH2 3200   7.689   4.682   5.193
 1086TIP3    H1 3201   7.610   4.734   5.206
 1086TIP3    H2 3202   7.669   4.627   5.117
 1087TIP3   OH2 3203   4.801   5.338   1.649
 1087TIP3    H1 3204   4.772   5.414   1.599
 1087TIP3    H2 3205   4.835   5.277   1.583
 1088TIP3   OH2 3206   0.772   5.971   6.167
 1088TIP3    H1 3207   0.863   5.998   6.162
 1088TIP3    H2 3208   0.768   5.890   6.115
 1089TIP3   OH2 3209   3.753   4.750   3.873
 1089TIP3    H1 3210   3.746   4.655   3.866
 1089TIP3    H2 3211   3.805   4.765   3.952
 1090TIP3   OH2 3212   1.175   6.565   1.592
 1090TIP3    H1 3213   1.220   6.483   1.572
 1090TIP3    H2 3214   1.205   6.588   1.680
 1091TIP3   OH2 3215   4.607   2.679   1.566
 1091TIP3    H1 3216   4.650   2.701   1.483
 1091TIP3    H2 3217   4.676   2.642   1.620
 1092TIP3   OH2 3218   0.061   6.595   1.125
 1092TIP3    H1 3219   0.099   6.649   1.195
 1092TIP3    H2 3220  -0.007   6.649   1.086
 1093TIP3   OH2 3221   4.918   1.454   1.421
 1093TIP3    H1 3222   4.953   1.531   1.466
 1093TIP3    H2 3223   4.926   1.476   1.328
 1094TIP3   OH2 3224   7.737   6.555   4.190
 1094TIP3    H1 3225   7.688   6.487   4.143
 1094TIP3    H2 3226   7.829   6.533   4.175
 1095TIP3   OH2 3227   6.457   5.503   2.912
 1095TIP3    H1 3228   6.431   5.561   2.984
 1095TIP3    H2 3229   6.486   5.423   2.955
 1096TIP3   OH2 3230   7.256   3.911   6.219
 1096TIP3    H1 3231   7.309   3.844   6.262
 1096TIP3    H2 3232   7.319   3.965   6.172
 1097TIP3   OH2 3233   3.593   1.264   6.211
 1097TIP3    H1 3234   3.639   1.332   6.259
 1097TIP3    H2 3235   3.639   1.183   6.235
 1098TIP3   OH2 3236   4.370   1.794   0.178
 1098TIP3    H1 3237   4.352   1.712   0.131
 1098TIP3    H2 3238   4.365   1.770   0.271
 1099TIP3   OH2 3239   5.175   3.264   3.438
 1099TIP3    H1 3240   5.192   3.356   3.459
 1099TIP3    H2 3241   5.234   3.215   3.496
 1100TIP3   OH2 3242   7.378   0.907   3.084
 1100TIP3    H1 3243   7.430   0.986   3.098
 1100TIP3    H2 3244   7.318   0.930   3.013
 1101TIP3   OH2 3245   3.481   7.817   1.357
 1101TIP3    H1 3246   3.563   7.775   1.381
 1101TIP3    H2 3247   3.505   7.880   1.288
 1102TIP3   OH2 3248   7.264   7.421   0.906
 1102TIP3    H1 3249   7.314   7.483   0.853
 1102TIP3    H2 3250   7.176   7.423   0.868
 1103TIP3   OH2 3251   6.704   7.393   2.417
 1103TIP3    H1 3252   6.748   7.405   2.501
 1103TIP3    H2 3253   6.636   7.329   2.435
 1104TIP3   OH2 3254   2.199   5.473   6.290
 1104TIP3    H1 3255   2.104   5.477   6.291
 1104TIP3    H2 3256   2.222   5.417   6.364
 1105TIP3   OH2 3257   5.564   5.294   6.767
 1105TIP3    H1 3258   5.471   5.302   6.788
 1105TIP3    H2 3259   5.573   5.205   6.733
 1106TIP3   OH2 3260   5.745   3.338   6.231
 1106TIP3    H1 3261   5.835   3.366   6.213
 1106TIP3    H2 3262   5.691   3.408   6.194
 1107TIP3   OH2 3263   6.131   4.928   3.655
 1107TIP3    H1 3264   6.149   4.835   3.671
 1107TIP3    H2 3265   6.061   4.949   3.717
 1108TIP3   OH2 3266   5.529   6.689   4.185
 1108TIP3    H1 3267   5.555   6.780   4.169
 1108TIP3    H2 3268   5.471   6.668   4.112
 1109TIP3   OH2 3269   0.438   2.988   6.567
 1109TIP3    H1 3270   0.438   2.963   6.475
 1109TIP3    H2 3271   0.516   2.946   6.603
 1110TIP3   OH2 3272   5.726   2.699   4.518
 1110TIP3    H1 3273   5.692   2.680   4.431
 1110TIP3    H2 3274   5.671   2.648   4.577
 1111TIP3   OH2 3275   4.316   2.645   1.541
 1111TIP3    H1 3276   4.224   2.670   1.546
 1111TIP3    H2 3277   4.327   2.614   1.451
 1112TIP3   OH2 3278   7.089   0.069   5.507
 1112TIP3    H1 3279   7.089   0.005   5.579
 1112TIP3    H2 3280   7.008   0.119   5.519
 1113TIP3   OH2 3281   6.932   2.513   1.973
 1113TIP3    H1 3282   7.000   2.450   1.946
 1113TIP3    H2 3283   6.851   2.463   1.970
 1114TIP3   OH2 3284   5.670   6.017   4.082
 1114TIP3    H1 3285   5.744   5.966   4.051
 1114TIP3    H2 3286   5.708   6.080   4.144
 1115TIP3   OH2 3287   3.090   1.681   2.357
 1115TIP3    H1 3288   3.101   1.743   2.285
 1115TIP3    H2 3289   3.047   1.732   2.426
 1116TIP3   OH2 3290   0.700   5.703   0.339
 1116TIP3    H1 3291   0.761   5.660   0.280
 1116TIP3    H2 3292   0.659   5.632   0.388
 1117TIP3   OH2 3293   7.082   6.560   6.688
 1117TIP3    H1 3294   7.104   6.641   6.641
 1117TIP3    H2 3295   7.146   6.556   6.759
 1118TIP3   OH2 3296   6.244   7.721   2.552
 1118TIP3    H1 3297   6.233   7.813   2.576
 1118TIP3    H2 3298   6.213   7.673   2.629
 1119TIP3   OH2 3299   2.511   1.216   5.941
 1119TIP3    H1 3300   2.535   1.304   5.972
 1119TIP3    H2 3301   2.461   1.232   5.861
 1120TIP3   OH2 3302   0.398   5.658   0.408
 1120TIP3    H1 3303   0.365   5.586   0.354
 1120TIP3    H2 3304   0.386   5.736   0.353
 1121TIP3   OH2 3305   4.571   4.895   4.525
 1121TIP3    H1 3306   4.497   4.953   4.539
 1121TIP3    H2 3307   4.648   4.949   4.542
 1122TIP3   OH2 3308   6.594   1.830   0.282
 1122TIP3    H1 3309   6.610   1.905   0.225
 1122TIP3    H2 3310   6.653   1.762   0.248
 1123TIP3   OH2 3311   7.909   2.423   0.527
 1123TIP3    H1 3312   7.886   2.333   0.550
 1123TIP3    H2 3313   7.858   2.442   0.449
 1124TIP3   OH2 3314   6.448   5.699   3.661
 1124TIP3    H1 3315   6.420   5.790   3.674
 1124TIP3    H2 3316   6.367   5.648   3.668
 1125TIP3   OH2 3317   2.397   2.154   3.134
 1125TIP3    H1 3318   2.335   2.151   3.207
 1125TIP3    H2 3319   2.480   2.178   3.176
 1126TIP3   OH2 3320   4.563   2.628   5.079
 1126TIP3    H1 3321   4.520   2.609   5.163
 1126TIP3    H2 3322   4.621   2.701   5.098
 1127TIP3   OH2 3323   2.412   3.676   4.215
 1127TIP3    H1 3324   2.441   3.711   4.299
 1127TIP3    H2 3325   2.340   3.617   4.237
 1128TIP3   OH2 3326   0.707   2.114   4.649
 1128TIP3    H1 3327   0.638   2.116   4.715
 1128TIP3    H2 3328   0.770   2.049   4.682
 1129TIP3   OH2 3329   5.870   1.087   5.888
 1129TIP3    H1 3330   5.953   1.092   5.936
 1129TIP3    H2 3331   5.867   1.167   5.836
 1130TIP3   OH2 3332   2.994   5.400   2.519
 1130TIP3    H1 3333   2.921   5.339   2.530
 1130TIP3    H2 3334   3.006   5.439   2.605
 1131TIP3   OH2 3335   1.920   5.514   6.332
 1131TIP3    H1 3336   1.901   5.606   6.312
 1131TIP3    H2 3337   1.865   5.494   6.408
 1132TIP3   OH2 3338   1.730   2.485   2.157
 1132TIP3    H1 3339   1.752   2.392   2.160
 1132TIP3    H2 3340   1.772   2.522   2.235
 1133TIP3   OH2 3341   1.738   6.509   5.723
 1133TIP3    H1 3342   1.745   6.598   5.757
 1133TIP3    H2 3343   1.813   6.462   5.761
 1134TIP3   OH2 3344   0.412   2.002   6.668
 1134TIP3    H1 3345   0.417   1.942   6.594
 1134TIP3    H2 3346   0.454   1.955   6.740
 1135TIP3   OH2 3347   5.359   3.492   1.207
 1135TIP3    H1 3348   5.314   3.457   1.285
 1135TIP3    H2 3349   5.310   3.571   1.185
 1136TIP3   OH2 3350   1.221   4.633   2.311
 1136TIP3    H1 3351   1.254   4.669   2.228
 1136TIP3    H2 3352   1.293   4.580   2.345
 1137TIP3   OH2 3353   5.461   2.670   2.297
 1137TIP3    H1 3354   5.532   2.685   2.360
 1137TIP3    H2 3355   5.387   2.641   2.350
 1138TIP3   OH2 3356   7.356   3.310   3.013
 1138TIP3    H1 3357   7.436   3.259   3.026
 1138TIP3    H2 3358   7.384   3.401   3.024
 1139TIP3   OH2 3359   4.966   3.690   5.740
 1139TIP3    H1 3360   4.961   3.777   5.779
 1139TIP3    H2 3361   5.060   3.671   5.736
 1140TIP3   OH2 3362   7.844   3.480   1.183
 1140TIP3    H1 3363   7.925   3.431   1.202
 1140TIP3    H2 3364   7.802   3.490   1.268
 1141TIP3   OH2 3365   2.183   2.682   3.986
 1141TIP3    H1 3366   2.186   2.659   3.893
 1141TIP3    H2 3367   2.106   2.738   3.994
 1142TIP3   OH2 3368   4.705   5.425   6.084
 1142TIP3    H1 3369   4.611   5.435   6.076
 1142TIP3    H2 3370   4.718   5.332   6.103
 1143TIP3   OH2 3371   4.814   7.393   2.748
 1143TIP3    H1 3372   4.853   7.472   2.711
 1143TIP3    H2 3373   4.859   7.381   2.831
 1144TIP3   OH2 3374   6.166   1.178   2.851
 1144TIP3    H1 3375   6.213   1.256   2.824
 1144TIP3    H2 3376   6.110   1.207   2.922
 1145TIP3   OH2 3377   5.943   4.714   3.153
 1145TIP3    H1 3378   6.035   4.688   3.149
 1145TIP3    H2 3379   5.896   4.645   3.105
 1146TIP3   OH2 3380   8.134   0.950   6.356
 1146TIP3    H1 3381   8.142   0.876   6.417
 1146TIP3    H2 3382   8.162   1.026   6.407
 1147TIP3   OH2 3383   7.904   3.356   2.567
 1147TIP3    H1 3384   7.844   3.429   2.580
 1147TIP3    H2 3385   7.983   3.396   2.530
 1148TIP3   OH2 3386   2.179   5.952   3.689
 1148TIP3    H1 3387   2.249   5.962   3.753
 1148TIP3    H2 3388   2.221   5.912   3.613
 1149TIP3   OH2 3389   1.040   4.885   3.594
 1149TIP3    H1 3390   1.128   4.911   3.568
 1149TIP3    H2 3391   1.033   4.794   3.567
 1150TIP3   OH2 3392   3.179   6.474   1.786
 1150TIP3    H1 3393   3.201   6.453   1.877
 1150TIP3    H2 3394   3.256   6.520   1.752
 1151TIP3   OH2 3395   1.221   4.531   6.328
 1151TIP3    H1 3396   1.248   4.576   6.408
 1151TIP3    H2 3397   1.291   4.467   6.312
 1152TIP3   OH2 3398   7.632   3.955   0.563
 1152TIP3    H1 3399   7.693   3.887   0.593
 1152TIP3    H2 3400   7.559   3.951   0.625
 1153TIP3   OH2 3401   0.512   7.608   4.829
 1153TIP3    H1 3402   0.444   7.645   4.885
 1153TIP3    H2 3403   0.581   7.580   4.889
 1154TIP3   OH2 3404   1.394   0.669   4.472
 1154TIP3    H1 3405   1.485   0.679   4.499
 1154TIP3    H2 3406   1.386   0.576   4.449
 1155TIP3   OH2 3407   8.161   4.639   1.862
 1155TIP3    H1 3408   8.142   4.557   1.907
 1155TIP3    H2 3409   8.209   4.692   1.925
 1156TIP3   OH2 3410   3.802   1.641   5.486
 1156TIP3    H1 3411   3.819   1.584   5.411
 1156TIP3    H2 3412   3.865   1.613   5.552
 1157TIP3   OH2 3413   5.927   6.542   4.702
 1157TIP3    H1 3414   5.919   6.512   4.611
 1157TIP3    H2 3415   6.013   6.582   4.706
 1158TIP3   OH2 3416   6.334   5.545   6.255
 1158TIP3    H1 3417   6.312   5.498   6.335
 1158TIP3    H2 3418   6.389   5.484   6.205
 1159TIP3   OH2 3419   6.434   3.653   0.543
 1159TIP3    H1 3420   6.519   3.618   0.516
 1159TIP3    H2 3421   6.435   3.745   0.516
 1160TIP3   OH2 3422   7.922   0.803   2.259
 1160TIP3    H1 3423   7.994   0.794   2.196
 1160TIP3    H2 3424   7.907   0.714   2.292
 1161TIP3   OH2 3425   0.453   1.199   4.602
 1161TIP3    H1 3426   0.502   1.125   4.637
 1161TIP3    H2 3427   0.371   1.160   4.571
 1162TIP3   OH2 3428   1.696   1.002   3.859
 1162TIP3    H1 3429   1.766   1.054   3.898
 1162TIP3    H2 3430   1.630   0.996   3.928
 1163TIP3   OH2 3431   4.420   2.003   3.103
 1163TIP3    H1 3432   4.390   1.922   3.144
 1163TIP3    H2 3433   4.413   2.070   3.172
 1164TIP3   OH2 3434   0.087   5.073   6.037
 1164TIP3    H1 3435   0.174   5.114   6.041
 1164TIP3    H2 3436   0.091   5.017   5.959
 1165TIP3   OH2 3437   2.276   0.453   4.306
 1165TIP3    H1 3438   2.236   0.540   4.313
 1165TIP3    H2 3439   2.298   0.430   4.396
 1166TIP3   OH2 3440   5.962   5.596   1.512
 1166TIP3    H1 3441   5.876   5.557   1.527
 1166TIP3    H2 3442   5.988   5.565   1.425
 1167TIP3   OH2 3443   4.664   0.759   6.727
 1167TIP3    H1 3444   4.660   0.788   6.818
 1167TIP3    H2 3445   4.683   0.665   6.732
 1168TIP3   OH2 3446   4.543   2.750   6.697
 1168TIP3    H1 3447   4.475   2.722   6.759
 1168TIP3    H2 3448   4.612   2.684   6.706
 1169TIP3   OH2 3449   7.690   5.095   0.486
 1169TIP3    H1 3450   7.674   5.005   0.513
 1169TIP3    H2 3451   7.783   5.096   0.462
 1170TIP3   OH2 3452   7.844   1.111   6.345
 1170TIP3    H1 3453   7.765   1.141   6.301
 1170TIP3    H2 3454   7.842   1.016   6.336
 1171TIP3   OH2 3455   7.364   2.808   2.897
 1171TIP3    H1 3456   7.408   2.813   2.812
 1171TIP3    H2 3457   7.419   2.859   2.956
 1172TIP3   OH2 3458   4.861   3.971   1.912
 1172TIP3    H1 3459   4.812   3.945   1.990
 1172TIP3    H2 3460   4.869   4.066   1.920
 1173TIP3   OH2 3461   6.880   5.096   0.032
 1173TIP3    H1 3462   6.847   5.185   0.016
 1173TIP3    H2 3463   6.830   5.065   0.108
 1174TIP3   OH2 3464   7.975   1.714   2.279
 1174TIP3    H1 3465   7.889   1.745   2.305
 1174TIP3    H2 3466   7.969   1.618   2.284
 1175TIP3   OH2 3467   5.904   3.526   4.415
 1175TIP3    H1 3468   5.932   3.608   4.457
 1175TIP3    H2 3469   5.935   3.457   4.475
 1176TIP3   OH2 3470   0.650   0.037   0.440
 1176TIP3    H1 3471   0.714   0.069   0.504
 1176TIP3    H2 3472   0.665   0.090   0.362
 1177TIP3   OH2 3473   8.118   0.137   4.806
 1177TIP3    H1 3474   8.175   0.158   4.733
 1177TIP3    H2 3475   8.176   0.129   4.882
 1178TIP3   OH2 3476   3.815   1.120   3.435
 1178TIP3    H1 3477   3.803   1.108   3.529
 1178TIP3    H2 3478   3.814   1.214   3.422
 1179TIP3   OH2 3479   0.620   4.265   4.807
 1179TIP3    H1 3480   0.545   4.245   4.863
 1179TIP3    H2 3481   0.631   4.187   4.753
 1180TIP3   OH2 3482   7.009   2.885   6.670
 1180TIP3    H1 3483   7.032   2.839   6.589
 1180TIP3    H2 3484   7.026   2.977   6.650
 1181TIP3   OH2 3485   8.170   6.112   1.405
 1181TIP3    H1 3486   8.127   6.148   1.482
 1181TIP3    H2 3487   8.098   6.076   1.353
 1182TIP3   OH2 3488   0.297   4.956   2.782
 1182TIP3    H1 3489   0.307   4.872   2.826
 1182TIP3    H2 3490   0.229   5.001   2.833
 1183TIP3   OH2 3491   4.525   4.074   0.633
 1183TIP3    H1 3492   4.465   4.040   0.565
 1183TIP3    H2 3493   4.467   4.115   0.697
 1184TIP3   OH2 3494   6.466   3.133   0.569
 1184TIP3    H1 3495   6.462   3.129   0.473
 1184TIP3    H2 3496   6.455   3.226   0.590
 1185TIP3   OH2 3497   0.492   3.266   6.191
 1185TIP3    H1 3498   0.507   3.355   6.221
 1185TIP3    H2 3499   0.532   3.211   6.258
 1186TIP3   OH2 3500   4.520   4.915   6.742
 1186TIP3    H1 3501   4.474   4.836   6.715
 1186TIP3    H2 3502   4.588   4.927   6.676
 1187TIP3   OH2 3503   0.393   7.061   6.782
 1187TIP3    H1 3504   0.448   7.040   6.707
 1187TIP3    H2 3505   0.454   7.098   6.846
 1188TIP3   OH2 3506   1.185   3.073   2.043
 1188TIP3    H1 3507   1.138   3.115   1.971
 1188TIP3    H2 3508   1.154   2.983   2.042
 1189TIP3   OH2 3509   5.383   3.349   0.147
 1189TIP3    H1 3510   5.449   3.339   0.078
 1189TIP3    H2 3511   5.336   3.429   0.123
 1190TIP3   OH2 3512   0.787   3.223   1.174
 1190TIP3    H1 3513   0.755   3.270   1.097
 1190TIP3    H2 3514   0.860   3.170   1.140
 1191TIP3   OH2 3515   2.604   7.125   3.262
 1191TIP3    H1 3516   2.657   7.187   3.211
 1191TIP3    H2 3517   2.653   7.113   3.344
 1192TIP3   OH2 3518   3.938   2.806   5.102
 1192TIP3    H1 3519   3.924   2.789   5.195
 1192TIP3    H2 3520   3.937   2.902   5.096
 1193TIP3   OH2 3521   3.073   3.540   3.574
 1193TIP3    H1 3522   2.983   3.514   3.555
 1193TIP3    H2 3523   3.082   3.626   3.532
 1194TIP3   OH2 3524   7.414   3.979   5.264
 1194TIP3    H1 3525   7.452   3.961   5.178
 1194TIP3    H2 3526   7.364   3.900   5.285
 1195TIP3   OH2 3527   2.864   4.509   4.362
 1195TIP3    H1 3528   2.908   4.542   4.284
 1195TIP3    H2 3529   2.869   4.580   4.425
 1196TIP3   OH2 3530   6.681   7.582   1.313
 1196TIP3    H1 3531   6.640   7.537   1.386
 1196TIP3    H2 3532   6.742   7.643   1.354
 1197TIP3   OH2 3533   6.483   5.269   0.325
 1197TIP3    H1 3534   6.475   5.283   0.231
 1197TIP3    H2 3535   6.500   5.357   0.360
 1198TIP3   OH2 3536   7.021   1.064   1.000
 1198TIP3    H1 3537   7.034   1.151   1.039
 1198TIP3    H2 3538   7.098   1.052   0.944
 1199TIP3   OH2 3539   4.540   2.895   4.179
 1199TIP3    H1 3540   4.495   2.943   4.109
 1199TIP3    H2 3541   4.582   2.963   4.231
 1200TIP3   OH2 3542   1.472   2.182   0.902
 1200TIP3    H1 3543   1.420   2.177   0.982
 1200TIP3    H2 3544   1.558   2.210   0.930
 1201TIP3   OH2 3545   5.670   2.284   3.966
 1201TIP3    H1 3546   5.688   2.222   4.037
 1201TIP3    H2 3547   5.590   2.251   3.925
 1202TIP3   OH2 3548   2.487   5.516   5.027
 1202TIP3    H1 3549   2.494   5.591   5.085
 1202TIP3    H2 3550   2.414   5.537   4.968
 1203TIP3   OH2 3551   2.696   0.795   0.121
 1203TIP3    H1 3552   2.790   0.786   0.138
 1203TIP3    H2 3553   2.654   0.749   0.193
 1204TIP3   OH2 3554   6.226   4.949   6.191
 1204TIP3    H1 3555   6.250   5.042   6.198
 1204TIP3    H2 3556   6.205   4.923   6.281
 1205TIP3   OH2 3557   2.319   6.023   5.477
 1205TIP3    H1 3558   2.388   6.084   5.504
 1205TIP3    H2 3559   2.273   6.069   5.408
 1206TIP3   OH2 3560   4.861   0.297   4.683
 1206TIP3    H1 3561   4.866   0.368   4.747
 1206TIP3    H2 3562   4.929   0.235   4.709
 1207TIP3   OH2 3563   8.052   2.054   4.316
 1207TIP3    H1 3564   8.091   2.130   4.273
 1207TIP3    H2 3565   8.117   1.985   4.306
 1208TIP3   OH2 3566   8.231   5.399   1.018
 1208TIP3    H1 3567   8.236   5.317   1.068
 1208TIP3    H2 3568   8.262   5.466   1.078
 1209TIP3   OH2 3569   2.248   5.772   4.226
 1209TIP3    H1 3570   2.258   5.705   4.294
 1209TIP3    H2 3571   2.172   5.744   4.176
 1210TIP3   OH2 3572   4.590   6.066   4.358
 1210TIP3    H1 3573   4.512   6.075   4.413
 1210TIP3    H2 3574   4.633   6.151   4.362
 1211TIP3   OH2 3575   3.900   2.184   6.036
 1211TIP3    H1 3576   3.960   2.223   5.972
 1211TIP3    H2 3577   3.813   2.209   6.006
 1212TIP3   OH2 3578   3.602   6.467   0.771
 1212TIP3    H1 3579   3.511   6.448   0.790
 1212TIP3    H2 3580   3.602   6.503   0.682
 1213TIP3   OH2 3581   5.528   0.653   1.321
 1213TIP3    H1 3582   5.457   0.594   1.347
 1213TIP3    H2 3583   5.544   0.631   1.229
 1214TIP3   OH2 3584   8.162   7.816   3.244
 1214TIP3    H1 3585   8.138   7.724   3.231
 1214TIP3    H2 3586   8.122   7.862   3.171
 1215TIP3   OH2 3587   0.108   0.887   6.270
 1215TIP3    H1 3588   0.054   0.914   6.344
 1215TIP3    H2 3589   0.056   0.822   6.224
 1216TIP3   OH2 3590   2.481   3.285   2.812
 1216TIP3    H1 3591   2.487   3.327   2.726
 1216TIP3    H2 3592   2.572   3.274   2.839
 1217TIP3   OH2 3593   1.821   5.875   1.249
 1217TIP3    H1 3594   1.828   5.878   1.345
 1217TIP3    H2 3595   1.736   5.914   1.229
 1218TIP3   OH2 3596   5.942   1.085   3.305
 1218TIP3    H1 3597   5.850   1.077   3.332
 1218TIP3    H2 3598   5.989   1.104   3.387
 1219TIP3   OH2 3599   0.981   1.246   1.339
 1219TIP3    H1 3600   1.008   1.337   1.351
 1219TIP3    H2 3601   0.984   1.209   1.428
 1220TIP3   OH2 3602   5.529   6.012   2.072
 1220TIP3    H1 3603   5.496   6.082   2.128
 1220TIP3    H2 3604   5.578   6.057   2.003
 1221TIP3   OH2 3605   6.656   4.688   6.599
 1221TIP3    H1 3606   6.693   4.607   6.636
 1221TIP3    H2 3607   6.713   4.709   6.525
 1222TIP3   OH2 3608   1.410   7.534   4.087
 1222TIP3    H1 3609   1.406   7.626   4.113
 1222TIP3    H2 3610   1.324   7.498   4.111
 1223TIP3   OH2 3611   7.319   0.445   3.506
 1223TIP3    H1 3612   7.415   0.448   3.498
 1223TIP3    H2 3613   7.301   0.493   3.587
 1224TIP3   OH2 3614   7.023   6.402   5.343
 1224TIP3    H1 3615   6.968   6.411   5.421
 1224TIP3    H2 3616   7.003   6.314   5.309
 1225TIP3   OH2 3617   3.813   1.398   1.801
 1225TIP3    H1 3618   3.764   1.329   1.845
 1225TIP3    H2 3619   3.853   1.449   1.871
 1226TIP3   OH2 3620   3.847   5.901   4.148
 1226TIP3    H1 3621   3.759   5.884   4.181
 1226TIP3    H2 3622   3.889   5.815   4.147
 1227TIP3   OH2 3623   0.955   5.905   2.181
 1227TIP3    H1 3624   1.014   5.884   2.108
 1227TIP3    H2 3625   0.892   5.834   2.182
 1228TIP3   OH2 3626   6.195   2.181   4.619
 1228TIP3    H1 3627   6.278   2.134   4.625
 1228TIP3    H2 3628   6.163   2.161   4.531
 1229TIP3   OH2 3629   6.208   1.018   5.388
 1229TIP3    H1 3630   6.182   1.062   5.307
 1229TIP3    H2 3631   6.304   1.017   5.385
 1230TIP3   OH2 3632   3.092   1.926   6.517
 1230TIP3    H1 3633   3.122   1.845   6.476
 1230TIP3    H2 3634   3.130   1.996   6.463
 1231TIP3   OH2 3635   6.497   4.022   2.241
 1231TIP3    H1 3636   6.545   3.960   2.186
 1231TIP3    H2 3637   6.501   3.984   2.329
 1232TIP3   OH2 3638   2.772   4.238   1.008
 1232TIP3    H1 3639   2.823   4.186   0.945
 1232TIP3    H2 3640   2.721   4.298   0.954
 1233TIP3   OH2 3641   0.320   3.997   1.681
 1233TIP3    H1 3642   0.333   4.082   1.640
 1233TIP3    H2 3643   0.380   3.939   1.635
 1234TIP3   OH2 3644   3.336   4.278   0.603
 1234TIP3    H1 3645   3.431   4.279   0.611
 1234TIP3    H2 3646   3.313   4.370   0.587
 1235TIP3   OH2 3647   6.434   6.306   2.235
 1235TIP3    H1 3648   6.503   6.247   2.265
 1235TIP3    H2 3649   6.388   6.257   2.167
 1236TIP3   OH2 3650   6.523   3.109   6.179
 1236TIP3    H1 3651   6.609   3.149   6.170
 1236TIP3    H2 3652   6.504   3.071   6.093
 1237TIP3   OH2 3653   0.397   1.611   6.205
 1237TIP3    H1 3654   0.383   1.517   6.196
 1237TIP3    H2 3655   0.380   1.629   6.297
 1238TIP3   OH2 3656   2.137   5.209   1.561
 1238TIP3    H1 3657   2.064   5.265   1.535
 1238TIP3    H2 3658   2.215   5.261   1.543
 1239TIP3   OH2 3659   2.348   3.216   5.639
 1239TIP3    H1 3660   2.338   3.168   5.556
 1239TIP3    H2 3661   2.265   3.202   5.684
 1240TIP3   OH2 3662   2.291   4.553   4.035
 1240TIP3    H1 3663   2.308   4.638   4.077
 1240TIP3    H2 3664   2.247   4.502   4.103
 1241TIP3   OH2 3665   5.431   1.295   5.367
 1241TIP3    H1 3666   5.502   1.359   5.377
 1241TIP3    H2 3667   5.351   1.346   5.380
 1242TIP3   OH2 3668   1.135   0.068   0.151
 1242TIP3    H1 3669   1.052   0.037   0.114
 1242TIP3    H2 3670   1.183  -0.012   0.172
 1243TIP3   OH2 3671   3.450   1.450   1.061
 1243TIP3    H1 3672   3.361   1.472   1.090
 1243TIP3    H2 3673   3.460   1.496   0.978
 1244TIP3   OH2 3674   2.749   1.923   3.114
 1244TIP3    H1 3675   2.664   1.965   3.117
 1244TIP3    H2 3676   2.801   1.976   3.053
 1245TIP3   OH2 3677   3.667   5.471   4.380
 1245TIP3    H1 3678   3.728   5.424   4.323
 1245TIP3    H2 3679   3.624   5.534   4.323
 1246TIP3   OH2 3680   3.565   7.049   3.511
 1246TIP3    H1 3681   3.588   6.957   3.498
 1246TIP3    H2 3682   3.621   7.077   3.584
 1247TIP3   OH2 3683   7.993   2.767   2.180
 1247TIP3    H1 3684   7.900   2.756   2.196
 1247TIP3    H2 3685   8.001   2.772   2.085
 1248TIP3   OH2 3686   7.551   6.679   3.515
 1248TIP3    H1 3687   7.560   6.735   3.438
 1248TIP3    H2 3688   7.465   6.701   3.551
 1249TIP3   OH2 3689   1.471   7.398   1.433
 1249TIP3    H1 3690   1.398   7.354   1.390
 1249TIP3    H2 3691   1.433   7.479   1.468
 1250TIP3   OH2 3692   0.587   0.567   3.896
 1250TIP3    H1 3693   0.624   0.638   3.948
 1250TIP3    H2 3694   0.628   0.577   3.810
 1251TIP3   OH2 3695   7.920   2.976   1.970
 1251TIP3    H1 3696   7.880   3.035   2.035
 1251TIP3    H2 3697   8.014   2.994   1.978
 1252TIP3   OH2 3698   2.111   3.425   1.107
 1252TIP3    H1 3699   2.199   3.403   1.075
 1252TIP3    H2 3700   2.080   3.344   1.148
 1253TIP3   OH2 3701   8.093   4.719   6.153
 1253TIP3    H1 3702   8.019   4.679   6.199
 1253TIP3    H2 3703   8.057   4.743   6.067
 1254TIP3   OH2 3704   8.245   4.320   2.217
 1254TIP3    H1 3705   8.311   4.386   2.237
 1254TIP3    H2 3706   8.284   4.237   2.247
 1255TIP3   OH2 3707   5.318   6.295   6.706
 1255TIP3    H1 3708   5.250   6.303   6.773
 1255TIP3    H2 3709   5.273   6.314   6.623
 1256TIP3   OH2 3710   7.845   7.783   5.245
 1256TIP3    H1 3711   7.758   7.764   5.279
 1256TIP3    H2 3712   7.831   7.811   5.155
 1257TIP3   OH2 3713   6.564   2.225   1.183
 1257TIP3    H1 3714   6.658   2.220   1.200
 1257TIP3    H2 3715   6.527   2.151   1.232
 1258TIP3   OH2 3716   8.131   3.301   3.125
 1258TIP3    H1 3717   8.168   3.389   3.129
 1258TIP3    H2 3718   8.206   3.244   3.110
 1259TIP3   OH2 3719   4.917   7.675   0.439
 1259TIP3    H1 3720   4.830   7.705   0.465
 1259TIP3    H2 3721   4.912   7.580   0.440
 1260TIP3   OH2 3722   1.080   6.267   3.987
 1260TIP3    H1 3723   1.045   6.355   3.977
 1260TIP3    H2 3724   1.023   6.213   3.932
 1261TIP3   OH2 3725   0.739   7.417   0.104
 1261TIP3    H1 3726   0.790   7.463   0.038
 1261TIP3    H2 3727   0.737   7.476   0.179
 1262TIP3   OH2 3728   5.046   0.144   5.672
 1262TIP3    H1 3729   5.060   0.072   5.734
 1262TIP3    H2 3730   5.103   0.214   5.704
 1263TIP3   OH2 3731   4.592   0.690   2.403
 1263TIP3    H1 3732   4.611   0.784   2.399
 1263TIP3    H2 3733   4.560   0.675   2.492
 1264TIP3   OH2 3734   2.763   5.756   3.892
 1264TIP3    H1 3735   2.778   5.725   3.981
 1264TIP3    H2 3736   2.789   5.848   3.893
 1265TIP3   OH2 3737   6.488   2.872   2.321
 1265TIP3    H1 3738   6.409   2.819   2.331
 1265TIP3    H2 3739   6.512   2.862   2.229
 1266TIP3   OH2 3740   0.312   1.123   1.371
 1266TIP3    H1 3741   0.279   1.104   1.283
 1266TIP3    H2 3742   0.403   1.149   1.357
 1267TIP3   OH2 3743   8.023   4.644   1.487
 1267TIP3    H1 3744   8.097   4.598   1.526
 1267TIP3    H2 3745   8.026   4.621   1.395
 1268TIP3   OH2 3746   6.738   7.312   2.160
 1268TIP3    H1 3747   6.707   7.357   2.238
 1268TIP3    H2 3748   6.752   7.221   2.188
 1269TIP3   OH2 3749   1.786   5.319   5.358
 1269TIP3    H1 3750   1.792   5.226   5.380
 1269TIP3    H2 3751   1.840   5.362   5.425
 1270TIP3   OH2 3752   3.288   3.238   2.257
 1270TIP3    H1 3753   3.312   3.329   2.269
 1270TIP3    H2 3754   3.200   3.231   2.294
 1271TIP3   OH2 3755   2.322   5.959   3.951
 1271TIP3    H1 3756   2.241   5.915   3.976
 1271TIP3    H2 3757   2.302   6.053   3.957
 1272TIP3   OH2 3758   0.694   7.530   1.584
 1272TIP3    H1 3759   0.735   7.580   1.654
 1272TIP3    H2 3760   0.767   7.495   1.533
 1273TIP3   OH2 3761   1.353   4.186   2.254
 1273TIP3    H1 3762   1.258   4.182   2.255
 1273TIP3    H2 3763   1.381   4.103   2.216
 1274TIP3   OH2 3764   0.269   1.992   3.629
 1274TIP3    H1 3765   0.315   1.913   3.657
 1274TIP3    H2 3766   0.181   1.962   3.605
 1275TIP3   OH2 3767   7.033   7.431   5.466
 1275TIP3    H1 3768   7.003   7.341   5.452
 1275TIP3    H2 3769   7.109   7.421   5.523
 1276TIP3   OH2 3770   3.438   1.656   5.038
 1276TIP3    H1 3771   3.495   1.595   5.086
 1276TIP3    H2 3772   3.498   1.713   4.991
 1277TIP3   OH2 3773   7.906   2.735   4.925
 1277TIP3    H1 3774   7.840   2.670   4.901
 1277TIP3    H2 3775   7.912   2.793   4.848
 1278TIP3   OH2 3776   5.882   4.863   0.203
 1278TIP3    H1 3777   5.929   4.941   0.233
 1278TIP3    H2 3778   5.952   4.804   0.173
 1279TIP3   OH2 3779   7.633   1.704   3.831
 1279TIP3    H1 3780   7.553   1.745   3.797
 1279TIP3    H2 3781   7.682   1.775   3.871
 1280TIP3   OH2 3782   5.499   6.427   1.982
 1280TIP3    H1 3783   5.508   6.439   1.887
 1280TIP3    H2 3784   5.426   6.483   2.007
 1281TIP3   OH2 3785   3.555   0.497   2.818
 1281TIP3    H1 3786   3.647   0.517   2.798
 1281TIP3    H2 3787   3.529   0.436   2.749
 1282TIP3   OH2 3788   3.799   1.064   6.581
 1282TIP3    H1 3789   3.801   1.097   6.671
 1282TIP3    H2 3790   3.709   1.078   6.552
 1283TIP3   OH2 3791   0.781   5.072   1.776
 1283TIP3    H1 3792   0.704   5.054   1.830
 1283TIP3    H2 3793   0.787   4.997   1.717
 1284TIP3   OH2 3794   3.920   3.182   4.238
 1284TIP3    H1 3795   3.909   3.087   4.241
 1284TIP3    H2 3796   3.841   3.217   4.277
 1285TIP3   OH2 3797   6.367   3.024   5.232
 1285TIP3    H1 3798   6.338   2.950   5.284
 1285TIP3    H2 3799   6.287   3.075   5.216
 1286TIP3   OH2 3800   2.723   1.112   0.189
 1286TIP3    H1 3801   2.663   1.079   0.123
 1286TIP3    H2 3802   2.670   1.120   0.268
 1287TIP3   OH2 3803   1.642   1.788   5.090
 1287TIP3    H1 3804   1.698   1.865   5.079
 1287TIP3    H2 3805   1.677   1.743   5.167
 1288TIP3   OH2 3806   7.506   0.320   5.934
 1288TIP3    H1 3807   7.476   0.355   5.850
 1288TIP3    H2 3808   7.491   0.226   5.928
 1289TIP3   OH2 3809   8.338   7.071   5.542
 1289TIP3    H1 3810   8.321   7.001   5.478
 1289TIP3    H2 3811   8.258   7.074   5.595
 1290TIP3   OH2 3812   1.022   1.603   5.944
 1290TIP3    H1 3813   1.038   1.698   5.951
 1290TIP3    H2 3814   0.989   1.590   5.855
 1291TIP3   OH2 3815   4.679   0.502   0.298
 1291TIP3    H1 3816   4.682   0.468   0.387
 1291TIP3    H2 3817   4.730   0.440   0.246
 1292TIP3   OH2 3818   6.688   1.448   0.309
 1292TIP3    H1 3819   6.730   1.370   0.272
 1292TIP3    H2 3820   6.638   1.415   0.384
 1293TIP3   OH2 3821   6.315   7.350   0.898
 1293TIP3    H1 3822   6.281   7.418   0.839
 1293TIP3    H2 3823   6.278   7.268   0.864
 1294TIP3   OH2 3824   6.117   3.289   3.034
 1294TIP3    H1 3825   6.063   3.226   3.081
 1294TIP3    H2 3826   6.139   3.355   3.099
 1295TIP3   OH2 3827   3.526   5.253   1.355
 1295TIP3    H1 3828   3.558   5.333   1.314
 1295TIP3    H2 3829   3.598   5.191   1.348
 1296TIP3   OH2 3830   5.924   0.132   4.508
 1296TIP3    H1 3831   5.865   0.069   4.550
 1296TIP3    H2 3832   5.921   0.209   4.564
 1297TIP3   OH2 3833   3.632   6.155   3.607
 1297TIP3    H1 3834   3.708   6.165   3.550
 1297TIP3    H2 3835   3.666   6.108   3.684
 1298TIP3   OH2 3836   3.536   4.070   6.719
 1298TIP3    H1 3837   3.496   4.157   6.723
 1298TIP3    H2 3838   3.586   4.071   6.637
 1299TIP3   OH2 3839   5.124   1.528   3.568
 1299TIP3    H1 3840   5.208   1.510   3.526
 1299TIP3    H2 3841   5.067   1.457   3.539
 1300TIP3   OH2 3842   2.956   5.216   2.232
 1300TIP3    H1 3843   2.936   5.308   2.250
 1300TIP3    H2 3844   3.052   5.213   2.226
 1301TIP3   OH2 3845   7.677   0.160   3.616
 1301TIP3    H1 3846   7.587   0.190   3.627
 1301TIP3    H2 3847   7.668   0.069   3.588
 1302TIP3   OH2 3848   6.046   3.750   5.655
 1302TIP3    H1 3849   5.957   3.750   5.689
 1302TIP3    H2 3850   6.037   3.730   5.562
 1303TIP3   OH2 3851   1.096   1.836   5.685
 1303TIP3    H1 3852   1.064   1.746   5.691
 1303TIP3    H2 3853   1.089   1.870   5.774
 1304TIP3   OH2 3854   1.130   0.401   5.408
 1304TIP3    H1 3855   1.164   0.424   5.322
 1304TIP3    H2 3856   1.198   0.348   5.448
 1305TIP3   OH2 3857   0.711   5.467   5.606
 1305TIP3    H1 3858   0.800   5.499   5.592
 1305TIP3    H2 3859   0.707   5.383   5.560
 1306TIP3   OH2 3860   2.417   6.491   4.533
 1306TIP3    H1 3861   2.400   6.536   4.615
 1306TIP3    H2 3862   2.393   6.554   4.465
 1307TIP3   OH2 3863   3.938   2.826   0.828
 1307TIP3    H1 3864   3.953   2.920   0.829
 1307TIP3    H2 3865   4.023   2.788   0.850
 1308TIP3   OH2 3866   7.481   0.110   3.175
 1308TIP3    H1 3867   7.534   0.035   3.201
 1308TIP3    H2 3868   7.409   0.112   3.238
 1309TIP3   OH2 3869   3.432   2.041   0.928
 1309TIP3    H1 3870   3.518   2.069   0.896
 1309TIP3    H2 3871   3.371   2.070   0.860
 1310TIP3   OH2 3872   0.849   2.623   5.017
 1310TIP3    H1 3873   0.801   2.602   4.937
 1310TIP3    H2 3874   0.797   2.691   5.059
 1311TIP3   OH2 3875   4.753   3.818   3.927
 1311TIP3    H1 3876   4.821   3.755   3.951
 1311TIP3    H2 3877   4.674   3.785   3.971
 1312TIP3   OH2 3878   3.874   6.209   5.200
 1312TIP3    H1 3879   3.967   6.227   5.184
 1312TIP3    H2 3880   3.834   6.216   5.113
 1313TIP3   OH2 3881   5.773   5.585   3.390
 1313TIP3    H1 3882   5.769   5.676   3.418
 1313TIP3    H2 3883   5.702   5.576   3.327
 1314TIP3   OH2 3884   7.052   2.729   4.282
 1314TIP3    H1 3885   7.029   2.708   4.191
 1314TIP3    H2 3886   7.006   2.664   4.335
 1315TIP3   OH2 3887   3.879   0.766   6.522
 1315TIP3    H1 3888   3.965   0.727   6.505
 1315TIP3    H2 3889   3.835   0.766   6.438
 1316TIP3   OH2 3890   5.379   5.390   4.653
 1316TIP3    H1 3891   5.458   5.405   4.600
 1316TIP3    H2 3892   5.307   5.392   4.590
 1317TIP3   OH2 3893   0.583   2.233   3.230
 1317TIP3    H1 3894   0.573   2.164   3.165
 1317TIP3    H2 3895   0.504   2.227   3.284
 1318TIP3   OH2 3896   5.771   5.150   4.110
 1318TIP3    H1 3897   5.807   5.103   4.185
 1318TIP3    H2 3898   5.783   5.091   4.036
 1319TIP3   OH2 3899   2.300   5.854   3.417
 1319TIP3    H1 3900   2.340   5.798   3.350
 1319TIP3    H2 3901   2.265   5.929   3.368
 1320TIP3   OH2 3902   6.692   0.954   5.504
 1320TIP3    H1 3903   6.640   0.885   5.545
 1320TIP3    H2 3904   6.633   0.992   5.439
 1321TIP3   OH2 3905   2.869   3.432   2.984
 1321TIP3    H1 3906   2.819   3.358   2.950
 1321TIP3    H2 3907   2.942   3.442   2.923
 1322TIP3   OH2 3908   1.688   4.825   1.539
 1322TIP3    H1 3909   1.734   4.754   1.494
 1322TIP3    H2 3910   1.629   4.780   1.600
 1323TIP3   OH2 3911   3.575   7.119   0.844
 1323TIP3    H1 3912   3.546   7.045   0.790
 1323TIP3    H2 3913   3.671   7.112   0.844
 1324TIP3   OH2 3914   3.581   4.156   3.647
 1324TIP3    H1 3915   3.488   4.156   3.628
 1324TIP3    H2 3916   3.587   4.185   3.738
 1325TIP3   OH2 3917   5.210   7.170   4.201
 1325TIP3    H1 3918   5.146   7.099   4.200
 1325TIP3    H2 3919   5.291   7.129   4.231
 1326TIP3   OH2 3920   4.842   6.372   3.056
 1326TIP3    H1 3921   4.839   6.280   3.030
 1326TIP3    H2 3922   4.881   6.371   3.143
 1327TIP3   OH2 3923   4.781   4.363   0.581
 1327TIP3    H1 3924   4.832   4.361   0.662
 1327TIP3    H2 3925   4.694   4.392   0.608
 1328TIP3   OH2 3926   3.963   3.757   6.211
 1328TIP3    H1 3927   3.941   3.673   6.252
 1328TIP3    H2 3928   4.053   3.744   6.179
 1329TIP3   OH2 3929   0.912   6.636   0.275
 1329TIP3    H1 3930   1.006   6.639   0.294
 1329TIP3    H2 3931   0.908   6.609   0.183
 1330TIP3   OH2 3932   5.270   3.774   0.310
 1330TIP3    H1 3933   5.231   3.817   0.234
 1330TIP3    H2 3934   5.213   3.699   0.327
 1331TIP3   OH2 3935   2.707   2.669   0.478
 1331TIP3    H1 3936   2.746   2.582   0.489
 1331TIP3    H2 3937   2.689   2.675   0.384
 1332TIP3   OH2 3938   1.838   7.376   4.161
 1332TIP3    H1 3939   1.846   7.445   4.228
 1332TIP3    H2 3940   1.767   7.320   4.193
 1333TIP3   OH2 3941   4.404   2.924   1.642
 1333TIP3    H1 3942   4.331   2.961   1.594
 1333TIP3    H2 3943   4.452   3.000   1.675
 1334TIP3   OH2 3944   3.184   4.470   6.106
 1334TIP3    H1 3945   3.235   4.428   6.036
 1334TIP3    H2 3946   3.144   4.546   6.065
 1335TIP3   OH2 3947   1.480   1.114   2.302
 1335TIP3    H1 3948   1.425   1.106   2.380
 1335TIP3    H2 3949   1.514   1.026   2.287
 1336TIP3   OH2 3950   6.277   4.779   3.042
 1336TIP3    H1 3951   6.359   4.733   3.059
 1336TIP3    H2 3952   6.286   4.863   3.088
 1337TIP3   OH2 3953   1.012   7.025   3.862
 1337TIP3    H1 3954   0.925   7.002   3.895
 1337TIP3    H2 3955   1.015   6.990   3.773
 1338TIP3   OH2 3956   2.670   0.956   5.026
 1338TIP3    H1 3957   2.615   1.019   5.073
 1338TIP3    H2 3958   2.738   1.010   4.985
 1339TIP3   OH2 3959   6.597   6.077   5.807
 1339TIP3    H1 3960   6.664   6.009   5.812
 1339TIP3    H2 3961   6.618   6.136   5.880
 1340TIP3   OH2 3962   3.274   3.692   0.180
 1340TIP3    H1 3963   3.308   3.718   0.094
 1340TIP3    H2 3964   3.264   3.775   0.227
 1341TIP3   OH2 3965   6.953   7.123   4.862
 1341TIP3    H1 3966   6.963   7.097   4.953
 1341TIP3    H2 3967   7.040   7.153   4.836
 1342TIP3   OH2 3968   1.598   7.632   0.751
 1342TIP3    H1 3969   1.541   7.567   0.791
 1342TIP3    H2 3970   1.538   7.696   0.713
 1343TIP3   OH2 3971   0.602   7.777   5.851
 1343TIP3    H1 3972   0.690   7.778   5.888
 1343TIP3    H2 3973   0.581   7.870   5.837
 1344TIP3   OH2 3974   4.857   0.819   3.579
 1344TIP3    H1 3975   4.930   0.859   3.627
 1344TIP3    H2 3976   4.893   0.737   3.545
 1345TIP3   OH2 3977   2.675   1.322   6.599
 1345TIP3    H1 3978   2.730   1.273   6.660
 1345TIP3    H2 3979   2.657   1.405   6.643
 1346TIP3   OH2 3980   3.971   0.974   3.004
 1346TIP3    H1 3981   3.898   0.975   3.066
 1346TIP3    H2 3982   4.031   1.042   3.036
 1347TIP3   OH2 3983   6.021   3.493   2.843
 1347TIP3    H1 3984   6.035   3.403   2.872
 1347TIP3    H2 3985   6.035   3.490   2.748
 1348TIP3   OH2 3986   0.952   4.982   3.875
 1348TIP3    H1 3987   0.944   4.996   3.780
 1348TIP3    H2 3988   1.035   5.025   3.898
 1349TIP3   OH2 3989   2.246   7.610   3.952
 1349TIP3    H1 3990   2.166   7.662   3.947
 1349TIP3    H2 3991   2.216   7.521   3.970
 1350TIP3   OH2 3992   3.344   4.607   4.790
 1350TIP3    H1 3993   3.338   4.677   4.855
 1350TIP3    H2 3994   3.343   4.527   4.842
 1351TIP3   OH2 3995   5.376   7.290   4.791
 1351TIP3    H1 3996   5.291   7.330   4.775
 1351TIP3    H2 3997   5.422   7.296   4.708
 1352TIP3   OH2 3998   0.989   5.035   0.457
 1352TIP3    H1 3999   0.952   5.097   0.520
 1352TIP3    H2 4000   1.036   5.090   0.393
 1353TIP3   OH2 4001   1.476   2.022   6.836
 1353TIP3    H1 4002   1.498   2.100   6.785
 1353TIP3    H2 4003   1.393   1.992   6.798
 1354TIP3   OH2 4004   1.239   4.206   0.929
 1354TIP3    H1 4005   1.151   4.170   0.922
 1354TIP3    H2 4006   1.236   4.287   0.877
 1355TIP3   OH2 4007   1.590   0.879   0.495
 1355TIP3    H1 4008   1.595   0.816   0.567
 1355TIP3    H2 4009   1.637   0.837   0.423
 1356TIP3   OH2 4010   5.573   5.195   0.174
 1356TIP3    H1 4011   5.636   5.206   0.244
 1356TIP3    H2 4012   5.509   5.266   0.187
 1357TIP3   OH2 4013   6.789   7.455   3.004
 1357TIP3    H1 4014   6.863   7.457   2.944
 1357TIP3    H2 4015   6.712   7.452   2.948
 1358TIP3   OH2 4016   2.859   0.174   0.237
 1358TIP3    H1 4017   2.867   0.224   0.319
 1358TIP3    H2 4018   2.880   0.084   0.261
 1359TIP3   OH2 4019   1.207   7.467   4.493
 1359TIP3    H1 4020   1.196   7.495   4.402
 1359TIP3    H2 4021   1.301   7.464   4.506
 1360TIP3   OH2 4022   0.866   3.054   0.851
 1360TIP3    H1 4023   0.856   2.977   0.795
 1360TIP3    H2 4024   0.886   3.018   0.937
 1361TIP3   OH2 4025   2.759   2.528   5.309
 1361TIP3    H1 4026   2.788   2.478   5.232
 1361TIP3    H2 4027   2.804   2.612   5.301
 1362TIP3   OH2 4028   2.679   6.943   3.873
 1362TIP3    H1 4029   2.773   6.940   3.894
 1362TIP3    H2 4030   2.642   6.870   3.923
 1363TIP3   OH2 4031   7.336   7.787   0.120
 1363TIP3    H1 4032   7.424   7.802   0.085
 1363TIP3    H2 4033   7.340   7.699   0.157
 1364TIP3   OH2 4034   7.975   5.847   3.846
 1364TIP3    H1 4035   8.028   5.892   3.912
 1364TIP3    H2 4036   7.914   5.794   3.896
 1365TIP3   OH2 4037   7.604   2.172   3.064
 1365TIP3    H1 4038   7.678   2.220   3.027
 1365TIP3    H2 4039   7.639   2.084   3.080
 1366TIP3   OH2 4040   5.970   0.403   6.131
 1366TIP3    H1 4041   5.888   0.415   6.084
 1366TIP3    H2 4042   5.973   0.309   6.151
 1367TIP3   OH2 4043   0.283   4.536   1.793
 1367TIP3    H1 4044   0.217   4.472   1.822
 1367TIP3    H2 4045   0.366   4.498   1.820
 1368TIP3   OH2 4046   3.491   6.771   6.201
 1368TIP3    H1 4047   3.487   6.687   6.155
 1368TIP3    H2 4048   3.578   6.773   6.240
 1369TIP3   OH2 4049   7.385   1.275   6.014
 1369TIP3    H1 4050   7.420   1.291   6.101
 1369TIP3    H2 4051   7.462   1.269   5.957
 1370TIP3   OH2 4052   3.149   2.602   4.542
 1370TIP3    H1 4053   3.121   2.684   4.583
 1370TIP3    H2 4054   3.176   2.628   4.453
 1371TIP3   OH2 4055   2.057   3.015   0.465
 1371TIP3    H1 4056   2.003   3.079   0.420
 1371TIP3    H2 4057   2.105   3.066   0.531
 1372TIP3   OH2 4058   4.364   3.879   0.457
 1372TIP3    H1 4059   4.456   3.858   0.445
 1372TIP3    H2 4060   4.317   3.804   0.419
 1373TIP3   OH2 4061   0.208   2.254   5.603
 1373TIP3    H1 4062   0.177   2.318   5.667
 1373TIP3    H2 4063   0.182   2.290   5.518
 1374TIP3   OH2 4064   3.680   3.617   5.658
 1374TIP3    H1 4065   3.698   3.710   5.645
 1374TIP3    H2 4066   3.715   3.575   5.580
 1375TIP3   OH2 4067   8.140   1.630   1.032
 1375TIP3    H1 4068   8.181   1.711   1.061
 1375TIP3    H2 4069   8.122   1.581   1.112
 1376TIP3   OH2 4070   4.423   5.794   4.435
 1376TIP3    H1 4071   4.403   5.887   4.440
 1376TIP3    H2 4072   4.373   5.763   4.359
 1377TIP3   OH2 4073   7.073   4.548   5.037
 1377TIP3    H1 4074   7.086   4.476   5.099
 1377TIP3    H2 4075   7.120   4.521   4.958
 1378TIP3   OH2 4076   1.228   0.062   5.346
 1378TIP3    H1 4077   1.233   0.121   5.422
 1378TIP3    H2 4078   1.279  -0.014   5.371
 1379TIP3   OH2 4079   2.203   0.237   0.666
 1379TIP3    H1 4080   2.121   0.237   0.716
 1379TIP3    H2 4081   2.216   0.145   0.644
 1380TIP3   OH2 4082   2.640   1.657   5.746
 1380TIP3    H1 4083   2.563   1.708   5.771
 1380TIP3    H2 4084   2.679   1.630   5.829
 1381TIP3   OH2 4085   5.500   0.680   3.286
 1381TIP3    H1 4086   5.574   0.741   3.284
 1381TIP3    H2 4087   5.449   0.708   3.363
 1382TIP3   OH2 4088   0.317   1.337   6.225
 1382TIP3    H1 4089   0.283   1.249   6.210
 1382TIP3    H2 4090   0.367   1.329   6.306
 1383TIP3   OH2 4091   1.826   5.824   6.623
 1383TIP3    H1 4092   1.757   5.763   6.648
 1383TIP3    H2 4093   1.806   5.904   6.671
 1384TIP3   OH2 4094   4.448   0.654   3.993
 1384TIP3    H1 4095   4.469   0.602   3.916
 1384TIP3    H2 4096   4.363   0.694   3.974
 1385TIP3   OH2 4097   4.931   5.033   0.393
 1385TIP3    H1 4098   4.896   4.989   0.316
 1385TIP3    H2 4099   4.955   4.962   0.453
 1386TIP3   OH2 4100   7.727   0.406   1.713
 1386TIP3    H1 4101   7.693   0.321   1.741
 1386TIP3    H2 4102   7.712   0.408   1.618
 1387TIP3   OH2 4103   3.035   4.040   1.105
 1387TIP3    H1 4104   2.990   4.099   1.045
 1387TIP3    H2 4105   2.966   4.009   1.164
 1388TIP3   OH2 4106   1.785   0.638   0.456
 1388TIP3    H1 4107   1.824   0.551   0.467
 1388TIP3    H2 4108   1.747   0.636   0.368
 1389TIP3   OH2 4109   5.053   6.856   2.614
 1389TIP3    H1 4110   5.071   6.930   2.672
 1389TIP3    H2 4111   5.138   6.834   2.577
 1390TIP3   OH2 4112   1.212   4.678   2.853
 1390TIP3    H1 4113   1.176   4.637   2.775
 1390TIP3    H2 4114   1.294   4.632   2.870
 1391TIP3   OH2 4115   5.512   7.763   1.421
 1391TIP3    H1 4116   5.463   7.693   1.377
 1391TIP3    H2 4117   5.577   7.716   1.474
 1392TIP3   OH2 4118   1.816   1.767   4.325
 1392TIP3    H1 4119   1.778   1.694   4.375
 1392TIP3    H2 4120   1.741   1.805   4.279
 1393TIP3   OH2 4121   0.062   3.331   3.861
 1393TIP3    H1 4122   0.054   3.425   3.877
 1393TIP3    H2 4123  -0.016   3.310   3.809
 1394TIP3   OH2 4124   7.666   5.259   5.445
 1394TIP3    H1 4125   7.715   5.178   5.461
 1394TIP3    H2 4126   7.719   5.307   5.381
 1395TIP3   OH2 4127   2.208   7.419   5.500
 1395TIP3    H1 4128   2.187   7.396   5.409
 1395TIP3    H2 4129   2.282   7.364   5.523
 1396TIP3   OH2 4130   1.778   3.892   2.268
 1396TIP3    H1 4131   1.710   3.937   2.319
 1396TIP3    H2 4132   1.856   3.896   2.323
 1397TIP3   OH2 4133   3.440   2.872   1.616
 1397TIP3    H1 4134   3.413   2.961   1.595
 1397TIP3    H2 4135   3.536   2.878   1.624
 1398TIP3   OH2 4136   2.228   0.761   1.151
 1398TIP3    H1 4137   2.155   0.722   1.102
 1398TIP3    H2 4138   2.303   0.749   1.094
 1399TIP3   OH2 4139   1.721   4.320   3.964
 1399TIP3    H1 4140   1.647   4.288   4.016
 1399TIP3    H2 4141   1.680   4.375   3.897
 1400TIP3   OH2 4142   0.488   4.919   4.548
 1400TIP3    H1 4143   0.490   4.858   4.474
 1400TIP3    H2 4144   0.563   4.893   4.602
 1401TIP3   OH2 4145   1.856   3.200   0.456
 1401TIP3    H1 4146   1.784   3.154   0.413
 1401TIP3    H2 4147   1.814   3.269   0.506
 1402TIP3   OH2 4148   4.728   2.017   1.285
 1402TIP3    H1 4149   4.763   2.028   1.196
 1402TIP3    H2 4150   4.799   1.973   1.333
 1403TIP3   OH2 4151   0.144   4.764   6.131
 1403TIP3    H1 4152   0.083   4.800   6.067
 1403TIP3    H2 4153   0.173   4.681   6.093
 1404TIP3   OH2 4154   5.223   1.267   1.469
 1404TIP3    H1 4155   5.153   1.230   1.523
 1404TIP3    H2 4156   5.204   1.236   1.381
 1405TIP3   OH2 4157   3.266   1.979   3.825
 1405TIP3    H1 4158   3.359   1.993   3.841
 1405TIP3    H2 4159   3.255   1.884   3.828
 1406TIP3   OH2 4160   6.385   6.978   5.065
 1406TIP3    H1 4161   6.425   6.926   4.996
 1406TIP3    H2 4162   6.403   7.068   5.041
 1407TIP3   OH2 4163   2.397   4.679   1.121
 1407TIP3    H1 4164   2.417   4.616   1.191
 1407TIP3    H2 4165   2.418   4.764   1.159
 1408TIP3   OH2 4166   2.594   7.223   2.003
 1408TIP3    H1 4167   2.653   7.177   1.944
 1408TIP3    H2 4168   2.512   7.229   1.955
 1409TIP3   OH2 4169   2.590   7.797   6.533
 1409TIP3    H1 4170   2.636   7.726   6.489
 1409TIP3    H2 4171   2.518   7.755   6.580
 1410TIP3   OH2 4172   6.215   3.951   6.130
 1410TIP3    H1 4173   6.195   3.996   6.048
 1410TIP3    H2 4174   6.234   4.022   6.192
 1411TIP3   OH2 4175   5.762   3.240   0.863
 1411TIP3    H1 4176   5.757   3.291   0.944
 1411TIP3    H2 4177   5.824   3.289   0.808
 1412TIP3   OH2 4178   0.372   1.971   0.438
 1412TIP3    H1 4179   0.443   1.948   0.497
 1412TIP3    H2 4180   0.345   2.058   0.466
 1413TIP3   OH2 4181   1.028   1.883   5.240
 1413TIP3    H1 4182   1.091   1.828   5.287
 1413TIP3    H2 4183   0.992   1.826   5.173
 1414TIP3   OH2 4184   0.760   2.745   4.498
 1414TIP3    H1 4185   0.689   2.785   4.548
 1414TIP3    H2 4186   0.784   2.812   4.433
 1415TIP3   OH2 4187   1.993   3.780   5.258
 1415TIP3    H1 4188   1.980   3.844   5.188
 1415TIP3    H2 4189   1.908   3.775   5.302
 1416TIP3   OH2 4190   5.723   6.134   0.121
 1416TIP3    H1 4191   5.775   6.137   0.201
 1416TIP3    H2 4192   5.756   6.058   0.073
 1417TIP3   OH2 4193   5.388   0.829   2.102
 1417TIP3    H1 4194   5.456   0.763   2.118
 1417TIP3    H2 4195   5.354   0.851   2.189
 1418TIP3   OH2 4196   3.910   3.009   2.729
 1418TIP3    H1 4197   3.828   3.041   2.693
 1418TIP3    H2 4198   3.899   3.015   2.823
 1419TIP3   OH2 4199   6.375   1.981   3.419
 1419TIP3    H1 4200   6.346   2.031   3.495
 1419TIP3    H2 4201   6.446   1.926   3.452
 1420TIP3   OH2 4202   4.319   3.368   0.834
 1420TIP3    H1 4203   4.314   3.361   0.739
 1420TIP3    H2 4204   4.230   3.351   0.865
 1421TIP3   OH2 4205   6.490   7.416   3.557
 1421TIP3    H1 4206   6.440   7.341   3.587
 1421TIP3    H2 4207   6.566   7.378   3.513
 1422TIP3   OH2 4208   0.214   6.019   4.767
 1422TIP3    H1 4209   0.163   6.082   4.818
 1422TIP3    H2 4210   0.303   6.026   4.802
 1423TIP3   OH2 4211   5.250   5.240   6.396
 1423TIP3    H1 4212   5.186   5.310   6.380
 1423TIP3    H2 4213   5.218   5.196   6.474
 1424TIP3   OH2 4214   0.121   7.630   4.121
 1424TIP3    H1 4215   0.216   7.634   4.127
 1424TIP3    H2 4216   0.094   7.571   4.191
 1425TIP3   OH2 4217   0.364   0.458   0.079
 1425TIP3    H1 4218   0.325   0.475  -0.007
 1425TIP3    H2 4219   0.354   0.540   0.127
 1426TIP3   OH2 4220   1.192   6.409   0.750
 1426TIP3    H1 4221   1.109   6.371   0.719
 1426TIP3    H2 4222   1.231   6.448   0.672
 1427TIP3   OH2 4223   7.267   0.391   2.045
 1427TIP3    H1 4224   7.301   0.480   2.044
 1427TIP3    H2 4225   7.289   0.357   1.958
 1428TIP3   OH2 4226   3.361   0.902   0.168
 1428TIP3    H1 4227   3.332   0.813   0.185
 1428TIP3    H2 4228   3.348   0.948   0.250
 1429TIP3   OH2 4229   4.947   1.450   1.141
 1429TIP3    H1 4230   4.910   1.387   1.079
 1429TIP3    H2 4231   4.969   1.526   1.087
 1430TIP3   OH2 4232   1.595   3.692   0.687
 1430TIP3    H1 4233   1.596   3.787   0.691
 1430TIP3    H2 4234   1.619   3.672   0.597
 1431TIP3   OH2 4235   0.393   7.501   2.380
 1431TIP3    H1 4236   0.340   7.501   2.300
 1431TIP3    H2 4237   0.390   7.410   2.410
 1432TIP3   OH2 4238   6.947   6.338   2.575
 1432TIP3    H1 4239   7.037   6.361   2.552
 1432TIP3    H2 4240   6.896   6.360   2.497
 1433TIP3   OH2 4241   7.956   6.765   3.054
 1433TIP3    H1 4242   8.024   6.825   3.084
 1433TIP3    H2 4243   8.002   6.682   3.041
 1434TIP3   OH2 4244   3.620   7.093   4.485
 1434TIP3    H1 4245   3.684   7.162   4.471
 1434TIP3    H2 4246   3.594   7.102   4.577
 1435TIP3   OH2 4247   7.528   7.653   2.738
 1435TIP3    H1 4248   7.544   7.605   2.819
 1435TIP3    H2 4249   7.553   7.592   2.669
 1436TIP3   OH2 4250   7.066   4.925   4.661
 1436TIP3    H1 4251   7.007   4.971   4.721
 1436TIP3    H2 4252   7.008   4.890   4.593
 1437TIP3   OH2 4253   4.133   3.137   3.596
 1437TIP3    H1 4254   4.218   3.110   3.562
 1437TIP3    H2 4255   4.153   3.192   3.672
 1438TIP3   OH2 4256   5.671   2.193   3.050
 1438TIP3    H1 4257   5.654   2.250   2.975
 1438TIP3    H2 4258   5.605   2.217   3.115
 1439TIP3   OH2 4259   5.478   3.424   4.388
 1439TIP3    H1 4260   5.541   3.362   4.352
 1439TIP3    H2 4261   5.413   3.370   4.432
 1440TIP3   OH2 4262   0.742   7.293   5.497
 1440TIP3    H1 4263   0.680   7.329   5.561
 1440TIP3    H2 4264   0.687   7.268   5.422
 1441TIP3   OH2 4265   6.961   2.207   2.514
 1441TIP3    H1 4266   7.049   2.221   2.547
 1441TIP3    H2 4267   6.965   2.232   2.421
 1442TIP3   OH2 4268   5.696   4.475   3.676
 1442TIP3    H1 4269   5.765   4.530   3.639
 1442TIP3    H2 4270   5.652   4.438   3.599
 1443TIP3   OH2 4271   1.220   3.702   6.314
 1443TIP3    H1 4272   1.150   3.688   6.378
 1443TIP3    H2 4273   1.204   3.637   6.246
 1444TIP3   OH2 4274   1.947   3.177   1.511
 1444TIP3    H1 4275   1.901   3.259   1.492
 1444TIP3    H2 4276   1.910   3.148   1.594
 1445TIP3   OH2 4277   8.313   1.232   2.463
 1445TIP3    H1 4278   8.280   1.206   2.377
 1445TIP3    H2 4279   8.393   1.281   2.445
 1446TIP3   OH2 4280   5.264   6.890   3.600
 1446TIP3    H1 4281   5.360   6.889   3.593
 1446TIP3    H2 4282   5.243   6.981   3.621
 1447TIP3   OH2 4283   2.679   3.151   6.649
 1447TIP3    H1 4284   2.669   3.196   6.565
 1447TIP3    H2 4285   2.750   3.198   6.693
 1448TIP3   OH2 4286   6.946   7.176   4.591
 1448TIP3    H1 4287   6.880   7.139   4.531
 1448TIP3    H2 4288   6.920   7.145   4.678
 1449TIP3   OH2 4289   4.595   7.585   6.148
 1449TIP3    H1 4290   4.647   7.562   6.071
 1449TIP3    H2 4291   4.521   7.636   6.113
 1450TIP3   OH2 4292   7.921   5.538   0.547
 1450TIP3    H1 4293   7.888   5.628   0.549
 1450TIP3    H2 4294   7.952   5.521   0.636
 1451TIP3   OH2 4295   2.944   6.458   5.322
 1451TIP3    H1 4296   2.878   6.524   5.344
 1451TIP3    H2 4297   3.000   6.500   5.257
 1452TIP3   OH2 4298   8.208   4.161   3.381
 1452TIP3    H1 4299   8.136   4.190   3.437
 1452TIP3    H2 4300   8.257   4.100   3.435
 1453TIP3   OH2 4301   7.119   7.255   3.979
 1453TIP3    H1 4302   7.137   7.293   4.065
 1453TIP3    H2 4303   7.124   7.160   3.993
 1454TIP3   OH2 4304   7.160   7.674   1.025
 1454TIP3    H1 4305   7.093   7.647   1.088
 1454TIP3    H2 4306   7.210   7.594   1.008
 1455TIP3   OH2 4307   7.831   1.089   5.070
 1455TIP3    H1 4308   7.913   1.063   5.113
 1455TIP3    H2 4309   7.785   1.006   5.054
 1456TIP3   OH2 4310   0.444   1.358   5.038
 1456TIP3    H1 4311   0.364   1.379   4.990
 1456TIP3    H2 4312   0.416   1.355   5.130
 1457TIP3   OH2 4313   6.591   7.603   4.278
 1457TIP3    H1 4314   6.642   7.556   4.343
 1457TIP3    H2 4315   6.639   7.685   4.263
 1458TIP3   OH2 4316   3.990   4.583   0.611
 1458TIP3    H1 4317   4.013   4.630   0.531
 1458TIP3    H2 4318   4.060   4.603   0.672
 1459TIP3   OH2 4319   1.030   5.015   2.700
 1459TIP3    H1 4320   0.946   4.979   2.668
 1459TIP3    H2 4321   1.043   4.974   2.785
 1460TIP3   OH2 4322   1.428   6.457   2.966
 1460TIP3    H1 4323   1.448   6.373   3.007
 1460TIP3    H2 4324   1.361   6.496   3.022
 1461TIP3   OH2 4325   6.319   0.039   5.100
 1461TIP3    H1 4326   6.376   0.116   5.102
 1461TIP3    H2 4327   6.311   0.013   5.192
 1462TIP3   OH2 4328   8.032   2.478   0.777
 1462TIP3    H1 4329   7.949   2.467   0.824
 1462TIP3    H2 4330   8.011   2.456   0.687
 1463TIP3   OH2 4331   5.657   3.709   6.483
 1463TIP3    H1 4332   5.678   3.789   6.530
 1463TIP3    H2 4333   5.653   3.736   6.391
 1464TIP3   OH2 4334   6.912   6.929   2.107
 1464TIP3    H1 4335   6.935   6.901   2.195
 1464TIP3    H2 4336   6.923   6.851   2.052
 1465TIP3   OH2 4337   2.567   5.647   4.632
 1465TIP3    H1 4338   2.594   5.721   4.687
 1465TIP3    H2 4339   2.577   5.679   4.542
 1466TIP3   OH2 4340   2.303   4.301   1.267
 1466TIP3    H1 4341   2.344   4.382   1.297
 1466TIP3    H2 4342   2.376   4.240   1.256
 1467TIP3   OH2 4343   4.590   1.052   3.034
 1467TIP3    H1 4344   4.657   1.085   3.095
 1467TIP3    H2 4345   4.640   1.006   2.967
 1468TIP3   OH2 4346   7.976   1.519   2.799
 1468TIP3    H1 4347   8.032   1.491   2.871
 1468TIP3    H2 4348   7.981   1.615   2.802
 1469TIP3   OH2 4349   3.001   2.708   5.045
 1469TIP3    H1 4350   3.085   2.696   5.091
 1469TIP3    H2 4351   2.945   2.751   5.109
 1470TIP3   OH2 4352   6.138   7.828   2.066
 1470TIP3    H1 4353   6.205   7.790   2.124
 1470TIP3    H2 4354   6.122   7.915   2.102
 1471TIP3   OH2 4355   3.831   6.444   1.496
 1471TIP3    H1 4356   3.878   6.525   1.474
 1471TIP3    H2 4357   3.892   6.374   1.473
 1472TIP3   OH2 4358   7.450   4.701   4.595
 1472TIP3    H1 4359   7.461   4.618   4.642
 1472TIP3    H2 4360   7.539   4.731   4.578
 1473TIP3   OH2 4361   7.959   4.248   3.520
 1473TIP3    H1 4362   8.015   4.263   3.596
 1473TIP3    H2 4363   7.901   4.176   3.546
 1474TIP3   OH2 4364   4.387   2.767   3.406
 1474TIP3    H1 4365   4.394   2.813   3.323
 1474TIP3    H2 4366   4.396   2.674   3.383
 1475TIP3   OH2 4367   2.290   0.262   1.519
 1475TIP3    H1 4368   2.320   0.175   1.545
 1475TIP3    H2 4369   2.228   0.287   1.588
 1476TIP3   OH2 4370   6.000   5.808   6.017
 1476TIP3    H1 4371   5.961   5.720   6.016
 1476TIP3    H2 4372   5.976   5.843   6.103
 1477TIP3   OH2 4373   3.725   1.959   4.174
 1477TIP3    H1 4374   3.791   2.018   4.139
 1477TIP3    H2 4375   3.758   1.932   4.259
 1478TIP3   OH2 4376   2.397   7.125   6.059
 1478TIP3    H1 4377   2.374   7.193   5.996
 1478TIP3    H2 4378   2.476   7.084   6.023
 1479TIP3   OH2 4379   0.013   4.041   2.296
 1479TIP3    H1 4380  -0.022   4.076   2.378
 1479TIP3    H2 4381   0.092   3.994   2.321
 1480TIP3   OH2 4382   1.069   2.119   0.257
 1480TIP3    H1 4383   1.141   2.117   0.194
 1480TIP3    H2 4384   0.998   2.070   0.215
 1481TIP3   OH2 4385   5.264   3.143   1.493
 1481TIP3    H1 4386   5.347   3.170   1.455
 1481TIP3    H2 4387   5.268   3.172   1.584
 1482TIP3   OH2 4388   6.880   4.051   1.779
 1482TIP3    H1 4389   6.885   4.052   1.874
 1482TIP3    H2 4390   6.786   4.052   1.760
 1483TIP3   OH2 4391   0.497   5.467   0.121
 1483TIP3    H1 4392   0.506   5.430   0.209
 1483TIP3    H2 4393   0.404   5.457   0.100
 1484TIP3   OH2 4394   5.865   1.000   4.445
 1484TIP3    H1 4395   5.910   1.069   4.493
 1484TIP3    H2 4396   5.858   0.928   4.507
 1485TIP3   OH2 4397   3.595   3.107   4.771
 1485TIP3    H1 4398   3.676   3.067   4.801
 1485TIP3    H2 4399   3.580   3.069   4.684
 1486TIP3   OH2 4400   1.163   1.624   0.744
 1486TIP3    H1 4401   1.179   1.714   0.716
 1486TIP3    H2 4402   1.187   1.623   0.836
 1487TIP3   OH2 4403   2.837   1.498   4.027
 1487TIP3    H1 4404   2.841   1.530   4.117
 1487TIP3    H2 4405   2.895   1.422   4.026
 1488TIP3   OH2 4406   0.683   6.047   0.152
 1488TIP3    H1 4407   0.712   5.982   0.088
 1488TIP3    H2 4408   0.752   6.114   0.151
 1489TIP3   OH2 4409   2.306   4.152   6.590
 1489TIP3    H1 4410   2.318   4.115   6.677
 1489TIP3    H2 4411   2.394   4.176   6.561
 1490TIP3   OH2 4412   4.965   4.898   6.729
 1490TIP3    H1 4413   4.922   4.890   6.815
 1490TIP3    H2 4414   4.897   4.872   6.667
 1491TIP3   OH2 4415   3.721   1.103   1.430
 1491TIP3    H1 4416   3.632   1.067   1.422
 1491TIP3    H2 4417   3.711   1.179   1.487
 1492TIP3   OH2 4418   5.199   2.290   3.805
 1492TIP3    H1 4419   5.202   2.301   3.710
 1492TIP3    H2 4420   5.175   2.198   3.817
 1493TIP3   OH2 4421   2.944   7.259   5.018
 1493TIP3    H1 4422   3.039   7.270   5.017
 1493TIP3    H2 4423   2.911   7.325   4.957
 1494TIP3   OH2 4424   6.226   0.685   2.221
 1494TIP3    H1 4425   6.146   0.649   2.183
 1494TIP3    H2 4426   6.197   0.731   2.300
 1495TIP3   OH2 4427   2.301   3.059   2.864
 1495TIP3    H1 4428   2.209   3.060   2.838
 1495TIP3    H2 4429   2.338   3.140   2.827
 1496TIP3   OH2 4430   4.438   2.337   2.993
 1496TIP3    H1 4431   4.434   2.412   3.052
 1496TIP3    H2 4432   4.511   2.285   3.025
 1497TIP3   OH2 4433   5.584   4.502   5.194
 1497TIP3    H1 4434   5.584   4.410   5.165
 1497TIP3    H2 4435   5.676   4.529   5.188
 1498TIP3   OH2 4436   6.115   3.665   2.081
 1498TIP3    H1 4437   6.049   3.717   2.036
 1498TIP3    H2 4438   6.198   3.695   2.045
 1499TIP3   OH2 4439   3.702   4.681   4.870
 1499TIP3    H1 4440   3.760   4.632   4.928
 1499TIP3    H2 4441   3.701   4.630   4.789
 1500TIP3   OH2 4442   7.963   2.789   0.329
 1500TIP3    H1 4443   7.967   2.791   0.425
 1500TIP3    H2 4444   8.054   2.793   0.301
 1501TIP3   OH2 4445   6.236   4.576   6.149
 1501TIP3    H1 4446   6.144   4.595   6.166
 1501TIP3    H2 4447   6.238   4.548   6.057
 1502TIP3   OH2 4448   4.268   6.219   2.978
 1502TIP3    H1 4449   4.298   6.198   3.067
 1502TIP3    H2 4450   4.333   6.280   2.944
 1503TIP3   OH2 4451   2.958   6.031   2.141
 1503TIP3    H1 4452   2.972   6.114   2.096
 1503TIP3    H2 4453   2.879   6.045   2.194
 1504TIP3   OH2 4454   2.411   7.689   0.377
 1504TIP3    H1 4455   2.317   7.675   0.384
 1504TIP3    H2 4456   2.450   7.606   0.405
 1505TIP3   OH2 4457   5.815   5.859   4.925
 1505TIP3    H1 4458   5.816   5.906   5.008
 1505TIP3    H2 4459   5.733   5.886   4.884
 1506TIP3   OH2 4460   3.284   3.229   5.599
 1506TIP3    H1 4461   3.188   3.229   5.594
 1506TIP3    H2 4462   3.311   3.306   5.549
 1507TIP3   OH2 4463   4.773   1.550   6.641
 1507TIP3    H1 4464   4.868   1.542   6.650
 1507TIP3    H2 4465   4.755   1.530   6.549
 1508TIP3   OH2 4466   2.602   0.580   0.848
 1508TIP3    H1 4467   2.648   0.530   0.781
 1508TIP3    H2 4468   2.509   0.569   0.826
 1509TIP3   OH2 4469   5.982   1.287   6.328
 1509TIP3    H1 4470   6.037   1.208   6.331
 1509TIP3    H2 4471   5.952   1.298   6.418
 1510TIP3   OH2 4472   7.877   5.646   1.119
 1510TIP3    H1 4473   7.909   5.713   1.059
 1510TIP3    H2 4474   7.953   5.623   1.172
 1511TIP3   OH2 4475   6.448   5.914   5.389
 1511TIP3    H1 4476   6.400   5.891   5.309
 1511TIP3    H2 4477   6.385   5.899   5.460
 1512TIP3   OH2 4478   0.992   3.412   1.885
 1512TIP3    H1 4479   0.907   3.450   1.905
 1512TIP3    H2 4480   0.998   3.415   1.789
 1513TIP3   OH2 4481   7.718   6.044   3.169
 1513TIP3    H1 4482   7.751   6.077   3.086
 1513TIP3    H2 4483   7.717   5.949   3.158
 1514TIP3   OH2 4484   2.578   5.348   1.891
 1514TIP3    H1 4485   2.660   5.308   1.863
 1514TIP3    H2 4486   2.593   5.442   1.886
 1515TIP3   OH2 4487   4.280   1.717   4.456
 1515TIP3    H1 4488   4.359   1.768   4.474
 1515TIP3    H2 4489   4.260   1.675   4.539
 1516TIP3   OH2 4490   5.334   0.562   3.095
 1516TIP3    H1 4491   5.341   0.468   3.111
 1516TIP3    H2 4492   5.383   0.602   3.167
 1517TIP3   OH2 4493   7.818   4.476   3.936
 1517TIP3    H1 4494   7.896   4.443   3.979
 1517TIP3    H2 4495   7.809   4.421   3.858
 1518TIP3   OH2 4496   0.114   6.976   3.733
 1518TIP3    H1 4497   0.204   6.986   3.764
 1518TIP3    H2 4498   0.072   7.059   3.753
 1519TIP3   OH2 4499   0.814   3.574   5.839
 1519TIP3    H1 4500   0.895   3.566   5.889
 1519TIP3    H2 4501   0.808   3.667   5.818
 1520TIP3   OH2 4502   1.901   3.294   4.574
 1520TIP3    H1 4503   1.814   3.314   4.540
 1520TIP3    H2 4504   1.949   3.376   4.567
 1521TIP3   OH2 4505   3.625   3.522   5.915
 1521TIP3    H1 4506   3.625   3.520   5.819
 1521TIP3    H2 4507   3.714   3.551   5.937
 1522TIP3   OH2 4508   5.014   1.696   1.023
 1522TIP3    H1 4509   5.010   1.790   1.043
 1522TIP3    H2 4510   4.941   1.682   0.962
 1523TIP3   OH2 4511   3.478   3.773   2.987
 1523TIP3    H1 4512   3.532   3.817   3.053
 1523TIP3    H2 4513   3.535   3.766   2.911
 1524TIP3   OH2 4514   7.190   4.114   1.207
 1524TIP3    H1 4515   7.203   4.022   1.186
 1524TIP3    H2 4516   7.136   4.113   1.286
 1525TIP3   OH2 4517   8.149   4.045   6.350
 1525TIP3    H1 4518   8.110   4.074   6.268
 1525TIP3    H2 4519   8.212   3.978   6.325
 1526TIP3   OH2 4520   1.117   3.420   5.114
 1526TIP3    H1 4521   1.158   3.482   5.174
 1526TIP3    H2 4522   1.025   3.417   5.140
 1527TIP3   OH2 4523   5.989   1.546   6.288
 1527TIP3    H1 4524   5.988   1.459   6.328
 1527TIP3    H2 4525   6.004   1.605   6.362
 1528TIP3   OH2 4526   2.337   5.832   0.708
 1528TIP3    H1 4527   2.365   5.800   0.794
 1528TIP3    H2 4528   2.243   5.846   0.716
 1529TIP3   OH2 4529   6.722   1.285   1.520
 1529TIP3    H1 4530   6.814   1.310   1.525
 1529TIP3    H2 4531   6.698   1.301   1.428
 1530TIP3   OH2 4532   7.508   2.380   0.999
 1530TIP3    H1 4533   7.536   2.471   1.000
 1530TIP3    H2 4534   7.473   2.364   1.087
 1531TIP3   OH2 4535   6.779   4.418   6.266
 1531TIP3    H1 4536   6.772   4.459   6.180
 1531TIP3    H2 4537   6.798   4.491   6.325
 1532TIP3   OH2 4538   6.085   2.262   4.836
 1532TIP3    H1 4539   6.115   2.213   4.760
 1532TIP3    H2 4540   6.147   2.334   4.844
 1533TIP3   OH2 4541   7.539   7.603   3.707
 1533TIP3    H1 4542   7.593   7.681   3.724
 1533TIP3    H2 4543   7.467   7.635   3.654
 1534TIP3   OH2 4544   1.114   6.841   4.829
 1534TIP3    H1 4545   1.208   6.844   4.846
 1534TIP3    H2 4546   1.102   6.761   4.778
 1535TIP3   OH2 4547   5.168   7.364   5.841
 1535TIP3    H1 4548   5.094   7.303   5.838
 1535TIP3    H2 4549   5.188   7.381   5.749
 1536TIP3   OH2 4550   5.290   5.669   6.084
 1536TIP3    H1 4551   5.366   5.616   6.060
 1536TIP3    H2 4552   5.257   5.628   6.165
 1537TIP3   OH2 4553   4.640   4.150   4.737
 1537TIP3    H1 4554   4.658   4.135   4.830
 1537TIP3    H2 4555   4.569   4.215   4.737
 1538TIP3   OH2 4556   4.809   6.396   5.607
 1538TIP3    H1 4557   4.729   6.408   5.555
 1538TIP3    H2 4558   4.779   6.362   5.691
 1539TIP3   OH2 4559   3.154   5.288   6.741
 1539TIP3    H1 4560   3.210   5.215   6.769
 1539TIP3    H2 4561   3.187   5.311   6.654
 1540TIP3   OH2 4562   0.432   6.677   5.499
 1540TIP3    H1 4563   0.438   6.770   5.523
 1540TIP3    H2 4564   0.487   6.669   5.420
 1541TIP3   OH2 4565   7.033   4.280   1.010
 1541TIP3    H1 4566   6.989   4.308   1.090
 1541TIP3    H2 4567   7.046   4.186   1.021
 1542TIP3   OH2 4568   2.929   4.090   3.476
 1542TIP3    H1 4569   2.870   4.017   3.457
 1542TIP3    H2 4570   2.975   4.106   3.393
 1543TIP3   OH2 4571   5.065   2.544   5.981
 1543TIP3    H1 4572   5.043   2.452   6.000
 1543TIP3    H2 4573   4.980   2.585   5.967
 1544TIP3   OH2 4574   7.898   6.619   1.052
 1544TIP3    H1 4575   7.892   6.626   1.148
 1544TIP3    H2 4576   7.926   6.529   1.037
 1545TIP3   OH2 4577   5.597   5.632   3.928
 1545TIP3    H1 4578   5.513   5.642   3.883
 1545TIP3    H2 4579   5.578   5.573   4.002
 1546TIP3   OH2 4580   4.638   6.544   4.428
 1546TIP3    H1 4581   4.716   6.583   4.468
 1546TIP3    H2 4582   4.564   6.591   4.467
 1547TIP3   OH2 4583   7.477   5.108   3.891
 1547TIP3    H1 4584   7.476   5.066   3.977
 1547TIP3    H2 4585   7.536   5.054   3.839
 1548TIP3   OH2 4586   2.023   3.487   5.142
 1548TIP3    H1 4587   2.050   3.565   5.191
 1548TIP3    H2 4588   2.099   3.464   5.089
 1549TIP3   OH2 4589   3.331   2.413   1.586
 1549TIP3    H1 4590   3.416   2.445   1.556
 1549TIP3    H2 4591   3.328   2.322   1.557
 1550TIP3   OH2 4592   6.729   2.051   2.426
 1550TIP3    H1 4593   6.746   1.991   2.498
 1550TIP3    H2 4594   6.776   2.131   2.450
 1551TIP3   OH2 4595   1.512   0.586   4.995
 1551TIP3    H1 4596   1.598   0.628   4.991
 1551TIP3    H2 4597   1.452   0.658   5.014
 1552TIP3   OH2 4598   1.640   0.221   5.645
 1552TIP3    H1 4599   1.650   0.289   5.712
 1552TIP3    H2 4600   1.706   0.243   5.580
 1553TIP3   OH2 4601   0.460   0.252   0.238
 1553TIP3    H1 4602   0.552   0.241   0.216
 1553TIP3    H2 4603   0.436   0.336   0.200
 1554TIP3   OH2 4604   4.120   5.984   3.847
 1554TIP3    H1 4605   4.194   5.956   3.793
 1554TIP3    H2 4606   4.075   5.903   3.870
 1555TIP3   OH2 4607   3.642   7.195   0.200
 1555TIP3    H1 4608   3.693   7.233   0.271
 1555TIP3    H2 4609   3.551   7.209   0.226
 1556TIP3   OH2 4610   2.106   1.414   6.823
 1556TIP3    H1 4611   2.120   1.398   6.730
 1556TIP3    H2 4612   2.037   1.480   6.827
 1557TIP3   OH2 4613   6.099   7.115   2.993
 1557TIP3    H1 4614   6.137   7.139   3.078
 1557TIP3    H2 4615   6.087   7.020   2.998
 1558TIP3   OH2 4616   4.321   7.316   3.743
 1558TIP3    H1 4617   4.230   7.341   3.759
 1558TIP3    H2 4618   4.339   7.346   3.654
 1559TIP3   OH2 4619   0.683   2.042   0.465
 1559TIP3    H1 4620   0.708   2.039   0.373
 1559TIP3    H2 4621   0.618   2.112   0.471
 1560TIP3   OH2 4622   4.880   6.636   4.554
 1560TIP3    H1 4623   4.960   6.590   4.528
 1560TIP3    H2 4624   4.899   6.728   4.539
 1561TIP3   OH2 4625   4.583   5.569   4.160
 1561TIP3    H1 4626   4.527   5.520   4.101
 1561TIP3    H2 4627   4.591   5.513   4.237
 1562TIP3   OH2 4628   7.399   1.872   3.709
 1562TIP3    H1 4629   7.318   1.917   3.734
 1562TIP3    H2 4630   7.415   1.900   3.619
 1563TIP3   OH2 4631   2.823   4.910   5.117
 1563TIP3    H1 4632   2.819   4.872   5.205
 1563TIP3    H2 4633   2.914   4.940   5.108
 1564TIP3   OH2 4634   5.981   2.806   4.861
 1564TIP3    H1 4635   5.897   2.780   4.821
 1564TIP3    H2 4636   6.039   2.733   4.843
 1565TIP3   OH2 4637   7.658   1.639   2.646
 1565TIP3    H1 4638   7.624   1.704   2.708
 1565TIP3    H2 4639   7.583   1.619   2.589
 1566TIP3   OH2 4640   2.867   3.870   5.509
 1566TIP3    H1 4641   2.851   3.793   5.565
 1566TIP3    H2 4642   2.949   3.906   5.543
 1567TIP3   OH2 4643   2.664   3.958   4.798
 1567TIP3    H1 4644   2.640   3.978   4.707
 1567TIP3    H2 4645   2.696   4.041   4.833
 1568TIP3   OH2 4646   1.719   6.737   1.766
 1568TIP3    H1 4647   1.729   6.800   1.695
 1568TIP3    H2 4648   1.645   6.682   1.739
 1569TIP3   OH2 4649   4.101   2.618   5.942
 1569TIP3    H1 4650   4.066   2.577   5.862
 1569TIP3    H2 4651   4.094   2.550   6.008
 1570TIP3   OH2 4652   4.808   5.634   4.540
 1570TIP3    H1 4653   4.895   5.653   4.573
 1570TIP3    H2 4654   4.760   5.717   4.549
 1571TIP3   OH2 4655   8.237   0.049   2.879
 1571TIP3    H1 4656   8.148   0.025   2.856
 1571TIP3    H2 4657   8.228   0.117   2.946
 1572TIP3   OH2 4658   5.986   2.384   2.130
 1572TIP3    H1 4659   5.928   2.367   2.055
 1572TIP3    H2 4660   5.928   2.421   2.197
 1573TIP3   OH2 4661   2.040   1.586   6.543
 1573TIP3    H1 4662   2.090   1.621   6.616
 1573TIP3    H2 4663   2.007   1.663   6.497
 1574TIP3   OH2 4664   1.386   0.370   5.260
 1574TIP3    H1 4665   1.467   0.379   5.310
 1574TIP3    H2 4666   1.379   0.452   5.210
 1575TIP3   OH2 4667   2.015   7.371   4.548
 1575TIP3    H1 4668   2.037   7.344   4.637
 1575TIP3    H2 4669   2.099   7.368   4.501
 1576TIP3   OH2 4670   2.784   7.004   2.431
 1576TIP3    H1 4671   2.700   7.004   2.385
 1576TIP3    H2 4672   2.847   6.972   2.365
 1577TIP3   OH2 4673   2.971   1.681   0.467
 1577TIP3    H1 4674   2.956   1.643   0.554
 1577TIP3    H2 4675   2.934   1.616   0.406
 1578TIP3   OH2 4676   4.214   2.127   3.725
 1578TIP3    H1 4677   4.186   2.161   3.640
 1578TIP3    H2 4678   4.295   2.174   3.744
 1579TIP3   OH2 4679   5.878   2.429   5.641
 1579TIP3    H1 4680   5.809   2.380   5.596
 1579TIP3    H2 4681   5.867   2.406   5.733
 1580TIP3   OH2 4682   1.257   7.588   0.352
 1580TIP3    H1 4683   1.279   7.498   0.328
 1580TIP3    H2 4684   1.276   7.593   0.446
 1581TIP3   OH2 4685   5.572   6.283   6.652
 1581TIP3    H1 4686   5.478   6.301   6.660
 1581TIP3    H2 4687   5.579   6.232   6.572
 1582TIP3   OH2 4688   2.068   6.075   5.828
 1582TIP3    H1 4689   2.149   6.117   5.856
 1582TIP3    H2 4690   2.095   5.988   5.798
 1583TIP3   OH2 4691   7.502   6.572   1.665
 1583TIP3    H1 4692   7.573   6.508   1.660
 1583TIP3    H2 4693   7.434   6.528   1.716
 1584TIP3   OH2 4694   1.933   3.278   5.309
 1584TIP3    H1 4695   2.005   3.293   5.370
 1584TIP3    H2 4696   1.935   3.354   5.250
 1585TIP3   OH2 4697   3.520   1.008   3.062
 1585TIP3    H1 4698   3.450   1.069   3.085
 1585TIP3    H2 4699   3.515   0.999   2.967
 1586TIP3   OH2 4700   4.453   7.271   3.066
 1586TIP3    H1 4701   4.414   7.334   3.006
 1586TIP3    H2 4702   4.400   7.192   3.056
 1587TIP3   OH2 4703   1.486   5.479   2.760
 1587TIP3    H1 4704   1.475   5.561   2.712
 1587TIP3    H2 4705   1.452   5.412   2.702
 1588TIP3   OH2 4706   7.721   3.681   6.734
 1588TIP3    H1 4707   7.779   3.605   6.720
 1588TIP3    H2 4708   7.667   3.657   6.809
 1589TIP3   OH2 4709   2.729   3.219   2.927
 1589TIP3    H1 4710   2.783   3.204   2.850
 1589TIP3    H2 4711   2.753   3.149   2.988
 1590TIP3   OH2 4712   5.734   6.816   2.616
 1590TIP3    H1 4713   5.686   6.744   2.575
 1590TIP3    H2 4714   5.666   6.872   2.654
 1591TIP3   OH2 4715   2.864   6.359   1.466
 1591TIP3    H1 4716   2.934   6.326   1.522
 1591TIP3    H2 4717   2.787   6.360   1.522
 1592TIP3   OH2 4718   0.079   3.013   5.364
 1592TIP3    H1 4719   0.069   3.076   5.435
 1592TIP3    H2 4720   0.007   2.951   5.376
 1593TIP3   OH2 4721   0.584   7.701   3.186
 1593TIP3    H1 4722   0.592   7.775   3.126
 1593TIP3    H2 4723   0.543   7.632   3.133
 1594TIP3   OH2 4724   5.665   1.057   3.347
 1594TIP3    H1 4725   5.639   1.006   3.424
 1594TIP3    H2 4726   5.590   1.113   3.328
 1595TIP3   OH2 4727   5.580   1.387   0.502
 1595TIP3    H1 4728   5.613   1.476   0.512
 1595TIP3    H2 4729   5.653   1.331   0.532
 1596TIP3   OH2 4730   6.260   5.715   1.335
 1596TIP3    H1 4731   6.281   5.714   1.241
 1596TIP3    H2 4732   6.210   5.796   1.348
 1597TIP3   OH2 4733   6.584   4.827   0.622
 1597TIP3    H1 4734   6.662   4.839   0.677
 1597TIP3    H2 4735   6.536   4.909   0.630
 1598TIP3   OH2 4736   7.931   5.893   3.339
 1598TIP3    H1 4737   7.923   5.981   3.375
 1598TIP3    H2 4738   7.841   5.861   3.336
 1599TIP3   OH2 4739   1.739   6.715   3.789
 1599TIP3    H1 4740   1.692   6.778   3.843
 1599TIP3    H2 4741   1.825   6.756   3.773
 1600TIP3   OH2 4742   5.612   6.983   3.793
 1600TIP3    H1 4743   5.654   7.025   3.869
 1600TIP3    H2 4744   5.640   6.892   3.797
 1601TIP3   OH2 4745   1.061   3.658   6.582
 1601TIP3    H1 4746   1.097   3.590   6.639
 1601TIP3    H2 4747   0.981   3.687   6.627
 1602TIP3   OH2 4748   5.170   1.040   5.095
 1602TIP3    H1 4749   5.123   0.985   5.159
 1602TIP3    H2 4750   5.108   1.110   5.075
 1603TIP3   OH2 4751   1.272   7.149   1.485
 1603TIP3    H1 4752   1.318   7.161   1.568
 1603TIP3    H2 4753   1.188   7.110   1.509
 1604TIP3   OH2 4754   1.197   5.170   2.527
 1604TIP3    H1 4755   1.122   5.145   2.581
 1604TIP3    H2 4756   1.226   5.089   2.486
 1605TIP3   OH2 4757   3.284   4.056   4.086
 1605TIP3    H1 4758   3.251   3.975   4.127
 1605TIP3    H2 4759   3.205   4.099   4.052
 1606TIP3   OH2 4760   3.010   6.416   0.740
 1606TIP3    H1 4761   3.040   6.450   0.656
 1606TIP3    H2 4762   3.005   6.321   0.728
 1607TIP3   OH2 4763   0.157   3.367   3.533
 1607TIP3    H1 4764   0.190   3.300   3.594
 1607TIP3    H2 4765   0.129   3.317   3.456
 1608TIP3   OH2 4766   1.471   4.421   6.377
 1608TIP3    H1 4767   1.528   4.480   6.426
 1608TIP3    H2 4768   1.435   4.361   6.442
 1609TIP3   OH2 4769   3.222   4.537   2.933
 1609TIP3    H1 4770   3.206   4.584   2.851
 1609TIP3    H2 4771   3.317   4.524   2.936
 1610TIP3   OH2 4772   3.350   1.479   4.198
 1610TIP3    H1 4773   3.328   1.442   4.283
 1610TIP3    H2 4774   3.440   1.510   4.207
 1611TIP3   OH2 4775   4.563   4.947   4.188
 1611TIP3    H1 4776   4.597   4.858   4.200
 1611TIP3    H2 4777   4.639   5.004   4.201
 1612TIP3   OH2 4778   1.760   5.943   4.391
 1612TIP3    H1 4779   1.673   5.930   4.430
 1612TIP3    H2 4780   1.785   5.856   4.360
 1613TIP3   OH2 4781   5.698   3.070   4.990
 1613TIP3    H1 4782   5.714   3.157   4.953
 1613TIP3    H2 4783   5.611   3.046   4.958
 1614TIP3   OH2 4784   5.917   0.926   6.232
 1614TIP3    H1 4785   6.001   0.968   6.250
 1614TIP3    H2 4786   5.913   0.852   6.293
 1615TIP3   OH2 4787   5.533   6.575   6.712
 1615TIP3    H1 4788   5.570   6.490   6.735
 1615TIP3    H2 4789   5.538   6.578   6.616
 1616TIP3   OH2 4790   1.902   5.588   0.408
 1616TIP3    H1 4791   1.822   5.562   0.362
 1616TIP3    H2 4792   1.881   5.578   0.501
 1617TIP3   OH2 4793   5.212   3.928   0.849
 1617TIP3    H1 4794   5.133   3.878   0.871
 1617TIP3    H2 4795   5.210   3.935   0.753
 1618TIP3   OH2 4796   7.725   2.484   1.207
 1618TIP3    H1 4797   7.658   2.427   1.245
 1618TIP3    H2 4798   7.678   2.565   1.187
 1619TIP3   OH2 4799   5.398   7.611   4.738
 1619TIP3    H1 4800   5.471   7.666   4.710
 1619TIP3    H2 4801   5.369   7.568   4.657
 1620TIP3   OH2 4802   0.239   3.565   6.707
 1620TIP3    H1 4803   0.326   3.564   6.667
 1620TIP3    H2 4804   0.185   3.514   6.647
 1621TIP3   OH2 4805   5.695   2.536   4.043
 1621TIP3    H1 4806   5.724   2.446   4.034
 1621TIP3    H2 4807   5.653   2.557   3.959
 1622TIP3   OH2 4808   0.264   1.051   2.666
 1622TIP3    H1 4809   0.309   1.127   2.631
 1622TIP3    H2 4810   0.324   0.978   2.651
 1623TIP3   OH2 4811   0.426   1.108   5.986
 1623TIP3    H1 4812   0.357   1.127   6.050
 1623TIP3    H2 4813   0.507   1.116   6.036
 1624TIP3   OH2 4814   6.283   3.688   4.823
 1624TIP3    H1 4815   6.372   3.699   4.788
 1624TIP3    H2 4816   6.244   3.775   4.816
 1625TIP3   OH2 4817   6.775   5.592   0.108
 1625TIP3    H1 4818   6.794   5.521   0.169
 1625TIP3    H2 4819   6.803   5.671   0.153
 1626TIP3   OH2 4820   3.001   5.576   6.005
 1626TIP3    H1 4821   3.006   5.482   5.985
 1626TIP3    H2 4822   2.955   5.581   6.088
 1627TIP3   OH2 4823   4.737   2.846   5.184
 1627TIP3    H1 4824   4.828   2.876   5.174
 1627TIP3    H2 4825   4.728   2.827   5.278
 1628TIP3   OH2 4826   2.338   0.382   3.063
 1628TIP3    H1 4827   2.407   0.440   3.097
 1628TIP3    H2 4828   2.376   0.294   3.067
 1629TIP3   OH2 4829   0.680   1.444   5.557
 1629TIP3    H1 4830   0.740   1.422   5.627
 1629TIP3    H2 4831   0.677   1.365   5.502
 1630TIP3   OH2 4832   2.506   1.521   2.596
 1630TIP3    H1 4833   2.476   1.510   2.687
 1630TIP3    H2 4834   2.568   1.594   2.600
 1631TIP3   OH2 4835   0.081   0.502   1.442
 1631TIP3    H1 4836   0.021   0.574   1.459
 1631TIP3    H2 4837   0.143   0.537   1.378
 1632TIP3   OH2 4838   8.312   1.975   0.887
 1632TIP3    H1 4839   8.273   2.050   0.933
 1632TIP3    H2 4840   8.296   1.901   0.945
 1633TIP3   OH2 4841   1.987   6.132   1.019
 1633TIP3    H1 4842   2.010   6.041   1.038
 1633TIP3    H2 4843   2.003   6.142   0.925
 1634TIP3   OH2 4844   7.723   6.221   2.537
 1634TIP3    H1 4845   7.787   6.291   2.527
 1634TIP3    H2 4846   7.746   6.157   2.470
 1635TIP3   OH2 4847   0.985   7.542   1.103
 1635TIP3    H1 4848   0.971   7.467   1.045
 1635TIP3    H2 4849   1.044   7.508   1.171
 1636TIP3   OH2 4850   5.882   1.405   4.537
 1636TIP3    H1 4851   5.872   1.440   4.626
 1636TIP3    H2 4852   5.922   1.319   4.550
 1637TIP3   OH2 4853   0.189   6.439   2.926
 1637TIP3    H1 4854   0.125   6.478   2.986
 1637TIP3    H2 4855   0.177   6.488   2.844
 1638TIP3   OH2 4856   1.909   1.268   3.732
 1638TIP3    H1 4857   1.879   1.266   3.641
 1638TIP3    H2 4858   1.943   1.356   3.744
 1639TIP3   OH2 4859   4.210   0.030   0.701
 1639TIP3    H1 4860   4.116   0.048   0.708
 1639TIP3    H2 4861   4.234   0.064   0.615
 1640TIP3   OH2 4862   2.527   0.537   5.853
 1640TIP3    H1 4863   2.478   0.570   5.777
 1640TIP3    H2 4864   2.501   0.445   5.860
 1641TIP3   OH2 4865   3.593   0.453   4.227
 1641TIP3    H1 4866   3.561   0.395   4.296
 1641TIP3    H2 4867   3.531   0.443   4.155
 1642TIP3   OH2 4868   3.960   7.646   5.080
 1642TIP3    H1 4869   3.873   7.627   5.045
 1642TIP3    H2 4870   3.978   7.735   5.052
 1643TIP3   OH2 4871   3.319   1.301   0.042
 1643TIP3    H1 4872   3.229   1.276   0.061
 1643TIP3    H2 4873   3.370   1.270   0.117
 1644TIP3   OH2 4874   5.665   6.016   5.705
 1644TIP3    H1 4875   5.587   6.071   5.702
 1644TIP3    H2 4876   5.669   5.986   5.796
 1645TIP3   OH2 4877   1.512   0.744   3.597
 1645TIP3    H1 4878   1.493   0.835   3.618
 1645TIP3    H2 4879   1.574   0.716   3.664
 1646TIP3   OH2 4880   0.381   2.812   3.158
 1646TIP3    H1 4881   0.438   2.874   3.113
 1646TIP3    H2 4882   0.339   2.864   3.228
 1647TIP3   OH2 4883   6.767   0.818   3.084
 1647TIP3    H1 4884   6.684   0.771   3.074
 1647TIP3    H2 4885   6.746   0.891   3.141
 1648TIP3   OH2 4886   1.047   6.617   4.427
 1648TIP3    H1 4887   1.055   6.638   4.520
 1648TIP3    H2 4888   0.992   6.687   4.391
 1649TIP3   OH2 4889   7.281   5.843   0.683
 1649TIP3    H1 4890   7.232   5.782   0.628
 1649TIP3    H2 4891   7.350   5.789   0.722
 1650TIP3   OH2 4892   5.142   0.887   1.564
 1650TIP3    H1 4893   5.232   0.904   1.537
 1650TIP3    H2 4894   5.127   0.949   1.636
 1651TIP3   OH2 4895   5.207   7.767   3.485
 1651TIP3    H1 4896   5.277   7.725   3.436
 1651TIP3    H2 4897   5.169   7.830   3.423
 1652TIP3   OH2 4898   8.243   6.211   5.125
 1652TIP3    H1 4899   8.276   6.185   5.211
 1652TIP3    H2 4900   8.234   6.128   5.077
 1653TIP3   OH2 4901   8.105   3.666   1.093
 1653TIP3    H1 4902   8.069   3.589   1.048
 1653TIP3    H2 4903   8.029   3.714   1.124
 1654TIP3   OH2 4904   5.544   5.821   4.224
 1654TIP3    H1 4905   5.612   5.758   4.199
 1654TIP3    H2 4906   5.574   5.904   4.188
 1655TIP3   OH2 4907   6.374   6.787   6.244
 1655TIP3    H1 4908   6.309   6.778   6.314
 1655TIP3    H2 4909   6.458   6.778   6.288
 1656TIP3   OH2 4910   7.889   0.129   0.058
 1656TIP3    H1 4911   7.827   0.085   0.117
 1656TIP3    H2 4912   7.957   0.163   0.116
 1657TIP3   OH2 4913   4.888   4.475   0.338
 1657TIP3    H1 4914   4.891   4.454   0.431
 1657TIP3    H2 4915   4.803   4.516   0.325
 1658TIP3   OH2 4916   5.697   3.947   0.164
 1658TIP3    H1 4917   5.623   4.002   0.190
 1658TIP3    H2 4918   5.664   3.858   0.174
 1659TIP3   OH2 4919   1.186   4.486   4.648
 1659TIP3    H1 4920   1.191   4.412   4.709
 1659TIP3    H2 4921   1.103   4.529   4.670
 1660TIP3   OH2 4922   7.394   0.610   1.967
 1660TIP3    H1 4923   7.396   0.705   1.955
 1660TIP3    H2 4924   7.419   0.574   1.882
 1661TIP3   OH2 4925   2.122   0.253   6.309
 1661TIP3    H1 4926   2.208   0.216   6.330
 1661TIP3    H2 4927   2.136   0.298   6.226
 1662TIP3   OH2 4928   5.103   6.899   0.198
 1662TIP3    H1 4929   5.160   6.883   0.123
 1662TIP3    H2 4930   5.081   6.992   0.191
 1663TIP3   OH2 4931   3.871   3.190   2.257
 1663TIP3    H1 4932   3.914   3.139   2.325
 1663TIP3    H2 4933   3.854   3.126   2.187
 1664TIP3   OH2 4934   4.023   4.778   5.130
 1664TIP3    H1 4935   3.959   4.770   5.201
 1664TIP3    H2 4936   4.021   4.870   5.106
 1665TIP3   OH2 4937   0.258   6.036   3.621
 1665TIP3    H1 4938   0.303   6.082   3.550
 1665TIP3    H2 4939   0.321   6.037   3.693
 1666TIP3   OH2 4940   3.886   1.764   1.890
 1666TIP3    H1 4941   3.880   1.797   1.979
 1666TIP3    H2 4942   3.970   1.719   1.886
 1667TIP3   OH2 4943   3.695   1.722   5.887
 1667TIP3    H1 4944   3.664   1.659   5.952
 1667TIP3    H2 4945   3.778   1.686   5.855
 1668TIP3   OH2 4946   7.255   2.251   3.137
 1668TIP3    H1 4947   7.343   2.267   3.171
 1668TIP3    H2 4948   7.264   2.255   3.042
 1669TIP3   OH2 4949   0.363   2.778   0.743
 1669TIP3    H1 4950   0.395   2.788   0.653
 1669TIP3    H2 4951   0.427   2.720   0.785
 1670TIP3   OH2 4952   0.906  -0.009   3.957
 1670TIP3    H1 4953   0.915   0.085   3.974
 1670TIP3    H2 4954   0.986  -0.032   3.910
 1671TIP3   OH2 4955   7.042   0.524   5.015
 1671TIP3    H1 4956   6.995   0.517   5.098
 1671TIP3    H2 4957   7.081   0.611   5.018
 1672TIP3   OH2 4958   3.626   0.641   0.413
 1672TIP3    H1 4959   3.708   0.595   0.431
 1672TIP3    H2 4960   3.561   0.571   0.405
 1673TIP3   OH2 4961   0.396   3.864   5.132
 1673TIP3    H1 4962   0.365   3.911   5.209
 1673TIP3    H2 4963   0.401   3.772   5.161
 1674TIP3   OH2 4964   3.652   3.291   5.164
 1674TIP3    H1 4965   3.569   3.331   5.191
 1674TIP3    H2 4966   3.702   3.363   5.124
 1675TIP3   OH2 4967   2.587   7.561   2.870
 1675TIP3    H1 4968   2.510   7.512   2.842
 1675TIP3    H2 4969   2.553   7.621   2.937
 1676TIP3   OH2 4970   7.764   4.088   1.455
 1676TIP3    H1 4971   7.836   4.150   1.468
 1676TIP3    H2 4972   7.751   4.046   1.540
 1677TIP3   OH2 4973   5.346   2.976   0.845
 1677TIP3    H1 4974   5.326   3.054   0.793
 1677TIP3    H2 4975   5.440   2.962   0.832
 1678TIP3   OH2 4976   2.673   3.188   3.992
 1678TIP3    H1 4977   2.623   3.220   4.067
 1678TIP3    H2 4978   2.638   3.100   3.976
 1679TIP3   OH2 4979   8.135   2.676   0.052
 1679TIP3    H1 4980   8.202   2.707  -0.009
 1679TIP3    H2 4981   8.153   2.723   0.133
 1680TIP3   OH2 4982   1.117  -0.045   0.445
 1680TIP3    H1 4983   1.144   0.044   0.421
 1680TIP3    H2 4984   1.113  -0.045   0.540
 1681TIP3   OH2 4985   2.590   1.158   1.321
 1681TIP3    H1 4986   2.581   1.213   1.243
 1681TIP3    H2 4987   2.655   1.092   1.296
 1682TIP3   OH2 4988   0.608   6.706   4.171
 1682TIP3    H1 4989   0.588   6.797   4.190
 1682TIP3    H2 4990   0.655   6.674   4.249
 1683TIP3   OH2 4991   2.546   2.971   5.717
 1683TIP3    H1 4992   2.451   2.959   5.726
 1683TIP3    H2 4993   2.556   3.025   5.638
 1684TIP3   OH2 4994   3.903   7.346   6.388
 1684TIP3    H1 4995   3.858   7.421   6.427
 1684TIP3    H2 4996   3.888   7.355   6.294
 1685TIP3   OH2 4997   5.624   5.112   1.872
 1685TIP3    H1 4998   5.558   5.120   1.941
 1685TIP3    H2 4999   5.615   5.193   1.821
 1686TIP3   OH2 5000   7.712   0.845   5.640
 1686TIP3    H1 5001   7.784   0.828   5.579
 1686TIP3    H2 5002   7.728   0.933   5.673
 1687TIP3   OH2 5003   6.832   0.657   4.122
 1687TIP3    H1 5004   6.826   0.609   4.205
 1687TIP3    H2 5005   6.748   0.641   4.079
 1688TIP3   OH2 5006   6.426   6.041   0.165
 1688TIP3    H1 5007   6.517   6.023   0.145
 1688TIP3    H2 5008   6.415   6.013   0.256
 1689TIP3   OH2 5009   2.610   6.020   5.352
 1689TIP3    H1 5010   2.552   6.064   5.414
 1689TIP3    H2 5011   2.672   6.087   5.325
 1690TIP3   OH2 5012   5.740   0.588   1.507
 1690TIP3    H1 5013   5.712   0.646   1.436
 1690TIP3    H2 5014   5.708   0.502   1.481
 1691TIP3   OH2 5015   7.272   6.083   1.263
 1691TIP3    H1 5016   7.200   6.059   1.204
 1691TIP3    H2 5017   7.300   6.169   1.233
 1692TIP3   OH2 5018   1.576   2.997   4.118
 1692TIP3    H1 5019   1.636   3.018   4.047
 1692TIP3    H2 5020   1.563   2.902   4.111
 1693TIP3   OH2 5021   5.171   2.365   0.041
 1693TIP3    H1 5022   5.160   2.291  -0.018
 1693TIP3    H2 5023   5.111   2.432   0.007
 1694TIP3   OH2 5024   2.663   3.122   5.480
 1694TIP3    H1 5025   2.667   3.216   5.497
 1694TIP3    H2 5026   2.752   3.091   5.493
 1695TIP3   OH2 5027   1.027   4.437   5.542
 1695TIP3    H1 5028   1.091   4.508   5.547
 1695TIP3    H2 5029   1.065   4.366   5.594
 1696TIP3   OH2 5030   4.401   5.837   3.964
 1696TIP3    H1 5031   4.408   5.932   3.967
 1696TIP3    H2 5032   4.456   5.811   3.890
 1697TIP3   OH2 5033   5.618   3.464   5.627
 1697TIP3    H1 5034   5.705   3.458   5.666
 1697TIP3    H2 5035   5.560   3.483   5.700
 1698TIP3   OH2 5036   8.138   2.952   2.653
 1698TIP3    H1 5037   8.142   3.000   2.570
 1698TIP3    H2 5038   8.229   2.933   2.675
 1699TIP3   OH2 5039   5.166   7.276   2.767
 1699TIP3    H1 5040   5.132   7.318   2.846
 1699TIP3    H2 5041   5.116   7.316   2.695
 1700TIP3   OH2 5042   5.412   5.986   5.574
 1700TIP3    H1 5043   5.461   6.043   5.516
 1700TIP3    H2 5044   5.384   6.042   5.646
 1701TIP3   OH2 5045   5.221   4.545   4.866
 1701TIP3    H1 5046   5.168   4.468   4.889
 1701TIP3    H2 5047   5.268   4.566   4.947
 1702TIP3   OH2 5048   6.126   3.728   2.972
 1702TIP3    H1 5049   6.060   3.659   2.960
 1702TIP3    H2 5050   6.142   3.730   3.067
 1703TIP3   OH2 5051   6.900   6.816   6.652
 1703TIP3    H1 5052   6.855   6.762   6.717
 1703TIP3    H2 5053   6.993   6.806   6.674
 1704TIP3   OH2 5054   1.234   5.500   5.816
 1704TIP3    H1 5055   1.227   5.502   5.720
 1704TIP3    H2 5056   1.296   5.429   5.834
 1705TIP3   OH2 5057   3.661   7.681   2.379
 1705TIP3    H1 5058   3.640   7.772   2.402
 1705TIP3    H2 5059   3.576   7.642   2.357
 1706TIP3   OH2 5060   2.169   1.700   6.783
 1706TIP3    H1 5061   2.199   1.786   6.752
 1706TIP3    H2 5062   2.105   1.721   6.851
 1707TIP3   OH2 5063   5.413   2.297   6.609
 1707TIP3    H1 5064   5.389   2.381   6.571
 1707TIP3    H2 5065   5.488   2.316   6.665
 1708TIP3   OH2 5066   4.574   6.989   4.605
 1708TIP3    H1 5067   4.603   6.947   4.524
 1708TIP3    H2 5068   4.543   6.917   4.660
 1709TIP3   OH2 5069   3.058   1.842   0.094
 1709TIP3    H1 5070   2.991   1.790   0.051
 1709TIP3    H2 5071   3.008   1.910   0.140
 1710TIP3   OH2 5072   1.732   6.138   4.679
 1710TIP3    H1 5073   1.797   6.166   4.614
 1710TIP3    H2 5074   1.780   6.078   4.736
 1711TIP3   OH2 5075   4.641   5.826   3.057
 1711TIP3    H1 5076   4.644   5.787   3.145
 1711TIP3    H2 5077   4.693   5.767   3.003
 1712TIP3   OH2 5078   0.943   5.183   0.674
 1712TIP3    H1 5079   1.037   5.183   0.689
 1712TIP3    H2 5080   0.907   5.123   0.739
 1713TIP3   OH2 5081   2.881   1.864   2.709
 1713TIP3    H1 5082   2.884   1.938   2.769
 1713TIP3    H2 5083   2.944   1.801   2.744
 1714TIP3   OH2 5084   4.653   7.826   2.426
 1714TIP3    H1 5085   4.738   7.818   2.470
 1714TIP3    H2 5086   4.597   7.762   2.470
 1715TIP3   OH2 5087   4.524   3.259   2.930
 1715TIP3    H1 5088   4.430   3.239   2.935
 1715TIP3    H2 5089   4.535   3.335   2.987
 1716TIP3   OH2 5090   1.252   4.984   0.755
 1716TIP3    H1 5091   1.248   5.074   0.725
 1716TIP3    H2 5092   1.341   4.955   0.732
 1717TIP3   OH2 5093   2.553   2.976   3.613
 1717TIP3    H1 5094   2.545   2.959   3.519
 1717TIP3    H2 5095   2.491   3.046   3.631
 1718TIP3   OH2 5096   4.672   0.146   3.283
 1718TIP3    H1 5097   4.722   0.077   3.239
 1718TIP3    H2 5098   4.697   0.227   3.237
 1719TIP3   OH2 5099   1.045   0.075   2.411
 1719TIP3    H1 5100   1.083   0.018   2.477
 1719TIP3    H2 5101   1.090   0.052   2.330
 1720TIP3   OH2 5102   0.253   5.827   4.184
 1720TIP3    H1 5103   0.157   5.830   4.179
 1720TIP3    H2 5104   0.278   5.757   4.123
 1721TIP3   OH2 5105   1.204   4.887   4.095
 1721TIP3    H1 5106   1.159   4.953   4.147
 1721TIP3    H2 5107   1.201   4.807   4.148
 1722TIP3   OH2 5108   3.761   5.737   6.018
 1722TIP3    H1 5109   3.796   5.826   6.018
 1722TIP3    H2 5110   3.677   5.744   5.973
 1723TIP3   OH2 5111   5.639   7.689   3.505
 1723TIP3    H1 5112   5.704   7.620   3.513
 1723TIP3    H2 5113   5.673   7.760   3.560
 1724TIP3   OH2 5114   1.333   1.553   3.837
 1724TIP3    H1 5115   1.429   1.547   3.833
 1724TIP3    H2 5116   1.303   1.488   3.773
 1725TIP3   OH2 5117   7.762   1.503   0.659
 1725TIP3    H1 5118   7.811   1.585   0.661
 1725TIP3    H2 5119   7.802   1.452   0.589
 1726TIP3   OH2 5120   4.348   7.088   5.865
 1726TIP3    H1 5121   4.368   6.998   5.841
 1726TIP3    H2 5122   4.268   7.109   5.816
 1727TIP3   OH2 5123   3.046   3.967   2.016
 1727TIP3    H1 5124   2.965   4.011   1.991
 1727TIP3    H2 5125   3.111   4.001   1.955
 1728TIP3   OH2 5126   7.606   2.248   5.507
 1728TIP3    H1 5127   7.609   2.290   5.421
 1728TIP3    H2 5128   7.592   2.320   5.568
 1729TIP3   OH2 5129   5.574   0.843   2.796
 1729TIP3    H1 5130   5.568   0.835   2.701
 1729TIP3    H2 5131   5.499   0.794   2.829
 1730TIP3   OH2 5132   5.434   1.755   2.592
 1730TIP3    H1 5133   5.468   1.823   2.651
 1730TIP3    H2 5134   5.339   1.767   2.595
 1731TIP3   OH2 5135   1.277   1.841   6.019
 1731TIP3    H1 5136   1.349   1.871   6.075
 1731TIP3    H2 5137   1.199   1.847   6.075
 1732TIP3   OH2 5138   7.267   3.780   4.891
 1732TIP3    H1 5139   7.215   3.760   4.969
 1732TIP3    H2 5140   7.204   3.813   4.827
 1733TIP3   OH2 5141   0.446   2.807   1.425
 1733TIP3    H1 5142   0.406   2.890   1.399
 1733TIP3    H2 5143   0.383   2.740   1.400
 1734TIP3   OH2 5144   5.437   3.337   0.981
 1734TIP3    H1 5145   5.418   3.379   1.065
 1734TIP3    H2 5146   5.517   3.286   0.997
 1735TIP3   OH2 5147   5.767   6.731   1.404
 1735TIP3    H1 5148   5.741   6.818   1.435
 1735TIP3    H2 5149   5.731   6.671   1.469
 1736TIP3   OH2 5150   6.079   5.838   3.363
 1736TIP3    H1 5151   6.024   5.826   3.440
 1736TIP3    H2 5152   6.023   5.810   3.290
 1737TIP3   OH2 5153   6.768   4.603   0.575
 1737TIP3    H1 5154   6.719   4.613   0.657
 1737TIP3    H2 5155   6.702   4.575   0.512
 1738TIP3   OH2 5156   0.560   3.209   4.453
 1738TIP3    H1 5157   0.616   3.201   4.530
 1738TIP3    H2 5158   0.592   3.288   4.408
 1739TIP3   OH2 5159   6.202   0.491   2.964
 1739TIP3    H1 5160   6.135   0.423   2.954
 1739TIP3    H2 5161   6.217   0.495   3.059
 1740TIP3   OH2 5162   5.222   0.872   6.210
 1740TIP3    H1 5163   5.251   0.807   6.273
 1740TIP3    H2 5164   5.131   0.850   6.192
 1741TIP3   OH2 5165   5.573   6.711   2.396
 1741TIP3    H1 5166   5.603   6.743   2.311
 1741TIP3    H2 5167   5.629   6.636   2.414
 1742TIP3   OH2 5168   2.621   0.367   5.208
 1742TIP3    H1 5169   2.657   0.279   5.221
 1742TIP3    H2 5170   2.696   0.418   5.178
 1743TIP3   OH2 5171   8.260   5.410   5.492
 1743TIP3    H1 5172   8.321   5.484   5.486
 1743TIP3    H2 5173   8.173   5.451   5.487
 1744TIP3   OH2 5174   7.201   0.131   6.614
 1744TIP3    H1 5175   7.167   0.145   6.525
 1744TIP3    H2 5176   7.296   0.121   6.601
 1745TIP3   OH2 5177   2.065   7.738   3.284
 1745TIP3    H1 5178   2.158   7.719   3.295
 1745TIP3    H2 5179   2.059   7.779   3.198
 1746TIP3   OH2 5180   1.277   1.622   5.091
 1746TIP3    H1 5181   1.314   1.550   5.142
 1746TIP3    H2 5182   1.233   1.580   5.017
 1747TIP3   OH2 5183   4.248   4.726   5.795
 1747TIP3    H1 5184   4.281   4.637   5.784
 1747TIP3    H2 5185   4.263   4.746   5.888
 1748TIP3   OH2 5186   7.777   1.019   1.320
 1748TIP3    H1 5187   7.715   1.092   1.322
 1748TIP3    H2 5188   7.770   0.983   1.232
 1749TIP3   OH2 5189   4.216   4.104   4.588
 1749TIP3    H1 5190   4.146   4.155   4.548
 1749TIP3    H2 5191   4.253   4.054   4.515
 1750TIP3   OH2 5192   5.718   0.703   4.289
 1750TIP3    H1 5193   5.674   0.622   4.312
 1750TIP3    H2 5194   5.805   0.675   4.259
 1751TIP3   OH2 5195   5.353   1.474   4.000
 1751TIP3    H1 5196   5.384   1.540   3.938
 1751TIP3    H2 5197   5.263   1.455   3.971
 1752TIP3   OH2 5198   1.776   6.777   2.571
 1752TIP3    H1 5199   1.840   6.794   2.640
 1752TIP3    H2 5200   1.797   6.841   2.503
 1753TIP3   OH2 5201   7.456   6.503   0.238
 1753TIP3    H1 5202   7.396   6.561   0.286
 1753TIP3    H2 5203   7.448   6.419   0.282
 1754TIP3   OH2 5204   5.454   6.774   0.767
 1754TIP3    H1 5205   5.514   6.784   0.693
 1754TIP3    H2 5206   5.375   6.735   0.728
 1755TIP3   OH2 5207   4.886   3.341   0.171
 1755TIP3    H1 5208   4.819   3.275   0.151
 1755TIP3    H2 5209   4.942   3.298   0.236
 1756TIP3   OH2 5210   6.692   0.602   2.142
 1756TIP3    H1 5211   6.611   0.563   2.176
 1756TIP3    H2 5212   6.674   0.696   2.138
 1757TIP3   OH2 5213   1.314   4.932   1.087
 1757TIP3    H1 5214   1.310   4.888   1.172
 1757TIP3    H2 5215   1.378   4.882   1.037
 1758TIP3   OH2 5216   1.450   5.069   4.571
 1758TIP3    H1 5217   1.478   4.978   4.560
 1758TIP3    H2 5218   1.470   5.089   4.663
 1759TIP3   OH2 5219   3.102   5.631   0.526
 1759TIP3    H1 5220   3.182   5.622   0.578
 1759TIP3    H2 5221   3.073   5.720   0.542
 1760TIP3   OH2 5222   7.926   6.035   6.053
 1760TIP3    H1 5223   7.971   6.115   6.025
 1760TIP3    H2 5224   7.835   6.048   6.026
 1761TIP3   OH2 5225   0.134   2.462   1.001
 1761TIP3    H1 5226   0.087   2.479   0.920
 1761TIP3    H2 5227   0.212   2.414   0.974
 1762TIP3   OH2 5228   6.043   5.841   1.581
 1762TIP3    H1 5229   6.045   5.751   1.549
 1762TIP3    H2 5230   6.034   5.894   1.502
 1763TIP3   OH2 5231   4.673   6.593   0.484
 1763TIP3    H1 5232   4.737   6.551   0.427
 1763TIP3    H2 5233   4.724   6.653   0.537
 1764TIP3   OH2 5234   4.746   1.817   4.217
 1764TIP3    H1 5235   4.688   1.748   4.250
 1764TIP3    H2 5236   4.747   1.803   4.122
 1765TIP3   OH2 5237   5.432   4.287   3.767
 1765TIP3    H1 5238   5.377   4.214   3.795
 1765TIP3    H2 5239   5.473   4.256   3.686
 1766TIP3   OH2 5240   4.904   5.536   3.156
 1766TIP3    H1 5241   4.926   5.571   3.243
 1766TIP3    H2 5242   4.979   5.482   3.133
 1767TIP3   OH2 5243   4.166   2.268   3.183
 1767TIP3    H1 5244   4.150   2.318   3.103
 1767TIP3    H2 5245   4.220   2.194   3.154
 1768TIP3   OH2 5246   7.123   0.061   1.452
 1768TIP3    H1 5247   7.152   0.152   1.456
 1768TIP3    H2 5248   7.033   0.063   1.485
 1769TIP3   OH2 5249   7.873   3.894   6.393
 1769TIP3    H1 5250   7.915   3.816   6.429
 1769TIP3    H2 5251   7.936   3.965   6.408
 1770TIP3   OH2 5252   8.279   4.745   1.299
 1770TIP3    H1 5253   8.273   4.656   1.333
 1770TIP3    H2 5254   8.238   4.799   1.366
 1771TIP3   OH2 5255   5.457   2.112   5.029
 1771TIP3    H1 5256   5.544   2.131   4.994
 1771TIP3    H2 5257   5.409   2.076   4.954
 1772TIP3   OH2 5258   3.517   2.633   3.789
 1772TIP3    H1 5259   3.434   2.629   3.740
 1772TIP3    H2 5260   3.516   2.721   3.829
 1773TIP3   OH2 5261   2.779   5.098   2.045
 1773TIP3    H1 5262   2.859   5.098   2.096
 1773TIP3    H2 5263   2.736   5.181   2.067
 1774TIP3   OH2 5264   4.460   1.512   5.652
 1774TIP3    H1 5265   4.421   1.495   5.567
 1774TIP3    H2 5266   4.549   1.477   5.645
 1775TIP3   OH2 5267   6.018   2.230   6.194
 1775TIP3    H1 5268   5.948   2.192   6.141
 1775TIP3    H2 5269   5.973   2.265   6.271
 1776TIP3   OH2 5270   5.333   6.214   4.445
 1776TIP3    H1 5271   5.368   6.195   4.532
 1776TIP3    H2 5272   5.249   6.168   4.442
 1777TIP3   OH2 5273   5.557   4.048   0.540
 1777TIP3    H1 5274   5.494   3.977   0.539
 1777TIP3    H2 5275   5.643   4.005   0.536
 1778TIP3   OH2 5276   2.234   4.824   0.327
 1778TIP3    H1 5277   2.261   4.734   0.344
 1778TIP3    H2 5278   2.303   4.860   0.273
 1779TIP3   OH2 5279   2.362   0.814   1.641
 1779TIP3    H1 5280   2.452   0.809   1.672
 1779TIP3    H2 5281   2.309   0.799   1.720
 1780TIP3   OH2 5282   5.803   3.454   1.007
 1780TIP3    H1 5283   5.862   3.432   1.079
 1780TIP3    H2 5284   5.728   3.497   1.049
 1781TIP3   OH2 5285   8.099   2.364   3.770
 1781TIP3    H1 5286   8.045   2.438   3.796
 1781TIP3    H2 5287   8.118   2.378   3.678
 1782TIP3   OH2 5288   7.480   2.611   0.815
 1782TIP3    H1 5289   7.534   2.650   0.746
 1782TIP3    H2 5290   7.390   2.618   0.783
 1783TIP3   OH2 5291   2.476   4.702   0.467
 1783TIP3    H1 5292   2.500   4.671   0.379
 1783TIP3    H2 5293   2.540   4.662   0.525
 1784TIP3   OH2 5294   2.370   3.048   1.683
 1784TIP3    H1 5295   2.450   3.008   1.648
 1784TIP3    H2 5296   2.339   3.105   1.613
 1785TIP3   OH2 5297   5.551   1.162   5.645
 1785TIP3    H1 5298   5.491   1.216   5.593
 1785TIP3    H2 5299   5.495   1.120   5.710
 1786TIP3   OH2 5300   7.469   3.823   0.973
 1786TIP3    H1 5301   7.499   3.848   1.061
 1786TIP3    H2 5302   7.419   3.742   0.987
 1787TIP3   OH2 5303   7.966   2.858   4.464
 1787TIP3    H1 5304   8.050   2.900   4.479
 1787TIP3    H2 5305   7.912   2.884   4.538
 1788TIP3   OH2 5306   8.224   0.831   5.697
 1788TIP3    H1 5307   8.231   0.775   5.620
 1788TIP3    H2 5308   8.314   0.842   5.727
 1789TIP3   OH2 5309   8.074   0.736   1.760
 1789TIP3    H1 5310   8.126   0.783   1.826
 1789TIP3    H2 5311   8.045   0.657   1.805
 1790TIP3   OH2 5312   4.295   6.571   6.459
 1790TIP3    H1 5313   4.339   6.655   6.451
 1790TIP3    H2 5314   4.358   6.515   6.504
 1791TIP3   OH2 5315   1.167   5.070   2.182
 1791TIP3    H1 5316   1.121   5.154   2.171
 1791TIP3    H2 5317   1.255   5.087   2.148
 1792TIP3   OH2 5318   4.038   3.421   4.086
 1792TIP3    H1 5319   4.062   3.405   3.995
 1792TIP3    H2 5320   4.007   3.337   4.118
 1793TIP3   OH2 5321   3.598   6.990   4.192
 1793TIP3    H1 5322   3.629   6.901   4.181
 1793TIP3    H2 5323   3.646   7.024   4.268
 1794TIP3   OH2 5324   7.517   1.553   5.377
 1794TIP3    H1 5325   7.429   1.550   5.339
 1794TIP3    H2 5326   7.523   1.474   5.431
 1795TIP3   OH2 5327   1.561   6.502   4.240
 1795TIP3    H1 5328   1.471   6.529   4.257
 1795TIP3    H2 5329   1.553   6.419   4.194
 1796TIP3   OH2 5330   3.580   1.770   5.621
 1796TIP3    H1 5331   3.608   1.780   5.712
 1796TIP3    H2 5332   3.654   1.727   5.578
 1797TIP3   OH2 5333   6.342   7.710   4.204
 1797TIP3    H1 5334   6.378   7.719   4.115
 1797TIP3    H2 5335   6.408   7.661   4.252
 1798TIP3   OH2 5336   0.224   5.547   4.353
 1798TIP3    H1 5337   0.170   5.622   4.374
 1798TIP3    H2 5338   0.305   5.584   4.318
 1799TIP3   OH2 5339   5.895   2.825   5.426
 1799TIP3    H1 5340   5.916   2.861   5.339
 1799TIP3    H2 5341   5.948   2.745   5.432
 1800TIP3   OH2 5342   7.475   6.306   4.874
 1800TIP3    H1 5343   7.513   6.359   4.943
 1800TIP3    H2 5344   7.408   6.362   4.835
 1801TIP3   OH2 5345   7.997   2.279   1.829
 1801TIP3    H1 5346   8.021   2.336   1.756
 1801TIP3    H2 5347   8.000   2.191   1.792
 1802TIP3   OH2 5348   3.718   6.053   0.074
 1802TIP3    H1 5349   3.725   5.990   0.146
 1802TIP3    H2 5350   3.648   6.019   0.019
 1803TIP3   OH2 5351   6.088  -0.011   0.982
 1803TIP3    H1 5352   6.136  -0.021   0.901
 1803TIP3    H2 5353   6.130   0.063   1.026
 1804TIP3   OH2 5354   0.296   6.230   5.100
 1804TIP3    H1 5355   0.356   6.285   5.049
 1804TIP3    H2 5356   0.227   6.208   5.038
 1805TIP3   OH2 5357   5.673   2.527   3.525
 1805TIP3    H1 5358   5.758   2.554   3.488
 1805TIP3    H2 5359   5.686   2.436   3.551
 1806TIP3   OH2 5360   5.392   3.142   5.887
 1806TIP3    H1 5361   5.457   3.141   5.817
 1806TIP3    H2 5362   5.336   3.067   5.869
 1807TIP3   OH2 5363   4.750   2.313   0.013
 1807TIP3    H1 5364   4.791   2.339  -0.069
 1807TIP3    H2 5365   4.661   2.287  -0.011
 1808TIP3   OH2 5366   2.034   4.960   1.871
 1808TIP3    H1 5367   2.000   4.957   1.960
 1808TIP3    H2 5368   1.961   4.929   1.816
 1809TIP3   OH2 5369   7.773   5.019   5.150
 1809TIP3    H1 5370   7.821   5.098   5.175
 1809TIP3    H2 5371   7.767   5.023   5.055
 1810TIP3   OH2 5372   7.238   1.556   5.760
 1810TIP3    H1 5373   7.254   1.621   5.691
 1810TIP3    H2 5374   7.182   1.490   5.719
 1811TIP3   OH2 5375   1.532   0.590   1.922
 1811TIP3    H1 5376   1.473   0.590   1.997
 1811TIP3    H2 5377   1.576   0.506   1.926
 1812TIP3   OH2 5378   4.305   1.449   1.182
 1812TIP3    H1 5379   4.256   1.529   1.198
 1812TIP3    H2 5380   4.280   1.391   1.254
 1813TIP3   OH2 5381   1.331   5.909   3.383
 1813TIP3    H1 5382   1.417   5.866   3.389
 1813TIP3    H2 5383   1.268   5.837   3.388
 1814TIP3   OH2 5384   4.087   6.552   2.821
 1814TIP3    H1 5385   4.173   6.581   2.791
 1814TIP3    H2 5386   4.077   6.464   2.786
 1815TIP3   OH2 5387   0.034   0.302   3.832
 1815TIP3    H1 5388   0.049   0.209   3.819
 1815TIP3    H2 5389   0.044   0.341   3.745
 1816TIP3   OH2 5390   2.568   1.376   3.879
 1816TIP3    H1 5391   2.550   1.414   3.965
 1816TIP3    H2 5392   2.653   1.412   3.854
 1817TIP3   OH2 5393   5.091   2.661   1.994
 1817TIP3    H1 5394   5.105   2.705   1.911
 1817TIP3    H2 5395   5.013   2.608   1.981
 1818TIP3   OH2 5396   7.317   5.746   2.303
 1818TIP3    H1 5397   7.315   5.827   2.251
 1818TIP3    H2 5398   7.328   5.776   2.393
 1819TIP3   OH2 5399   1.783   5.456   6.556
 1819TIP3    H1 5400   1.713   5.514   6.584
 1819TIP3    H2 5401   1.805   5.404   6.634
 1820TIP3   OH2 5402   7.761   4.890   1.403
 1820TIP3    H1 5403   7.770   4.883   1.497
 1820TIP3    H2 5404   7.710   4.970   1.390
 1821TIP3   OH2 5405   1.884   4.107   3.017
 1821TIP3    H1 5406   1.919   4.101   3.106
 1821TIP3    H2 5407   1.799   4.150   3.027
 1822TIP3   OH2 5408   7.612   6.785   4.351
 1822TIP3    H1 5409   7.529   6.747   4.379
 1822TIP3    H2 5410   7.643   6.728   4.281
 1823TIP3   OH2 5411   3.130   0.120   3.516
 1823TIP3    H1 5412   3.121   0.159   3.429
 1823TIP3    H2 5413   3.216   0.148   3.546
 1824TIP3   OH2 5414   3.093   6.874   1.808
 1824TIP3    H1 5415   3.139   6.901   1.729
 1824TIP3    H2 5416   3.039   6.800   1.779
 1825TIP3   OH2 5417   2.693   3.231   5.129
 1825TIP3    H1 5418   2.614   3.241   5.182
 1825TIP3    H2 5419   2.762   3.272   5.180
 1826TIP3   OH2 5420   2.557   6.273   4.479
 1826TIP3    H1 5421   2.500   6.346   4.503
 1826TIP3    H2 5422   2.634   6.314   4.441
 1827TIP3   OH2 5423   2.491   6.375   2.765
 1827TIP3    H1 5424   2.516   6.382   2.672
 1827TIP3    H2 5425   2.574   6.362   2.811
 1828TIP3   OH2 5426   1.117   4.729   0.753
 1828TIP3    H1 5427   1.174   4.805   0.768
 1828TIP3    H2 5428   1.107   4.724   0.658
 1829TIP3   OH2 5429   1.430   2.153   4.021
 1829TIP3    H1 5430   1.510   2.107   3.995
 1829TIP3    H2 5431   1.420   2.130   4.114
 1830TIP3   OH2 5432   0.319   5.032   3.558
 1830TIP3    H1 5433   0.400   5.053   3.512
 1830TIP3    H2 5434   0.255   5.094   3.523
 1831TIP3   OH2 5435   7.848   0.341   6.045
 1831TIP3    H1 5436   7.870   0.277   5.977
 1831TIP3    H2 5437   7.825   0.420   5.998
 1832TIP3   OH2 5438   1.132   4.191   4.544
 1832TIP3    H1 5439   1.093   4.112   4.507
 1832TIP3    H2 5440   1.060   4.236   4.587
 1833TIP3   OH2 5441   1.102   7.637   6.152
 1833TIP3    H1 5442   1.186   7.680   6.166
 1833TIP3    H2 5443   1.118   7.545   6.174
 1834TIP3   OH2 5444   2.561   1.952   2.572
 1834TIP3    H1 5445   2.515   1.969   2.490
 1834TIP3    H2 5446   2.546   2.030   2.625
 1835TIP3   OH2 5447   3.709   5.812   2.442
 1835TIP3    H1 5448   3.756   5.728   2.449
 1835TIP3    H2 5449   3.693   5.838   2.533
 1836TIP3   OH2 5450   4.763   6.294   4.365
 1836TIP3    H1 5451   4.744   6.368   4.424
 1836TIP3    H2 5452   4.853   6.309   4.336
 1837TIP3   OH2 5453   1.774   3.983   2.583
 1837TIP3    H1 5454   1.853   4.037   2.575
 1837TIP3    H2 5455   1.702   4.044   2.566
 1838TIP3   OH2 5456   4.285   0.367   4.762
 1838TIP3    H1 5457   4.289   0.271   4.756
 1838TIP3    H2 5458   4.207   0.385   4.813
 1839TIP3   OH2 5459   3.015   2.097   6.038
 1839TIP3    H1 5460   2.991   2.090   6.130
 1839TIP3    H2 5461   3.097   2.146   6.038
 1840TIP3   OH2 5462   1.841   0.784   3.483
 1840TIP3    H1 5463   1.911   0.719   3.490
 1840TIP3    H2 5464   1.854   0.824   3.397
 1841TIP3   OH2 5465   8.123   3.370   5.673
 1841TIP3    H1 5466   8.033   3.394   5.693
 1841TIP3    H2 5467   8.170   3.383   5.756
 1842TIP3   OH2 5468   0.169   6.405   6.299
 1842TIP3    H1 5469   0.144   6.344   6.229
 1842TIP3    H2 5470   0.090   6.456   6.315
 1843TIP3   OH2 5471   5.965   0.709   4.617
 1843TIP3    H1 5472   6.009   0.713   4.532
 1843TIP3    H2 5473   5.897   0.643   4.605
 1844TIP3   OH2 5474   0.451   5.398   2.711
 1844TIP3    H1 5475   0.508   5.322   2.694
 1844TIP3    H2 5476   0.461   5.415   2.804
 1845TIP3   OH2 5477   0.610   4.148   5.858
 1845TIP3    H1 5478   0.522   4.169   5.826
 1845TIP3    H2 5479   0.605   4.166   5.952
 1846TIP3   OH2 5480   7.344   2.218   3.703
 1846TIP3    H1 5481   7.390   2.201   3.622
 1846TIP3    H2 5482   7.259   2.175   3.693
 1847TIP3   OH2 5483   7.610   0.826   1.801
 1847TIP3    H1 5484   7.632   0.918   1.790
 1847TIP3    H2 5485   7.674   0.793   1.864
 1848TIP3   OH2 5486   7.629   5.770   3.001
 1848TIP3    H1 5487   7.579   5.719   2.938
 1848TIP3    H2 5488   7.602   5.736   3.087
 1849TIP3   OH2 5489   3.307   1.162   6.191
 1849TIP3    H1 5490   3.271   1.156   6.280
 1849TIP3    H2 5491   3.393   1.202   6.202
 1850TIP3   OH2 5492   5.931   5.537   4.004
 1850TIP3    H1 5493   6.014   5.584   3.993
 1850TIP3    H2 5494   5.915   5.496   3.920
 1851TIP3   OH2 5495   0.075   7.257   6.770
 1851TIP3    H1 5496   0.125   7.278   6.849
 1851TIP3    H2 5497   0.141   7.227   6.707
 1852TIP3   OH2 5498   0.206   7.721   3.578
 1852TIP3    H1 5499   0.217   7.815   3.563
 1852TIP3    H2 5500   0.135   7.715   3.642
 1853TIP3   OH2 5501   1.390   2.982   2.905
 1853TIP3    H1 5502   1.402   2.930   2.984
 1853TIP3    H2 5503   1.323   2.935   2.855
 1854TIP3   OH2 5504   6.470   6.890   1.822
 1854TIP3    H1 5505   6.477   6.946   1.900
 1854TIP3    H2 5506   6.398   6.928   1.771
 1855TIP3   OH2 5507   5.019   0.357   6.420
 1855TIP3    H1 5508   5.016   0.450   6.395
 1855TIP3    H2 5509   5.061   0.358   6.506
 1856TIP3   OH2 5510   5.289   1.468   1.105
 1856TIP3    H1 5511   5.371   1.498   1.144
 1856TIP3    H2 5512   5.283   1.376   1.130
 1857TIP3   OH2 5513   1.292   5.575   0.368
 1857TIP3    H1 5514   1.228   5.511   0.397
 1857TIP3    H2 5515   1.306   5.632   0.444
 1858TIP3   OH2 5516   0.269   4.577   0.502
 1858TIP3    H1 5517   0.272   4.506   0.567
 1858TIP3    H2 5518   0.350   4.567   0.452
 1859TIP3   OH2 5519   2.157   4.141   3.399
 1859TIP3    H1 5520   2.197   4.189   3.327
 1859TIP3    H2 5521   2.153   4.204   3.471
 1860TIP3   OH2 5522   7.447   2.312   1.260
 1860TIP3    H1 5523   7.462   2.250   1.331
 1860TIP3    H2 5524   7.352   2.311   1.248
 1861TIP3   OH2 5525   6.807   2.121   4.975
 1861TIP3    H1 5526   6.865   2.191   4.945
 1861TIP3    H2 5527   6.804   2.130   5.070
 1862TIP3   OH2 5528   7.443   3.904   2.366
 1862TIP3    H1 5529   7.466   3.812   2.351
 1862TIP3    H2 5530   7.498   3.931   2.439
 1863TIP3   OH2 5531   7.675   4.555   2.974
 1863TIP3    H1 5532   7.769   4.552   2.994
 1863TIP3    H2 5533   7.662   4.642   2.935
 1864TIP3   OH2 5534   1.675   4.646   4.862
 1864TIP3    H1 5535   1.709   4.557   4.870
 1864TIP3    H2 5536   1.609   4.640   4.793
 1865TIP3   OH2 5537   2.080   4.433   2.012
 1865TIP3    H1 5538   2.144   4.412   2.080
 1865TIP3    H2 5539   2.118   4.399   1.932
 1866TIP3   OH2 5540   6.816   4.085   2.314
 1866TIP3    H1 5541   6.825   4.158   2.376
 1866TIP3    H2 5542   6.787   4.012   2.368
 1867TIP3   OH2 5543   4.500   6.246   6.035
 1867TIP3    H1 5544   4.518   6.323   5.980
 1867TIP3    H2 5545   4.514   6.171   5.977
 1868TIP3   OH2 5546   5.984   5.358   6.227
 1868TIP3    H1 5547   5.956   5.354   6.319
 1868TIP3    H2 5548   5.926   5.296   6.182
 1869TIP3   OH2 5549   1.543   0.272   6.550
 1869TIP3    H1 5550   1.566   0.180   6.535
 1869TIP3    H2 5551   1.625   0.320   6.535
 1870TIP3   OH2 5552   6.849   0.176   1.316
 1870TIP3    H1 5553   6.918   0.186   1.250
 1870TIP3    H2 5554   6.862   0.249   1.376
 1871TIP3   OH2 5555   7.984   3.673   2.734
 1871TIP3    H1 5556   8.029   3.624   2.803
 1871TIP3    H2 5557   8.047   3.677   2.662
 1872TIP3   OH2 5558   1.941   3.648   2.840
 1872TIP3    H1 5559   1.957   3.740   2.858
 1872TIP3    H2 5560   1.930   3.643   2.745
 1873TIP3   OH2 5561   0.999   2.346   5.016
 1873TIP3    H1 5562   0.915   2.331   4.973
 1873TIP3    H2 5563   1.034   2.258   5.032
 1874TIP3   OH2 5564   5.302   7.345   0.665
 1874TIP3    H1 5565   5.358   7.300   0.729
 1874TIP3    H2 5566   5.243   7.398   0.719
 1875TIP3   OH2 5567   1.660   5.204   4.017
 1875TIP3    H1 5568   1.730   5.159   3.969
 1875TIP3    H2 5569   1.588   5.140   4.019
 1876TIP3   OH2 5570   7.066   2.997   4.276
 1876TIP3    H1 5571   7.097   2.907   4.281
 1876TIP3    H2 5572   7.022   3.003   4.192
 1877TIP3   OH2 5573   4.209   7.462   1.540
 1877TIP3    H1 5574   4.238   7.425   1.458
 1877TIP3    H2 5575   4.259   7.543   1.549
 1878TIP3   OH2 5576   3.830   1.331   4.003
 1878TIP3    H1 5577   3.905   1.388   4.020
 1878TIP3    H2 5578   3.761   1.366   4.059
 1879TIP3   OH2 5579   5.500   1.217   6.065
 1879TIP3    H1 5580   5.590   1.241   6.087
 1879TIP3    H2 5581   5.509   1.137   6.012
 1880TIP3   OH2 5582   1.912   0.797   2.595
 1880TIP3    H1 5583   1.940   0.778   2.506
 1880TIP3    H2 5584   1.873   0.885   2.590
 1881TIP3   OH2 5585   3.722   0.895   0.289
 1881TIP3    H1 5586   3.808   0.860   0.268
 1881TIP3    H2 5587   3.688   0.837   0.358
 1882TIP3   OH2 5588   6.872   6.409   0.771
 1882TIP3    H1 5589   6.874   6.495   0.813
 1882TIP3    H2 5590   6.780   6.393   0.752
 1883TIP3   OH2 5591   5.876   4.023   2.909
 1883TIP3    H1 5592   5.802   3.963   2.915
 1883TIP3    H2 5593   5.907   4.013   2.819
 1884TIP3   OH2 5594   7.253   5.154   2.942
 1884TIP3    H1 5595   7.250   5.083   3.006
 1884TIP3    H2 5596   7.338   5.145   2.900
 1885TIP3   OH2 5597   3.698   2.515   6.559
 1885TIP3    H1 5598   3.699   2.608   6.539
 1885TIP3    H2 5599   3.735   2.473   6.481
 1886TIP3   OH2 5600   6.992   7.490   4.563
 1886TIP3    H1 5601   6.901   7.468   4.546
 1886TIP3    H2 5602   7.005   7.469   4.655
 1887TIP3   OH2 5603   2.699   1.034   1.825
 1887TIP3    H1 5604   2.758   1.008   1.896
 1887TIP3    H2 5605   2.757   1.049   1.750
 1888TIP3   OH2 5606   6.042   5.327   5.826
 1888TIP3    H1 5607   6.003   5.288   5.904
 1888TIP3    H2 5608   6.018   5.269   5.755
 1889TIP3   OH2 5609   7.991   2.649   5.534
 1889TIP3    H1 5610   7.901   2.681   5.521
 1889TIP3    H2 5611   7.993   2.565   5.487
 1890TIP3   OH2 5612   6.183   0.694   3.344
 1890TIP3    H1 5613   6.146   0.761   3.286
 1890TIP3    H2 5614   6.226   0.744   3.414
 1891TIP3   OH2 5615   2.708   6.520   1.883
 1891TIP3    H1 5616   2.750   6.544   1.800
 1891TIP3    H2 5617   2.742   6.584   1.946
 1892TIP3   OH2 5618   7.704   7.714   0.886
 1892TIP3    H1 5619   7.754   7.790   0.857
 1892TIP3    H2 5620   7.702   7.723   0.982
 1893TIP3   OH2 5621   6.540   7.729   5.817
 1893TIP3    H1 5622   6.465   7.764   5.865
 1893TIP3    H2 5623   6.593   7.686   5.884
 1894TIP3   OH2 5624   2.377   3.166   3.525
 1894TIP3    H1 5625   2.282   3.172   3.533
 1894TIP3    H2 5626   2.392   3.100   3.458
 1895TIP3   OH2 5627   1.134   2.744   5.663
 1895TIP3    H1 5628   1.190   2.699   5.727
 1895TIP3    H2 5629   1.083   2.806   5.715
 1896TIP3   OH2 5630   6.981   5.433   2.645
 1896TIP3    H1 5631   6.937   5.435   2.730
 1896TIP3    H2 5632   7.002   5.341   2.631
 1897TIP3   OH2 5633   3.224   5.143   2.938
 1897TIP3    H1 5634   3.287   5.213   2.923
 1897TIP3    H2 5635   3.192   5.158   3.027
 1898TIP3   OH2 5636   6.417   1.445  -0.020
 1898TIP3    H1 5637   6.323   1.428  -0.015
 1898TIP3    H2 5638   6.426   1.539  -0.008
 1899TIP3   OH2 5639   4.164   2.708   0.947
 1899TIP3    H1 5640   4.252   2.704   0.910
 1899TIP3    H2 5641   4.177   2.702   1.041
 1900TIP3   OH2 5642   6.502   4.924   5.542
 1900TIP3    H1 5643   6.506   5.010   5.499
 1900TIP3    H2 5644   6.592   4.906   5.569
 1901TIP3   OH2 5645   3.354   4.434   0.358
 1901TIP3    H1 5646   3.345   4.491   0.434
 1901TIP3    H2 5647   3.448   4.413   0.354
 1902TIP3   OH2 5648   5.323   0.743   3.497
 1902TIP3    H1 5649   5.244   0.782   3.460
 1902TIP3    H2 5650   5.294   0.658   3.531
 1903TIP3   OH2 5651   7.609   6.333   1.748
 1903TIP3    H1 5652   7.644   6.246   1.728
 1903TIP3    H2 5653   7.623   6.344   1.842
 1904TIP3   OH2 5654   5.644   6.357   5.763
 1904TIP3    H1 5655   5.706   6.284   5.765
 1904TIP3    H2 5656   5.618   6.363   5.671
 1905TIP3   OH2 5657   3.821   4.212   4.218
 1905TIP3    H1 5658   3.848   4.296   4.180
 1905TIP3    H2 5659   3.727   4.207   4.202
 1906TIP3   OH2 5660   3.841   3.104   6.098
 1906TIP3    H1 5661   3.892   3.024   6.106
 1906TIP3    H2 5662   3.763   3.078   6.049
 1907TIP3   OH2 5663   7.109   4.792   1.032
 1907TIP3    H1 5664   7.089   4.737   0.956
 1907TIP3    H2 5665   7.037   4.775   1.093
 1908TIP3   OH2 5666   1.743   6.058   1.487
 1908TIP3    H1 5667   1.777   6.102   1.409
 1908TIP3    H2 5668   1.693   6.125   1.533
 1909TIP3   OH2 5669   7.342   0.448   0.328
 1909TIP3    H1 5670   7.433   0.423   0.337
 1909TIP3    H2 5671   7.306   0.442   0.416
 1910TIP3   OH2 5672   4.255   2.184   5.050
 1910TIP3    H1 5673   4.339   2.146   5.074
 1910TIP3    H2 5674   4.261   2.197   4.955
 1911TIP3   OH2 5675   1.880   4.627   0.664
 1911TIP3    H1 5676   1.899   4.634   0.758
 1911TIP3    H2 5677   1.847   4.538   0.653
 1912TIP3   OH2 5678   0.490   5.109   3.348
 1912TIP3    H1 5679   0.465   5.068   3.264
 1912TIP3    H2 5680   0.537   5.188   3.323
 1913TIP3   OH2 5681   3.289   6.765   2.029
 1913TIP3    H1 5682   3.241   6.683   2.021
 1913TIP3    H2 5683   3.276   6.809   1.945
 1914TIP3   OH2 5684   5.168   6.276   0.087
 1914TIP3    H1 5685   5.138   6.185   0.091
 1914TIP3    H2 5686   5.261   6.271   0.108
 1915TIP3   OH2 5687   5.454   1.353   2.408
 1915TIP3    H1 5688   5.488   1.442   2.396
 1915TIP3    H2 5689   5.496   1.322   2.488
 1916TIP3   OH2 5690   7.379   3.602   2.804
 1916TIP3    H1 5691   7.415   3.685   2.836
 1916TIP3    H2 5692   7.454   3.543   2.802
 1917TIP3   OH2 5693   1.123   2.914   0.574
 1917TIP3    H1 5694   1.037   2.936   0.609
 1917TIP3    H2 5695   1.115   2.823   0.546
 1918TIP3   OH2 5696   0.641   4.846   0.241
 1918TIP3    H1 5697   0.677   4.828   0.328
 1918TIP3    H2 5698   0.599   4.932   0.250
 1919TIP3   OH2 5699   7.684   3.386   4.868
 1919TIP3    H1 5700   7.691   3.480   4.886
 1919TIP3    H2 5701   7.636   3.381   4.785
 1920TIP3   OH2 5702   5.139   3.105   5.343
 1920TIP3    H1 5703   5.061   3.151   5.375
 1920TIP3    H2 5704   5.128   3.104   5.248
 1921TIP3   OH2 5705   1.551   7.185   1.812
 1921TIP3    H1 5706   1.548   7.269   1.856
 1921TIP3    H2 5707   1.460   7.160   1.801
 1922TIP3   OH2 5708   7.148   6.918   0.560
 1922TIP3    H1 5709   7.116   7.007   0.565
 1922TIP3    H2 5710   7.070   6.865   0.545
 1923TIP3   OH2 5711   4.736   0.382   0.817
 1923TIP3    H1 5712   4.809   0.328   0.849
 1923TIP3    H2 5713   4.752   0.468   0.855
 1924TIP3   OH2 5714   5.009   4.954   0.828
 1924TIP3    H1 5715   5.093   4.952   0.875
 1924TIP3    H2 5716   4.943   4.962   0.897
 1925TIP3   OH2 5717   1.292   3.250   4.368
 1925TIP3    H1 5718   1.372   3.254   4.316
 1925TIP3    H2 5719   1.276   3.340   4.395
 1926TIP3   OH2 5720   2.838   2.401   5.840
 1926TIP3    H1 5721   2.780   2.477   5.852
 1926TIP3    H2 5722   2.858   2.373   5.929
 1927TIP3   OH2 5723   1.357   6.881   6.718
 1927TIP3    H1 5724   1.394   6.903   6.632
 1927TIP3    H2 5725   1.378   6.789   6.730
 1928TIP3   OH2 5726   3.829   1.332   6.487
 1928TIP3    H1 5727   3.821   1.241   6.516
 1928TIP3    H2 5728   3.886   1.328   6.410
 1929TIP3   OH2 5729   1.759   7.683   2.428
 1929TIP3    H1 5730   1.743   7.636   2.347
 1929TIP3    H2 5731   1.719   7.769   2.414
 1930TIP3   OH2 5732   7.405   3.733   0.151
 1930TIP3    H1 5733   7.443   3.785   0.221
 1930TIP3    H2 5734   7.384   3.797   0.083
 1931TIP3   OH2 5735   2.010   0.630   2.258
 1931TIP3    H1 5736   1.933   0.573   2.267
 1931TIP3    H2 5737   2.013   0.652   2.165
 1932TIP3   OH2 5738   1.875   6.129   3.451
 1932TIP3    H1 5739   1.828   6.052   3.420
 1932TIP3    H2 5740   1.813   6.201   3.441
 1933TIP3   OH2 5741   1.591   5.783   4.083
 1933TIP3    H1 5742   1.658   5.850   4.074
 1933TIP3    H2 5743   1.508   5.831   4.082
 1934TIP3   OH2 5744   7.658   7.321   0.546
 1934TIP3    H1 5745   7.575   7.322   0.594
 1934TIP3    H2 5746   7.647   7.253   0.480
 1935TIP3   OH2 5747   3.568   4.989   2.365
 1935TIP3    H1 5748   3.580   4.947   2.450
 1935TIP3    H2 5749   3.609   5.075   2.376
 1936TIP3   OH2 5750   6.216   2.841   0.391
 1936TIP3    H1 5751   6.255   2.755   0.409
 1936TIP3    H2 5752   6.217   2.885   0.476
 1937TIP3   OH2 5753   7.093   2.270   2.008
 1937TIP3    H1 5754   7.044   2.280   2.090
 1937TIP3    H2 5755   7.112   2.176   2.003
 1938TIP3   OH2 5756   6.687   3.554   2.675
 1938TIP3    H1 5757   6.683   3.521   2.765
 1938TIP3    H2 5758   6.750   3.626   2.678
 1939TIP3   OH2 5759   1.539   5.946   6.076
 1939TIP3    H1 5760   1.597   6.019   6.098
 1939TIP3    H2 5761   1.573   5.913   5.992
 1940TIP3   OH2 5762   0.382   3.458   3.994
 1940TIP3    H1 5763   0.425   3.393   3.938
 1940TIP3    H2 5764   0.308   3.411   4.033
 1941TIP3   OH2 5765   0.378   6.236   6.747
 1941TIP3    H1 5766   0.359   6.246   6.654
 1941TIP3    H2 5767   0.321   6.299   6.791
 1942TIP3   OH2 5768   4.970   5.726   1.150
 1942TIP3    H1 5769   4.894   5.762   1.195
 1942TIP3    H2 5770   4.938   5.645   1.110
 1943TIP3   OH2 5771   0.085   5.165   6.524
 1943TIP3    H1 5772   0.121   5.078   6.541
 1943TIP3    H2 5773   0.015   5.176   6.587
 1944TIP3   OH2 5774   2.401   2.442   1.680
 1944TIP3    H1 5775   2.438   2.471   1.764
 1944TIP3    H2 5776   2.308   2.431   1.697
 1945TIP3   OH2 5777   0.116   1.341   5.245
 1945TIP3    H1 5778   0.141   1.296   5.163
 1945TIP3    H2 5779   0.161   1.292   5.313
 1946TIP3   OH2 5780   2.495   6.845   5.497
 1946TIP3    H1 5781   2.558   6.911   5.525
 1946TIP3    H2 5782   2.464   6.876   5.412
 1947TIP3   OH2 5783   1.365   4.423   5.571
 1947TIP3    H1 5784   1.360   4.370   5.650
 1947TIP3    H2 5785   1.410   4.368   5.508
 1948TIP3   OH2 5786   4.087   5.431   3.862
 1948TIP3    H1 5787   4.008   5.386   3.892
 1948TIP3    H2 5788   4.146   5.360   3.835
 1949TIP3   OH2 5789   4.339   7.702   0.646
 1949TIP3    H1 5790   4.394   7.655   0.584
 1949TIP3    H2 5791   4.341   7.649   0.725
 1950TIP3   OH2 5792   8.265   2.228   3.385
 1950TIP3    H1 5793   8.247   2.135   3.372
 1950TIP3    H2 5794   8.186   2.263   3.425
 1951TIP3   OH2 5795   1.007   2.772   1.309
 1951TIP3    H1 5796   0.994   2.689   1.264
 1951TIP3    H2 5797   1.100   2.792   1.298
 1952TIP3   OH2 5798   6.951   0.132   3.309
 1952TIP3    H1 5799   6.949   0.041   3.338
 1952TIP3    H2 5800   6.877   0.174   3.354
 1953TIP3   OH2 5801   1.656   0.283   0.551
 1953TIP3    H1 5802   1.578   0.233   0.526
 1953TIP3    H2 5803   1.716   0.271   0.478
 1954TIP3   OH2 5804   0.778   3.858   2.630
 1954TIP3    H1 5805   0.712   3.905   2.680
 1954TIP3    H2 5806   0.861   3.876   2.674
 1955TIP3   OH2 5807   7.517   4.232   6.145
 1955TIP3    H1 5808   7.446   4.294   6.163
 1955TIP3    H2 5809   7.546   4.203   6.232
 1956TIP3   OH2 5810   8.122   3.800   5.229
 1956TIP3    H1 5811   8.049   3.848   5.268
 1956TIP3    H2 5812   8.099   3.793   5.136
 1957TIP3   OH2 5813   8.022   5.412   5.748
 1957TIP3    H1 5814   8.069   5.350   5.804
 1957TIP3    H2 5815   8.050   5.498   5.780
 1958TIP3   OH2 5816   8.040   6.805   5.414
 1958TIP3    H1 5817   8.040   6.821   5.508
 1958TIP3    H2 5818   7.966   6.746   5.399
 1959TIP3   OH2 5819   4.717   4.962   2.386
 1959TIP3    H1 5820   4.770   4.889   2.354
 1959TIP3    H2 5821   4.752   5.039   2.341
 1960TIP3   OH2 5822   6.381   0.338   5.198
 1960TIP3    H1 5823   6.385   0.430   5.172
 1960TIP3    H2 5824   6.309   0.333   5.261
 1961TIP3   OH2 5825   5.742   2.159   1.081
 1961TIP3    H1 5826   5.740   2.226   1.012
 1961TIP3    H2 5827   5.687   2.088   1.047
 1962TIP3   OH2 5828   7.101   1.179   3.883
 1962TIP3    H1 5829   7.052   1.262   3.884
 1962TIP3    H2 5830   7.034   1.112   3.870
 1963TIP3   OH2 5831   1.475   5.894   1.251
 1963TIP3    H1 5832   1.393   5.880   1.203
 1963TIP3    H2 5833   1.456   5.865   1.340
 1964TIP3   OH2 5834   4.210   0.659   5.641
 1964TIP3    H1 5835   4.254   0.679   5.559
 1964TIP3    H2 5836   4.116   0.665   5.620
 1965TIP3   OH2 5837   0.147   3.414   4.310
 1965TIP3    H1 5838   0.172   3.440   4.399
 1965TIP3    H2 5839   0.052   3.413   4.311
 1966TIP3   OH2 5840   5.143   0.192   1.915
 1966TIP3    H1 5841   5.078   0.164   1.979
 1966TIP3    H2 5842   5.093   0.240   1.849
 1967TIP3   OH2 5843   6.186   2.838   5.363
 1967TIP3    H1 5844   6.125   2.780   5.409
 1967TIP3    H2 5845   6.171   2.819   5.270
 1968TIP3   OH2 5846   0.101   4.344   1.866
 1968TIP3    H1 5847   0.012   4.370   1.890
 1968TIP3    H2 5848   0.120   4.268   1.920
 1969TIP3   OH2 5849   5.033   1.387   5.903
 1969TIP3    H1 5850   5.118   1.390   5.946
 1969TIP3    H2 5851   5.031   1.465   5.847
 1970TIP3   OH2 5852   7.856   2.298   2.954
 1970TIP3    H1 5853   7.892   2.387   2.952
 1970TIP3    H2 5854   7.897   2.254   2.880
 1971TIP3   OH2 5855   0.682   3.132   1.466
 1971TIP3    H1 5856   0.661   3.220   1.498
 1971TIP3    H2 5857   0.696   3.144   1.372
 1972TIP3   OH2 5858   7.586   4.524   0.277
 1972TIP3    H1 5859   7.659   4.525   0.214
 1972TIP3    H2 5860   7.629   4.516   0.362
 1973TIP3   OH2 5861   1.108   4.318   4.884
 1973TIP3    H1 5862   1.157   4.366   4.950
 1973TIP3    H2 5863   1.018   4.347   4.894
 1974TIP3   OH2 5864   1.598   4.239   2.963
 1974TIP3    H1 5865   1.569   4.330   2.965
 1974TIP3    H2 5866   1.541   4.198   2.898
 1975TIP3   OH2 5867   4.898   6.363   0.715
 1975TIP3    H1 5868   4.864   6.435   0.768
 1975TIP3    H2 5869   4.873   6.284   0.763
 1976TIP3   OH2 5870   4.098   1.017   2.043
 1976TIP3    H1 5871   4.087   1.052   1.955
 1976TIP3    H2 5872   4.121   0.925   2.030
 1977TIP3   OH2 5873   6.070   5.098   3.004
 1977TIP3    H1 5874   6.110   5.061   3.082
 1977TIP3    H2 5875   6.017   5.027   2.967
 1978TIP3   OH2 5876   2.249   7.373   4.385
 1978TIP3    H1 5877   2.279   7.442   4.326
 1978TIP3    H2 5878   2.257   7.293   4.333
 1979TIP3   OH2 5879   1.566   2.297   1.270
 1979TIP3    H1 5880   1.499   2.366   1.272
 1979TIP3    H2 5881   1.519   2.219   1.242
 1980TIP3   OH2 5882   1.810   2.151   1.219
 1980TIP3    H1 5883   1.739   2.197   1.264
 1980TIP3    H2 5884   1.851   2.098   1.287
 1981TIP3   OH2 5885   2.332   0.491   5.197
 1981TIP3    H1 5886   2.370   0.577   5.217
 1981TIP3    H2 5887   2.402   0.429   5.214
 1982TIP3   OH2 5888   7.278   0.583   3.750
 1982TIP3    H1 5889   7.243   0.524   3.817
 1982TIP3    H2 5890   7.324   0.651   3.799
 1983TIP3   OH2 5891   4.796   6.829   4.912
 1983TIP3    H1 5892   4.855   6.873   4.851
 1983TIP3    H2 5893   4.822   6.737   4.908
 1984TIP3   OH2 5894   5.340   2.104   2.539
 1984TIP3    H1 5895   5.367   2.031   2.596
 1984TIP3    H2 5896   5.419   2.157   2.529
 1985TIP3   OH2 5897   3.391   5.638   2.503
 1985TIP3    H1 5898   3.339   5.621   2.581
 1985TIP3    H2 5899   3.327   5.666   2.437
 1986TIP3   OH2 5900   4.486   0.685   6.103
 1986TIP3    H1 5901   4.555   0.747   6.081
 1986TIP3    H2 5902   4.432   0.732   6.167
 1987TIP3   OH2 5903   6.426   7.195   5.545
 1987TIP3    H1 5904   6.457   7.262   5.485
 1987TIP3    H2 5905   6.477   7.117   5.522
 1988TIP3   OH2 5906   3.163   6.933   1.551
 1988TIP3    H1 5907   3.224   6.926   1.478
 1988TIP3    H2 5908   3.081   6.962   1.512
 1989TIP3   OH2 5909   7.676   4.792   2.851
 1989TIP3    H1 5910   7.623   4.828   2.922
 1989TIP3    H2 5911   7.616   4.790   2.776
 1990TIP3   OH2 5912   0.808   7.613   3.551
 1990TIP3    H1 5913   0.896   7.585   3.526
 1990TIP3    H2 5914   0.784   7.679   3.485
 1991TIP3   OH2 5915   2.784   4.709   4.568
 1991TIP3    H1 5916   2.754   4.776   4.629
 1991TIP3    H2 5917   2.878   4.701   4.586
 1992TIP3   OH2 5918   4.277   4.471   3.718
 1992TIP3    H1 5919   4.186   4.450   3.701
 1992TIP3    H2 5920   4.325   4.393   3.690
 1993TIP3   OH2 5921   6.757   4.332   4.277
 1993TIP3    H1 5922   6.700   4.402   4.309
 1993TIP3    H2 5923   6.698   4.261   4.252
 1994TIP3   OH2 5924   6.983   0.339   6.014
 1994TIP3    H1 5925   7.071   0.334   5.977
 1994TIP3    H2 5926   6.985   0.417   6.070
 1995TIP3   OH2 5927   6.669   2.508   0.084
 1995TIP3    H1 5928   6.683   2.546  -0.003
 1995TIP3    H2 5929   6.743   2.539   0.136
 1996TIP3   OH2 5930   3.700   2.808   6.546
 1996TIP3    H1 5931   3.763   2.880   6.554
 1996TIP3    H2 5932   3.677   2.807   6.453
 1997TIP3   OH2 5933   0.170   1.479   2.121
 1997TIP3    H1 5934   0.254   1.451   2.084
 1997TIP3    H2 5935   0.141   1.550   2.064
 1998TIP3   OH2 5936   3.485   6.598   6.525
 1998TIP3    H1 5937   3.475   6.516   6.574
 1998TIP3    H2 5938   3.566   6.588   6.477
 1999TIP3   OH2 5939   0.422   4.266   0.048
 1999TIP3    H1 5940   0.390   4.327   0.114
 1999TIP3    H2 5941   0.441   4.321  -0.028
 2000TIP3   OH2 5942   2.950   2.073   6.298
 2000TIP3    H1 5943   2.935   2.020   6.376
 2000TIP3    H2 5944   2.894   2.150   6.310
 2001TIP3   OH2 5945   3.671   3.680   2.621
 2001TIP3    H1 5946   3.728   3.716   2.689
 2001TIP3    H2 5947   3.709   3.594   2.602
 2002TIP3   OH2 5948   1.107   7.600   0.775
 2002TIP3    H1 5949   1.165   7.648   0.833
 2002TIP3    H2 5950   1.049   7.551   0.833
 2003TIP3   OH2 5951   4.227   3.610   0.354
 2003TIP3    H1 5952   4.161   3.582   0.292
 2003TIP3    H2 5953   4.306   3.624   0.301
 2004TIP3   OH2 5954   0.236   4.514   2.570
 2004TIP3    H1 5955   0.291   4.532   2.493
 2004TIP3    H2 5956   0.185   4.594   2.581
 2005TIP3   OH2 5957   7.766   3.618   0.447
 2005TIP3    H1 5958   7.696   3.553   0.441
 2005TIP3    H2 5959   7.737   3.689   0.389
 2006TIP3   OH2 5960   0.951   7.081   1.000
 2006TIP3    H1 5961   0.891   7.014   0.965
 2006TIP3    H2 5962   0.912   7.164   0.971
 2007TIP3   OH2 5963   2.041   0.910   0.657
 2007TIP3    H1 5964   1.987   0.973   0.609
 2007TIP3    H2 5965   1.997   0.826   0.644
 2008TIP3   OH2 5966   2.893   1.934   1.785
 2008TIP3    H1 5967   2.853   1.934   1.873
 2008TIP3    H2 5968   2.820   1.956   1.726
 2009TIP3   OH2 5969   6.047   3.150   1.784
 2009TIP3    H1 5970   6.106   3.176   1.713
 2009TIP3    H2 5971   6.099   3.156   1.863
 2010TIP3   OH2 5972   7.493   6.407   5.838
 2010TIP3    H1 5973   7.580   6.379   5.810
 2010TIP3    H2 5974   7.500   6.502   5.849
 2011TIP3   OH2 5975   3.795   1.685   2.698
 2011TIP3    H1 5976   3.857   1.744   2.741
 2011TIP3    H2 5977   3.759   1.632   2.770
 2012TIP3   OH2 5978   5.082   5.412   6.153
 2012TIP3    H1 5979   5.141   5.466   6.206
 2012TIP3    H2 5980   5.077   5.457   6.069
 2013TIP3   OH2 5981   5.905   2.792   0.856
 2013TIP3    H1 5982   5.911   2.767   0.763
 2013TIP3    H2 5983   5.996   2.798   0.885
 2014TIP3   OH2 5984   6.579   0.254   2.238
 2014TIP3    H1 5985   6.577   0.349   2.246
 2014TIP3    H2 5986   6.525   0.222   2.310
 2015TIP3   OH2 5987   4.312   2.556   2.602
 2015TIP3    H1 5988   4.334   2.592   2.687
 2015TIP3    H2 5989   4.368   2.478   2.594
 2016TIP3   OH2 5990   1.719   5.498   3.783
 2016TIP3    H1 5991   1.746   5.525   3.870
 2016TIP3    H2 5992   1.672   5.573   3.748
 2017TIP3   OH2 5993   1.917   5.207   5.733
 2017TIP3    H1 5994   1.888   5.117   5.726
 2017TIP3    H2 5995   1.977   5.219   5.659
 2018TIP3   OH2 5996   1.159   5.715   2.891
 2018TIP3    H1 5997   1.181   5.661   2.815
 2018TIP3    H2 5998   1.213   5.793   2.880
 2019TIP3   OH2 5999   5.270   7.730   5.671
 2019TIP3    H1 6000   5.248   7.758   5.761
 2019TIP3    H2 6001   5.350   7.678   5.681
 2020TIP3   OH2 6002   6.950   0.414   0.654
 2020TIP3    H1 6003   6.872   0.422   0.599
 2020TIP3    H2 6004   6.947   0.325   0.688
 2021TIP3   OH2 6005   5.460   6.398   2.808
 2021TIP3    H1 6006   5.379   6.366   2.847
 2021TIP3    H2 6007   5.434   6.477   2.760
 2022TIP3   OH2 6008   4.159   1.994   1.340
 2022TIP3    H1 6009   4.205   2.011   1.422
 2022TIP3    H2 6010   4.227   2.001   1.273
 2023TIP3   OH2 6011   4.577   2.876   0.340
 2023TIP3    H1 6012   4.495   2.925   0.347
 2023TIP3    H2 6013   4.643   2.936   0.374
 2024TIP3   OH2 6014   3.240   3.446   1.600
 2024TIP3    H1 6015   3.181   3.433   1.674
 2024TIP3    H2 6016   3.249   3.541   1.594
 2025TIP3   OH2 6017   4.981   7.792   1.256
 2025TIP3    H1 6018   5.018   7.807   1.169
 2025TIP3    H2 6019   4.902   7.740   1.240
 2026TIP3   OH2 6020   1.286   4.181   4.001
 2026TIP3    H1 6021   1.378   4.175   3.976
 2026TIP3    H2 6022   1.251   4.094   3.984
 2027TIP3   OH2 6023   8.126   0.742   1.260
 2027TIP3    H1 6024   8.163   0.721   1.175
 2027TIP3    H2 6025   8.031   0.747   1.245
 2028TIP3   OH2 6026   0.122   4.668   4.539
 2028TIP3    H1 6027   0.156   4.698   4.623
 2028TIP3    H2 6028   0.170   4.587   4.521
 2029TIP3   OH2 6029   3.577   1.423   6.561
 2029TIP3    H1 6030   3.551   1.506   6.520
 2029TIP3    H2 6031   3.664   1.405   6.526
 2030TIP3   OH2 6032   6.900   2.160   0.887
 2030TIP3    H1 6033   6.832   2.200   0.833
 2030TIP3    H2 6034   6.979   2.160   0.832
 2031TIP3   OH2 6035   6.614   2.633   4.471
 2031TIP3    H1 6036   6.598   2.555   4.524
 2031TIP3    H2 6037   6.588   2.706   4.529
 2032TIP3   OH2 6038   4.862   1.445   4.859
 2032TIP3    H1 6039   4.836   1.437   4.768
 2032TIP3    H2 6040   4.820   1.526   4.889
 2033TIP3   OH2 6041   4.147   5.469   1.247
 2033TIP3    H1 6042   4.098   5.490   1.168
 2033TIP3    H2 6043   4.161   5.553   1.290
 2034TIP3   OH2 6044   0.456   3.658   3.800
 2034TIP3    H1 6045   0.436   3.615   3.882
 2034TIP3    H2 6046   0.422   3.599   3.733
 2035TIP3   OH2 6047   2.953   7.714   5.354
 2035TIP3    H1 6048   2.982   7.805   5.343
 2035TIP3    H2 6049   2.861   7.721   5.381
 2036TIP3   OH2 6050   6.103   3.253   2.682
 2036TIP3    H1 6051   6.198   3.253   2.683
 2036TIP3    H2 6052   6.079   3.180   2.739
 2037TIP3   OH2 6053   7.995   5.455   4.699
 2037TIP3    H1 6054   8.079   5.468   4.655
 2037TIP3    H2 6055   7.967   5.368   4.671
 2038TIP3   OH2 6056   3.038   4.892   6.364
 2038TIP3    H1 6057   3.038   4.882   6.459
 2038TIP3    H2 6058   2.998   4.811   6.332
 2039TIP3   OH2 6059   0.711   2.818   6.715
 2039TIP3    H1 6060   0.794   2.850   6.679
 2039TIP3    H2 6061   0.685   2.885   6.779
 2040TIP3   OH2 6062   5.246   3.796   1.081
 2040TIP3    H1 6063   5.234   3.846   1.000
 2040TIP3    H2 6064   5.327   3.831   1.118
 2041TIP3   OH2 6065   3.457   2.902   4.947
 2041TIP3    H1 6066   3.486   2.957   4.874
 2041TIP3    H2 6067   3.419   2.825   4.905
 2042TIP3   OH2 6068   7.235   1.712   1.486
 2042TIP3    H1 6069   7.195   1.671   1.563
 2042TIP3    H2 6070   7.183   1.792   1.472
 2043TIP3   OH2 6071   5.350   5.743   4.813
 2043TIP3    H1 6072   5.412   5.767   4.744
 2043TIP3    H2 6073   5.275   5.800   4.798
 2044TIP3   OH2 6074   4.148   6.861   1.359
 2044TIP3    H1 6075   4.109   6.940   1.321
 2044TIP3    H2 6076   4.223   6.893   1.409
 2045TIP3   OH2 6077   7.893   2.002   3.551
 2045TIP3    H1 6078   7.946   1.923   3.553
 2045TIP3    H2 6079   7.851   2.006   3.637
 2046TIP3   OH2 6080   3.677   0.555   4.918
 2046TIP3    H1 6081   3.656   0.489   4.852
 2046TIP3    H2 6082   3.656   0.638   4.875
 2047TIP3   OH2 6083   0.831   7.655   2.173
 2047TIP3    H1 6084   0.855   7.707   2.095
 2047TIP3    H2 6085   0.835   7.718   2.245
 2048TIP3   OH2 6086   7.059   1.250   4.194
 2048TIP3    H1 6087   7.055   1.166   4.238
 2048TIP3    H2 6088   7.148   1.282   4.211
 2049TIP3   OH2 6089   1.762   5.175   4.923
 2049TIP3    H1 6090   1.759   5.083   4.947
 2049TIP3    H2 6091   1.855   5.195   4.913
 2050TIP3   OH2 6092   5.109   0.569   2.082
 2050TIP3    H1 6093   5.084   0.563   1.990
 2050TIP3    H2 6094   5.173   0.640   2.084
 2051TIP3   OH2 6095   3.173   0.097   4.961
 2051TIP3    H1 6096   3.261   0.135   4.960
 2051TIP3    H2 6097   3.146   0.097   4.868
 2052TIP3   OH2 6098   0.379   5.281   4.190
 2052TIP3    H1 6099   0.465   5.242   4.173
 2052TIP3    H2 6100   0.389   5.329   4.272
 2053TIP3   OH2 6101   1.281   1.336   6.611
 2053TIP3    H1 6102   1.342   1.279   6.657
 2053TIP3    H2 6103   1.197   1.321   6.655
 2054TIP3   OH2 6104   3.515   5.913   0.861
 2054TIP3    H1 6105   3.473   5.998   0.875
 2054TIP3    H2 6106   3.452   5.849   0.894
 2055TIP3   OH2 6107   5.725   7.129   0.795
 2055TIP3    H1 6108   5.791   7.060   0.791
 2055TIP3    H2 6109   5.725   7.168   0.707
 2056TIP3   OH2 6110   8.243   2.235   5.442
 2056TIP3    H1 6111   8.283   2.159   5.398
 2056TIP3    H2 6112   8.191   2.197   5.513
 2057TIP3   OH2 6113   0.603   3.407   3.577
 2057TIP3    H1 6114   0.522   3.456   3.564
 2057TIP3    H2 6115   0.669   3.474   3.595
 2058TIP3   OH2 6116   6.295   4.740   5.486
 2058TIP3    H1 6117   6.333   4.652   5.491
 2058TIP3    H2 6118   6.360   4.797   5.527
 2059TIP3   OH2 6119   7.970   6.670   6.013
 2059TIP3    H1 6120   8.050   6.701   6.054
 2059TIP3    H2 6121   7.990   6.580   5.987
 2060TIP3   OH2 6122   3.923   6.906   2.095
 2060TIP3    H1 6123   3.960   6.991   2.071
 2060TIP3    H2 6124   3.919   6.858   2.013
 2061TIP3   OH2 6125   3.334   3.746   3.861
 2061TIP3    H1 6126   3.410   3.790   3.825
 2061TIP3    H2 6127   3.360   3.722   3.950
 2062TIP3   OH2 6128   6.889   4.772   0.271
 2062TIP3    H1 6129   6.913   4.740   0.184
 2062TIP3    H2 6130   6.794   4.780   0.269
 2063TIP3   OH2 6131   0.869   5.515   0.204
 2063TIP3    H1 6132   0.958   5.539   0.178
 2063TIP3    H2 6133   0.819   5.518   0.123
 2064TIP3   OH2 6134   2.820   4.124   2.381
 2064TIP3    H1 6135   2.864   4.183   2.320
 2064TIP3    H2 6136   2.844   4.036   2.351
 2065TIP3   OH2 6137   1.592   4.510   3.822
 2065TIP3    H1 6138   1.600   4.538   3.731
 2065TIP3    H2 6139   1.557   4.586   3.868
 2066TIP3   OH2 6140   0.595   2.999   2.702
 2066TIP3    H1 6141   0.620   3.092   2.700
 2066TIP3    H2 6142   0.575   2.978   2.611
 2067TIP3   OH2 6143   1.585   7.164   6.421
 2067TIP3    H1 6144   1.554   7.250   6.451
 2067TIP3    H2 6145   1.574   7.167   6.326
 2068TIP3   OH2 6146   5.677   3.018   2.457
 2068TIP3    H1 6147   5.589   3.026   2.419
 2068TIP3    H2 6148   5.662   3.017   2.551
 2069TIP3   OH2 6149   3.363   5.342   2.512
 2069TIP3    H1 6150   3.307   5.418   2.497
 2069TIP3    H2 6151   3.434   5.352   2.449
 2070TIP3   OH2 6152   1.808   7.793   0.787
 2070TIP3    H1 6153   1.862   7.729   0.833
 2070TIP3    H2 6154   1.727   7.747   0.766
 2071TIP3   OH2 6155   4.792   1.220   2.265
 2071TIP3    H1 6156   4.731   1.204   2.338
 2071TIP3    H2 6157   4.855   1.148   2.271
 2072TIP3   OH2 6158   1.509   3.785   4.222
 2072TIP3    H1 6159   1.433   3.767   4.278
 2072TIP3    H2 6160   1.529   3.877   4.240
 2073TIP3   OH2 6161   3.334   4.831   1.411
 2073TIP3    H1 6162   3.311   4.859   1.499
 2073TIP3    H2 6163   3.327   4.735   1.414
 2074TIP3   OH2 6164   0.065   1.668   1.965
 2074TIP3    H1 6165   0.112   1.694   1.886
 2074TIP3    H2 6166   0.007   1.742   1.985
 2075TIP3   OH2 6167   0.809   6.875   3.473
 2075TIP3    H1 6168   0.738   6.816   3.495
 2075TIP3    H2 6169   0.815   6.871   3.377
 2076TIP3   OH2 6170   1.748   2.617   0.866
 2076TIP3    H1 6171   1.675   2.577   0.913
 2076TIP3    H2 6172   1.794   2.544   0.825
 2077TIP3   OH2 6173   7.826   1.505   5.072
 2077TIP3    H1 6174   7.818   1.417   5.037
 2077TIP3    H2 6175   7.867   1.555   5.001
 2078TIP3   OH2 6176   5.065   2.124   4.933
 2078TIP3    H1 6177   5.103   2.043   4.899
 2078TIP3    H2 6178   5.126   2.154   5.000
 2079TIP3   OH2 6179   4.856   6.683   1.441
 2079TIP3    H1 6180   4.805   6.754   1.403
 2079TIP3    H2 6181   4.927   6.668   1.379
 2080TIP3   OH2 6182   5.158   2.970   6.566
 2080TIP3    H1 6183   5.178   2.975   6.659
 2080TIP3    H2 6184   5.095   2.899   6.559
 2081TIP3   OH2 6185   3.662   6.151   4.310
 2081TIP3    H1 6186   3.728   6.105   4.362
 2081TIP3    H2 6187   3.590   6.089   4.303
 2082TIP3   OH2 6188   7.573   4.193   0.072
 2082TIP3    H1 6189   7.514   4.209   0.145
 2082TIP3    H2 6190   7.560   4.268   0.014
 2083TIP3   OH2 6191   6.841   2.991   2.280
 2083TIP3    H1 6192   6.787   2.933   2.335
 2083TIP3    H2 6193   6.791   3.072   2.275
 2084TIP3   OH2 6194   6.322   5.491   2.165
 2084TIP3    H1 6195   6.323   5.439   2.245
 2084TIP3    H2 6196   6.392   5.555   2.177
 2085TIP3   OH2 6197   6.802   3.887   4.345
 2085TIP3    H1 6198   6.798   3.951   4.415
 2085TIP3    H2 6199   6.857   3.817   4.379
 2086TIP3   OH2 6200   2.456   1.850   6.173
 2086TIP3    H1 6201   2.538   1.814   6.207
 2086TIP3    H2 6202   2.450   1.937   6.212
 2087TIP3   OH2 6203   3.124   5.022   5.790
 2087TIP3    H1 6204   3.169   4.953   5.840
 2087TIP3    H2 6205   3.048   4.979   5.753
 2088TIP3   OH2 6206   1.679   6.667   0.029
 2088TIP3    H1 6207   1.601   6.694  -0.019
 2088TIP3    H2 6208   1.700   6.580  -0.006
 2089TIP3   OH2 6209   5.757   6.898   4.169
 2089TIP3    H1 6210   5.829   6.895   4.231
 2089TIP3    H2 6211   5.797   6.928   4.087
 2090TIP3   OH2 6212   0.695   1.552   6.232
 2090TIP3    H1 6213   0.668   1.476   6.285
 2090TIP3    H2 6214   0.617   1.607   6.230
 2091TIP3   OH2 6215   6.540   1.490   5.867
 2091TIP3    H1 6216   6.477   1.428   5.904
 2091TIP3    H2 6217   6.523   1.488   5.772
 2092TIP3   OH2 6218   6.132   3.305   1.252
 2092TIP3    H1 6219   6.205   3.311   1.191
 2092TIP3    H2 6220   6.064   3.360   1.212
 2093TIP3   OH2 6221   3.896   5.615   1.731
 2093TIP3    H1 6222   3.929   5.681   1.670
 2093TIP3    H2 6223   3.953   5.623   1.807
 2094TIP3   OH2 6224   0.985   7.782   1.946
 2094TIP3    H1 6225   1.035   7.746   2.019
 2094TIP3    H2 6226   1.042   7.849   1.908
 2095TIP3   OH2 6227   0.653   2.590   0.381
 2095TIP3    H1 6228   0.660   2.531   0.305
 2095TIP3    H2 6229   0.737   2.635   0.383
 2096TIP3   OH2 6230   2.534   7.579   5.542
 2096TIP3    H1 6231   2.605   7.585   5.606
 2096TIP3    H2 6232   2.491   7.496   5.562
 2097TIP3   OH2 6233   0.236   6.657   0.073
 2097TIP3    H1 6234   0.259   6.689   0.161
 2097TIP3    H2 6235   0.320   6.630   0.035
 2098TIP3   OH2 6236   1.323   6.151   4.837
 2098TIP3    H1 6237   1.387   6.122   4.772
 2098TIP3    H2 6238   1.357   6.235   4.868
 2099TIP3   OH2 6239   6.693   5.828   5.558
 2099TIP3    H1 6240   6.610   5.859   5.520
 2099TIP3    H2 6241   6.760   5.881   5.515
 2100TIP3   OH2 6242   2.311   5.427   3.534
 2100TIP3    H1 6243   2.279   5.389   3.452
 2100TIP3    H2 6244   2.311   5.355   3.597
 2101TIP3   OH2 6245   0.411   2.152   4.373
 2101TIP3    H1 6246   0.480   2.216   4.390
 2101TIP3    H2 6247   0.335   2.205   4.351
 2102TIP3   OH2 6248   1.704   4.768   5.493
 2102TIP3    H1 6249   1.775   4.764   5.429
 2102TIP3    H2 6250   1.624   4.761   5.442
 2103TIP3   OH2 6251   2.035   3.218   3.142
 2103TIP3    H1 6252   2.014   3.231   3.049
 2103TIP3    H2 6253   2.103   3.282   3.160
 2104TIP3   OH2 6254   0.399   0.349   5.426
 2104TIP3    H1 6255   0.425   0.275   5.482
 2104TIP3    H2 6256   0.338   0.399   5.478
 2105TIP3   OH2 6257   8.146   5.827   1.898
 2105TIP3    H1 6258   8.144   5.744   1.850
 2105TIP3    H2 6259   8.084   5.815   1.969
 2106TIP3   OH2 6260   6.750   7.769   3.531
 2106TIP3    H1 6261   6.810   7.696   3.546
 2106TIP3    H2 6262   6.780   7.808   3.449
 2107TIP3   OH2 6263   8.055   7.575   6.091
 2107TIP3    H1 6264   8.139   7.591   6.047
 2107TIP3    H2 6265   7.994   7.636   6.050
 2108TIP3   OH2 6266   4.704   2.029   2.415
 2108TIP3    H1 6267   4.674   1.939   2.405
 2108TIP3    H2 6268   4.799   2.023   2.420
 2109TIP3   OH2 6269   1.062   3.327   6.471
 2109TIP3    H1 6270   1.077   3.234   6.482
 2109TIP3    H2 6271   1.148   3.367   6.482
 2110TIP3   OH2 6272   5.623   5.827   3.369
 2110TIP3    H1 6273   5.588   5.914   3.351
 2110TIP3    H2 6274   5.547   5.770   3.373
 2111TIP3   OH2 6275   1.433   3.941   0.944
 2111TIP3    H1 6276   1.351   3.941   0.894
 2111TIP3    H2 6277   1.425   3.867   1.003
 2112TIP3   OH2 6278   2.556   5.264   4.344
 2112TIP3    H1 6279   2.580   5.319   4.269
 2112TIP3    H2 6280   2.592   5.178   4.324
 2113TIP3   OH2 6281   4.462   4.885   1.733
 2113TIP3    H1 6282   4.386   4.908   1.679
 2113TIP3    H2 6283   4.535   4.880   1.670
 2114TIP3   OH2 6284   3.396   0.437   5.264
 2114TIP3    H1 6285   3.311   0.429   5.308
 2114TIP3    H2 6286   3.425   0.346   5.252
 2115TIP3   OH2 6287   7.090   1.148   5.032
 2115TIP3    H1 6288   7.093   1.197   5.114
 2115TIP3    H2 6289   7.176   1.163   4.992
 2116TIP3   OH2 6290   8.299   4.185   1.218
 2116TIP3    H1 6291   8.248   4.112   1.251
 2116TIP3    H2 6292   8.266   4.199   1.129
 2117TIP3   OH2 6293   2.307   1.118   1.624
 2117TIP3    H1 6294   2.376   1.173   1.588
 2117TIP3    H2 6295   2.322   1.032   1.585
 2118TIP3   OH2 6296   5.139   5.082   5.749
 2118TIP3    H1 6297   5.074   5.143   5.713
 2118TIP3    H2 6298   5.162   5.118   5.834
 2119TIP3   OH2 6299   7.064   7.544   4.292
 2119TIP3    H1 6300   7.070   7.617   4.353
 2119TIP3    H2 6301   7.016   7.579   4.217
 2120TIP3   OH2 6302   0.761   4.543   5.567
 2120TIP3    H1 6303   0.729   4.511   5.652
 2120TIP3    H2 6304   0.850   4.510   5.561
 2121TIP3   OH2 6305   4.503   0.220   5.563
 2121TIP3    H1 6306   4.446   0.247   5.634
 2121TIP3    H2 6307   4.590   0.214   5.602
 2122TIP3   OH2 6308   1.289   6.354   4.129
 2122TIP3    H1 6309   1.258   6.428   4.180
 2122TIP3    H2 6310   1.210   6.319   4.087
 2123TIP3   OH2 6311   3.465   2.096   2.034
 2123TIP3    H1 6312   3.431   2.040   1.964
 2123TIP3    H2 6313   3.477   2.037   2.108
 2124TIP3   OH2 6314   5.658   7.466   4.258
 2124TIP3    H1 6315   5.642   7.387   4.311
 2124TIP3    H2 6316   5.652   7.538   4.321
 2125TIP3   OH2 6317   6.054   1.577   0.339
 2125TIP3    H1 6318   6.022   1.586   0.249
 2125TIP3    H2 6319   6.042   1.485   0.361
 2126TIP3   OH2 6320   1.051   2.957   4.642
 2126TIP3    H1 6321   1.124   2.898   4.660
 2126TIP3    H2 6322   1.089   3.028   4.590
 2127TIP3   OH2 6323   7.067   6.286   1.384
 2127TIP3    H1 6324   7.028   6.362   1.340
 2127TIP3    H2 6325   7.154   6.278   1.344
 2128TIP3   OH2 6326   2.839   7.634   4.003
 2128TIP3    H1 6327   2.845   7.630   4.099
 2128TIP3    H2 6328   2.849   7.726   3.982
 2129TIP3   OH2 6329   5.055   3.218   3.698
 2129TIP3    H1 6330   5.087   3.192   3.612
 2129TIP3    H2 6331   4.979   3.274   3.680
 2130TIP3   OH2 6332   6.467   3.897   5.649
 2130TIP3    H1 6333   6.377   3.919   5.670
 2130TIP3    H2 6334   6.460   3.832   5.579
 2131TIP3   OH2 6335   0.120   6.471   5.933
 2131TIP3    H1 6336   0.183   6.402   5.910
 2131TIP3    H2 6337   0.169   6.530   5.991
 2132TIP3   OH2 6338   8.251   1.861   4.331
 2132TIP3    H1 6339   8.234   1.842   4.239
 2132TIP3    H2 6340   8.312   1.793   4.358
 2133TIP3   OH2 6341   7.888   3.816   1.100
 2133TIP3    H1 6342   7.815   3.782   1.153
 2133TIP3    H2 6343   7.884   3.911   1.114
 2134TIP3   OH2 6344   5.079   7.671   1.678
 2134TIP3    H1 6345   5.003   7.621   1.707
 2134TIP3    H2 6346   5.094   7.643   1.588
 2135TIP3   OH2 6347   2.069   0.521   6.418
 2135TIP3    H1 6348   2.094   0.429   6.408
 2135TIP3    H2 6349   2.100   0.544   6.506
 2136TIP3   OH2 6350   1.311   4.572   3.644
 2136TIP3    H1 6351   1.298   4.481   3.671
 2136TIP3    H2 6352   1.298   4.622   3.724
 2137TIP3   OH2 6353   8.294   3.789   0.794
 2137TIP3    H1 6354   8.332   3.803   0.880
 2137TIP3    H2 6355   8.199   3.788   0.809
 2138TIP3   OH2 6356   1.861   3.976   0.440
 2138TIP3    H1 6357   1.809   4.047   0.403
 2138TIP3    H2 6358   1.848   3.903   0.380
 2139TIP3   OH2 6359   4.983   0.183   6.665
 2139TIP3    H1 6360   4.924   0.181   6.741
 2139TIP3    H2 6361   5.016   0.273   6.664
 2140TIP3   OH2 6362   0.758   7.670   6.292
 2140TIP3    H1 6363   0.804   7.586   6.290
 2140TIP3    H2 6364   0.781   7.708   6.377
 2141TIP3   OH2 6365   0.435   4.456   2.761
 2141TIP3    H1 6366   0.365   4.514   2.731
 2141TIP3    H2 6367   0.398   4.412   2.838
 2142TIP3   OH2 6368   7.834   2.538   0.259
 2142TIP3    H1 6369   7.882   2.501   0.185
 2142TIP3    H2 6370   7.865   2.629   0.264
 2143TIP3   OH2 6371   3.000   4.529   4.106
 2143TIP3    H1 6372   2.969   4.539   4.016
 2143TIP3    H2 6373   3.082   4.579   4.109
 2144TIP3   OH2 6374   7.224   0.858   2.027
 2144TIP3    H1 6375   7.273   0.895   1.954
 2144TIP3    H2 6376   7.135   0.845   1.993
 2145TIP3   OH2 6377   5.122   0.425   6.694
 2145TIP3    H1 6378   5.200   0.454   6.648
 2145TIP3    H2 6379   5.132   0.459   6.783
 2146TIP3   OH2 6380   3.690   2.742   1.861
 2146TIP3    H1 6381   3.614   2.687   1.844
 2146TIP3    H2 6382   3.710   2.783   1.777
 2147TIP3   OH2 6383   6.801   5.379   0.325
 2147TIP3    H1 6384   6.757   5.294   0.326
 2147TIP3    H2 6385   6.891   5.361   0.352
 2148TIP3   OH2 6386   4.295   2.982   5.359
 2148TIP3    H1 6387   4.243   2.918   5.408
 2148TIP3    H2 6388   4.385   2.964   5.384
 2149TIP3   OH2 6389   2.157   1.658   2.298
 2149TIP3    H1 6390   2.082   1.604   2.271
 2149TIP3    H2 6391   2.169   1.635   2.390
 2150TIP3   OH2 6392   7.801   6.239   2.807
 2150TIP3    H1 6393   7.779   6.249   2.714
 2150TIP3    H2 6394   7.784   6.147   2.826
 2151TIP3   OH2 6395   3.138   3.889   4.676
 2151TIP3    H1 6396   3.142   3.984   4.679
 2151TIP3    H2 6397   3.110   3.864   4.765
 2152TIP3   OH2 6398   1.950   4.160   5.907
 2152TIP3    H1 6399   2.010   4.163   5.833
 2152TIP3    H2 6400   1.870   4.201   5.875
 2153TIP3   OH2 6401   4.748   1.624   6.364
 2153TIP3    H1 6402   4.697   1.574   6.300
 2153TIP3    H2 6403   4.700   1.707   6.374
 2154TIP3   OH2 6404   4.114   3.801   5.515
 2154TIP3    H1 6405   4.063   3.735   5.467
 2154TIP3    H2 6406   4.205   3.773   5.502
 2155TIP3   OH2 6407   5.785   1.174   3.673
 2155TIP3    H1 6408   5.761   1.083   3.689
 2155TIP3    H2 6409   5.708   1.224   3.701
 2156TIP3   OH2 6410   0.390   6.048   4.177
 2156TIP3    H1 6411   0.385   6.083   4.266
 2156TIP3    H2 6412   0.348   5.962   4.182
 2157TIP3   OH2 6413   3.762   5.519   6.190
 2157TIP3    H1 6414   3.800   5.605   6.173
 2157TIP3    H2 6415   3.836   5.458   6.184
 2158TIP3   OH2 6416   3.402   2.305   4.505
 2158TIP3    H1 6417   3.473   2.259   4.460
 2158TIP3    H2 6418   3.323   2.277   4.459
 2159TIP3   OH2 6419   5.421   4.102   1.712
 2159TIP3    H1 6420   5.437   4.122   1.620
 2159TIP3    H2 6421   5.342   4.153   1.734
 2160TIP3   OH2 6422   7.375   1.152   3.365
 2160TIP3    H1 6423   7.466   1.161   3.340
 2160TIP3    H2 6424   7.326   1.194   3.294
 2161TIP3   OH2 6425   0.526   5.865   5.568
 2161TIP3    H1 6426   0.455   5.890   5.508
 2161TIP3    H2 6427   0.544   5.774   5.546
 2162TIP3   OH2 6428   5.479   3.744   3.252
 2162TIP3    H1 6429   5.487   3.692   3.332
 2162TIP3    H2 6430   5.561   3.792   3.246
 2163TIP3   OH2 6431   3.477   2.242   4.090
 2163TIP3    H1 6432   3.480   2.290   4.008
 2163TIP3    H2 6433   3.433   2.301   4.151
 2164TIP3   OH2 6434   7.771   2.216   3.344
 2164TIP3    H1 6435   7.805   2.146   3.400
 2164TIP3    H2 6436   7.734   2.170   3.269
 2165TIP3   OH2 6437   6.745   3.284   2.559
 2165TIP3    H1 6438   6.718   3.373   2.580
 2165TIP3    H2 6439   6.837   3.293   2.534
 2166TIP3   OH2 6440   4.065   6.619   0.208
 2166TIP3    H1 6441   4.047   6.527   0.222
 2166TIP3    H2 6442   4.101   6.650   0.291
 2167TIP3   OH2 6443   5.628   2.281   1.694
 2167TIP3    H1 6444   5.681   2.337   1.637
 2167TIP3    H2 6445   5.554   2.335   1.720
 2168TIP3   OH2 6446   6.720   0.110   5.877
 2168TIP3    H1 6447   6.667   0.177   5.919
 2168TIP3    H2 6448   6.808   0.122   5.912
 2169TIP3   OH2 6449   1.120   5.061   3.346
 2169TIP3    H1 6450   1.044   5.004   3.331
 2169TIP3    H2 6451   1.180   5.008   3.398
 2170TIP3   OH2 6452   4.394   1.136   4.319
 2170TIP3    H1 6453   4.417   1.220   4.278
 2170TIP3    H2 6454   4.471   1.081   4.305
 2171TIP3   OH2 6455   2.566   6.406   2.482
 2171TIP3    H1 6456   2.489   6.392   2.427
 2171TIP3    H2 6457   2.639   6.406   2.420
 2172TIP3   OH2 6458   7.715   5.136   1.316
 2172TIP3    H1 6459   7.696   5.229   1.327
 2172TIP3    H2 6460   7.808   5.133   1.295
 2173TIP3   OH2 6461   5.219   6.269   2.851
 2173TIP3    H1 6462   5.229   6.229   2.937
 2173TIP3    H2 6463   5.150   6.217   2.809
 2174TIP3   OH2 6464   2.616   4.443   5.067
 2174TIP3    H1 6465   2.532   4.432   5.112
 2174TIP3    H2 6466   2.630   4.537   5.064
 2175TIP3   OH2 6467   6.982   7.593   1.691
 2175TIP3    H1 6468   6.988   7.499   1.672
 2175TIP3    H2 6469   6.931   7.629   1.619
 2176TIP3   OH2 6470   0.981   4.063   6.201
 2176TIP3    H1 6471   1.070   4.069   6.167
 2176TIP3    H2 6472   0.938   4.000   6.143
 2177TIP3   OH2 6473   2.861   2.805   5.290
 2177TIP3    H1 6474   2.848   2.841   5.377
 2177TIP3    H2 6475   2.784   2.833   5.240
 2178TIP3   OH2 6476   5.286   7.028   1.894
 2178TIP3    H1 6477   5.283   6.995   1.804
 2178TIP3    H2 6478   5.266   7.121   1.886
 2179TIP3   OH2 6479   5.418   6.002   1.798
 2179TIP3    H1 6480   5.375   5.971   1.878
 2179TIP3    H2 6481   5.414   6.098   1.805
 2180TIP3   OH2 6482   5.443   2.316   0.850
 2180TIP3    H1 6483   5.502   2.377   0.893
 2180TIP3    H2 6484   5.491   2.287   0.772
 2181TIP3   OH2 6485   3.542   6.747   5.433
 2181TIP3    H1 6486   3.490   6.754   5.353
 2181TIP3    H2 6487   3.548   6.653   5.450
 2182TIP3   OH2 6488   5.547   7.023   2.704
 2182TIP3    H1 6489   5.470   7.021   2.762
 2182TIP3    H2 6490   5.513   7.054   2.620
 2183TIP3   OH2 6491   3.297   5.198   4.368
 2183TIP3    H1 6492   3.263   5.270   4.421
 2183TIP3    H2 6493   3.269   5.218   4.279
 2184TIP3   OH2 6494   7.042   3.851   5.659
 2184TIP3    H1 6495   6.958   3.895   5.669
 2184TIP3    H2 6496   7.076   3.844   5.749
 2185TIP3   OH2 6497   3.205   6.626   4.226
 2185TIP3    H1 6498   3.170   6.559   4.284
 2185TIP3    H2 6499   3.183   6.596   4.138
 2186TIP3   OH2 6500   6.842   5.810   3.094
 2186TIP3    H1 6501   6.905   5.750   3.133
 2186TIP3    H2 6502   6.887   5.845   3.016
 2187TIP3   OH2 6503   8.220   2.639   4.932
 2187TIP3    H1 6504   8.145   2.628   4.873
 2187TIP3    H2 6505   8.185   2.619   5.019
 2188TIP3   OH2 6506   6.129   6.194   4.578
 2188TIP3    H1 6507   6.156   6.276   4.537
 2188TIP3    H2 6508   6.198   6.132   4.556
 2189TIP3   OH2 6509   2.421   2.971   3.346
 2189TIP3    H1 6510   2.386   2.886   3.372
 2189TIP3    H2 6511   2.399   2.980   3.253
 2190TIP3   OH2 6512   2.777   3.728   4.046
 2190TIP3    H1 6513   2.754   3.746   3.955
 2190TIP3    H2 6514   2.799   3.635   4.047
 2191TIP3   OH2 6515   2.236   0.415   5.703
 2191TIP3    H1 6516   2.251   0.489   5.644
 2191TIP3    H2 6517   2.250   0.451   5.791
 2192TIP3   OH2 6518   4.635   6.921   5.817
 2192TIP3    H1 6519   4.629   6.837   5.864
 2192TIP3    H2 6520   4.725   6.922   5.784
 2193TIP3   OH2 6521   3.514   3.498   6.450
 2193TIP3    H1 6522   3.433   3.547   6.468
 2193TIP3    H2 6523   3.541   3.526   6.363
 2194TIP3   OH2 6524   3.924   7.159   4.014
 2194TIP3    H1 6525   3.944   7.066   4.003
 2194TIP3    H2 6526   3.846   7.174   3.960
 2195TIP3   OH2 6527   4.186   1.576   2.036
 2195TIP3    H1 6528   4.171   1.610   1.948
 2195TIP3    H2 6529   4.220   1.488   2.023
 2196TIP3   OH2 6530   0.056   7.653   1.282
 2196TIP3    H1 6531   0.141   7.664   1.325
 2196TIP3    H2 6532  -0.006   7.696   1.341
 2197TIP3   OH2 6533   2.790   0.135   4.931
 2197TIP3    H1 6534   2.847   0.114   5.005
 2197TIP3    H2 6535   2.849   0.138   4.856
 2198TIP3   OH2 6536   2.489   1.051   6.146
 2198TIP3    H1 6537   2.517   1.103   6.220
 2198TIP3    H2 6538   2.514   1.102   6.069
 2199TIP3   OH2 6539   1.311   7.615   4.822
 2199TIP3    H1 6540   1.365   7.550   4.868
 2199TIP3    H2 6541   1.364   7.639   4.746
 2200TIP3   OH2 6542   0.429   1.166   2.508
 2200TIP3    H1 6543   0.464   1.188   2.422
 2200TIP3    H2 6544   0.504   1.172   2.567
 2201TIP3   OH2 6545   4.209   7.704   2.041
 2201TIP3    H1 6546   4.133   7.728   1.986
 2201TIP3    H2 6547   4.262   7.784   2.043
 2202TIP3   OH2 6548   6.352   5.343   0.069
 2202TIP3    H1 6549   6.304   5.333  -0.013
 2202TIP3    H2 6550   6.301   5.406   0.120
 2203TIP3   OH2 6551   2.959   2.164   0.853
 2203TIP3    H1 6552   2.954   2.165   0.948
 2203TIP3    H2 6553   2.930   2.251   0.826
 2204TIP3   OH2 6554   6.189   6.837   6.438
 2204TIP3    H1 6555   6.169   6.927   6.464
 2204TIP3    H2 6556   6.104   6.799   6.416
 2205TIP3   OH2 6557   1.068   0.675   6.716
 2205TIP3    H1 6558   1.124   0.598   6.704
 2205TIP3    H2 6559   1.046   0.703   6.627
 2206TIP3   OH2 6560   5.266   3.937   0.540
 2206TIP3    H1 6561   5.218   4.014   0.511
 2206TIP3    H2 6562   5.293   3.894   0.458
 2207TIP3   OH2 6563   0.996   2.910   5.356
 2207TIP3    H1 6564   0.988   2.993   5.404
 2207TIP3    H2 6565   1.083   2.877   5.380
 2208TIP3   OH2 6566   5.926   5.996   2.621
 2208TIP3    H1 6567   5.948   5.944   2.544
 2208TIP3    H2 6568   6.010   6.021   2.659
 2209TIP3   OH2 6569   4.756   5.699   3.540
 2209TIP3    H1 6570   4.740   5.793   3.531
 2209TIP3    H2 6571   4.836   5.683   3.490
 2210TIP3   OH2 6572   4.265   5.193   1.725
 2210TIP3    H1 6573   4.265   5.211   1.631
 2210TIP3    H2 6574   4.218   5.110   1.734
 2211TIP3   OH2 6575   4.512   3.966   5.736
 2211TIP3    H1 6576   4.563   3.888   5.710
 2211TIP3    H2 6577   4.427   3.954   5.694
 2212TIP3   OH2 6578   7.064   5.406   1.962
 2212TIP3    H1 6579   6.986   5.383   2.014
 2212TIP3    H2 6580   7.109   5.472   2.015
 2213TIP3   OH2 6581   1.019   0.911   1.580
 2213TIP3    H1 6582   0.930   0.878   1.592
 2213TIP3    H2 6583   1.055   0.857   1.509
 2214TIP3   OH2 6584   5.093   0.380   2.326
 2214TIP3    H1 6585   5.189   0.377   2.327
 2214TIP3    H2 6586   5.067   0.353   2.414
 2215TIP3   OH2 6587   5.577   2.850   0.573
 2215TIP3    H1 6588   5.570   2.908   0.649
 2215TIP3    H2 6589   5.661   2.805   0.585
 2216TIP3   OH2 6590   1.530   4.811   5.777
 2216TIP3    H1 6591   1.481   4.795   5.696
 2216TIP3    H2 6592   1.466   4.852   5.835
 2217TIP3   OH2 6593   4.533   0.363   0.103
 2217TIP3    H1 6594   4.557   0.456   0.098
 2217TIP3    H2 6595   4.441   0.360   0.077
 2218TIP3   OH2 6596   5.455   1.877   4.227
 2218TIP3    H1 6597   5.380   1.826   4.256
 2218TIP3    H2 6598   5.491   1.916   4.307
 2219TIP3   OH2 6599   7.279   0.100   0.401
 2219TIP3    H1 6600   7.232   0.141   0.327
 2219TIP3    H2 6601   7.226   0.123   0.477
 2220TIP3   OH2 6602   6.761   7.544   0.372
 2220TIP3    H1 6603   6.713   7.492   0.307
 2220TIP3    H2 6604   6.715   7.627   0.376
 2221TIP3   OH2 6605   2.276   3.807   4.977
 2221TIP3    H1 6606   2.350   3.844   5.024
 2221TIP3    H2 6607   2.218   3.881   4.962
 2222TIP3   OH2 6608   0.193   4.769   4.074
 2222TIP3    H1 6609   0.252   4.696   4.094
 2222TIP3    H2 6610   0.250   4.844   4.063
 2223TIP3   OH2 6611   4.140   5.544   0.197
 2223TIP3    H1 6612   4.125   5.466   0.251
 2223TIP3    H2 6613   4.212   5.520   0.139
 2224TIP3   OH2 6614   4.735   2.021   6.189
 2224TIP3    H1 6615   4.700   2.108   6.171
 2224TIP3    H2 6616   4.701   1.966   6.119
 2225TIP3   OH2 6617   5.435   6.277   0.136
 2225TIP3    H1 6618   5.518   6.305   0.173
 2225TIP3    H2 6619   5.459   6.216   0.066
 2226TIP3   OH2 6620   4.500   2.078   6.443
 2226TIP3    H1 6621   4.463   1.992   6.423
 2226TIP3    H2 6622   4.595   2.064   6.443
 2227TIP3   OH2 6623   5.873   1.714   3.779
 2227TIP3    H1 6624   5.886   1.773   3.852
 2227TIP3    H2 6625   5.946   1.652   3.784
 2228TIP3   OH2 6626   6.300   4.028   4.734
 2228TIP3    H1 6627   6.252   4.111   4.736
 2228TIP3    H2 6628   6.304   4.006   4.641
 2229TIP3   OH2 6629   5.877   2.071   3.628
 2229TIP3    H1 6630   5.963   2.052   3.665
 2229TIP3    H2 6631   5.890   2.061   3.533
 2230TIP3   OH2 6632   5.025   0.414   2.827
 2230TIP3    H1 6633   4.976   0.346   2.781
 2230TIP3    H2 6634   5.103   0.428   2.773
 2231TIP3   OH2 6635   7.305   4.424   6.143
 2231TIP3    H1 6636   7.214   4.398   6.152
 2231TIP3    H2 6637   7.334   4.380   6.063
 2232TIP3   OH2 6638   5.046   1.183   4.303
 2232TIP3    H1 6639   5.127   1.171   4.353
 2232TIP3    H2 6640   4.976   1.161   4.366
 2233TIP3   OH2 6641   5.011   3.617   2.357
 2233TIP3    H1 6642   5.072   3.648   2.291
 2233TIP3    H2 6643   4.970   3.696   2.391
 2234TIP3   OH2 6644   5.497   3.548   3.423
 2234TIP3    H1 6645   5.504   3.518   3.513
 2234TIP3    H2 6646   5.476   3.469   3.373
 2235TIP3   OH2 6647   5.544   7.434   1.465
 2235TIP3    H1 6648   5.608   7.488   1.418
 2235TIP3    H2 6649   5.472   7.422   1.403
 2236TIP3   OH2 6650   7.018   4.193   0.486
 2236TIP3    H1 6651   7.009   4.282   0.451
 2236TIP3    H2 6652   6.943   4.183   0.544
 2237TIP3   OH2 6653   7.540   6.670   3.198
 2237TIP3    H1 6654   7.454   6.645   3.231
 2237TIP3    H2 6655   7.534   6.657   3.104
 2238TIP3   OH2 6656   6.816   6.063   3.969
 2238TIP3    H1 6657   6.780   6.141   3.925
 2238TIP3    H2 6658   6.829   6.091   4.060
 2239TIP3   OH2 6659   0.613   7.097   3.083
 2239TIP3    H1 6660   0.564   7.106   3.165
 2239TIP3    H2 6661   0.692   7.049   3.107
 2240TIP3   OH2 6662   4.330   4.966   5.142
 2240TIP3    H1 6663   4.284   5.035   5.189
 2240TIP3    H2 6664   4.330   4.994   5.050
 2241TIP3   OH2 6665   6.186   1.695   5.700
 2241TIP3    H1 6666   6.264   1.680   5.754
 2241TIP3    H2 6667   6.155   1.607   5.677
 2242TIP3   OH2 6668   1.352   5.810   3.694
 2242TIP3    H1 6669   1.349   5.723   3.735
 2242TIP3    H2 6670   1.260   5.835   3.684
 2243TIP3   OH2 6671   7.047   0.771   1.739
 2243TIP3    H1 6672   7.120   0.725   1.780
 2243TIP3    H2 6673   7.058   0.755   1.646
 2244TIP3   OH2 6674   3.536   3.953   3.953
 2244TIP3    H1 6675   3.446   3.971   3.928
 2244TIP3    H2 6676   3.537   3.957   4.048
 2245TIP3   OH2 6677   1.946   5.934   6.063
 2245TIP3    H1 6678   1.900   5.857   6.028
 2245TIP3    H2 6679   1.976   5.982   5.986
 2246TIP3   OH2 6680   3.649   6.790   2.465
 2246TIP3    H1 6681   3.634   6.719   2.402
 2246TIP3    H2 6682   3.605   6.760   2.545
 2247TIP3   OH2 6683   2.265   1.970   6.691
 2247TIP3    H1 6684   2.298   2.023   6.763
 2247TIP3    H2 6685   2.249   2.033   6.621
 2248TIP3   OH2 6686   0.122   6.332   4.179
 2248TIP3    H1 6687   0.184   6.272   4.138
 2248TIP3    H2 6688   0.155   6.419   4.158
 2249TIP3   OH2 6689   6.574   2.088   3.072
 2249TIP3    H1 6690   6.629   2.150   3.024
 2249TIP3    H2 6691   6.625   2.067   3.151
 2250TIP3   OH2 6692   3.597   0.953   0.024
 2250TIP3    H1 6693   3.634   0.911   0.102
 2250TIP3    H2 6694   3.504   0.961   0.043
 2251TIP3   OH2 6695   4.861   5.905   5.957
 2251TIP3    H1 6696   4.853   5.834   6.020
 2251TIP3    H2 6697   4.778   5.952   5.963
 2252TIP3   OH2 6698   3.503   2.002   3.952
 2252TIP3    H1 6699   3.596   1.980   3.947
 2252TIP3    H2 6700   3.499   2.079   4.007
 2253TIP3   OH2 6701   2.224   7.538   6.124
 2253TIP3    H1 6702   2.200   7.628   6.146
 2253TIP3    H2 6703   2.150   7.486   6.154
 2254TIP3   OH2 6704   2.589   3.744   6.348
 2254TIP3    H1 6705   2.625   3.793   6.422
 2254TIP3    H2 6706   2.619   3.793   6.271
 2255TIP3   OH2 6707   4.931   4.631   6.102
 2255TIP3    H1 6708   4.952   4.646   6.194
 2255TIP3    H2 6709   4.954   4.712   6.058
 2256TIP3   OH2 6710   2.762   3.193   5.839
 2256TIP3    H1 6711   2.830   3.243   5.793
 2256TIP3    H2 6712   2.743   3.120   5.780
 2257TIP3   OH2 6713   5.973   1.461   1.180
 2257TIP3    H1 6714   5.931   1.409   1.248
 2257TIP3    H2 6715   5.901   1.485   1.121
 2258TIP3   OH2 6716   7.543   0.717   1.033
 2258TIP3    H1 6717   7.537   0.764   1.116
 2258TIP3    H2 6718   7.500   0.775   0.970
 2259TIP3   OH2 6719   0.567   1.860   5.249
 2259TIP3    H1 6720   0.634   1.915   5.209
 2259TIP3    H2 6721   0.578   1.873   5.343
 2260TIP3   OH2 6722   6.375   1.035   0.487
 2260TIP3    H1 6723   6.352   1.079   0.568
 2260TIP3    H2 6724   6.291   1.006   0.451
 2261TIP3   OH2 6725   3.254   1.234   5.507
 2261TIP3    H1 6726   3.165   1.254   5.538
 2261TIP3    H2 6727   3.241   1.183   5.427
 2262TIP3   OH2 6728   0.750   4.628   0.590
 2262TIP3    H1 6729   0.683   4.612   0.524
 2262TIP3    H2 6730   0.785   4.541   0.611
 2263TIP3   OH2 6731   6.818   1.268   5.479
 2263TIP3    H1 6732   6.723   1.274   5.483
 2263TIP3    H2 6733   6.836   1.176   5.460
 2264TIP3   OH2 6734   5.922   1.486   2.608
 2264TIP3    H1 6735   5.896   1.534   2.687
 2264TIP3    H2 6736   5.888   1.398   2.622
 2265TIP3   OH2 6737   7.792   3.133   4.919
 2265TIP3    H1 6738   7.831   3.091   4.842
 2265TIP3    H2 6739   7.736   3.202   4.883
 2266TIP3   OH2 6740   7.441   7.463   4.113
 2266TIP3    H1 6741   7.455   7.441   4.021
 2266TIP3    H2 6742   7.518   7.428   4.158
 2267TIP3   OH2 6743   1.286   0.740  -0.011
 2267TIP3    H1 6744   1.228   0.794  -0.064
 2267TIP3    H2 6745   1.332   0.802   0.046
 2268TIP3   OH2 6746   1.444   5.425   4.498
 2268TIP3    H1 6747   1.484   5.490   4.557
 2268TIP3    H2 6748   1.414   5.477   4.423
 2269TIP3   OH2 6749   4.720   2.409   3.275
 2269TIP3    H1 6750   4.772   2.489   3.276
 2269TIP3    H2 6751   4.635   2.435   3.311
 2270TIP3   OH2 6752   5.924   3.896   4.794
 2270TIP3    H1 6753   5.978   3.942   4.731
 2270TIP3    H2 6754   5.979   3.886   4.872
 2271TIP3   OH2 6755   7.251   3.222   4.460
 2271TIP3    H1 6756   7.313   3.150   4.472
 2271TIP3    H2 6757   7.169   3.179   4.436
 2272TIP3   OH2 6758   6.528   5.138   0.018
 2272TIP3    H1 6759   6.454   5.199   0.025
 2272TIP3    H2 6760   6.604   5.194   0.003
 2273TIP3   OH2 6761   8.129   6.035   6.551
 2273TIP3    H1 6762   8.085   6.033   6.466
 2273TIP3    H2 6763   8.222   6.027   6.531
 2274TIP3   OH2 6764   8.182   7.212   4.535
 2274TIP3    H1 6765   8.158   7.249   4.620
 2274TIP3    H2 6766   8.223   7.128   4.556
 2275TIP3   OH2 6767   3.794   4.142   4.485
 2275TIP3    H1 6768   3.866   4.200   4.511
 2275TIP3    H2 6769   3.795   4.144   4.390
 2276TIP3   OH2 6770   7.901   6.109   1.815
 2276TIP3    H1 6771   7.811   6.107   1.849
 2276TIP3    H2 6772   7.917   6.020   1.784
 2277TIP3   OH2 6773   7.692   0.040   5.660
 2277TIP3    H1 6774   7.606   0.015   5.695
 2277TIP3    H2 6775   7.723  -0.038   5.614
 2278TIP3   OH2 6776   0.055   0.897   0.283
 2278TIP3    H1 6777   0.045   0.837   0.356
 2278TIP3    H2 6778  -0.027   0.945   0.279
 2279TIP3   OH2 6779   4.907   1.401   3.424
 2279TIP3    H1 6780   4.818   1.430   3.445
 2279TIP3    H2 6781   4.903   1.305   3.430
 2280TIP3   OH2 6782   6.464   7.192   1.474
 2280TIP3    H1 6783   6.449   7.100   1.455
 2280TIP3    H2 6784   6.492   7.230   1.391
 2281TIP3   OH2 6785   1.357   1.346   0.508
 2281TIP3    H1 6786   1.447   1.316   0.516
 2281TIP3    H2 6787   1.322   1.343   0.597
 2282TIP3   OH2 6788   0.268   4.142   3.366
 2282TIP3    H1 6789   0.270   4.053   3.401
 2282TIP3    H2 6790   0.216   4.135   3.285
 2283TIP3   OH2 6791   2.758   2.501   1.376
 2283TIP3    H1 6792   2.812   2.437   1.422
 2283TIP3    H2 6793   2.669   2.467   1.382
 2284TIP3   OH2 6794   1.943   0.836   4.592
 2284TIP3    H1 6795   1.940   0.806   4.683
 2284TIP3    H2 6796   1.884   0.776   4.546
 2285TIP3   OH2 6797   4.671   3.572   5.310
 2285TIP3    H1 6798   4.596   3.569   5.251
 2285TIP3    H2 6799   4.639   3.531   5.391
 2286TIP3   OH2 6800   6.563   6.603   4.962
 2286TIP3    H1 6801   6.480   6.624   4.919
 2286TIP3    H2 6802   6.608   6.688   4.969
 2287TIP3   OH2 6803   7.805   1.347   0.883
 2287TIP3    H1 6804   7.898   1.328   0.895
 2287TIP3    H2 6805   7.804   1.419   0.820
 2288TIP3   OH2 6806   8.064   4.323   4.013
 2288TIP3    H1 6807   8.143   4.315   3.960
 2288TIP3    H2 6808   8.081   4.270   4.090
 2289TIP3   OH2 6809   5.236   2.631   6.281
 2289TIP3    H1 6810   5.207   2.567   6.347
 2289TIP3    H2 6811   5.185   2.610   6.203
 2290TIP3   OH2 6812   4.036   3.282   5.575
 2290TIP3    H1 6813   4.057   3.365   5.619
 2290TIP3    H2 6814   4.119   3.233   5.576
 2291TIP3   OH2 6815   4.396   3.104   2.660
 2291TIP3    H1 6816   4.317   3.073   2.616
 2291TIP3    H2 6817   4.408   3.193   2.627
 2292TIP3   OH2 6818   3.153   5.563   2.372
 2292TIP3    H1 6819   3.115   5.480   2.399
 2292TIP3    H2 6820   3.089   5.629   2.396
 2293TIP3   OH2 6821   6.517   4.617   2.352
 2293TIP3    H1 6822   6.535   4.616   2.258
 2293TIP3    H2 6823   6.425   4.591   2.359
 2294TIP3   OH2 6824   8.302   0.728   3.654
 2294TIP3    H1 6825   8.213   0.735   3.687
 2294TIP3    H2 6826   8.320   0.813   3.613
 2295TIP3   OH2 6827   1.725   3.199   2.446
 2295TIP3    H1 6828   1.735   3.143   2.369
 2295TIP3    H2 6829   1.788   3.270   2.433
 2296TIP3   OH2 6830   3.098   3.014   0.225
 2296TIP3    H1 6831   3.018   2.962   0.228
 2296TIP3    H2 6832   3.068   3.104   0.242
 2297TIP3   OH2 6833   4.750   2.198   1.067
 2297TIP3    H1 6834   4.667   2.234   1.037
 2297TIP3    H2 6835   4.809   2.273   1.072
 2298TIP3   OH2 6836   0.926   2.704   1.736
 2298TIP3    H1 6837   0.985   2.759   1.788
 2298TIP3    H2 6838   0.966   2.701   1.650
 2299TIP3   OH2 6839   3.589   2.656   2.518
 2299TIP3    H1 6840   3.674   2.652   2.474
 2299TIP3    H2 6841   3.541   2.724   2.471
 2300TIP3   OH2 6842   6.834   3.032   4.047
 2300TIP3    H1 6843   6.778   3.096   4.002
 2300TIP3    H2 6844   6.922   3.069   4.042
 2301TIP3   OH2 6845   8.281   3.103   0.592
 2301TIP3    H1 6846   8.216   3.034   0.601
 2301TIP3    H2 6847   8.358   3.059   0.557
 2302TIP3   OH2 6848   3.113   4.788   1.209
 2302TIP3    H1 6849   3.028   4.763   1.245
 2302TIP3    H2 6850   3.151   4.846   1.275
 2303TIP3   OH2 6851   4.344   2.579   4.923
 2303TIP3    H1 6852   4.437   2.599   4.939
 2303TIP3    H2 6853   4.298   2.620   4.996
 2304TIP3   OH2 6854   2.893   1.487   2.103
 2304TIP3    H1 6855   2.943   1.446   2.174
 2304TIP3    H2 6856   2.833   1.419   2.073
 2305TIP3   OH2 6857   4.613   4.202   1.538
 2305TIP3    H1 6858   4.559   4.257   1.481
 2305TIP3    H2 6859   4.683   4.170   1.480
 2306TIP3   OH2 6860   0.730   2.357   2.821
 2306TIP3    H1 6861   0.751   2.450   2.809
 2306TIP3    H2 6862   0.812   2.318   2.851
 2307TIP3   OH2 6863   6.981   7.460   3.773
 2307TIP3    H1 6864   6.936   7.382   3.805
 2307TIP3    H2 6865   7.037   7.487   3.845
 2308TIP3   OH2 6866   8.171   5.788   3.389
 2308TIP3    H1 6867   8.176   5.754   3.479
 2308TIP3    H2 6868   8.087   5.833   3.385
 2309TIP3   OH2 6869   2.743   3.971   4.535
 2309TIP3    H1 6870   2.814   4.034   4.543
 2309TIP3    H2 6871   2.759   3.928   4.451
 2310TIP3   OH2 6872   0.041   7.450   3.452
 2310TIP3    H1 6873   0.113   7.510   3.430
 2310TIP3    H2 6874   0.079   7.363   3.446
 2311TIP3   OH2 6875   2.321   0.629   1.425
 2311TIP3    H1 6876   2.312   0.703   1.365
 2311TIP3    H2 6877   2.285   0.661   1.508
 2312TIP3   OH2 6878   5.679   5.000   2.142
 2312TIP3    H1 6879   5.755   5.032   2.094
 2312TIP3    H2 6880   5.696   5.025   2.233
 2313TIP3   OH2 6881   0.328   1.609   5.325
 2313TIP3    H1 6882   0.358   1.519   5.315
 2313TIP3    H2 6883   0.376   1.642   5.401
 2314TIP3   OH2 6884   6.943   0.136   1.637
 2314TIP3    H1 6885   6.983   0.190   1.704
 2314TIP3    H2 6886   6.856   0.173   1.624
 2315TIP3   OH2 6887   0.161   1.227   3.520
 2315TIP3    H1 6888   0.068   1.229   3.543
 2315TIP3    H2 6889   0.201   1.177   3.591
 2316TIP3   OH2 6890   4.837   2.471   3.770
 2316TIP3    H1 6891   4.748   2.483   3.805
 2316TIP3    H2 6892   4.832   2.505   3.680
 2317TIP3   OH2 6893   6.912   0.404   3.932
 2317TIP3    H1 6894   6.892   0.495   3.911
 2317TIP3    H2 6895   6.885   0.394   4.023
 2318TIP3   OH2 6896   1.313   7.597   3.377
 2318TIP3    H1 6897   1.400   7.561   3.356
 2318TIP3    H2 6898   1.272   7.611   3.292
 2319TIP3   OH2 6899   4.367   4.496   4.516
 2319TIP3    H1 6900   4.396   4.469   4.603
 2319TIP3    H2 6901   4.445   4.531   4.474
 2320TIP3   OH2 6902   6.290   0.696   1.601
 2320TIP3    H1 6903   6.199   0.700   1.572
 2320TIP3    H2 6904   6.284   0.689   1.697
 2321TIP3   OH2 6905   2.338   0.135   0.928
 2321TIP3    H1 6906   2.308   0.146   1.019
 2321TIP3    H2 6907   2.403   0.205   0.916
 2322TIP3   OH2 6908   1.299   6.268   5.567
 2322TIP3    H1 6909   1.391   6.281   5.591
 2322TIP3    H2 6910   1.261   6.355   5.569
 2323TIP3   OH2 6911   4.191   4.318   4.352
 2323TIP3    H1 6912   4.247   4.395   4.364
 2323TIP3    H2 6913   4.253   4.245   4.344
 2324TIP3   OH2 6914   1.113   3.507   0.284
 2324TIP3    H1 6915   1.132   3.534   0.194
 2324TIP3    H2 6916   1.064   3.426   0.275
 2325TIP3   OH2 6917   1.204   0.970   5.916
 2325TIP3    H1 6918   1.221   0.992   5.824
 2325TIP3    H2 6919   1.165   1.049   5.953
 2326TIP3   OH2 6920   3.425   7.494   5.185
 2326TIP3    H1 6921   3.493   7.473   5.249
 2326TIP3    H2 6922   3.424   7.420   5.125
 2327TIP3   OH2 6923   7.680   4.331   3.736
 2327TIP3    H1 6924   7.634   4.413   3.757
 2327TIP3    H2 6925   7.635   4.299   3.658
 2328TIP3   OH2 6926   5.524   2.944   0.100
 2328TIP3    H1 6927   5.600   2.973   0.050
 2328TIP3    H2 6928   5.560   2.914   0.183
 2329TIP3   OH2 6929   3.393   5.330   6.024
 2329TIP3    H1 6930   3.430   5.291   6.104
 2329TIP3    H2 6931   3.299   5.329   6.038
 2330TIP3   OH2 6932   7.685   3.011   5.127
 2330TIP3    H1 6933   7.755   2.950   5.152
 2330TIP3    H2 6934   7.714   3.047   5.043
 2331TIP3   OH2 6935   5.091   6.064   6.023
 2331TIP3    H1 6936   5.028   6.117   6.071
 2331TIP3    H2 6937   5.044   5.984   5.999
 2332TIP3   OH2 6938   3.503   4.864   4.848
 2332TIP3    H1 6939   3.567   4.793   4.851
 2332TIP3    H2 6940   3.553   4.943   4.868
 2333TIP3   OH2 6941   5.465   4.873   1.646
 2333TIP3    H1 6942   5.553   4.856   1.611
 2333TIP3    H2 6943   5.457   4.968   1.644
 2334TIP3   OH2 6944   4.115   7.459   6.703
 2334TIP3    H1 6945   4.120   7.366   6.722
 2334TIP3    H2 6946   4.188   7.498   6.751
 2335TIP3   OH2 6947   1.193   6.902   1.216
 2335TIP3    H1 6948   1.225   6.947   1.294
 2335TIP3    H2 6949   1.176   6.972   1.153
 2336TIP3   OH2 6950   0.904   2.431   2.029
 2336TIP3    H1 6951   0.955   2.507   2.004
 2336TIP3    H2 6952   0.877   2.391   1.946
 2337TIP3   OH2 6953   7.230   7.387   5.682
 2337TIP3    H1 6954   7.156   7.394   5.742
 2337TIP3    H2 6955   7.299   7.346   5.734
 2338TIP3   OH2 6956   1.586   3.443   0.288
 2338TIP3    H1 6957   1.510   3.393   0.318
 2338TIP3    H2 6958   1.548   3.516   0.239
 2339TIP3   OH2 6959   4.390   5.054   2.636
 2339TIP3    H1 6960   4.438   5.125   2.678
 2339TIP3    H2 6961   4.298   5.079   2.645
 2340TIP3   OH2 6962   1.452   4.608   4.633
 2340TIP3    H1 6963   1.359   4.597   4.615
 2340TIP3    H2 6964   1.496   4.551   4.569
 2341TIP3   OH2 6965   3.030   3.250   0.316
 2341TIP3    H1 6966   3.045   3.344   0.327
 2341TIP3    H2 6967   2.938   3.238   0.340
 2342TIP3   OH2 6968   1.231   0.791   4.294
 2342TIP3    H1 6969   1.271   0.761   4.375
 2342TIP3    H2 6970   1.175   0.718   4.266
 2343TIP3   OH2 6971   1.265   3.044   4.127
 2343TIP3    H1 6972   1.234   3.135   4.135
 2343TIP3    H2 6973   1.359   3.052   4.115
 2344TIP3   OH2 6974   2.630   4.391   2.271
 2344TIP3    H1 6975   2.642   4.390   2.176
 2344TIP3    H2 6976   2.697   4.453   2.302
 2345TIP3   OH2 6977   3.895   1.496   2.068
 2345TIP3    H1 6978   3.989   1.476   2.063
 2345TIP3    H2 6979   3.860   1.433   2.131
 2346TIP3   OH2 6980   6.800   4.060   4.136
 2346TIP3    H1 6981   6.825   4.143   4.177
 2346TIP3    H2 6982   6.829   3.993   4.199
 2347TIP3   OH2 6983   1.460   6.454   1.397
 2347TIP3    H1 6984   1.461   6.360   1.417
 2347TIP3    H2 6985   1.387   6.465   1.336
 2348TIP3   OH2 6986   4.054   6.203   3.319
 2348TIP3    H1 6987   4.102   6.229   3.397
 2348TIP3    H2 6988   4.112   6.145   3.272
 2349TIP3   OH2 6989   7.489   6.079   0.502
 2349TIP3    H1 6990   7.476   5.986   0.484
 2349TIP3    H2 6991   7.477   6.087   0.596
 2350TIP3   OH2 6992   5.686   1.775   6.328
 2350TIP3    H1 6993   5.741   1.723   6.387
 2350TIP3    H2 6994   5.745   1.804   6.259
 2351TIP3   OH2 6995   0.963   1.284   2.273
 2351TIP3    H1 6996   0.917   1.368   2.262
 2351TIP3    H2 6997   1.043   1.306   2.321
 2352TIP3   OH2 6998   0.072   4.493   1.083
 2352TIP3    H1 6999   0.049   4.542   1.162
 2352TIP3    H2 7000  -0.011   4.482   1.037
 2353TIP3   OH2 7001   6.193   2.261   4.337
 2353TIP3    H1 7002   6.259   2.327   4.315
 2353TIP3    H2 7003   6.122   2.277   4.276
 2354TIP3   OH2 7004   2.839   3.508   5.028
 2354TIP3    H1 7005   2.811   3.577   4.968
 2354TIP3    H2 7006   2.925   3.536   5.058
 2355TIP3   OH2 7007   4.084   4.491   2.045
 2355TIP3    H1 7008   4.175   4.478   2.072
 2355TIP3    H2 7009   4.082   4.582   2.014
 2356TIP3   OH2 7010   3.419   1.553   5.635
 2356TIP3    H1 7011   3.449   1.643   5.621
 2356TIP3    H2 7012   3.325   1.562   5.651
 2357TIP3   OH2 7013   0.704   5.286   6.000
 2357TIP3    H1 7014   0.756   5.347   6.053
 2357TIP3    H2 7015   0.765   5.250   5.936
 2358TIP3   OH2 7016   7.786   2.379   4.949
 2358TIP3    H1 7017   7.873   2.355   4.982
 2358TIP3    H2 7018   7.771   2.320   4.875
 2359TIP3   OH2 7019   5.999   5.863   6.293
 2359TIP3    H1 7020   6.080   5.852   6.343
 2359TIP3    H2 7021   5.930   5.830   6.351
 2360TIP3   OH2 7022   2.662   7.126   4.904
 2360TIP3    H1 7023   2.640   7.051   4.848
 2360TIP3    H2 7024   2.737   7.167   4.860
 2361TIP3   OH2 7025   2.451   4.305   0.913
 2361TIP3    H1 7026   2.475   4.242   0.981
 2361TIP3    H2 7027   2.356   4.295   0.904
 2362TIP3   OH2 7028   0.245   4.243   1.358
 2362TIP3    H1 7029   0.158   4.247   1.318
 2362TIP3    H2 7030   0.228   4.240   1.452
 2363TIP3   OH2 7031   4.060   4.330   3.310
 2363TIP3    H1 7032   4.062   4.400   3.375
 2363TIP3    H2 7033   3.978   4.344   3.262
 2364TIP3   OH2 7034   6.635   6.485   1.747
 2364TIP3    H1 7035   6.679   6.570   1.757
 2364TIP3    H2 7036   6.688   6.439   1.682
 2365TIP3   OH2 7037   4.573   0.913   4.936
 2365TIP3    H1 7038   4.638   0.843   4.934
 2365TIP3    H2 7039   4.541   0.918   4.846
 2366TIP3   OH2 7040   0.512   5.216   5.498
 2366TIP3    H1 7041   0.490   5.194   5.408
 2366TIP3    H2 7042   0.551   5.137   5.534
 2367TIP3   OH2 7043   4.111   6.447   5.412
 2367TIP3    H1 7044   4.063   6.519   5.453
 2367TIP3    H2 7045   4.098   6.460   5.318
 2368TIP3   OH2 7046   2.455   2.466   1.966
 2368TIP3    H1 7047   2.506   2.506   2.036
 2368TIP3    H2 7048   2.437   2.377   1.997
 2369TIP3   OH2 7049   2.682   4.741   2.877
 2369TIP3    H1 7050   2.756   4.715   2.931
 2369TIP3    H2 7051   2.720   4.792   2.806
 2370TIP3   OH2 7052   5.082   5.615   5.916
 2370TIP3    H1 7053   5.060   5.698   5.873
 2370TIP3    H2 7054   5.149   5.638   5.980
 2371TIP3   OH2 7055   5.101   4.224   4.616
 2371TIP3    H1 7056   5.051   4.150   4.650
 2371TIP3    H2 7057   5.078   4.298   4.673
 2372TIP3   OH2 7058   3.159   6.422   6.329
 2372TIP3    H1 7059   3.151   6.337   6.373
 2372TIP3    H2 7060   3.074   6.463   6.341
 2373TIP3   OH2 7061   7.229   1.181   4.490
 2373TIP3    H1 7062   7.222   1.272   4.518
 2373TIP3    H2 7063   7.306   1.179   4.432
 2374TIP3   OH2 7064   1.284   1.764   5.420
 2374TIP3    H1 7065   1.336   1.775   5.500
 2374TIP3    H2 7066   1.341   1.797   5.350
 2375TIP3   OH2 7067   5.640   3.709   0.819
 2375TIP3    H1 7068   5.584   3.732   0.744
 2375TIP3    H2 7069   5.719   3.762   0.807
 2376TIP3   OH2 7070   2.196   4.437   2.804
 2376TIP3    H1 7071   2.275   4.491   2.810
 2376TIP3    H2 7072   2.228   4.352   2.773
 2377TIP3   OH2 7073   2.433   5.909   6.099
 2377TIP3    H1 7074   2.428   5.927   6.193
 2377TIP3    H2 7075   2.435   5.814   6.093
 2378TIP3   OH2 7076   1.322   6.916   0.519
 2378TIP3    H1 7077   1.381   6.899   0.593
 2378TIP3    H2 7078   1.362   6.871   0.445
 2379TIP3   OH2 7079   4.463   1.099   1.461
 2379TIP3    H1 7080   4.521   1.170   1.435
 2379TIP3    H2 7081   4.376   1.127   1.433
 2380TIP3   OH2 7082   6.359   7.482   4.936
 2380TIP3    H1 7083   6.352   7.468   5.030
 2380TIP3    H2 7084   6.403   7.567   4.928
 2381TIP3   OH2 7085   5.517   6.076   0.771
 2381TIP3    H1 7086   5.535   5.999   0.825
 2381TIP3    H2 7087   5.428   6.101   0.795
 2382TIP3   OH2 7088   4.238   4.728   4.191
 2382TIP3    H1 7089   4.162   4.728   4.133
 2382TIP3    H2 7090   4.212   4.784   4.264
 2383TIP3   OH2 7091   8.333   6.543   4.914
 2383TIP3    H1 7092   8.407   6.525   4.973
 2383TIP3    H2 7093   8.258   6.557   4.973
 2384TIP3   OH2 7094   1.963   3.435   0.883
 2384TIP3    H1 7095   2.035   3.452   0.945
 2384TIP3    H2 7096   1.885   3.465   0.929
 2385TIP3   OH2 7097   4.591   5.740   2.064
 2385TIP3    H1 7098   4.581   5.832   2.040
 2385TIP3    H2 7099   4.579   5.692   1.982
 2386TIP3   OH2 7100   3.113   3.964   5.595
 2386TIP3    H1 7101   3.151   4.020   5.527
 2386TIP3    H2 7102   3.115   4.019   5.674
 2387TIP3   OH2 7103   4.506   7.636   2.566
 2387TIP3    H1 7104   4.431   7.688   2.594
 2387TIP3    H2 7105   4.520   7.574   2.638
 2388TIP3   OH2 7106   1.023   2.441   3.153
 2388TIP3    H1 7107   1.085   2.369   3.166
 2388TIP3    H2 7108   1.039   2.500   3.227
 2389TIP3   OH2 7109   2.584   1.517   2.886
 2389TIP3    H1 7110   2.602   1.608   2.864
 2389TIP3    H2 7111   2.545   1.521   2.974
 2390TIP3   OH2 7112   6.202   3.305   1.987
 2390TIP3    H1 7113   6.132   3.355   1.946
 2390TIP3    H2 7114   6.260   3.371   2.024
 2391TIP3   OH2 7115   1.363   3.505   0.667
 2391TIP3    H1 7116   1.425   3.571   0.697
 2391TIP3    H2 7117   1.356   3.444   0.740
 2392TIP3   OH2 7118   2.656   5.614   5.918
 2392TIP3    H1 7119   2.695   5.530   5.895
 2392TIP3    H2 7120   2.567   5.609   5.884
 2393TIP3   OH2 7121   5.420   7.410   5.331
 2393TIP3    H1 7122   5.427   7.505   5.318
 2393TIP3    H2 7123   5.393   7.376   5.246
 2394TIP3   OH2 7124   5.617   1.051   4.982
 2394TIP3    H1 7125   5.525   1.065   4.957
 2394TIP3    H2 7126   5.613   0.998   5.061
 2395TIP3   OH2 7127   2.179   3.150   1.382
 2395TIP3    H1 7128   2.147   3.153   1.291
 2395TIP3    H2 7129   2.099   3.146   1.435
 2396TIP3   OH2 7130   6.135   2.795   3.939
 2396TIP3    H1 7131   6.208   2.735   3.930
 2396TIP3    H2 7132   6.115   2.823   3.850
 2397TIP3   OH2 7133   2.390   5.634   6.194
 2397TIP3    H1 7134   2.475   5.620   6.235
 2397TIP3    H2 7135   2.330   5.575   6.241
 2398TIP3   OH2 7136   0.447   2.949   6.080
 2398TIP3    H1 7137   0.382   2.879   6.075
 2398TIP3    H2 7138   0.431   2.990   6.165
 2399TIP3   OH2 7139   2.434   3.416   5.801
 2399TIP3    H1 7140   2.434   3.340   5.743
 2399TIP3    H2 7141   2.388   3.387   5.879
 2400TIP3   OH2 7142   1.324   2.601   5.828
 2400TIP3    H1 7143   1.400   2.644   5.787
 2400TIP3    H2 7144   1.337   2.614   5.922
 2401TIP3   OH2 7145   7.873   6.882   2.397
 2401TIP3    H1 7146   7.802   6.942   2.371
 2401TIP3    H2 7147   7.854   6.861   2.488
 2402TIP3   OH2 7148   7.717   2.178   1.720
 2402TIP3    H1 7149   7.797   2.146   1.762
 2402TIP3    H2 7150   7.748   2.237   1.651
 2403TIP3   OH2 7151   4.708   7.078   4.976
 2403TIP3    H1 7152   4.744   6.990   4.989
 2403TIP3    H2 7153   4.742   7.105   4.891
 2404TIP3   OH2 7154   3.340   3.458   5.473
 2404TIP3    H1 7155   3.378   3.422   5.393
 2404TIP3    H2 7156   3.367   3.549   5.474
 2405TIP3   OH2 7157   0.336   7.112   0.380
 2405TIP3    H1 7158   0.390   7.034   0.396
 2405TIP3    H2 7159   0.391   7.185   0.409
 2406TIP3   OH2 7160   7.366   0.432   1.296
 2406TIP3    H1 7161   7.389   0.432   1.203
 2406TIP3    H2 7162   7.330   0.520   1.311
 2407TIP3   OH2 7163   4.686   0.110   0.577
 2407TIP3    H1 7164   4.628   0.069   0.641
 2407TIP3    H2 7165   4.772   0.110   0.618
 2408TIP3   OH2 7166   0.283   2.825   5.313
 2408TIP3    H1 7167   0.360   2.872   5.345
 2408TIP3    H2 7168   0.215   2.893   5.306
 2409TIP3   OH2 7169   5.542   0.790   4.696
 2409TIP3    H1 7170   5.598   0.867   4.686
 2409TIP3    H2 7171   5.592   0.731   4.752
 2410TIP3   OH2 7172   6.434   7.216   4.925
 2410TIP3    H1 7173   6.403   7.307   4.919
 2410TIP3    H2 7174   6.525   7.220   4.897
 2411TIP3   OH2 7175   7.911   1.863   2.942
 2411TIP3    H1 7176   7.894   1.823   2.856
 2411TIP3    H2 7177   7.991   1.820   2.973
 2412TIP3   OH2 7178   2.003   3.137   6.328
 2412TIP3    H1 7179   2.009   3.221   6.374
 2412TIP3    H2 7180   1.933   3.150   6.264
 2413TIP3   OH2 7181   7.742   3.869   2.796
 2413TIP3    H1 7182   7.791   3.788   2.807
 2413TIP3    H2 7183   7.809   3.934   2.774
 2414TIP3   OH2 7184   5.937   3.608   5.960
 2414TIP3    H1 7185   5.947   3.562   5.876
 2414TIP3    H2 7186   5.957   3.699   5.939
 2415TIP3   OH2 7187   7.232   4.774   2.975
 2415TIP3    H1 7188   7.270   4.699   2.929
 2415TIP3    H2 7189   7.147   4.787   2.933
 2416TIP3   OH2 7190   0.545   2.419   4.455
 2416TIP3    H1 7191   0.506   2.478   4.391
 2416TIP3    H2 7192   0.639   2.437   4.449
 2417TIP3   OH2 7193   4.193   1.893   1.026
 2417TIP3    H1 7194   4.131   1.954   0.985
 2417TIP3    H2 7195   4.276   1.940   1.026
 2418TIP3   OH2 7196   5.685   5.998   1.680
 2418TIP3    H1 7197   5.611   6.000   1.740
 2418TIP3    H2 7198   5.677   6.078   1.629
 2419TIP3   OH2 7199   7.755   5.045   2.726
 2419TIP3    H1 7200   7.782   4.989   2.652
 2419TIP3    H2 7201   7.793   5.003   2.803
 2420TIP3   OH2 7202   6.992   0.513   2.900
 2420TIP3    H1 7203   6.905   0.506   2.861
 2420TIP3    H2 7204   6.992   0.448   2.971
 2421TIP3   OH2 7205   2.188   5.521   1.431
 2421TIP3    H1 7206   2.142   5.599   1.463
 2421TIP3    H2 7207   2.265   5.513   1.488
 2422TIP3   OH2 7208   0.400   3.215   5.924
 2422TIP3    H1 7209   0.421   3.143   5.984
 2422TIP3    H2 7210   0.439   3.292   5.965
 2423TIP3   OH2 7211   1.697   2.951   2.254
 2423TIP3    H1 7212   1.602   2.945   2.257
 2423TIP3    H2 7213   1.721   2.913   2.170
 2424TIP3   OH2 7214   3.361   0.962   1.939
 2424TIP3    H1 7215   3.357   1.015   1.859
 2424TIP3    H2 7216   3.422   0.891   1.917
 2425TIP3   OH2 7217   7.632   7.132   3.106
 2425TIP3    H1 7218   7.722   7.130   3.073
 2425TIP3    H2 7219   7.621   7.047   3.149
 2426TIP3   OH2 7220   1.524   5.157   1.764
 2426TIP3    H1 7221   1.555   5.174   1.675
 2426TIP3    H2 7222   1.583   5.089   1.798
 2427TIP3   OH2 7223   0.783   4.367   1.859
 2427TIP3    H1 7224   0.784   4.456   1.823
 2427TIP3    H2 7225   0.864   4.327   1.828
 2428TIP3   OH2 7226   2.882   0.307   3.265
 2428TIP3    H1 7227   2.796   0.307   3.222
 2428TIP3    H2 7228   2.891   0.396   3.298
 2429TIP3   OH2 7229   0.675   4.950   1.501
 2429TIP3    H1 7230   0.678   4.858   1.477
 2429TIP3    H2 7231   0.762   4.983   1.479
 2430TIP3   OH2 7232   4.756   0.338   5.386
 2430TIP3    H1 7233   4.709   0.261   5.418
 2430TIP3    H2 7234   4.749   0.402   5.457
 2431TIP3   OH2 7235   1.468   2.271   0.134
 2431TIP3    H1 7236   1.471   2.291   0.041
 2431TIP3    H2 7237   1.418   2.343   0.173
 2432TIP3   OH2 7238   5.064   7.582   3.999
 2432TIP3    H1 7239   5.052   7.491   4.027
 2432TIP3    H2 7240   4.999   7.631   4.050
 2433TIP3   OH2 7241   7.809   0.448   4.352
 2433TIP3    H1 7242   7.900   0.418   4.351
 2433TIP3    H2 7243   7.815   0.544   4.349
 2434TIP3   OH2 7244   0.306   6.462   4.517
 2434TIP3    H1 7245   0.388   6.446   4.469
 2434TIP3    H2 7246   0.282   6.552   4.492
 2435TIP3   OH2 7247   6.460   2.214   5.446
 2435TIP3    H1 7248   6.522   2.249   5.509
 2435TIP3    H2 7249   6.463   2.119   5.458
 2436TIP3   OH2 7250   5.248   6.977   2.297
 2436TIP3    H1 7251   5.163   7.020   2.284
 2436TIP3    H2 7252   5.260   6.976   2.392
 2437TIP3   OH2 7253   8.093   3.073   5.000
 2437TIP3    H1 7254   8.028   3.023   5.050
 2437TIP3    H2 7255   8.044   3.106   4.924
 2438TIP3   OH2 7256   7.006   1.861   1.427
 2438TIP3    H1 7257   6.935   1.835   1.485
 2438TIP3    H2 7258   7.017   1.955   1.442
 2439TIP3   OH2 7259   6.985   6.813   2.351
 2439TIP3    H1 7260   6.920   6.802   2.420
 2439TIP3    H2 7261   7.045   6.740   2.364
 2440TIP3   OH2 7262   5.000   0.624   6.352
 2440TIP3    H1 7263   4.988   0.669   6.269
 2440TIP3    H2 7264   5.085   0.654   6.384
 2441TIP3   OH2 7265   3.546   2.705   3.442
 2441TIP3    H1 7266   3.558   2.610   3.437
 2441TIP3    H2 7267   3.473   2.717   3.502
 2442TIP3   OH2 7268   3.860   5.382   4.170
 2442TIP3    H1 7269   3.848   5.383   4.075
 2442TIP3    H2 7270   3.952   5.405   4.182
 2443TIP3   OH2 7271   4.342   7.454   1.845
 2443TIP3    H1 7272   4.365   7.417   1.760
 2443TIP3    H2 7273   4.420   7.502   1.872
 2444TIP3   OH2 7274   3.267   7.798   5.602
 2444TIP3    H1 7275   3.309   7.713   5.606
 2444TIP3    H2 7276   3.297   7.837   5.520
 2445TIP3   OH2 7277   6.984   0.330   4.368
 2445TIP3    H1 7278   7.035   0.249   4.372
 2445TIP3    H2 7279   7.036   0.387   4.311
 2446TIP3   OH2 7280   2.246   4.922   2.857
 2446TIP3    H1 7281   2.167   4.883   2.894
 2446TIP3    H2 7282   2.213   4.975   2.784
 2447TIP3   OH2 7283   0.282   5.641   1.023
 2447TIP3    H1 7284   0.321   5.559   0.994
 2447TIP3    H2 7285   0.214   5.660   0.958
 2448TIP3   OH2 7286   6.188   6.788   2.052
 2448TIP3    H1 7287   6.160   6.724   1.986
 2448TIP3    H2 7288   6.268   6.751   2.088
 2449TIP3   OH2 7289   1.717   6.323   0.971
 2449TIP3    H1 7290   1.699   6.251   1.032
 2449TIP3    H2 7291   1.737   6.398   1.028
 2450TIP3   OH2 7292   4.486   4.207   5.908
 2450TIP3    H1 7293   4.511   4.130   5.857
 2450TIP3    H2 7294   4.404   4.182   5.951
 2451TIP3   OH2 7295   1.244   0.276   2.917
 2451TIP3    H1 7296   1.179   0.310   2.978
 2451TIP3    H2 7297   1.214   0.188   2.896
 2452TIP3   OH2 7298   3.214   4.794   1.829
 2452TIP3    H1 7299   3.191   4.829   1.916
 2452TIP3    H2 7300   3.206   4.870   1.771
 2453TIP3   OH2 7301   4.361   1.318   3.500
 2453TIP3    H1 7302   4.300   1.245   3.507
 2453TIP3    H2 7303   4.312   1.387   3.455
 2454TIP3   OH2 7304   6.490   2.792   5.741
 2454TIP3    H1 7305   6.417   2.802   5.680
 2454TIP3    H2 7306   6.565   2.770   5.685
 2455TIP3   OH2 7307   5.248   1.708   4.265
 2455TIP3    H1 7308   5.176   1.687   4.323
 2455TIP3    H2 7309   5.287   1.623   4.243
 2456TIP3   OH2 7310   1.022   5.803   6.110
 2456TIP3    H1 7311   1.069   5.752   6.175
 2456TIP3    H2 7312   1.088   5.827   6.045
 2457TIP3   OH2 7313   4.083   6.694   6.664
 2457TIP3    H1 7314   4.030   6.774   6.664
 2457TIP3    H2 7315   4.122   6.691   6.577
 2458TIP3   OH2 7316   3.474   6.464   4.181
 2458TIP3    H1 7317   3.443   6.425   4.100
 2458TIP3    H2 7318   3.399   6.513   4.215
 2459TIP3   OH2 7319   2.744   7.052   6.234
 2459TIP3    H1 7320   2.719   7.082   6.146
 2459TIP3    H2 7321   2.689   7.102   6.293
 2460TIP3   OH2 7322   2.613   7.367   2.324
 2460TIP3    H1 7323   2.616   7.380   2.229
 2460TIP3    H2 7324   2.553   7.294   2.337
 2461TIP3   OH2 7325   1.088   6.061   2.983
 2461TIP3    H1 7326   1.103   6.030   3.073
 2461TIP3    H2 7327   1.019   6.127   2.992
 2462TIP3   OH2 7328   1.895   2.218   6.333
 2462TIP3    H1 7329   1.891   2.139   6.280
 2462TIP3    H2 7330   1.877   2.189   6.422
 2463TIP3   OH2 7331   7.383   4.354   2.114
 2463TIP3    H1 7332   7.304   4.326   2.161
 2463TIP3    H2 7333   7.455   4.334   2.174
 2464TIP3   OH2 7334   6.212   5.114   1.527
 2464TIP3    H1 7335   6.252   5.057   1.593
 2464TIP3    H2 7336   6.171   5.184   1.578
 2465TIP3   OH2 7337   4.731   7.474   5.638
 2465TIP3    H1 7338   4.657   7.495   5.581
 2465TIP3    H2 7339   4.808   7.479   5.581
 2466TIP3   OH2 7340   1.921   2.843   5.157
 2466TIP3    H1 7341   1.922   2.872   5.066
 2466TIP3    H2 7342   2.004   2.797   5.168
 2467TIP3   OH2 7343   5.801   0.029   5.907
 2467TIP3    H1 7344   5.784   0.073   5.990
 2467TIP3    H2 7345   5.896   0.036   5.895
 2468TIP3   OH2 7346   0.780   4.866   0.470
 2468TIP3    H1 7347   0.865   4.900   0.442
 2468TIP3    H2 7348   0.801   4.792   0.527
 2469TIP3   OH2 7349   3.784   4.456   3.870
 2469TIP3    H1 7350   3.722   4.383   3.870
 2469TIP3    H2 7351   3.801   4.475   3.962
 2470TIP3   OH2 7352   3.946   1.632   5.763
 2470TIP3    H1 7353   4.016   1.694   5.744
 2470TIP3    H2 7354   3.984   1.546   5.745
 2471TIP3   OH2 7355   6.673   5.575   0.496
 2471TIP3    H1 7356   6.729   5.593   0.571
 2471TIP3    H2 7357   6.719   5.508   0.447
 2472TIP3   OH2 7358   0.185   4.139   2.744
 2472TIP3    H1 7359   0.234   4.059   2.724
 2472TIP3    H2 7360   0.243   4.189   2.801
 2473TIP3   OH2 7361   6.405   4.372   2.904
 2473TIP3    H1 7362   6.339   4.399   2.841
 2473TIP3    H2 7363   6.363   4.383   2.990
 2474TIP3   OH2 7364   5.967   2.561   6.760
 2474TIP3    H1 7365   6.059   2.571   6.738
 2474TIP3    H2 7366   5.957   2.468   6.780
 2475TIP3   OH2 7367   6.953   2.490   2.588
 2475TIP3    H1 7368   6.984   2.420   2.531
 2475TIP3    H2 7369   6.955   2.569   2.534
 2476TIP3   OH2 7370   5.032   1.313   5.610
 2476TIP3    H1 7371   5.105   1.255   5.632
 2476TIP3    H2 7372   5.040   1.327   5.516
 2477TIP3   OH2 7373   7.607   3.905   6.605
 2477TIP3    H1 7374   7.543   3.841   6.571
 2477TIP3    H2 7375   7.675   3.852   6.645
 2478TIP3   OH2 7376   0.084   0.107   2.303
 2478TIP3    H1 7377   0.016   0.174   2.305
 2478TIP3    H2 7378   0.077   0.062   2.387
 2479TIP3   OH2 7379   3.324   1.874   5.186
 2479TIP3    H1 7380   3.385   1.907   5.253
 2479TIP3    H2 7381   3.344   1.781   5.179
 2480TIP3   OH2 7382   5.600   3.181   1.110
 2480TIP3    H1 7383   5.684   3.161   1.151
 2480TIP3    H2 7384   5.558   3.096   1.099
 2481TIP3   OH2 7385   8.026   0.828   4.431
 2481TIP3    H1 7386   8.101   0.772   4.446
 2481TIP3    H2 7387   7.955   0.768   4.406
 2482TIP3   OH2 7388   6.678   0.560   5.751
 2482TIP3    H1 7389   6.703   0.607   5.671
 2482TIP3    H2 7390   6.613   0.497   5.721
 2483TIP3   OH2 7391   5.333   0.436   1.353
 2483TIP3    H1 7392   5.278   0.461   1.427
 2483TIP3    H2 7393   5.289   0.359   1.316
 2484TIP3   OH2 7394   4.089   2.395   6.129
 2484TIP3    H1 7395   4.115   2.303   6.129
 2484TIP3    H2 7396   4.131   2.433   6.206
 2485TIP3   OH2 7397   7.364   5.331   1.991
 2485TIP3    H1 7398   7.372   5.268   2.062
 2485TIP3    H2 7399   7.295   5.295   1.934
 2486TIP3   OH2 7400   2.148   3.559   4.201
 2486TIP3    H1 7401   2.177   3.468   4.196
 2486TIP3    H2 7402   2.091   3.570   4.125
 2487TIP3   OH2 7403   4.554   6.005   1.997
 2487TIP3    H1 7404   4.578   6.087   2.041
 2487TIP3    H2 7405   4.544   6.030   1.905
 2488TIP3   OH2 7406   2.469   5.129   6.001
 2488TIP3    H1 7407   2.434   5.082   6.076
 2488TIP3    H2 7408   2.485   5.218   6.033
 2489TIP3   OH2 7409   2.574   7.625   4.745
 2489TIP3    H1 7410   2.504   7.664   4.796
 2489TIP3    H2 7411   2.529   7.569   4.682
 2490TIP3   OH2 7412   1.724   1.267   0.259
 2490TIP3    H1 7413   1.671   1.313   0.324
 2490TIP3    H2 7414   1.745   1.333   0.193
 2491TIP3   OH2 7415   7.899   1.567   1.718
 2491TIP3    H1 7416   7.876   1.658   1.737
 2491TIP3    H2 7417   7.850   1.516   1.782
 2492TIP3   OH2 7418   2.519   4.045   1.962
 2492TIP3    H1 7419   2.536   3.955   1.935
 2492TIP3    H2 7420   2.605   4.078   1.988
 2493TIP3   OH2 7421   4.000   6.448   3.228
 2493TIP3    H1 7422   4.019   6.492   3.311
 2493TIP3    H2 7423   4.025   6.357   3.243
 2494TIP3   OH2 7424   4.103   2.252   0.395
 2494TIP3    H1 7425   4.158   2.174   0.396
 2494TIP3    H2 7426   4.159   2.320   0.357
 2495TIP3   OH2 7427   6.032   4.821   4.978
 2495TIP3    H1 7428   6.011   4.857   5.064
 2495TIP3    H2 7429   6.111   4.869   4.951
 2496TIP3   OH2 7430   7.278   1.264   1.550
 2496TIP3    H1 7431   7.359   1.292   1.593
 2496TIP3    H2 7432   7.258   1.334   1.487
 2497TIP3   OH2 7433   5.527   2.022   6.021
 2497TIP3    H1 7434   5.511   1.930   6.046
 2497TIP3    H2 7435   5.580   2.016   5.941
 2498TIP3   OH2 7436   7.014   6.526   1.759
 2498TIP3    H1 7437   6.998   6.549   1.667
 2498TIP3    H2 7438   7.108   6.508   1.763
 2499TIP3   OH2 7439   7.244   1.459   1.369
 2499TIP3    H1 7440   7.280   1.545   1.390
 2499TIP3    H2 7441   7.149   1.471   1.375
 2500TIP3   OH2 7442   0.600   2.538   6.093
 2500TIP3    H1 7443   0.544   2.584   6.031
 2500TIP3    H2 7444   0.681   2.522   6.046
 2501TIP3   OH2 7445   4.153   2.311   1.776
 2501TIP3    H1 7446   4.067   2.282   1.809
 2501TIP3    H2 7447   4.137   2.400   1.745
 2502TIP3   OH2 7448   7.320   7.182   6.075
 2502TIP3    H1 7449   7.235   7.142   6.058
 2502TIP3    H2 7450   7.307   7.236   6.153
 2503TIP3   OH2 7451   6.351   3.398   3.802
 2503TIP3    H1 7452   6.392   3.484   3.817
 2503TIP3    H2 7453   6.352   3.356   3.888
 2504TIP3   OH2 7454   7.763   5.773   0.502
 2504TIP3    H1 7455   7.670   5.757   0.490
 2504TIP3    H2 7456   7.796   5.790   0.414
 2505TIP3   OH2 7457   2.160   3.159   5.158
 2505TIP3    H1 7458   2.097   3.127   5.093
 2505TIP3    H2 7459   2.107   3.207   5.222
 2506TIP3   OH2 7460   3.087   3.720   2.941
 2506TIP3    H1 7461   3.071   3.629   2.916
 2506TIP3    H2 7462   3.086   3.720   3.037
 2507TIP3   OH2 7463   8.221   4.506   4.206
 2507TIP3    H1 7464   8.166   4.451   4.150
 2507TIP3    H2 7465   8.213   4.594   4.169
 2508TIP3   OH2 7466   0.994   6.065   1.292
 2508TIP3    H1 7467   0.998   6.153   1.254
 2508TIP3    H2 7468   0.920   6.069   1.352
 2509TIP3   OH2 7469   0.909   3.144   2.515
 2509TIP3    H1 7470   0.815   3.147   2.494
 2509TIP3    H2 7471   0.952   3.185   2.441
 2510TIP3   OH2 7472   6.860   7.724   1.446
 2510TIP3    H1 7473   6.949   7.746   1.420
 2510TIP3    H2 7474   6.838   7.787   1.515
 2511TIP3   OH2 7475   4.697   2.205   3.827
 2511TIP3    H1 7476   4.721   2.296   3.845
 2511TIP3    H2 7477   4.652   2.207   3.743
 2512TIP3   OH2 7478   5.271   5.959   2.814
 2512TIP3    H1 7479   5.284   5.994   2.726
 2512TIP3    H2 7480   5.187   5.994   2.842
 2513TIP3   OH2 7481   2.416   4.197   4.080
 2513TIP3    H1 7482   2.348   4.243   4.130
 2513TIP3    H2 7483   2.466   4.149   4.146
 2514TIP3   OH2 7484   4.864   1.867   5.658
 2514TIP3    H1 7485   4.786   1.866   5.602
 2514TIP3    H2 7486   4.935   1.896   5.600
 2515TIP3   OH2 7487   1.011   1.482   4.237
 2515TIP3    H1 7488   1.008   1.548   4.305
 2515TIP3    H2 7489   1.039   1.402   4.282
 2516TIP3   OH2 7490   8.191   1.870   1.187
 2516TIP3    H1 7491   8.175   1.889   1.280
 2516TIP3    H2 7492   8.269   1.814   1.187
 2517TIP3   OH2 7493   6.216   1.867   2.412
 2517TIP3    H1 7494   6.229   1.862   2.507
 2517TIP3    H2 7495   6.299   1.897   2.378
 2518TIP3   OH2 7496   3.462   2.452   6.188
 2518TIP3    H1 7497   3.465   2.455   6.092
 2518TIP3    H2 7498   3.369   2.464   6.209
 2519TIP3   OH2 7499   6.190   4.638   4.002
 2519TIP3    H1 7500   6.136   4.700   4.051
 2519TIP3    H2 7501   6.144   4.555   4.010
 2520TIP3   OH2 7502   6.089   5.920   4.101
 2520TIP3    H1 7503   6.060   5.945   4.189
 2520TIP3    H2 7504   6.010   5.892   4.056
 2521TIP3   OH2 7505   4.301   5.092   4.572
 2521TIP3    H1 7506   4.249   5.125   4.646
 2521TIP3    H2 7507   4.341   5.171   4.535
 2522TIP3   OH2 7508   6.238   0.858   6.206
 2522TIP3    H1 7509   6.180   0.789   6.174
 2522TIP3    H2 7510   6.312   0.857   6.145
 2523TIP3   OH2 7511   3.273   3.640   6.495
 2523TIP3    H1 7512   3.220   3.664   6.571
 2523TIP3    H2 7513   3.346   3.703   6.496
 2524TIP3   OH2 7514   0.414   5.183   6.232
 2524TIP3    H1 7515   0.425   5.094   6.267
 2524TIP3    H2 7516   0.387   5.169   6.141
 2525TIP3   OH2 7517   0.953   3.266   4.072
 2525TIP3    H1 7518   0.989   3.232   4.153
 2525TIP3    H2 7519   0.915   3.350   4.095
 2526TIP3   OH2 7520   2.749   2.679   3.871
 2526TIP3    H1 7521   2.801   2.637   3.803
 2526TIP3    H2 7522   2.666   2.701   3.827
 2527TIP3   OH2 7523   5.195   2.875   1.514
 2527TIP3    H1 7524   5.200   2.968   1.494
 2527TIP3    H2 7525   5.175   2.872   1.608
 2528TIP3   OH2 7526   8.068   6.013   5.528
 2528TIP3    H1 7527   8.087   6.106   5.546
 2528TIP3    H2 7528   8.025   6.014   5.443
 2529TIP3   OH2 7529   6.783   4.483   3.846
 2529TIP3    H1 7530   6.689   4.467   3.850
 2529TIP3    H2 7531   6.811   4.441   3.765
 2530TIP3   OH2 7532   3.515   0.704   4.301
 2530TIP3    H1 7533   3.583   0.639   4.287
 2530TIP3    H2 7534   3.459   0.666   4.368
 2531TIP3   OH2 7535   1.124   0.168   1.187
 2531TIP3    H1 7536   1.213   0.205   1.190
 2531TIP3    H2 7537   1.071   0.232   1.234
 2532TIP3   OH2 7538   1.674   2.639   2.770
 2532TIP3    H1 7539   1.683   2.656   2.864
 2532TIP3    H2 7540   1.726   2.561   2.755
 2533TIP3   OH2 7541   0.522   7.113   0.840
 2533TIP3    H1 7542   0.427   7.111   0.855
 2533TIP3    H2 7543   0.538   7.040   0.780
 2534TIP3   OH2 7544   5.450   2.145   0.356
 2534TIP3    H1 7545   5.492   2.209   0.299
 2534TIP3    H2 7546   5.366   2.184   0.378
 2535TIP3   OH2 7547   7.371   4.278   1.409
 2535TIP3    H1 7548   7.409   4.199   1.371
 2535TIP3    H2 7549   7.321   4.317   1.337
 2536TIP3   OH2 7550   3.968   0.886   4.347
 2536TIP3    H1 7551   4.054   0.917   4.320
 2536TIP3    H2 7552   3.925   0.964   4.383
 2537TIP3   OH2 7553   5.440   3.090   6.160
 2537TIP3    H1 7554   5.459   3.117   6.070
 2537TIP3    H2 7555   5.424   3.172   6.207
 2538TIP3   OH2 7556   0.250   0.750   0.135
 2538TIP3    H1 7557   0.187   0.801   0.188
 2538TIP3    H2 7558   0.327   0.743   0.191
 2539TIP3   OH2 7559   8.237   6.068   3.330
 2539TIP3    H1 7560   8.219   5.995   3.389
 2539TIP3    H2 7561   8.173   6.058   3.260
 2540TIP3   OH2 7562   1.209   1.444   4.868
 2540TIP3    H1 7563   1.251   1.392   4.799
 2540TIP3    H2 7564   1.117   1.450   4.841
 2541TIP3   OH2 7565   5.215   2.924   1.797
 2541TIP3    H1 7566   5.209   3.004   1.848
 2541TIP3    H2 7567   5.297   2.883   1.826
 2542TIP3   OH2 7568   5.298   5.975   1.370
 2542TIP3    H1 7569   5.389   5.964   1.396
 2542TIP3    H2 7570   5.301   6.036   1.297
 2543TIP3   OH2 7571   6.316   4.718   1.561
 2543TIP3    H1 7572   6.235   4.687   1.600
 2543TIP3    H2 7573   6.333   4.803   1.602
 2544TIP3   OH2 7574   6.051   1.654   0.596
 2544TIP3    H1 7575   6.114   1.715   0.636
 2544TIP3    H2 7576   6.078   1.650   0.504
 2545TIP3   OH2 7577   2.863   1.918   0.383
 2545TIP3    H1 7578   2.803   1.873   0.324
 2545TIP3    H2 7579   2.898   1.848   0.439
 2546TIP3   OH2 7580   2.696   1.702   1.821
 2546TIP3    H1 7581   2.787   1.688   1.846
 2546TIP3    H2 7582   2.650   1.711   1.905
 2547TIP3   OH2 7583   6.493   2.588   3.750
 2547TIP3    H1 7584   6.519   2.665   3.700
 2547TIP3    H2 7585   6.425   2.547   3.698
 2548TIP3   OH2 7586   7.492   4.896   4.859
 2548TIP3    H1 7587   7.428   4.953   4.901
 2548TIP3    H2 7588   7.461   4.888   4.769
 2549TIP3   OH2 7589   7.340   5.331   5.094
 2549TIP3    H1 7590   7.306   5.355   5.180
 2549TIP3    H2 7591   7.434   5.350   5.099
 2550TIP3   OH2 7592   2.106   3.897   3.870
 2550TIP3    H1 7593   2.086   3.987   3.845
 2550TIP3    H2 7594   2.167   3.905   3.943
 2551TIP3   OH2 7595   0.143   4.479   2.246
 2551TIP3    H1 7596   0.184   4.553   2.201
 2551TIP3    H2 7597   0.214   4.417   2.259
 2552TIP3   OH2 7598   6.863   4.899   2.620
 2552TIP3    H1 7599   6.833   4.981   2.580
 2552TIP3    H2 7600   6.827   4.830   2.563
 2553TIP3   OH2 7601   6.258   6.736   4.366
 2553TIP3    H1 7602   6.350   6.732   4.340
 2553TIP3    H2 7603   6.215   6.786   4.296
 2554TIP3   OH2 7604   0.740   3.543   1.935
 2554TIP3    H1 7605   0.676   3.475   1.957
 2554TIP3    H2 7606   0.689   3.610   1.890
 2555TIP3   OH2 7607   5.876   6.862   0.823
 2555TIP3    H1 7608   5.868   6.806   0.900
 2555TIP3    H2 7609   5.967   6.851   0.795
 2556TIP3   OH2 7610   0.980   4.348   3.973
 2556TIP3    H1 7611   0.931   4.381   4.048
 2556TIP3    H2 7612   0.956   4.406   3.901
 2557TIP3   OH2 7613   2.493   0.617   4.742
 2557TIP3    H1 7614   2.575   0.569   4.736
 2557TIP3    H2 7615   2.477   0.626   4.836
 2558TIP3   OH2 7616   0.624   2.876   1.206
 2558TIP3    H1 7617   0.548   2.877   1.148
 2558TIP3    H2 7618   0.587   2.880   1.294
 2559TIP3   OH2 7619   5.170   3.100   4.738
 2559TIP3    H1 7620   5.084   3.120   4.775
 2559TIP3    H2 7621   5.221   3.067   4.812
 2560TIP3   OH2 7622   3.591   0.615   3.484
 2560TIP3    H1 7623   3.513   0.634   3.536
 2560TIP3    H2 7624   3.629   0.700   3.464
 2561TIP3   OH2 7625   0.334   2.012   0.982
 2561TIP3    H1 7626   0.334   1.953   0.907
 2561TIP3    H2 7627   0.266   1.978   1.039
 2562TIP3   OH2 7628   7.882   5.603   3.021
 2562TIP3    H1 7629   7.807   5.652   2.989
 2562TIP3    H2 7630   7.921   5.564   2.942
 2563TIP3   OH2 7631   3.258   4.437   3.730
 2563TIP3    H1 7632   3.174   4.454   3.774
 2563TIP3    H2 7633   3.301   4.522   3.728
 2564TIP3   OH2 7634   5.419   7.761   1.006
 2564TIP3    H1 7635   5.396   7.707   0.930
 2564TIP3    H2 7636   5.338   7.807   1.028
 2565TIP3   OH2 7637   7.503   3.539   3.094
 2565TIP3    H1 7638   7.585   3.534   3.045
 2565TIP3    H2 7639   7.463   3.622   3.067
 2566TIP3   OH2 7640   6.824   1.962   6.091
 2566TIP3    H1 7641   6.883   1.984   6.163
 2566TIP3    H2 7642   6.843   1.870   6.071
 2567TIP3   OH2 7643   4.322   1.959   5.266
 2567TIP3    H1 7644   4.416   1.967   5.251
 2567TIP3    H2 7645   4.291   1.900   5.197
 2568TIP3   OH2 7646   2.636   2.230   3.209
 2568TIP3    H1 7647   2.650   2.192   3.296
 2568TIP3    H2 7648   2.725   2.242   3.174
 2569TIP3   OH2 7649   7.015   4.560   6.292
 2569TIP3    H1 7650   7.044   4.567   6.383
 2569TIP3    H2 7651   6.995   4.467   6.280
 2570TIP3   OH2 7652   5.077   5.722   4.638
 2570TIP3    H1 7653   5.088   5.628   4.646
 2570TIP3    H2 7654   5.072   5.754   4.728
 2571TIP3   OH2 7655   4.475   0.829   0.127
 2571TIP3    H1 7656   4.416   0.773   0.177
 2571TIP3    H2 7657   4.417   0.882   0.073
 2572TIP3   OH2 7658   3.547   3.934   5.264
 2572TIP3    H1 7659   3.636   3.936   5.228
 2572TIP3    H2 7660   3.552   3.987   5.344
 2573TIP3   OH2 7661   2.017   6.856   0.334
 2573TIP3    H1 7662   2.102   6.898   0.336
 2573TIP3    H2 7663   1.962   6.915   0.282
 2574TIP3   OH2 7664   2.653   0.288   1.209
 2574TIP3    H1 7665   2.658   0.351   1.137
 2574TIP3    H2 7666   2.582   0.321   1.265
 2575TIP3   OH2 7667   0.698   7.067   2.248
 2575TIP3    H1 7668   0.727   7.097   2.162
 2575TIP3    H2 7669   0.619   7.016   2.230
 2576TIP3   OH2 7670   1.489   7.198   2.164
 2576TIP3    H1 7671   1.484   7.240   2.078
 2576TIP3    H2 7672   1.579   7.168   2.170
 2577TIP3   OH2 7673   7.705   2.707   6.608
 2577TIP3    H1 7674   7.614   2.695   6.583
 2577TIP3    H2 7675   7.706   2.791   6.655
 2578TIP3   OH2 7676   2.113   6.334   4.074
 2578TIP3    H1 7677   2.174   6.280   4.125
 2578TIP3    H2 7678   2.068   6.271   4.017
 2579TIP3   OH2 7679   5.834   2.742   6.524
 2579TIP3    H1 7680   5.768   2.741   6.594
 2579TIP3    H2 7681   5.909   2.696   6.561
 2580TIP3   OH2 7682   6.004   6.248   1.374
 2580TIP3    H1 7683   5.975   6.282   1.459
 2580TIP3    H2 7684   5.978   6.315   1.311
 2581TIP3   OH2 7685   7.299   0.182   2.699
 2581TIP3    H1 7686   7.367   0.221   2.754
 2581TIP3    H2 7687   7.274   0.102   2.744
 2582TIP3   OH2 7688   7.078   2.295   4.377
 2582TIP3    H1 7689   7.018   2.347   4.429
 2582TIP3    H2 7690   7.078   2.208   4.417
 2583TIP3   OH2 7691   2.706   0.096   5.222
 2583TIP3    H1 7692   2.795   0.069   5.199
 2583TIP3    H2 7693   2.662   0.015   5.248
 2584TIP3   OH2 7694   7.538   2.288   0.347
 2584TIP3    H1 7695   7.587   2.206   0.350
 2584TIP3    H2 7696   7.572   2.339   0.420
 2585TIP3   OH2 7697   2.564   5.387   6.076
 2585TIP3    H1 7698   2.616   5.345   6.145
 2585TIP3    H2 7699   2.605   5.473   6.065
 2586TIP3   OH2 7700   3.190   6.341   3.418
 2586TIP3    H1 7701   3.246   6.263   3.409
 2586TIP3    H2 7702   3.126   6.317   3.484
 2587TIP3   OH2 7703   8.041   5.030   5.774
 2587TIP3    H1 7704   8.054   5.033   5.680
 2587TIP3    H2 7705   8.102   5.096   5.808
 2588TIP3   OH2 7706   2.632   5.480   4.181
 2588TIP3    H1 7707   2.699   5.547   4.168
 2588TIP3    H2 7708   2.611   5.450   4.092
 2589TIP3   OH2 7709   5.391   1.320  -0.023
 2589TIP3    H1 7710   5.455   1.337   0.046
 2589TIP3    H2 7711   5.403   1.392  -0.085
 2590TIP3   OH2 7712   5.037   3.429   1.010
 2590TIP3    H1 7713   5.005   3.339   1.005
 2590TIP3    H2 7714   5.091   3.439   0.932
 2591TIP3   OH2 7715   5.793   3.516   3.305
 2591TIP3    H1 7716   5.697   3.516   3.309
 2591TIP3    H2 7717   5.813   3.518   3.212
 2592TIP3   OH2 7718   4.529   7.741   4.698
 2592TIP3    H1 7719   4.439   7.759   4.724
 2592TIP3    H2 7720   4.522   7.710   4.607
 2593TIP3   OH2 7721   3.533   6.405   3.031
 2593TIP3    H1 7722   3.493   6.483   3.070
 2593TIP3    H2 7723   3.624   6.408   3.059
 2594TIP3   OH2 7724   2.134   6.052   0.728
 2594TIP3    H1 7725   2.098   6.089   0.647
 2594TIP3    H2 7726   2.185   6.123   0.766
 2595TIP3   OH2 7727   2.423   5.153   0.775
 2595TIP3    H1 7728   2.388   5.088   0.714
 2595TIP3    H2 7729   2.431   5.107   0.858
 2596TIP3   OH2 7730   4.610   1.124   5.106
 2596TIP3    H1 7731   4.615   1.042   5.056
 2596TIP3    H2 7732   4.623   1.097   5.197
 2597TIP3   OH2 7733   2.963   3.887   2.399
 2597TIP3    H1 7734   2.992   3.886   2.491
 2597TIP3    H2 7735   2.919   3.803   2.387
 2598TIP3   OH2 7736   3.524   2.698   5.799
 2598TIP3    H1 7737   3.512   2.793   5.809
 2598TIP3    H2 7738   3.443   2.669   5.756
 2599TIP3   OH2 7739   6.160   7.766   6.685
 2599TIP3    H1 7740   6.203   7.849   6.663
 2599TIP3    H2 7741   6.155   7.719   6.602
 2600TIP3   OH2 7742   1.630   7.029   1.235
 2600TIP3    H1 7743   1.710   6.980   1.217
 2600TIP3    H2 7744   1.560   6.964   1.225
 2601TIP3   OH2 7745   7.832   4.703   3.729
 2601TIP3    H1 7746   7.793   4.631   3.778
 2601TIP3    H2 7747   7.906   4.732   3.783
 2602TIP3   OH2 7748   6.216   2.971   1.146
 2602TIP3    H1 7749   6.273   3.000   1.075
 2602TIP3    H2 7750   6.270   2.978   1.225
 2603TIP3   OH2 7751   7.693   5.740   3.349
 2603TIP3    H1 7752   7.737   5.675   3.404
 2603TIP3    H2 7753   7.600   5.718   3.356
 2604TIP3   OH2 7754   7.033   3.215   4.014
 2604TIP3    H1 7755   6.996   3.265   3.941
 2604TIP3    H2 7756   7.038   3.278   4.086
 2605TIP3   OH2 7757   6.239   1.659   6.747
 2605TIP3    H1 7758   6.205   1.661   6.657
 2605TIP3    H2 7759   6.172   1.611   6.796
 2606TIP3   OH2 7760   5.072   2.121   1.770
 2606TIP3    H1 7761   5.063   2.027   1.754
 2606TIP3    H2 7762   4.987   2.147   1.806
 2607TIP3   OH2 7763   0.891   2.941   1.091
 2607TIP3    H1 7764   0.949   2.901   1.156
 2607TIP3    H2 7765   0.803   2.920   1.122
 2608TIP3   OH2 7766   3.576   5.773   2.667
 2608TIP3    H1 7767   3.501   5.735   2.622
 2608TIP3    H2 7768   3.538   5.833   2.730
 2609TIP3   OH2 7769   1.216   6.128   3.500
 2609TIP3    H1 7770   1.253   6.042   3.483
 2609TIP3    H2 7771   1.288   6.178   3.538
 2610TIP3   OH2 7772   7.750   5.094   5.754
 2610TIP3    H1 7773   7.771   5.085   5.661
 2610TIP3    H2 7774   7.835   5.098   5.797
 2611TIP3   OH2 7775   4.051   4.539   3.504
 2611TIP3    H1 7776   4.041   4.497   3.589
 2611TIP3    H2 7777   4.077   4.629   3.525
 2612TIP3   OH2 7778   6.642   6.348   6.519
 2612TIP3    H1 7779   6.643   6.439   6.549
 2612TIP3    H2 7780   6.713   6.344   6.454
 2613TIP3   OH2 7781   1.913   4.526   4.654
 2613TIP3    H1 7782   2.007   4.545   4.652
 2613TIP3    H2 7783   1.893   4.513   4.746
 2614TIP3   OH2 7784   0.941   5.895   4.985
 2614TIP3    H1 7785   0.921   5.813   5.031
 2614TIP3    H2 7786   1.032   5.915   5.009
 2615TIP3   OH2 7787   2.567   0.787   1.810
 2615TIP3    H1 7788   2.601   0.749   1.890
 2615TIP3    H2 7789   2.604   0.876   1.808
 2616TIP3   OH2 7790   7.229   4.768   4.828
 2616TIP3    H1 7791   7.293   4.715   4.781
 2616TIP3    H2 7792   7.188   4.821   4.760
 2617TIP3   OH2 7793   7.139   0.008   5.990
 2617TIP3    H1 7794   7.215   0.066   5.995
 2617TIP3    H2 7795   7.068   0.056   6.032
 2618TIP3   OH2 7796   4.080   5.366   3.046
 2618TIP3    H1 7797   4.152   5.429   3.054
 2618TIP3    H2 7798   4.063   5.359   2.952
 2619TIP3   OH2 7799   6.219   6.732   1.313
 2619TIP3    H1 7800   6.158   6.672   1.356
 2619TIP3    H2 7801   6.268   6.676   1.253
 2620TIP3   OH2 7802   1.526   7.419   6.514
 2620TIP3    H1 7803   1.588   7.464   6.456
 2620TIP3    H2 7804   1.486   7.489   6.565
 2621TIP3   OH2 7805   8.262   1.256   2.748
 2621TIP3    H1 7806   8.277   1.262   2.654
 2621TIP3    H2 7807   8.190   1.317   2.765
 2622TIP3   OH2 7808   4.503   5.197   6.643
 2622TIP3    H1 7809   4.579   5.229   6.595
 2622TIP3    H2 7810   4.524   5.213   6.735
 2623TIP3   OH2 7811   7.081   2.977   5.283
 2623TIP3    H1 7812   6.994   2.936   5.289
 2623TIP3    H2 7813   7.079   3.024   5.199
 2624TIP3   OH2 7814   2.763   6.395   5.585
 2624TIP3    H1 7815   2.828   6.376   5.653
 2624TIP3    H2 7816   2.711   6.315   5.579
 2625TIP3   OH2 7817   5.037   0.391   5.345
 2625TIP3    H1 7818   5.083   0.393   5.428
 2625TIP3    H2 7819   4.946   0.369   5.368
 2626TIP3   OH2 7820   8.267   7.153   2.663
 2626TIP3    H1 7821   8.319   7.232   2.679
 2626TIP3    H2 7822   8.179   7.175   2.696
 2627TIP3   OH2 7823   6.689   1.005   3.260
 2627TIP3    H1 7824   6.650   0.954   3.331
 2627TIP3    H2 7825   6.637   1.086   3.258
 2628TIP3   OH2 7826   4.821   2.421   1.508
 2628TIP3    H1 7827   4.771   2.374   1.575
 2628TIP3    H2 7828   4.783   2.391   1.425
 2629TIP3   OH2 7829   2.518   4.399   3.938
 2629TIP3    H1 7830   2.498   4.315   3.981
 2629TIP3    H2 7831   2.456   4.461   3.976
 2630TIP3   OH2 7832   1.314   3.061   6.197
 2630TIP3    H1 7833   1.229   3.102   6.181
 2630TIP3    H2 7834   1.311   2.979   6.148
 2631TIP3   OH2 7835   3.358   5.300   1.089
 2631TIP3    H1 7836   3.389   5.213   1.114
 2631TIP3    H2 7837   3.418   5.328   1.020
 2632TIP3   OH2 7838   6.929   2.776   1.426
 2632TIP3    H1 7839   6.992   2.847   1.419
 2632TIP3    H2 7840   6.846   2.819   1.446
 2633TIP3   OH2 7841   0.337   4.761   3.454
 2633TIP3    H1 7842   0.328   4.852   3.484
 2633TIP3    H2 7843   0.400   4.767   3.382
 2634TIP3   OH2 7844   2.146   6.105   5.282
 2634TIP3    H1 7845   2.165   6.194   5.254
 2634TIP3    H2 7846   2.064   6.083   5.238
 2635TIP3   OH2 7847   6.298   3.537   5.282
 2635TIP3    H1 7848   6.212   3.512   5.316
 2635TIP3    H2 7849   6.282   3.619   5.235
 2636TIP3   OH2 7850   2.909   2.509   6.619
 2636TIP3    H1 7851   2.995   2.481   6.651
 2636TIP3    H2 7852   2.852   2.434   6.635
 2637TIP3   OH2 7853   4.616   6.617   5.213
 2637TIP3    H1 7854   4.554   6.688   5.200
 2637TIP3    H2 7855   4.634   6.619   5.307
 2638TIP3   OH2 7856   0.879   1.355   2.585
 2638TIP3    H1 7857   0.869   1.389   2.674
 2638TIP3    H2 7858   0.955   1.402   2.550
 2639TIP3   OH2 7859   5.184   3.215   0.716
 2639TIP3    H1 7860   5.174   3.305   0.685
 2639TIP3    H2 7861   5.175   3.162   0.637
 2640TIP3   OH2 7862   4.732   3.130   2.402
 2640TIP3    H1 7863   4.726   3.061   2.336
 2640TIP3    H2 7864   4.719   3.085   2.485
 2641TIP3   OH2 7865   3.053   5.443   3.275
 2641TIP3    H1 7866   3.048   5.365   3.219
 2641TIP3    H2 7867   3.128   5.492   3.240
 2642TIP3   OH2 7868   0.601   7.273   1.653
 2642TIP3    H1 7869   0.625   7.328   1.579
 2642TIP3    H2 7870   0.534   7.323   1.700
 2643TIP3   OH2 7871   3.537   5.827   3.321
 2643TIP3    H1 7872   3.622   5.802   3.357
 2643TIP3    H2 7873   3.505   5.895   3.380
 2644TIP3   OH2 7874   3.717   7.105   6.273
 2644TIP3    H1 7875   3.763   7.179   6.234
 2644TIP3    H2 7876   3.628   7.136   6.288
 2645TIP3   OH2 7877   4.223   4.227   5.426
 2645TIP3    H1 7878   4.241   4.313   5.389
 2645TIP3    H2 7879   4.174   4.181   5.358
 2646TIP3   OH2 7880   3.575   4.153   1.149
 2646TIP3    H1 7881   3.656   4.192   1.119
 2646TIP3    H2 7882   3.535   4.220   1.204
 2647TIP3   OH2 7883   5.618   4.242   5.934
 2647TIP3    H1 7884   5.703   4.286   5.929
 2647TIP3    H2 7885   5.571   4.288   6.003
 2648TIP3   OH2 7886   3.656   7.143   3.917
 2648TIP3    H1 7887   3.615   7.061   3.891
 2648TIP3    H2 7888   3.641   7.150   4.011
 2649TIP3   OH2 7889   4.949   2.924   3.433
 2649TIP3    H1 7890   4.877   2.985   3.419
 2649TIP3    H2 7891   4.937   2.892   3.523
 2650TIP3   OH2 7892   2.525   2.792   4.803
 2650TIP3    H1 7893   2.519   2.886   4.786
 2650TIP3    H2 7894   2.434   2.762   4.803
 2651TIP3   OH2 7895   0.935   1.718   5.058
 2651TIP3    H1 7896   0.855   1.669   5.038
 2651TIP3    H2 7897   0.957   1.762   4.977
 2652TIP3   OH2 7898   2.482   1.212   4.349
 2652TIP3    H1 7899   2.530   1.290   4.320
 2652TIP3    H2 7900   2.533   1.179   4.423
 2653TIP3   OH2 7901   0.309   1.841   5.182
 2653TIP3    H1 7902   0.306   1.765   5.239
 2653TIP3    H2 7903   0.390   1.886   5.205
 2654TIP3   OH2 7904   6.636   1.496   4.011
 2654TIP3    H1 7905   6.569   1.496   4.080
 2654TIP3    H2 7906   6.598   1.443   3.941
 2655TIP3   OH2 7907   3.118   3.718   2.138
 2655TIP3    H1 7908   3.170   3.751   2.211
 2655TIP3    H2 7909   3.078   3.796   2.100
 2656TIP3   OH2 7910   3.430   1.008   4.957
 2656TIP3    H1 7911   3.447   1.005   5.051
 2656TIP3    H2 7912   3.383   0.926   4.939
 2657TIP3   OH2 7913   4.109   0.834   0.559
 2657TIP3    H1 7914   4.065   0.790   0.632
 2657TIP3    H2 7915   4.067   0.798   0.481
 2658TIP3   OH2 7916   7.985   6.287   1.119
 2658TIP3    H1 7917   7.970   6.199   1.153
 2658TIP3    H2 7918   7.963   6.281   1.026
 2659TIP3   OH2 7919   1.720   5.824   4.762
 2659TIP3    H1 7920   1.688   5.914   4.762
 2659TIP3    H2 7921   1.710   5.795   4.853
 2660TIP3   OH2 7922   5.133   4.075   5.497
 2660TIP3    H1 7923   5.077   4.026   5.437
 2660TIP3    H2 7924   5.083   4.153   5.519
 2661TIP3   OH2 7925   7.708   6.273   0.229
 2661TIP3    H1 7926   7.694   6.300   0.320
 2661TIP3    H2 7927   7.786   6.321   0.202
 2662TIP3   OH2 7928   5.334   7.491   4.490
 2662TIP3    H1 7929   5.385   7.557   4.443
 2662TIP3    H2 7930   5.316   7.424   4.425
 2663TIP3   OH2 7931   3.932   6.987   4.768
 2663TIP3    H1 7932   3.982   6.915   4.807
 2663TIP3    H2 7933   3.840   6.965   4.787
 2664TIP3   OH2 7934   3.930   7.730   2.804
 2664TIP3    H1 7935   3.946   7.824   2.798
 2664TIP3    H2 7936   3.853   7.715   2.750
 2665TIP3   OH2 7937   1.979   3.015   4.940
 2665TIP3    H1 7938   2.070   3.010   4.912
 2665TIP3    H2 7939   1.928   3.006   4.859
 2666TIP3   OH2 7940   7.073   2.459   5.482
 2666TIP3    H1 7941   7.142   2.488   5.423
 2666TIP3    H2 7942   7.101   2.489   5.568
 2667TIP3   OH2 7943   7.249   7.701   5.077
 2667TIP3    H1 7944   7.191   7.626   5.093
 2667TIP3    H2 7945   7.297   7.678   4.998
 2668TIP3   OH2 7946   4.261   1.265   1.393
 2668TIP3    H1 7947   4.193   1.198   1.393
 2668TIP3    H2 7948   4.236   1.325   1.463
 2669TIP3   OH2 7949   0.372   3.457   1.155
 2669TIP3    H1 7950   0.306   3.477   1.089
 2669TIP3    H2 7951   0.323   3.451   1.237
 2670TIP3   OH2 7952   6.578   2.526   1.249
 2670TIP3    H1 7953   6.584   2.433   1.226
 2670TIP3    H2 7954   6.546   2.525   1.339
 2671TIP3   OH2 7955   4.755   0.221   6.450
 2671TIP3    H1 7956   4.798   0.249   6.531
 2671TIP3    H2 7957   4.826   0.186   6.396
 2672TIP3   OH2 7958   5.907   6.086   2.893
 2672TIP3    H1 7959   5.975   6.114   2.831
 2672TIP3    H2 7960   5.955   6.038   2.961
 2673TIP3   OH2 7961   7.604   1.353   6.627
 2673TIP3    H1 7962   7.542   1.348   6.700
 2673TIP3    H2 7963   7.690   1.345   6.669
 2674TIP3   OH2 7964   3.896   3.284   4.662
 2674TIP3    H1 7965   3.855   3.311   4.579
 2674TIP3    H2 7966   3.856   3.341   4.727
 2675TIP3   OH2 7967   7.723   2.071   0.341
 2675TIP3    H1 7968   7.689   2.004   0.401
 2675TIP3    H2 7969   7.744   2.023   0.261
 2676TIP3   OH2 7970   7.244   1.966   0.465
 2676TIP3    H1 7971   7.294   1.886   0.449
 2676TIP3    H2 7972   7.257   2.019   0.385
 2677TIP3   OH2 7973   7.925   0.779   2.791
 2677TIP3    H1 7974   7.858   0.806   2.729
 2677TIP3    H2 7975   7.912   0.837   2.866
 2678TIP3   OH2 7976   6.882   3.367   5.724
 2678TIP3    H1 7977   6.945   3.416   5.671
 2678TIP3    H2 7978   6.867   3.286   5.675
 2679TIP3   OH2 7979   4.210   0.561   2.936
 2679TIP3    H1 7980   4.259   0.502   2.994
 2679TIP3    H2 7981   4.243   0.541   2.848
 2680TIP3   OH2 7982   7.642   7.800   2.452
 2680TIP3    H1 7983   7.570   7.814   2.514
 2680TIP3    H2 7984   7.598   7.786   2.368
 2681TIP3   OH2 7985   8.213   6.282   6.745
 2681TIP3    H1 7986   8.139   6.303   6.800
 2681TIP3    H2 7987   8.176   6.270   6.657
 2682TIP3   OH2 7988   5.817   4.259   0.441
 2682TIP3    H1 7989   5.869   4.208   0.503
 2682TIP3    H2 7990   5.816   4.347   0.478
 2683TIP3   OH2 7991   8.268   0.647   0.429
 2683TIP3    H1 7992   8.248   0.554   0.445
 2683TIP3    H2 7993   8.215   0.694   0.494
 2684TIP3   OH2 7994   5.151   6.393   0.355
 2684TIP3    H1 7995   5.234   6.440   0.367
 2684TIP3    H2 7996   5.153   6.365   0.264
 2685TIP3   OH2 7997   3.091   1.245   6.016
 2685TIP3    H1 7998   3.164   1.216   6.071
 2685TIP3    H2 7999   3.015   1.243   6.074
 2686TIP3   OH2 8000   3.559   6.129   3.963
 2686TIP3    H1 8001   3.625   6.072   3.924
 2686TIP3    H2 8002   3.603   6.169   4.038
 2687TIP3   OH2 8003   7.989   0.460   4.697
 2687TIP3    H1 8004   8.029   0.465   4.784
 2687TIP3    H2 8005   7.937   0.540   4.690
 2688TIP3   OH2 8006   1.788   0.348   2.418
 2688TIP3    H1 8007   1.792   0.383   2.329
 2688TIP3    H2 8008   1.816   0.420   2.474
 2689TIP3   OH2 8009   3.316   6.550   5.730
 2689TIP3    H1 8010   3.283   6.637   5.751
 2689TIP3    H2 8011   3.265   6.523   5.653
 2690TIP3   OH2 8012   1.349   3.369   3.078
 2690TIP3    H1 8013   1.424   3.335   3.029
 2690TIP3    H2 8014   1.304   3.427   3.016
 2691TIP3   OH2 8015   3.954   1.762   5.140
 2691TIP3    H1 8016   3.993   1.849   5.139
 2691TIP3    H2 8017   3.990   1.720   5.219
 2692TIP3   OH2 8018   0.324   0.568   6.188
 2692TIP3    H1 8019   0.279   0.611   6.260
 2692TIP3    H2 8020   0.393   0.629   6.162
 2693TIP3   OH2 8021   0.684   6.253   3.737
 2693TIP3    H1 8022   0.732   6.287   3.662
 2693TIP3    H2 8023   0.619   6.194   3.700
 2694TIP3   OH2 8024   0.280   4.720   2.919
 2694TIP3    H1 8025   0.204   4.664   2.902
 2694TIP3    H2 8026   0.307   4.698   3.008
 2695TIP3   OH2 8027   4.834   1.725   3.160
 2695TIP3    H1 8028   4.757   1.671   3.178
 2695TIP3    H2 8029   4.798   1.804   3.120
 2696TIP3   OH2 8030   3.261   4.586   1.410
 2696TIP3    H1 8031   3.201   4.567   1.338
 2696TIP3    H2 8032   3.239   4.521   1.477
 2697TIP3   OH2 8033   5.111   3.562   0.376
 2697TIP3    H1 8034   5.018   3.586   0.372
 2697TIP3    H2 8035   5.113   3.470   0.349
 2698TIP3   OH2 8036   4.494   6.533   0.198
 2698TIP3    H1 8037   4.494   6.581   0.281
 2698TIP3    H2 8038   4.586   6.510   0.183
 2699TIP3   OH2 8039   0.127   1.939   2.703
 2699TIP3    H1 8040   0.178   1.952   2.623
 2699TIP3    H2 8041   0.038   1.921   2.671
 2700TIP3   OH2 8042   1.379   3.956   1.275
 2700TIP3    H1 8043   1.385   4.052   1.279
 2700TIP3    H2 8044   1.425   3.932   1.195
 2701TIP3   OH2 8045   7.225   1.799   2.559
 2701TIP3    H1 8046   7.186   1.778   2.475
 2701TIP3    H2 8047   7.294   1.863   2.539
 2702TIP3   OH2 8048   3.438   0.957   5.537
 2702TIP3    H1 8049   3.516   0.951   5.593
 2702TIP3    H2 8050   3.400   1.042   5.558
 2703TIP3   OH2 8051   3.505   4.299   2.253
 2703TIP3    H1 8052   3.577   4.331   2.198
 2703TIP3    H2 8053   3.506   4.357   2.329
 2704TIP3   OH2 8054   8.174   1.332   0.173
 2704TIP3    H1 8055   8.112   1.281   0.225
 2704TIP3    H2 8056   8.196   1.275   0.099
 2705TIP3   OH2 8057   6.474   3.015   3.021
 2705TIP3    H1 8058   6.381   3.006   3.040
 2705TIP3    H2 8059   6.493   2.944   2.959
 2706TIP3   OH2 8060   5.188   1.685   5.028
 2706TIP3    H1 8061   5.094   1.669   5.036
 2706TIP3    H2 8062   5.227   1.633   5.098
 2707TIP3   OH2 8063   0.382   4.965   4.155
 2707TIP3    H1 8064   0.441   4.988   4.083
 2707TIP3    H2 8065   0.336   5.046   4.176
 2708TIP3   OH2 8066   1.607   0.625   1.349
 2708TIP3    H1 8067   1.662   0.688   1.302
 2708TIP3    H2 8068   1.618   0.543   1.302
 2709TIP3   OH2 8069   5.605   2.556   1.206
 2709TIP3    H1 8070   5.579   2.635   1.254
 2709TIP3    H2 8071   5.656   2.506   1.270
 2710TIP3   OH2 8072   1.969   4.457   3.991
 2710TIP3    H1 8073   1.883   4.419   4.009
 2710TIP3    H2 8074   1.990   4.507   4.070
 2711TIP3   OH2 8075   4.693   6.841   1.896
 2711TIP3    H1 8076   4.774   6.804   1.862
 2711TIP3    H2 8077   4.689   6.929   1.858
 2712TIP3   OH2 8078   2.330   7.679   4.987
 2712TIP3    H1 8079   2.379   7.752   5.026
 2712TIP3    H2 8080   2.254   7.721   4.946
 2713TIP3   OH2 8081   0.104   0.959   1.095
 2713TIP3    H1 8082   0.187   0.983   1.054
 2713TIP3    H2 8083   0.130   0.908   1.172
 2714TIP3   OH2 8084   1.808   4.987   4.398
 2714TIP3    H1 8085   1.836   4.934   4.324
 2714TIP3    H2 8086   1.716   5.007   4.380
 2715TIP3   OH2 8087   3.942   6.700   1.491
 2715TIP3    H1 8088   4.028   6.743   1.493
 2715TIP3    H2 8089   3.889   6.756   1.435
 2716TIP3   OH2 8090   1.528   4.840   0.274
 2716TIP3    H1 8091   1.574   4.924   0.282
 2716TIP3    H2 8092   1.591   4.776   0.306
 2717TIP3   OH2 8093   1.215   7.123   1.034
 2717TIP3    H1 8094   1.247   7.086   0.952
 2717TIP3    H2 8095   1.120   7.123   1.025
 2718TIP3   OH2 8096   6.920   6.286   0.389
 2718TIP3    H1 8097   7.003   6.240   0.378
 2718TIP3    H2 8098   6.896   6.315   0.301
 2719TIP3   OH2 8099   1.483   1.063   3.312
 2719TIP3    H1 8100   1.576   1.077   3.295
 2719TIP3    H2 8101   1.480   0.989   3.372
 2720TIP3   OH2 8102   0.462   0.514   6.461
 2720TIP3    H1 8103   0.489   0.547   6.547
 2720TIP3    H2 8104   0.432   0.591   6.414
 2721TIP3   OH2 8105   1.091   4.614   3.483
 2721TIP3    H1 8106   1.154   4.567   3.539
 2721TIP3    H2 8107   1.131   4.613   3.396
 2722TIP3   OH2 8108   7.387   3.661   6.207
 2722TIP3    H1 8109   7.369   3.570   6.186
 2722TIP3    H2 8110   7.345   3.711   6.137
 2723TIP3   OH2 8111   0.625   1.425   0.873
 2723TIP3    H1 8112   0.710   1.418   0.829
 2723TIP3    H2 8113   0.563   1.443   0.802
 2724TIP3   OH2 8114   7.217   4.427   1.213
 2724TIP3    H1 8115   7.224   4.368   1.138
 2724TIP3    H2 8116   7.126   4.419   1.241
 2725TIP3   OH2 8117   5.068   2.458   4.913
 2725TIP3    H1 8118   5.017   2.476   4.992
 2725TIP3    H2 8119   5.158   2.481   4.936
 2726TIP3   OH2 8120   0.184   1.442   2.674
 2726TIP3    H1 8121   0.169   1.429   2.580
 2726TIP3    H2 8122   0.113   1.394   2.717
 2727TIP3   OH2 8123   7.464   2.190   6.346
 2727TIP3    H1 8124   7.423   2.104   6.339
 2727TIP3    H2 8125   7.514   2.200   6.265
 2728TIP3   OH2 8126   0.554   3.600   4.161
 2728TIP3    H1 8127   0.502   3.680   4.151
 2728TIP3    H2 8128   0.492   3.529   4.140
 2729TIP3   OH2 8129   3.749   2.290   2.219
 2729TIP3    H1 8130   3.783   2.201   2.213
 2729TIP3    H2 8131   3.657   2.279   2.240
 2730TIP3   OH2 8132   5.848   2.328   5.363
 2730TIP3    H1 8133   5.911   2.262   5.333
 2730TIP3    H2 8134   5.777   2.277   5.402
 2731TIP3   OH2 8135   0.648   1.003   1.485
 2731TIP3    H1 8136   0.571   0.970   1.532
 2731TIP3    H2 8137   0.615   1.023   1.397
 2732TIP3   OH2 8138   1.483   4.513   2.848
 2732TIP3    H1 8139   1.507   4.516   2.941
 2732TIP3    H2 8140   1.561   4.545   2.802
 2733TIP3   OH2 8141   6.536   4.127   4.192
 2733TIP3    H1 8142   6.451   4.087   4.172
 2733TIP3    H2 8143   6.600   4.072   4.148
 2734TIP3   OH2 8144   4.665   1.186   6.498
 2734TIP3    H1 8145   4.619   1.251   6.551
 2734TIP3    H2 8146   4.728   1.146   6.559
 2735TIP3   OH2 8147   6.044   1.987   5.257
 2735TIP3    H1 8148   6.036   1.953   5.346
 2735TIP3    H2 8149   5.975   1.942   5.208
 2736TIP3   OH2 8150   0.399   3.250   0.403
 2736TIP3    H1 8151   0.397   3.305   0.481
 2736TIP3    H2 8152   0.421   3.162   0.435
 2737TIP3   OH2 8153   7.320   3.774   4.494
 2737TIP3    H1 8154   7.343   3.701   4.552
 2737TIP3    H2 8155   7.399   3.827   4.489
 2738TIP3   OH2 8156   6.346   2.274   5.760
 2738TIP3    H1 8157   6.308   2.354   5.725
 2738TIP3    H2 8158   6.293   2.254   5.837
 2739TIP3   OH2 8159   7.286   7.730   5.374
 2739TIP3    H1 8160   7.354   7.795   5.354
 2739TIP3    H2 8161   7.287   7.671   5.299
 2740TIP3   OH2 8162   5.349   3.904   6.473
 2740TIP3    H1 8163   5.371   3.821   6.517
 2740TIP3    H2 8164   5.286   3.879   6.405
 2741TIP3   OH2 8165   6.028   5.483   0.754
 2741TIP3    H1 8166   6.034   5.571   0.790
 2741TIP3    H2 8167   6.030   5.425   0.830
 2742TIP3   OH2 8168   6.012   2.392   4.132
 2742TIP3    H1 8169   6.071   2.423   4.063
 2742TIP3    H2 8170   5.976   2.472   4.171
 2743TIP3   OH2 8171   3.159   5.340   4.600
 2743TIP3    H1 8172   3.139   5.247   4.606
 2743TIP3    H2 8173   3.074   5.383   4.591
 2744TIP3   OH2 8174   5.273   2.264   3.241
 2744TIP3    H1 8175   5.337   2.308   3.186
 2744TIP3    H2 8176   5.188   2.296   3.210
 2745TIP3   OH2 8177   2.504   6.278   6.353
 2745TIP3    H1 8178   2.535   6.211   6.414
 2745TIP3    H2 8179   2.493   6.232   6.270
 2746TIP3   OH2 8180   4.737   6.918   1.358
 2746TIP3    H1 8181   4.713   6.955   1.443
 2746TIP3    H2 8182   4.807   6.974   1.326
 2747TIP3   OH2 8183  -0.053   2.817   1.037
 2747TIP3    H1 8184  -0.005   2.837   0.957
 2747TIP3    H2 8185  -0.002   2.747   1.078
 2748TIP3   OH2 8186   3.133   7.466   2.297
 2748TIP3    H1 8187   3.054   7.513   2.324
 2748TIP3    H2 8188   3.173   7.438   2.380
 2749TIP3   OH2 8189   5.272   7.793   6.481
 2749TIP3    H1 8190   5.289   7.835   6.396
 2749TIP3    H2 8191   5.265   7.700   6.461
 2750TIP3   OH2 8192   7.335   0.287   4.709
 2750TIP3    H1 8193   7.263   0.226   4.723
 2750TIP3    H2 8194   7.414   0.233   4.712
 2751TIP3   OH2 8195   6.082   2.745   2.251
 2751TIP3    H1 8196   6.147   2.691   2.297
 2751TIP3    H2 8197   6.003   2.691   2.249
 2752TIP3   OH2 8198   6.327   4.240   6.215
 2752TIP3    H1 8199   6.293   4.224   6.303
 2752TIP3    H2 8200   6.387   4.314   6.226
 2753TIP3   OH2 8201   0.069   1.297   4.696
 2753TIP3    H1 8202   0.054   1.382   4.654
 2753TIP3    H2 8203   0.090   1.238   4.623
 2754TIP3   OH2 8204   3.861   6.218   2.332
 2754TIP3    H1 8205   3.928   6.286   2.337
 2754TIP3    H2 8206   3.876   6.176   2.248
 2755TIP3   OH2 8207   7.472   7.173   4.544
 2755TIP3    H1 8208   7.385   7.210   4.528
 2755TIP3    H2 8209   7.455   7.082   4.569
 2756TIP3   OH2 8210   4.846   4.975   2.873
 2756TIP3    H1 8211   4.897   4.907   2.828
 2756TIP3    H2 8212   4.903   5.004   2.944
 2757TIP3   OH2 8213   3.651   0.894   5.711
 2757TIP3    H1 8214   3.657   0.820   5.771
 2757TIP3    H2 8215   3.740   0.903   5.676
 2758TIP3   OH2 8216   2.064   2.163   0.740
 2758TIP3    H1 8217   2.150   2.187   0.774
 2758TIP3    H2 8218   2.038   2.086   0.792
 2759TIP3   OH2 8219   7.040   1.254   5.281
 2759TIP3    H1 8220   6.965   1.310   5.301
 2759TIP3    H2 8221   7.017   1.169   5.320
 2760TIP3   OH2 8222   5.646   0.024   2.147
 2760TIP3    H1 8223   5.564  -0.023   2.165
 2760TIP3    H2 8224   5.653   0.088   2.218
 2761TIP3   OH2 8225   0.090   0.446   3.050
 2761TIP3    H1 8226   0.042   0.524   3.077
 2761TIP3    H2 8227   0.166   0.480   3.002
 2762TIP3   OH2 8228   7.181   0.910   5.267
 2762TIP3    H1 8229   7.252   0.907   5.331
 2762TIP3    H2 8230   7.219   0.953   5.190
 2763TIP3   OH2 8231   6.004   0.053   4.792
 2763TIP3    H1 8232   6.026   0.127   4.736
 2763TIP3    H2 8233   6.081  -0.003   4.790
 2764TIP3   OH2 8234   2.384   2.603   0.453
 2764TIP3    H1 8235   2.474   2.638   0.448
 2764TIP3    H2 8236   2.386   2.543   0.527
 2765TIP3   OH2 8237   0.515   4.564   3.533
 2765TIP3    H1 8238   0.445   4.624   3.558
 2765TIP3    H2 8239   0.475   4.505   3.470
 2766TIP3   OH2 8240   8.331   7.763   6.448
 2766TIP3    H1 8241   8.246   7.754   6.490
 2766TIP3    H2 8242   8.380   7.685   6.473
 2767TIP3   OH2 8243   0.698   7.356   2.080
 2767TIP3    H1 8244   0.624   7.297   2.062
 2767TIP3    H2 8245   0.686   7.429   2.019
 2768TIP3   OH2 8246   1.817   4.023   6.612
 2768TIP3    H1 8247   1.799   3.933   6.640
 2768TIP3    H2 8248   1.897   4.047   6.659
 2769TIP3   OH2 8249   4.234   3.931   0.141
 2769TIP3    H1 8250   4.328   3.950   0.138
 2769TIP3    H2 8251   4.225   3.847   0.096
 2770TIP3   OH2 8252   7.295   5.908   6.601
 2770TIP3    H1 8253   7.349   5.978   6.563
 2770TIP3    H2 8254   7.217   5.905   6.546
 2771TIP3   OH2 8255   5.702   5.532   2.953
 2771TIP3    H1 8256   5.752   5.451   2.964
 2771TIP3    H2 8257   5.674   5.530   2.861
 2772TIP3   OH2 8258   0.739   5.505   2.596
 2772TIP3    H1 8259   0.748   5.410   2.602
 2772TIP3    H2 8260   0.794   5.539   2.667
 2773TIP3   OH2 8261   8.184   2.447   4.335
 2773TIP3    H1 8262   8.251   2.514   4.342
 2773TIP3    H2 8263   8.158   2.449   4.243
 2774TIP3   OH2 8264   0.629   5.840   4.388
 2774TIP3    H1 8265   0.564   5.770   4.382
 2774TIP3    H2 8266   0.653   5.859   4.298
 2775TIP3   OH2 8267   0.477   2.854   5.067
 2775TIP3    H1 8268   0.520   2.862   4.982
 2775TIP3    H2 8269   0.384   2.855   5.047
 2776TIP3   OH2 8270   6.632   7.442   0.157
 2776TIP3    H1 8271   6.567   7.469   0.093
 2776TIP3    H2 8272   6.701   7.400   0.105
 2777TIP3   OH2 8273   5.005   2.016   2.849
 2777TIP3    H1 8274   5.066   1.971   2.907
 2777TIP3    H2 8275   4.921   1.971   2.863
 2778TIP3   OH2 8276   1.218   2.693   5.414
 2778TIP3    H1 8277   1.173   2.733   5.489
 2778TIP3    H2 8278   1.304   2.667   5.448
 2779TIP3   OH2 8279   0.678   1.907   1.753
 2779TIP3    H1 8280   0.731   1.866   1.684
 2779TIP3    H2 8281   0.593   1.862   1.747
 2780TIP3   OH2 8282   5.753   0.954   1.504
 2780TIP3    H1 8283   5.840   0.977   1.471
 2780TIP3    H2 8284   5.693   0.979   1.434
 2781TIP3   OH2 8285   5.905   4.289   5.938
 2781TIP3    H1 8286   5.973   4.226   5.963
 2781TIP3    H2 8287   5.921   4.364   5.995
 2782TIP3   OH2 8288   4.548   1.079   0.295
 2782TIP3    H1 8289   4.487   1.068   0.367
 2782TIP3    H2 8290   4.513   1.023   0.225
 2783TIP3   OH2 8291   5.813   2.375   1.875
 2783TIP3    H1 8292   5.799   2.466   1.848
 2783TIP3    H2 8293   5.747   2.325   1.827
 2784TIP3   OH2 8294   1.863   6.834   3.434
 2784TIP3    H1 8295   1.945   6.807   3.392
 2784TIP3    H2 8296   1.796   6.783   3.388
 2785TIP3   OH2 8297   4.722   6.022   4.769
 2785TIP3    H1 8298   4.766   6.032   4.854
 2785TIP3    H2 8299   4.656   6.091   4.768
 2786TIP3   OH2 8300   6.327   2.501   3.551
 2786TIP3    H1 8301   6.277   2.441   3.497
 2786TIP3    H2 8302   6.298   2.588   3.523
 2787TIP3   OH2 8303   4.949   4.050   4.781
 2787TIP3    H1 8304   4.920   3.959   4.786
 2787TIP3    H2 8305   4.872   4.101   4.805
 2788TIP3   OH2 8306   4.940   5.967   1.705
 2788TIP3    H1 8307   4.927   5.972   1.799
 2788TIP3    H2 8308   5.027   5.927   1.695
 2789TIP3   OH2 8309   5.275   1.160   4.444
 2789TIP3    H1 8310   5.329   1.081   4.453
 2789TIP3    H2 8311   5.339   1.231   4.433
 2790TIP3   OH2 8312   1.221   5.429   2.425
 2790TIP3    H1 8313   1.134   5.446   2.388
 2790TIP3    H2 8314   1.219   5.337   2.451
 2791TIP3   OH2 8315   5.615   6.933   6.123
 2791TIP3    H1 8316   5.686   6.887   6.078
 2791TIP3    H2 8317   5.628   7.025   6.101
 2792TIP3   OH2 8318   0.483   6.843   3.087
 2792TIP3    H1 8319   0.549   6.913   3.082
 2792TIP3    H2 8320   0.497   6.792   3.007
 2793TIP3   OH2 8321   2.996   0.773   6.507
 2793TIP3    H1 8322   2.952   0.854   6.531
 2793TIP3    H2 8323   3.008   0.727   6.590
 2794TIP3   OH2 8324   7.538   0.701   4.176
 2794TIP3    H1 8325   7.510   0.770   4.237
 2794TIP3    H2 8326   7.549   0.624   4.230
 2795TIP3   OH2 8327   4.398   1.213   0.505
 2795TIP3    H1 8328   4.336   1.252   0.567
 2795TIP3    H2 8329   4.440   1.142   0.555
 2796TIP3   OH2 8330   2.557   6.644   0.688
 2796TIP3    H1 8331   2.566   6.727   0.642
 2796TIP3    H2 8332   2.640   6.633   0.735
 2797TIP3   OH2 8333   3.896   0.866   1.651
 2797TIP3    H1 8334   3.892   0.771   1.658
 2797TIP3    H2 8335   3.882   0.885   1.558
 2798TIP3   OH2 8336   1.401   6.359   3.429
 2798TIP3    H1 8337   1.341   6.433   3.430
 2798TIP3    H2 8338   1.411   6.337   3.337
 2799TIP3   OH2 8339   7.952   4.339   0.783
 2799TIP3    H1 8340   7.869   4.297   0.804
 2799TIP3    H2 8341   7.928   4.428   0.756
 2800TIP3   OH2 8342   6.192   5.738   6.456
 2800TIP3    H1 8343   6.245   5.665   6.423
 2800TIP3    H2 8344   6.106   5.700   6.474
 2801TIP3   OH2 8345   7.157   5.679   2.642
 2801TIP3    H1 8346   7.076   5.730   2.633
 2801TIP3    H2 8347   7.127   5.591   2.665
 2802TIP3   OH2 8348   3.432   6.229   2.094
 2802TIP3    H1 8349   3.447   6.215   2.188
 2802TIP3    H2 8350   3.519   6.223   2.055
 2803TIP3   OH2 8351   0.447   2.566   3.254
 2803TIP3    H1 8352   0.498   2.549   3.175
 2803TIP3    H2 8353   0.414   2.655   3.243
 2804TIP3   OH2 8354   1.425   2.852   2.265
 2804TIP3    H1 8355   1.415   2.819   2.175
 2804TIP3    H2 8356   1.402   2.778   2.320
 2805TIP3   OH2 8357   2.271   5.410   1.157
 2805TIP3    H1 8358   2.358   5.382   1.129
 2805TIP3    H2 8359   2.275   5.406   1.252
 2806TIP3   OH2 8360   6.300   2.090   5.122
 2806TIP3    H1 8361   6.350   2.115   5.044
 2806TIP3    H2 8362   6.360   2.034   5.172
 2807TIP3   OH2 8363   2.530   2.813   2.949
 2807TIP3    H1 8364   2.495   2.902   2.937
 2807TIP3    H2 8365   2.520   2.797   3.043
 2808TIP3   OH2 8366   6.725   1.401   5.202
 2808TIP3    H1 8367   6.657   1.338   5.176
 2808TIP3    H2 8368   6.788   1.398   5.130
 2809TIP3   OH2 8369   5.410   4.172   6.357
 2809TIP3    H1 8370   5.366   4.102   6.310
 2809TIP3    H2 8371   5.411   4.143   6.449
 2810TIP3   OH2 8372   6.314   5.224   4.680
 2810TIP3    H1 8373   6.389   5.281   4.694
 2810TIP3    H2 8374   6.308   5.214   4.585
 2811TIP3   OH2 8375   3.672   7.329   4.313
 2811TIP3    H1 8376   3.602   7.371   4.363
 2811TIP3    H2 8377   3.699   7.395   4.250
 2812TIP3   OH2 8378   2.090   3.186   5.716
 2812TIP3    H1 8379   2.013   3.156   5.667
 2812TIP3    H2 8380   2.080   3.281   5.719
 2813TIP3   OH2 8381   0.484   1.184   5.527
 2813TIP3    H1 8382   0.523   1.098   5.541
 2813TIP3    H2 8383   0.482   1.224   5.614
 2814TIP3   OH2 8384   6.372   6.066   0.963
 2814TIP3    H1 8385   6.361   6.088   1.056
 2814TIP3    H2 8386   6.408   6.145   0.924
 2815TIP3   OH2 8387   4.788   2.175   1.920
 2815TIP3    H1 8388   4.754   2.086   1.917
 2815TIP3    H2 8389   4.798   2.193   2.014
 2816TIP3   OH2 8390   5.737   7.397   6.492
 2816TIP3    H1 8391   5.710   7.485   6.520
 2816TIP3    H2 8392   5.734   7.345   6.572
 2817TIP3   OH2 8393   0.857   5.864   5.873
 2817TIP3    H1 8394   0.912   5.842   5.947
 2817TIP3    H2 8395   0.918   5.893   5.805
 2818TIP3   OH2 8396   8.207   3.946   1.065
 2818TIP3    H1 8397   8.138   4.010   1.047
 2818TIP3    H2 8398   8.163   3.876   1.114
 2819TIP3   OH2 8399   5.540   7.288   6.332
 2819TIP3    H1 8400   5.625   7.312   6.368
 2819TIP3    H2 8401   5.557   7.269   6.240
 2820TIP3   OH2 8402   1.459   5.280   0.376
 2820TIP3    H1 8403   1.429   5.196   0.411
 2820TIP3    H2 8404   1.478   5.333   0.453
 2821TIP3   OH2 8405   6.121   2.809   4.556
 2821TIP3    H1 8406   6.205   2.796   4.601
 2821TIP3    H2 8407   6.133   2.771   4.469
 2822TIP3   OH2 8408   7.798   7.786   3.755
 2822TIP3    H1 8409   7.713   7.831   3.763
 2822TIP3    H2 8410   7.827   7.774   3.845
 2823TIP3   OH2 8411   3.639   3.575   6.678
 2823TIP3    H1 8412   3.633   3.669   6.667
 2823TIP3    H2 8413   3.613   3.539   6.594
 2824TIP3   OH2 8414   6.793   4.767   2.165
 2824TIP3    H1 8415   6.789   4.858   2.197
 2824TIP3    H2 8416   6.719   4.759   2.105
 2825TIP3   OH2 8417   1.707   5.365   4.240
 2825TIP3    H1 8418   1.683   5.332   4.326
 2825TIP3    H2 8419   1.710   5.287   4.184
 2826TIP3   OH2 8420   5.685   1.225   2.127
 2826TIP3    H1 8421   5.684   1.160   2.197
 2826TIP3    H2 8422   5.778   1.241   2.111
 2827TIP3   OH2 8423   6.121   5.211   0.763
 2827TIP3    H1 8424   6.092   5.161   0.686
 2827TIP3    H2 8425   6.193   5.265   0.730
 2828TIP3   OH2 8426   2.386   2.958   6.513
 2828TIP3    H1 8427   2.395   3.028   6.449
 2828TIP3    H2 8428   2.456   2.896   6.491
 2829TIP3   OH2 8429   4.048   1.068   6.417
 2829TIP3    H1 8430   3.976   1.078   6.479
 2829TIP3    H2 8431   4.126   1.056   6.472
 2830TIP3   OH2 8432   0.874   6.204   3.132
 2830TIP3    H1 8433   0.785   6.168   3.134
 2830TIP3    H2 8434   0.862   6.299   3.134
 2831TIP3   OH2 8435   6.351   5.437   3.951
 2831TIP3    H1 8436   6.442   5.458   3.974
 2831TIP3    H2 8437   6.359   5.364   3.889
 2832TIP3   OH2 8438   4.609   3.140   1.342
 2832TIP3    H1 8439   4.650   3.108   1.423
 2832TIP3    H2 8440   4.534   3.192   1.373
 2833TIP3   OH2 8441   8.191   6.307   2.242
 2833TIP3    H1 8442   8.262   6.299   2.179
 2833TIP3    H2 8443   8.213   6.384   2.295
 2834TIP3   OH2 8444   0.599   4.180   0.366
 2834TIP3    H1 8445   0.512   4.199   0.400
 2834TIP3    H2 8446   0.642   4.129   0.435
 2835TIP3   OH2 8447   6.146   4.689   4.568
 2835TIP3    H1 8448   6.114   4.609   4.526
 2835TIP3    H2 8449   6.207   4.659   4.636
 2836TIP3   OH2 8450   8.202   6.847   2.826
 2836TIP3    H1 8451   8.289   6.883   2.808
 2836TIP3    H2 8452   8.191   6.859   2.921
 2837TIP3   OH2 8453   7.106   2.013   5.281
 2837TIP3    H1 8454   7.127   2.055   5.198
 2837TIP3    H2 8455   7.143   2.070   5.347
 2838TIP3   OH2 8456   1.510   0.323   4.895
 2838TIP3    H1 8457   1.517   0.262   4.969
 2838TIP3    H2 8458   1.465   0.399   4.931
 2839TIP3   OH2 8459   1.976   5.834   0.730
 2839TIP3    H1 8460   1.883   5.849   0.715
 2839TIP3    H2 8461   2.016   5.921   0.723
 2840TIP3   OH2 8462   0.769   6.074   2.513
 2840TIP3    H1 8463   0.840   6.136   2.499
 2840TIP3    H2 8464   0.741   6.089   2.604
 2841TIP3   OH2 8465   6.223   7.571   0.727
 2841TIP3    H1 8466   6.157   7.629   0.691
 2841TIP3    H2 8467   6.289   7.630   0.764
 2842TIP3   OH2 8468   0.194   6.616   6.619
 2842TIP3    H1 8469   0.188   6.671   6.541
 2842TIP3    H2 8470   0.133   6.544   6.602
 2843TIP3   OH2 8471   2.174   4.506   3.778
 2843TIP3    H1 8472   2.233   4.501   3.853
 2843TIP3    H2 8473   2.086   4.510   3.816
 2844TIP3   OH2 8474   6.813   1.840   3.690
 2844TIP3    H1 8475   6.877   1.775   3.718
 2844TIP3    H2 8476   6.743   1.834   3.755
 2845TIP3   OH2 8477   3.550   0.512   1.896
 2845TIP3    H1 8478   3.569   0.554   1.980
 2845TIP3    H2 8479   3.560   0.419   1.913
 2846TIP3   OH2 8480   6.924   0.453   2.098
 2846TIP3    H1 8481   6.832   0.477   2.113
 2846TIP3    H2 8482   6.955   0.421   2.183
 2847TIP3   OH2 8483   2.804   6.815   3.193
 2847TIP3    H1 8484   2.749   6.890   3.214
 2847TIP3    H2 8485   2.744   6.750   3.157
 2848TIP3   OH2 8486   2.925   6.116   6.687
 2848TIP3    H1 8487   2.944   6.204   6.720
 2848TIP3    H2 8488   3.005   6.091   6.641
 2849TIP3   OH2 8489   1.435   1.598   0.996
 2849TIP3    H1 8490   1.437   1.686   0.959
 2849TIP3    H2 8491   1.378   1.606   1.072
 2850TIP3   OH2 8492   7.822   5.820   0.224
 2850TIP3    H1 8493   7.853   5.796   0.137
 2850TIP3    H2 8494   7.864   5.904   0.242
 2851TIP3   OH2 8495   0.239   4.175   4.077
 2851TIP3    H1 8496   0.217   4.250   4.133
 2851TIP3    H2 8497   0.332   4.189   4.055
 2852TIP3   OH2 8498   5.699   7.635   2.525
 2852TIP3    H1 8499   5.680   7.711   2.581
 2852TIP3    H2 8500   5.754   7.670   2.456
 2853TIP3   OH2 8501   6.428   0.286   3.409
 2853TIP3    H1 8502   6.520   0.308   3.398
 2853TIP3    H2 8503   6.424   0.244   3.495
 2854TIP3   OH2 8504   2.943   2.604   2.896
 2854TIP3    H1 8505   3.028   2.632   2.861
 2854TIP3    H2 8506   2.963   2.567   2.981
 2855TIP3   OH2 8507   6.501   6.996   3.017
 2855TIP3    H1 8508   6.453   6.946   2.951
 2855TIP3    H2 8509   6.447   7.074   3.033
 2856TIP3   OH2 8510   1.379   7.057   2.682
 2856TIP3    H1 8511   1.316   6.991   2.711
 2856TIP3    H2 8512   1.456   7.006   2.654
 2857TIP3   OH2 8513   5.023   1.690   5.429
 2857TIP3    H1 8514   5.088   1.640   5.381
 2857TIP3    H2 8515   5.053   1.781   5.423
 2858TIP3   OH2 8516   2.581   1.463   0.140
 2858TIP3    H1 8517   2.520   1.470   0.213
 2858TIP3    H2 8518   2.573   1.546   0.094
 2859TIP3   OH2 8519   6.586   5.577   4.005
 2859TIP3    H1 8520   6.616   5.661   3.969
 2859TIP3    H2 8521   6.634   5.567   4.087
 2860TIP3   OH2 8522   5.458   0.362   0.348
 2860TIP3    H1 8523   5.505   0.402   0.421
 2860TIP3    H2 8524   5.527   0.342   0.284
 2861TIP3   OH2 8525   2.037   1.984   2.888
 2861TIP3    H1 8526   2.053   1.891   2.872
 2861TIP3    H2 8527   1.987   2.012   2.812
 2862TIP3   OH2 8528   4.878   6.015   5.000
 2862TIP3    H1 8529   4.878   5.941   5.060
 2862TIP3    H2 8530   4.957   6.003   4.947
 2863TIP3   OH2 8531   1.823   3.832   3.532
 2863TIP3    H1 8532   1.784   3.841   3.619
 2863TIP3    H2 8533   1.894   3.770   3.543
 2864TIP3   OH2 8534   7.093   0.137   4.719
 2864TIP3    H1 8535   7.038   0.058   4.722
 2864TIP3    H2 8536   7.040   0.204   4.762
 2865TIP3   OH2 8537   0.554   0.239   3.676
 2865TIP3    H1 8538   0.559   0.334   3.668
 2865TIP3    H2 8539   0.504   0.210   3.599
 2866TIP3   OH2 8540   4.876   5.663   6.090
 2866TIP3    H1 8541   4.824   5.583   6.088
 2866TIP3    H2 8542   4.948   5.647   6.029
 2867TIP3   OH2 8543   5.270   2.092   1.980
 2867TIP3    H1 8544   5.209   2.081   1.907
 2867TIP3    H2 8545   5.357   2.079   1.942
 2868TIP3   OH2 8546   0.999   5.957   1.672
 2868TIP3    H1 8547   0.936   5.897   1.632
 2868TIP3    H2 8548   1.038   6.005   1.599
 2869TIP3   OH2 8549   4.238   5.037   2.122
 2869TIP3    H1 8550   4.269   5.037   2.213
 2869TIP3    H2 8551   4.159   5.090   2.124
 2870TIP3   OH2 8552   2.498   1.549   3.181
 2870TIP3    H1 8553   2.552   1.490   3.234
 2870TIP3    H2 8554   2.473   1.619   3.241
 2871TIP3   OH2 8555   4.527   5.362   3.772
 2871TIP3    H1 8556   4.613   5.357   3.814
 2871TIP3    H2 8557   4.546   5.367   3.678
 2872TIP3   OH2 8558   1.524   1.880   1.376
 2872TIP3    H1 8559   1.618   1.869   1.394
 2872TIP3    H2 8560   1.485   1.894   1.463
 2873TIP3   OH2 8561   2.628   7.074   4.186
 2873TIP3    H1 8562   2.700   7.127   4.151
 2873TIP3    H2 8563   2.623   6.999   4.127
 2874TIP3   OH2 8564   2.502   7.236   2.715
 2874TIP3    H1 8565   2.588   7.232   2.675
 2874TIP3    H2 8566   2.444   7.191   2.653
 2875TIP3   OH2 8567   7.552   4.357   3.090
 2875TIP3    H1 8568   7.602   4.428   3.050
 2875TIP3    H2 8569   7.612   4.317   3.152
 2876TIP3   OH2 8570   1.581   7.761   6.067
 2876TIP3    H1 8571   1.618   7.674   6.049
 2876TIP3    H2 8572   1.509   7.744   6.128
 2877TIP3   OH2 8573   4.944   7.327   1.818
 2877TIP3    H1 8574   5.032   7.331   1.782
 2877TIP3    H2 8575   4.953   7.363   1.907
 2878TIP3   OH2 8576   6.083   4.159   5.472
 2878TIP3    H1 8577   6.169   4.181   5.435
 2878TIP3    H2 8578   6.102   4.100   5.544
 2879TIP3   OH2 8579   2.719   5.521   3.678
 2879TIP3    H1 8580   2.715   5.431   3.645
 2879TIP3    H2 8581   2.652   5.525   3.746
 2880TIP3   OH2 8582   1.498   1.477   0.211
 2880TIP3    H1 8583   1.416   1.433   0.234
 2880TIP3    H2 8584   1.526   1.434   0.130
 2881TIP3   OH2 8585   1.276   1.608   4.290
 2881TIP3    H1 8586   1.232   1.630   4.208
 2881TIP3    H2 8587   1.317   1.523   4.273
 2882TIP3   OH2 8588   4.899   0.892   4.408
 2882TIP3    H1 8589   4.824   0.834   4.402
 2882TIP3    H2 8590   4.915   0.920   4.319
 2883TIP3   OH2 8591   2.602   4.542   2.553
 2883TIP3    H1 8592   2.692   4.563   2.580
 2883TIP3    H2 8593   2.611   4.471   2.489
 2884TIP3   OH2 8594   1.251   1.051   5.288
 2884TIP3    H1 8595   1.243   1.003   5.371
 2884TIP3    H2 8596   1.197   1.129   5.300
 2885TIP3   OH2 8597   1.563   7.551   5.222
 2885TIP3    H1 8598   1.608   7.633   5.199
 2885TIP3    H2 8599   1.494   7.577   5.283
 2886TIP3   OH2 8600   1.382   4.233   6.569
 2886TIP3    H1 8601   1.443   4.159   6.564
 2886TIP3    H2 8602   1.306   4.204   6.518
 2887TIP3   OH2 8603   7.619   7.466   5.067
 2887TIP3    H1 8604   7.598   7.427   4.983
 2887TIP3    H2 8605   7.547   7.437   5.125
 2888TIP3   OH2 8606   8.020   5.184   6.133
 2888TIP3    H1 8607   8.052   5.127   6.063
 2888TIP3    H2 8608   8.069   5.265   6.123
 2889TIP3   OH2 8609   1.254   4.339   3.182
 2889TIP3    H1 8610   1.173   4.391   3.180
 2889TIP3    H2 8611   1.294   4.361   3.266
 2890TIP3   OH2 8612   2.615   0.444   2.881
 2890TIP3    H1 8613   2.670   0.522   2.878
 2890TIP3    H2 8614   2.597   0.430   2.974
 2891TIP3   OH2 8615   5.772   0.406   4.086
 2891TIP3    H1 8616   5.806   0.399   3.996
 2891TIP3    H2 8617   5.708   0.477   4.082
 2892TIP3   OH2 8618   4.906   2.713   4.476
 2892TIP3    H1 8619   4.959   2.741   4.401
 2892TIP3    H2 8620   4.965   2.657   4.527
 2893TIP3   OH2 8621   0.238   2.029   1.930
 2893TIP3    H1 8622   0.202   2.117   1.942
 2893TIP3    H2 8623   0.220   2.009   1.838
 2894TIP3   OH2 8624   0.238   0.500   3.270
 2894TIP3    H1 8625   0.186   0.455   3.205
 2894TIP3    H2 8626   0.215   0.458   3.353
 2895TIP3   OH2 8627   6.375   2.792   1.598
 2895TIP3    H1 8628   6.332   2.878   1.589
 2895TIP3    H2 8629   6.341   2.741   1.524
 2896TIP3   OH2 8630   7.017   7.498   0.455
 2896TIP3    H1 8631   6.926   7.510   0.426
 2896TIP3    H2 8632   7.024   7.404   0.473
 2897TIP3   OH2 8633   6.872   6.509   5.158
 2897TIP3    H1 8634   6.782   6.509   5.190
 2897TIP3    H2 8635   6.924   6.476   5.231
 2898TIP3   OH2 8636   7.382   1.243   3.895
 2898TIP3    H1 8637   7.410   1.218   3.807
 2898TIP3    H2 8638   7.287   1.232   3.894
 2899TIP3   OH2 8639   3.287   5.054   6.674
 2899TIP3    H1 8640   3.230   4.978   6.686
 2899TIP3    H2 8641   3.353   5.045   6.744
 2900TIP3   OH2 8642   4.768   6.379   4.689
 2900TIP3    H1 8643   4.791   6.471   4.674
 2900TIP3    H2 8644   4.850   6.332   4.683
 2901TIP3   OH2 8645   7.562   0.103   0.286
 2901TIP3    H1 8646   7.609   0.184   0.308
 2901TIP3    H2 8647   7.476   0.113   0.327
 2902TIP3   OH2 8648   4.724   4.576   1.640
 2902TIP3    H1 8649   4.776   4.594   1.562
 2902TIP3    H2 8650   4.781   4.603   1.713
 2903TIP3   OH2 8651   3.452   5.706   5.035
 2903TIP3    H1 8652   3.532   5.748   5.004
 2903TIP3    H2 8653   3.427   5.756   5.113
 2904TIP3   OH2 8654   0.308   5.657   3.474
 2904TIP3    H1 8655   0.236   5.649   3.411
 2904TIP3    H2 8656   0.322   5.568   3.506
 2905TIP3   OH2 8657   1.742   3.480   5.483
 2905TIP3    H1 8658   1.706   3.560   5.520
 2905TIP3    H2 8659   1.719   3.484   5.390
 2906TIP3   OH2 8660   1.917   5.046   1.329
 2906TIP3    H1 8661   2.010   5.028   1.313
 2906TIP3    H2 8662   1.871   4.972   1.289
 2907TIP3   OH2 8663   4.481   0.010   5.387
 2907TIP3    H1 8664   4.551  -0.022   5.444
 2907TIP3    H2 8665   4.468   0.101   5.413
 2908TIP3   OH2 8666   6.033   0.112   3.741
 2908TIP3    H1 8667   6.109   0.125   3.684
 2908TIP3    H2 8668   6.037   0.185   3.803
 2909TIP3   OH2 8669   3.366   6.058   5.460
 2909TIP3    H1 8670   3.419   6.004   5.519
 2909TIP3    H2 8671   3.276   6.031   5.476
 2910TIP3   OH2 8672   3.441   7.048   5.780
 2910TIP3    H1 8673   3.390   6.970   5.803
 2910TIP3    H2 8674   3.398   7.120   5.826
 2911TIP3   OH2 8675   4.614   1.299   1.370
 2911TIP3    H1 8676   4.697   1.328   1.409
 2911TIP3    H2 8677   4.626   1.313   1.276
 2912TIP3   OH2 8678   1.285   5.564   3.808
 2912TIP3    H1 8679   1.269   5.497   3.742
 2912TIP3    H2 8680   1.326   5.517   3.881
 2913TIP3   OH2 8681   5.724   7.649   1.574
 2913TIP3    H1 8682   5.761   7.561   1.580
 2913TIP3    H2 8683   5.796   7.704   1.542
 2914TIP3   OH2 8684   8.252   4.247   5.036
 2914TIP3    H1 8685   8.266   4.327   5.086
 2914TIP3    H2 8686   8.291   4.264   4.951
 2915TIP3   OH2 8687   0.160   1.781   1.214
 2915TIP3    H1 8688   0.183   1.729   1.137
 2915TIP3    H2 8689   0.242   1.822   1.240
 2916TIP3   OH2 8690   0.964   3.558   3.763
 2916TIP3    H1 8691   0.882   3.590   3.725
 2916TIP3    H2 8692   0.939   3.478   3.809
 2917TIP3   OH2 8693   2.567   7.425   1.535
 2917TIP3    H1 8694   2.627   7.350   1.533
 2917TIP3    H2 8695   2.502   7.405   1.468
 2918TIP3   OH2 8696   1.969   0.050   5.334
 2918TIP3    H1 8697   2.033   0.098   5.386
 2918TIP3    H2 8698   1.993   0.068   5.243
 2919TIP3   OH2 8699   4.609   1.918   4.870
 2919TIP3    H1 8700   4.580   1.995   4.919
 2919TIP3    H2 8701   4.700   1.936   4.847
 2920TIP3   OH2 8702   5.429   3.007   3.077
 2920TIP3    H1 8703   5.352   3.045   3.034
 2920TIP3    H2 8704   5.504   3.043   3.028
 2921TIP3   OH2 8705   2.221   4.389   0.361
 2921TIP3    H1 8706   2.303   4.434   0.342
 2921TIP3    H2 8707   2.238   4.337   0.439
 2922TIP3   OH2 8708   1.004   3.464   3.113
 2922TIP3    H1 8709   0.913   3.436   3.103
 2922TIP3    H2 8710   1.033   3.485   3.025
 2923TIP3   OH2 8711   3.455   7.328   4.083
 2923TIP3    H1 8712   3.543   7.359   4.105
 2923TIP3    H2 8713   3.449   7.339   3.988
 2924TIP3   OH2 8714   3.305   4.908   6.174
 2924TIP3    H1 8715   3.234   4.908   6.110
 2924TIP3    H2 8716   3.260   4.898   6.259
 2925TIP3   OH2 8717   4.867  -0.009   4.068
 2925TIP3    H1 8718   4.906  -0.010   4.155
 2925TIP3    H2 8719   4.844   0.082   4.052
 2926TIP3   OH2 8720   2.929   1.896   2.065
 2926TIP3    H1 8721   2.951   1.817   2.016
 2926TIP3    H2 8722   2.995   1.900   2.135
 2927TIP3   OH2 8723   0.252   0.684   0.442
 2927TIP3    H1 8724   0.161   0.660   0.423
 2927TIP3    H2 8725   0.246   0.759   0.500
 2928TIP3   OH2 8726   1.773   5.936   3.874
 2928TIP3    H1 8727   1.836   5.902   3.810
 2928TIP3    H2 8728   1.707   5.981   3.822
 2929TIP3   OH2 8729   4.396   5.428   4.025
 2929TIP3    H1 8730   4.334   5.360   4.052
 2929TIP3    H2 8731   4.432   5.395   3.942
 2930TIP3   OH2 8732   2.610   3.950   6.072
 2930TIP3    H1 8733   2.578   3.861   6.057
 2930TIP3    H2 8734   2.665   3.969   5.996
 2931TIP3   OH2 8735   7.354   3.603   3.877
 2931TIP3    H1 8736   7.273   3.627   3.922
 2931TIP3    H2 8737   7.346   3.509   3.861
 2932TIP3   OH2 8738   6.886   5.831   4.956
 2932TIP3    H1 8739   6.933   5.846   4.874
 2932TIP3    H2 8740   6.853   5.741   4.949
 2933TIP3   OH2 8741   2.855   5.250   6.524
 2933TIP3    H1 8742   2.891   5.195   6.454
 2933TIP3    H2 8743   2.872   5.340   6.494
 2934TIP3   OH2 8744   2.334   0.146   3.966
 2934TIP3    H1 8745   2.361   0.144   3.875
 2934TIP3    H2 8746   2.408   0.184   4.013
 2935TIP3   OH2 8747   2.511   2.734   3.712
 2935TIP3    H1 8748   2.546   2.815   3.674
 2935TIP3    H2 8749   2.416   2.746   3.712
 2936TIP3   OH2 8750   3.405   0.172   4.114
 2936TIP3    H1 8751   3.427   0.198   4.203
 2936TIP3    H2 8752   3.310   0.162   4.114
 2937TIP3   OH2 8753   0.228   7.335   3.191
 2937TIP3    H1 8754   0.268   7.417   3.222
 2937TIP3    H2 8755   0.210   7.285   3.270
 2938TIP3   OH2 8756   6.959   3.944   0.990
 2938TIP3    H1 8757   6.986   3.988   0.909
 2938TIP3    H2 8758   7.030   3.883   1.009
 2939TIP3   OH2 8759   0.457   4.826   1.217
 2939TIP3    H1 8760   0.503   4.808   1.135
 2939TIP3    H2 8761   0.508   4.780   1.284
 2940TIP3   OH2 8762   1.093   2.840   4.936
 2940TIP3    H1 8763   1.100   2.935   4.950
 2940TIP3    H2 8764   1.033   2.832   4.862
 2941TIP3   OH2 8765   7.439   5.055   3.437
 2941TIP3    H1 8766   7.351   5.020   3.451
 2941TIP3    H2 8767   7.492   4.978   3.415
 2942TIP3   OH2 8768   1.971   1.759   2.640
 2942TIP3    H1 8769   2.037   1.818   2.603
 2942TIP3    H2 8770   1.890   1.781   2.594
 2943TIP3   OH2 8771   7.920   7.528   6.570
 2943TIP3    H1 8772   7.865   7.461   6.610
 2943TIP3    H2 8773   7.944   7.493   6.485
 2944TIP3   OH2 8774   7.927   6.160   3.381
 2944TIP3    H1 8775   7.862   6.213   3.334
 2944TIP3    H2 8776   7.957   6.217   3.452
 2945TIP3   OH2 8777   5.842   6.791   3.433
 2945TIP3    H1 8778   5.854   6.846   3.356
 2945TIP3    H2 8779   5.757   6.816   3.468
 2946TIP3   OH2 8780   2.519   6.443   5.313
 2946TIP3    H1 8781   2.586   6.512   5.309
 2946TIP3    H2 8782   2.438   6.490   5.336
 2947TIP3   OH2 8783   5.919   7.142   4.213
 2947TIP3    H1 8784   5.954   7.227   4.184
 2947TIP3    H2 8785   5.839   7.131   4.162
 2948TIP3   OH2 8786   5.262   6.495   1.080
 2948TIP3    H1 8787   5.311   6.566   1.121
 2948TIP3    H2 8788   5.210   6.458   1.151
 2949TIP3   OH2 8789   4.297   4.681   2.563
 2949TIP3    H1 8790   4.374   4.721   2.524
 2949TIP3    H2 8791   4.315   4.681   2.657
 2950TIP3   OH2 8792   0.887   6.868   5.700
 2950TIP3    H1 8793   0.837   6.946   5.725
 2950TIP3    H2 8794   0.832   6.794   5.725
 2951TIP3   OH2 8795   6.474   0.836   2.146
 2951TIP3    H1 8796   6.496   0.821   2.054
 2951TIP3    H2 8797   6.389   0.792   2.157
 2952TIP3   OH2 8798   2.147   7.278   3.521
 2952TIP3    H1 8799   2.070   7.270   3.577
 2952TIP3    H2 8800   2.144   7.201   3.464
 2953TIP3   OH2 8801   1.068   4.693   3.095
 2953TIP3    H1 8802   1.147   4.682   3.148
 2953TIP3    H2 8803   1.101   4.712   3.007
 2954TIP3   OH2 8804   4.918   2.615   5.398
 2954TIP3    H1 8805   4.837   2.661   5.416
 2954TIP3    H2 8806   4.987   2.672   5.431
 2955TIP3   OH2 8807   1.634   5.116   5.204
 2955TIP3    H1 8808   1.673   5.202   5.186
 2955TIP3    H2 8809   1.555   5.136   5.254
 2956TIP3   OH2 8810   7.624   3.495   2.843
 2956TIP3    H1 8811   7.699   3.467   2.894
 2956TIP3    H2 8812   7.660   3.515   2.756
 2957TIP3   OH2 8813   1.044   3.585   2.703
 2957TIP3    H1 8814   1.099   3.539   2.766
 2957TIP3    H2 8815   0.955   3.575   2.736
 2958TIP3   OH2 8816   6.264   6.498   1.117
 2958TIP3    H1 8817   6.305   6.541   1.042
 2958TIP3    H2 8818   6.170   6.500   1.098
 2959TIP3   OH2 8819   7.615   6.844   6.298
 2959TIP3    H1 8820   7.680   6.799   6.245
 2959TIP3    H2 8821   7.578   6.911   6.239
 2960TIP3   OH2 8822   3.734   1.264   4.620
 2960TIP3    H1 8823   3.750   1.186   4.673
 2960TIP3    H2 8824   3.807   1.267   4.558
 2961TIP3   OH2 8825   3.111   7.420   0.169
 2961TIP3    H1 8826   3.148   7.504   0.145
 2961TIP3    H2 8827   3.049   7.399   0.099
 2962TIP3   OH2 8828   3.801   7.314   6.097
 2962TIP3    H1 8829   3.736   7.372   6.057
 2962TIP3    H2 8830   3.883   7.337   6.054
 2963TIP3   OH2 8831   5.951   4.933   5.204
 2963TIP3    H1 8832   5.888   4.908   5.271
 2963TIP3    H2 8833   6.027   4.965   5.253
 2964TIP3   OH2 8834   8.151   6.745   3.359
 2964TIP3    H1 8835   8.114   6.664   3.324
 2964TIP3    H2 8836   8.082   6.780   3.415
 2965TIP3   OH2 8837   5.054   6.800   5.152
 2965TIP3    H1 8838   4.962   6.783   5.132
 2965TIP3    H2 8839   5.085   6.854   5.079
 2966TIP3   OH2 8840   3.557   6.096   6.344
 2966TIP3    H1 8841   3.635   6.151   6.340
 2966TIP3    H2 8842   3.520   6.113   6.431
 2967TIP3   OH2 8843   0.381   0.631   5.337
 2967TIP3    H1 8844   0.407   0.539   5.336
 2967TIP3    H2 8845   0.295   0.632   5.296
 2968TIP3   OH2 8846   2.622   1.199   1.585
 2968TIP3    H1 8847   2.658   1.123   1.629
 2968TIP3    H2 8848   2.623   1.176   1.492
 2969TIP3   OH2 8849   2.476   3.959   2.844
 2969TIP3    H1 8850   2.539   4.028   2.824
 2969TIP3    H2 8851   2.476   3.903   2.767
 2970TIP3   OH2 8852   5.838   0.289   3.564
 2970TIP3    H1 8853   5.819   0.196   3.550
 2970TIP3    H2 8854   5.921   0.304   3.518
 2971TIP3   OH2 8855   5.618   1.583   4.542
 2971TIP3    H1 8856   5.695   1.557   4.594
 2971TIP3    H2 8857   5.655   1.634   4.470
 2972TIP3   OH2 8858   6.986   1.664   3.887
 2972TIP3    H1 8859   6.944   1.592   3.935
 2972TIP3    H2 8860   6.971   1.741   3.941
 2973TIP3   OH2 8861   2.264   2.702   1.986
 2973TIP3    H1 8862   2.336   2.639   1.992
 2973TIP3    H2 8863   2.280   2.750   1.905
 2974TIP3   OH2 8864   5.804   6.758   3.124
 2974TIP3    H1 8865   5.887   6.798   3.149
 2974TIP3    H2 8866   5.754   6.829   3.083
 2975TIP3   OH2 8867   2.410   6.610   2.920
 2975TIP3    H1 8868   2.418   6.522   2.882
 2975TIP3    H2 8869   2.499   6.631   2.950
 2976TIP3   OH2 8870   1.592   0.195   2.638
 2976TIP3    H1 8871   1.505   0.189   2.599
 2976TIP3    H2 8872   1.617   0.104   2.656
 2977TIP3   OH2 8873   0.196   4.894   6.492
 2977TIP3    H1 8874   0.142   4.816   6.480
 2977TIP3    H2 8875   0.257   4.893   6.418
 2978TIP3   OH2 8876   4.985   6.271   2.211
 2978TIP3    H1 8877   4.892   6.258   2.229
 2978TIP3    H2 8878   4.993   6.365   2.197
 2979TIP3   OH2 8879   7.085   0.059   2.425
 2979TIP3    H1 8880   7.041   0.069   2.340
 2979TIP3    H2 8881   7.176   0.083   2.407
 2980TIP3   OH2 8882   6.734   0.387   0.503
 2980TIP3    H1 8883   6.653   0.423   0.469
 2980TIP3    H2 8884   6.782   0.358   0.426
 2981TIP3   OH2 8885   3.291   6.224   6.026
 2981TIP3    H1 8886   3.197   6.225   6.042
 2981TIP3    H2 8887   3.317   6.316   6.028
 2982TIP3   OH2 8888   5.146   4.638   1.779
 2982TIP3    H1 8889   5.147   4.703   1.708
 2982TIP3    H2 8890   5.236   4.606   1.784
 2983TIP3   OH2 8891   2.779   2.917   6.514
 2983TIP3    H1 8892   2.699   2.868   6.494
 2983TIP3    H2 8893   2.749   2.995   6.561
 2984TIP3   OH2 8894   3.769   6.694   3.150
 2984TIP3    H1 8895   3.674   6.691   3.134
 2984TIP3    H2 8896   3.808   6.674   3.065
 2985TIP3   OH2 8897   5.222   5.837   6.475
 2985TIP3    H1 8898   5.172   5.825   6.556
 2985TIP3    H2 8899   5.175   5.906   6.428
 2986TIP3   OH2 8900   1.332   7.076   3.880
 2986TIP3    H1 8901   1.410   7.128   3.864
 2986TIP3    H2 8902   1.261   7.140   3.885
 2987TIP3   OH2 8903   7.560   4.583   3.821
 2987TIP3    H1 8904   7.472   4.581   3.783
 2987TIP3    H2 8905   7.562   4.508   3.881
 2988TIP3   OH2 8906   4.735   5.381   0.329
 2988TIP3    H1 8907   4.768   5.470   0.338
 2988TIP3    H2 8908   4.646   5.392   0.294
 2989TIP3   OH2 8909   5.382   2.827   2.087
 2989TIP3    H1 8910   5.408   2.750   2.138
 2989TIP3    H2 8911   5.287   2.834   2.101
 2990TIP3   OH2 8912   2.227   4.694   0.763
 2990TIP3    H1 8913   2.270   4.630   0.819
 2990TIP3    H2 8914   2.192   4.642   0.690
 2991TIP3   OH2 8915   2.662   7.717   2.194
 2991TIP3    H1 8916   2.684   7.653   2.127
 2991TIP3    H2 8917   2.567   7.720   2.195
 2992TIP3   OH2 8918   6.277   5.328   5.156
 2992TIP3    H1 8919   6.279   5.335   5.251
 2992TIP3    H2 8920   6.251   5.237   5.139
 2993TIP3   OH2 8921   6.567   2.885   2.578
 2993TIP3    H1 8922   6.607   2.969   2.601
 2993TIP3    H2 8923   6.518   2.902   2.498
 2994TIP3   OH2 8924   7.369   0.028   6.249
 2994TIP3    H1 8925   7.395  -0.038   6.184
 2994TIP3    H2 8926   7.351   0.106   6.198
 2995TIP3   OH2 8927   8.191   3.308   4.264
 2995TIP3    H1 8928   8.116   3.334   4.318
 2995TIP3    H2 8929   8.209   3.218   4.289
 2996TIP3   OH2 8930   1.033   7.262   4.532
 2996TIP3    H1 8931   1.063   7.242   4.620
 2996TIP3    H2 8932   1.096   7.326   4.499
 2997TIP3   OH2 8933   5.560   0.996   1.941
 2997TIP3    H1 8934   5.645   1.013   1.983
 2997TIP3    H2 8935   5.518   0.932   1.998
 2998TIP3   OH2 8936   3.827   3.949   4.691
 2998TIP3    H1 8937   3.858   4.030   4.730
 2998TIP3    H2 8938   3.797   3.973   4.604
 2999TIP3   OH2 8939   5.379   4.627   3.341
 2999TIP3    H1 8940   5.358   4.692   3.274
 2999TIP3    H2 8941   5.298   4.618   3.392
 3000TIP3   OH2 8942   3.961   0.245   6.398
 3000TIP3    H1 8943   3.914   0.202   6.327
 3000TIP3    H2 8944   4.026   0.181   6.427
 3001TIP3   OH2 8945   6.884   7.069   3.072
 3001TIP3    H1 8946   6.834   6.999   3.114
 3001TIP3    H2 8947   6.972   7.033   3.062
 3002TIP3   OH2 8948   1.242   2.505   3.349
 3002TIP3    H1 8949   1.267   2.450   3.424
 3002TIP3    H2 8950   1.163   2.550   3.378
 3003TIP3   OH2 8951   0.757   5.679   3.370
 3003TIP3    H1 8952   0.686   5.687   3.307
 3003TIP3    H2 8953   0.760   5.764   3.414
 3004TIP3   OH2 8954   1.746   0.529   6.703
 3004TIP3    H1 8955   1.824   0.476   6.687
 3004TIP3    H2 8956   1.728   0.518   6.797
 3005TIP3   OH2 8957   2.662   2.537   4.090
 3005TIP3    H1 8958   2.662   2.594   4.167
 3005TIP3    H2 8959   2.706   2.588   4.022
 3006TIP3   OH2 8960   6.724   5.135   2.536
 3006TIP3    H1 8961   6.695   5.214   2.490
 3006TIP3    H2 8962   6.688   5.144   2.624
 3007TIP3   OH2 8963   6.664   7.536   3.247
 3007TIP3    H1 8964   6.715   7.488   3.181
 3007TIP3    H2 8965   6.622   7.468   3.299
 3008TIP3   OH2 8966   3.535   2.213   3.214
 3008TIP3    H1 8967   3.450   2.174   3.237
 3008TIP3    H2 8968   3.526   2.238   3.122
 3009TIP3   OH2 8969   7.398   2.884   0.976
 3009TIP3    H1 8970   7.437   2.961   1.017
 3009TIP3    H2 8971   7.448   2.870   0.896
 3010TIP3   OH2 8972   8.002   7.719   6.333
 3010TIP3    H1 8973   8.059   7.653   6.292
 3010TIP3    H2 8974   8.037   7.803   6.303
 3011TIP3   OH2 8975   0.080   4.133   6.584
 3011TIP3    H1 8976   0.161   4.128   6.535
 3011TIP3    H2 8977   0.025   4.063   6.548
 3012TIP3   OH2 8978   7.955   1.639   6.637
 3012TIP3    H1 8979   7.911   1.556   6.653
 3012TIP3    H2 8980   7.891   1.693   6.592
 3013TIP3   OH2 8981   4.421   7.699   3.741
 3013TIP3    H1 8982   4.372   7.777   3.716
 3013TIP3    H2 8983   4.362   7.626   3.722
 3014TIP3   OH2 8984   6.702   2.629   0.726
 3014TIP3    H1 8985   6.614   2.592   0.733
 3014TIP3    H2 8986   6.760   2.553   0.735
 3015TIP3   OH2 8987   6.302   3.780   6.659
 3015TIP3    H1 8988   6.209   3.762   6.648
 3015TIP3    H2 8989   6.338   3.778   6.570
 3016TIP3   OH2 8990   1.700   2.371   3.592
 3016TIP3    H1 8991   1.748   2.300   3.634
 3016TIP3    H2 8992   1.723   2.364   3.499
 3017TIP3   OH2 8993   7.092   4.286   6.241
 3017TIP3    H1 8994   7.153   4.262   6.311
 3017TIP3    H2 8995   7.021   4.223   6.248
 3018TIP3   OH2 8996   2.581   4.784   3.294
 3018TIP3    H1 8997   2.552   4.799   3.204
 3018TIP3    H2 8998   2.500   4.769   3.343
 3019TIP3   OH2 8999   7.292   5.069   1.862
 3019TIP3    H1 9000   7.385   5.047   1.871
 3019TIP3    H2 9001   7.248   4.984   1.852
 3020TIP3   OH2 9002   2.540   5.642   1.018
 3020TIP3    H1 9003   2.504   5.577   0.958
 3020TIP3    H2 9004   2.474   5.710   1.023
 3021TIP3   OH2 9005   2.061   1.326   1.557
 3021TIP3    H1 9006   2.076   1.312   1.464
 3021TIP3    H2 9007   2.114   1.258   1.600
 3022TIP3   OH2 9008   4.320   5.900   5.580
 3022TIP3    H1 9009   4.398   5.894   5.524
 3022TIP3    H2 9010   4.279   5.982   5.554
 3023TIP3   OH2 9011   5.355   6.928   0.981
 3023TIP3    H1 9012   5.407   6.928   0.901
 3023TIP3    H2 9013   5.320   6.839   0.986
 3024TIP3   OH2 9014   1.745   3.852   5.434
 3024TIP3    H1 9015   1.706   3.797   5.502
 3024TIP3    H2 9016   1.755   3.937   5.477
 3025TIP3   OH2 9017   3.416   7.207   4.325
 3025TIP3    H1 9018   3.480   7.156   4.374
 3025TIP3    H2 9019   3.458   7.223   4.240
 3026TIP3   OH2 9020   2.150   2.961   3.255
 3026TIP3    H1 9021   2.122   2.884   3.205
 3026TIP3    H2 9022   2.111   3.035   3.208
 3027TIP3   OH2 9023   6.879   4.779   4.529
 3027TIP3    H1 9024   6.794   4.767   4.486
 3027TIP3    H2 9025   6.937   4.720   4.480
 3028TIP3   OH2 9026   6.788   5.674   6.793
 3028TIP3    H1 9027   6.731   5.597   6.783
 3028TIP3    H2 9028   6.867   5.652   6.744
 3029TIP3   OH2 9029   2.959   2.790   5.908
 3029TIP3    H1 9030   3.002   2.838   5.978
 3029TIP3    H2 9031   3.018   2.799   5.833
 3030TIP3   OH2 9032   8.101   0.692   0.671
 3030TIP3    H1 9033   8.021   0.740   0.694
 3030TIP3    H2 9034   8.127   0.649   0.752
 3031TIP3   OH2 9035   4.838   3.735   6.490
 3031TIP3    H1 9036   4.848   3.809   6.549
 3031TIP3    H2 9037   4.760   3.756   6.438
 3032TIP3   OH2 9038   0.070   4.288   5.817
 3032TIP3    H1 9039   0.105   4.373   5.789
 3032TIP3    H2 9040  -0.023   4.292   5.793
 3033TIP3   OH2 9041   7.894   4.042   3.752
 3033TIP3    H1 9042   7.910   4.002   3.837
 3033TIP3    H2 9043   7.813   4.092   3.764
 3034TIP3   OH2 9044   0.250   0.709   6.429
 3034TIP3    H1 9045   0.230   0.716   6.522
 3034TIP3    H2 9046   0.207   0.785   6.389
 3035TIP3   OH2 9047   7.750   5.150   2.012
 3035TIP3    H1 9048   7.772   5.204   2.088
 3035TIP3    H2 9049   7.745   5.211   1.939
 3036TIP3   OH2 9050   0.904   2.084   1.911
 3036TIP3    H1 9051   0.872   2.170   1.883
 3036TIP3    H2 9052   0.831   2.045   1.958
 3037TIP3   OH2 9053   2.163   4.943   1.604
 3037TIP3    H1 9054   2.162   4.933   1.699
 3037TIP3    H2 9055   2.172   5.037   1.590
 3038TIP3   OH2 9056   0.726   2.832   5.196
 3038TIP3    H1 9057   0.636   2.805   5.212
 3038TIP3    H2 9058   0.759   2.859   5.282
 3039TIP3   OH2 9059   1.448   2.033   6.382
 3039TIP3    H1 9060   1.410   1.957   6.426
 3039TIP3    H2 9061   1.413   2.108   6.430
 3040TIP3   OH2 9062   7.425   5.297   3.291
 3040TIP3    H1 9063   7.440   5.248   3.210
 3040TIP3    H2 9064   7.436   5.232   3.361
 3041TIP3   OH2 9065   1.325   1.172   2.568
 3041TIP3    H1 9066   1.260   1.197   2.634
 3041TIP3    H2 9067   1.396   1.236   2.578
 3042TIP3   OH2 9068   4.517   3.350   5.762
 3042TIP3    H1 9069   4.445   3.291   5.785
 3042TIP3    H2 9070   4.591   3.319   5.813
 3043TIP3   OH2 9071   3.223   4.036   5.286
 3043TIP3    H1 9072   3.307   4.046   5.332
 3043TIP3    H2 9073   3.244   3.986   5.208
 3044TIP3   OH2 9074   6.789   5.375   5.918
 3044TIP3    H1 9075   6.854   5.443   5.904
 3044TIP3    H2 9076   6.840   5.295   5.930
 3045TIP3   OH2 9077   7.273   5.927   2.008
 3045TIP3    H1 9078   7.207   5.973   2.060
 3045TIP3    H2 9079   7.251   5.949   1.917
 3046TIP3   OH2 9080   7.350   5.430   0.221
 3046TIP3    H1 9081   7.277   5.372   0.199
 3046TIP3    H2 9082   7.407   5.377   0.277
 3047TIP3   OH2 9083   4.156   4.398   6.389
 3047TIP3    H1 9084   4.070   4.439   6.397
 3047TIP3    H2 9085   4.189   4.394   6.479
 3048TIP3   OH2 9086   3.189   2.356   6.538
 3048TIP3    H1 9087   3.250   2.326   6.471
 3048TIP3    H2 9088   3.180   2.281   6.597
 3049TIP3   OH2 9089   6.881   0.985   0.100
 3049TIP3    H1 9090   6.933   0.957   0.175
 3049TIP3    H2 9091   6.937   0.971   0.024
 3050TIP3   OH2 9092   6.513   7.658   1.986
 3050TIP3    H1 9093   6.536   7.674   1.895
 3050TIP3    H2 9094   6.542   7.569   2.004
 3051TIP3   OH2 9095   2.003   6.655   6.492
 3051TIP3    H1 9096   2.054   6.583   6.529
 3051TIP3    H2 9097   1.928   6.664   6.551
 3052TIP3   OH2 9098   6.066   1.484   3.608
 3052TIP3    H1 9099   6.037   1.429   3.681
 3052TIP3    H2 9100   6.000   1.471   3.540
 3053TIP3   OH2 9101   4.475   6.375   4.241
 3053TIP3    H1 9102   4.541   6.396   4.306
 3053TIP3    H2 9103   4.423   6.455   4.232
 3054TIP3   OH2 9104   3.259   3.930   1.344
 3054TIP3    H1 9105   3.246   3.857   1.283
 3054TIP3    H2 9106   3.234   3.895   1.429
 3055TIP3   OH2 9107   4.873   4.805   0.238
 3055TIP3    H1 9108   4.823   4.737   0.282
 3055TIP3    H2 9109   4.806   4.859   0.195
 3056TIP3   OH2 9110   6.182   0.849   5.732
 3056TIP3    H1 9111   6.252   0.791   5.703
 3056TIP3    H2 9112   6.216   0.889   5.812
 3057TIP3   OH2 9113   1.805   6.958   3.152
 3057TIP3    H1 9114   1.790   6.880   3.205
 3057TIP3    H2 9115   1.900   6.966   3.147
 3058TIP3   OH2 9116   1.582   0.910   5.598
 3058TIP3    H1 9117   1.531   0.881   5.673
 3058TIP3    H2 9118   1.542   0.867   5.523
 3059TIP3   OH2 9119  -0.020   6.531   0.489
 3059TIP3    H1 9120   0.030   6.506   0.567
 3059TIP3    H2 9121  -0.035   6.625   0.498
 3060TIP3   OH2 9122   2.181   0.152   6.789
 3060TIP3    H1 9123   2.129   0.205   6.728
 3060TIP3    H2 9124   2.217   0.082   6.733
 3061TIP3   OH2 9125   6.621   5.748   6.014
 3061TIP3    H1 9126   6.539   5.747   6.063
 3061TIP3    H2 9127   6.688   5.775   6.077
 3062TIP3   OH2 9128   3.303   2.496   0.444
 3062TIP3    H1 9129   3.316   2.575   0.498
 3062TIP3    H2 9130   3.347   2.427   0.493
 3063TIP3   OH2 9131   7.622   6.939   1.203
 3063TIP3    H1 9132   7.665   6.919   1.286
 3063TIP3    H2 9133   7.560   7.009   1.224
 3064TIP3   OH2 9134   2.405   0.213   5.380
 3064TIP3    H1 9135   2.383   0.123   5.355
 3064TIP3    H2 9136   2.485   0.233   5.333
 3065TIP3   OH2 9137   5.185   5.923   1.627
 3065TIP3    H1 9138   5.227   5.950   1.545
 3065TIP3    H2 9139   5.252   5.935   1.694
 3066TIP3   OH2 9140   6.688   4.992   4.295
 3066TIP3    H1 9141   6.674   4.899   4.315
 3066TIP3    H2 9142   6.655   5.003   4.206
 3067TIP3   OH2 9143   2.595   2.778   2.020
 3067TIP3    H1 9144   2.655   2.742   1.955
 3067TIP3    H2 9145   2.592   2.872   2.000
 3068TIP3   OH2 9146   1.919   0.441   1.047
 3068TIP3    H1 9147   1.839   0.427   1.097
 3068TIP3    H2 9148   1.899   0.407   0.960
 3069TIP3   OH2 9149   0.037   4.826   2.002
 3069TIP3    H1 9150   0.127   4.794   2.014
 3069TIP3    H2 9151   0.041   4.881   1.924
 3070TIP3   OH2 9152   7.467   5.399   3.810
 3070TIP3    H1 9153   7.388   5.421   3.760
 3070TIP3    H2 9154   7.465   5.303   3.817
 3071TIP3   OH2 9155   4.179   1.294   2.330
 3071TIP3    H1 9156   4.227   1.344   2.396
 3071TIP3    H2 9157   4.098   1.344   2.316
 3072TIP3   OH2 9158   0.023   4.872   3.854
 3072TIP3    H1 9159   0.048   4.836   3.940
 3072TIP3    H2 9160   0.095   4.848   3.796
 3073TIP3   OH2 9161   7.792   2.140   1.318
 3073TIP3    H1 9162   7.854   2.143   1.245
 3073TIP3    H2 9163   7.714   2.099   1.282
 3074TIP3   OH2 9164   3.178   6.593   3.492
 3074TIP3    H1 9165   3.194   6.504   3.462
 3074TIP3    H2 9166   3.119   6.630   3.426
 3075TIP3   OH2 9167   3.252   6.130   0.309
 3075TIP3    H1 9168   3.307   6.067   0.355
 3075TIP3    H2 9169   3.173   6.082   0.287
 3076TIP3   OH2 9170   0.059   2.121   4.970
 3076TIP3    H1 9171  -0.006   2.088   4.908
 3076TIP3    H2 9172   0.074   2.212   4.943
 3077TIP3   OH2 9173   3.231   7.689   5.054
 3077TIP3    H1 9174   3.232   7.740   5.135
 3077TIP3    H2 9175   3.320   7.654   5.047
 3078TIP3   OH2 9176   7.373   3.714   5.546
 3078TIP3    H1 9177   7.467   3.735   5.546
 3078TIP3    H2 9178   7.330   3.795   5.519
 3079TIP3   OH2 9179   3.624   3.122   2.017
 3079TIP3    H1 9180   3.609   3.034   2.052
 3079TIP3    H2 9181   3.536   3.157   2.004
 3080TIP3   OH2 9182   6.470   6.556   5.503
 3080TIP3    H1 9183   6.472   6.466   5.468
 3080TIP3    H2 9184   6.449   6.545   5.596
 3081TIP3   OH2 9185   0.199   0.562   4.444
 3081TIP3    H1 9186   0.288   0.535   4.420
 3081TIP3    H2 9187   0.143   0.489   4.416
 3082TIP3   OH2 9188   5.513   0.155   3.317
 3082TIP3    H1 9189   5.591   0.210   3.323
 3082TIP3    H2 9190   5.547   0.065   3.310
 3083TIP3   OH2 9191   5.834   5.963   2.048
 3083TIP3    H1 9192   5.923   5.993   2.066
 3083TIP3    H2 9193   5.841   5.918   1.964
 3084TIP3   OH2 9194   3.202   5.155   2.089
 3084TIP3    H1 9195   3.178   5.214   2.017
 3084TIP3    H2 9196   3.295   5.172   2.104
 3085TIP3   OH2 9197   8.089   5.077   1.001
 3085TIP3    H1 9198   8.023   5.135   0.963
 3085TIP3    H2 9199   8.131   5.129   1.069
 3086TIP3   OH2 9200   6.547   1.895   2.885
 3086TIP3    H1 9201   6.536   1.980   2.927
 3086TIP3    H2 9202   6.592   1.841   2.951
 3087TIP3   OH2 9203   4.626   0.717   4.737
 3087TIP3    H1 9204   4.558   0.766   4.692
 3087TIP3    H2 9205   4.582   0.640   4.772
 3088TIP3   OH2 9206   4.195   4.632  -0.007
 3088TIP3    H1 9207   4.267   4.571   0.006
 3088TIP3    H2 9208   4.116   4.582   0.015
 3089TIP3   OH2 9209   6.152   2.949   5.910
 3089TIP3    H1 9210   6.124   3.026   5.960
 3089TIP3    H2 9211   6.089   2.944   5.837
 3090TIP3   OH2 9212   7.747   1.922   0.745
 3090TIP3    H1 9213   7.808   1.861   0.788
 3090TIP3    H2 9214   7.663   1.907   0.789
 3091TIP3   OH2 9215   1.296   4.920   3.088
 3091TIP3    H1 9216   1.376   4.972   3.092
 3091TIP3    H2 9217   1.326   4.830   3.075
 3092TIP3   OH2 9218   1.133   6.934   5.797
 3092TIP3    H1 9219   1.164   7.010   5.746
 3092TIP3    H2 9220   1.051   6.909   5.755
 3093TIP3   OH2 9221   1.546   1.545   2.768
 3093TIP3    H1 9222   1.536   1.549   2.863
 3093TIP3    H2 9223   1.606   1.616   2.747
 3094TIP3   OH2 9224   0.133   2.309   4.345
 3094TIP3    H1 9225   0.160   2.371   4.276
 3094TIP3    H2 9226   0.047   2.341   4.373
 3095TIP3   OH2 9227   0.499   7.087   3.649
 3095TIP3    H1 9228   0.437   7.039   3.595
 3095TIP3    H2 9229   0.456   7.095   3.734
 3096TIP3   OH2 9230   6.918   6.743   6.053
 3096TIP3    H1 9231   6.883   6.689   5.982
 3096TIP3    H2 9232   6.847   6.804   6.073
 3097TIP3   OH2 9233   3.852   0.157   0.387
 3097TIP3    H1 9234   3.823   0.071   0.419
 3097TIP3    H2 9235   3.772   0.209   0.380
 3098TIP3   OH2 9236   3.866   5.169   0.351
 3098TIP3    H1 9237   3.872   5.152   0.257
 3098TIP3    H2 9238   3.827   5.090   0.388
 3099TIP3   OH2 9239   7.530   3.639   2.344
 3099TIP3    H1 9240   7.546   3.557   2.391
 3099TIP3    H2 9241   7.615   3.661   2.306
 3100TIP3   OH2 9242   7.425   6.149   4.170
 3100TIP3    H1 9243   7.422   6.170   4.263
 3100TIP3    H2 9244   7.368   6.215   4.129
 3101TIP3   OH2 9245   2.554   2.899   5.340
 3101TIP3    H1 9246   2.473   2.922   5.386
 3101TIP3    H2 9247   2.588   2.982   5.307
 3102TIP3   OH2 9248   6.640   3.857   6.433
 3102TIP3    H1 9249   6.693   3.864   6.353
 3102TIP3    H2 9250   6.669   3.775   6.474
 3103TIP3   OH2 9251   1.695   5.210   1.559
 3103TIP3    H1 9252   1.771   5.151   1.556
 3103TIP3    H2 9253   1.726   5.285   1.610
 3104TIP3   OH2 9254   4.482   4.185   5.179
 3104TIP3    H1 9255   4.387   4.178   5.189
 3104TIP3    H2 9256   4.511   4.095   5.164
 3105TIP3   OH2 9257   0.823   2.249   0.951
 3105TIP3    H1 9258   0.837   2.197   0.872
 3105TIP3    H2 9259   0.839   2.188   1.023
 3106TIP3   OH2 9260   1.682   0.992   6.482
 3106TIP3    H1 9261   1.754   0.975   6.422
 3106TIP3    H2 9262   1.635   0.908   6.488
 3107TIP3   OH2 9263   4.790   6.432   6.239
 3107TIP3    H1 9264   4.810   6.499   6.305
 3107TIP3    H2 9265   4.712   6.388   6.274
 3108TIP3   OH2 9266   2.482   7.124   5.127
 3108TIP3    H1 9267   2.505   7.199   5.181
 3108TIP3    H2 9268   2.517   7.145   5.041
 3109TIP3   OH2 9269   1.841   3.111   4.075
 3109TIP3    H1 9270   1.884   3.165   4.009
 3109TIP3    H2 9271   1.900   3.036   4.086
 3110TIP3   OH2 9272   4.777   6.252   5.836
 3110TIP3    H1 9273   4.845   6.193   5.803
 3110TIP3    H2 9274   4.706   6.194   5.862
 3111TIP3   OH2 9275   0.333   1.308   4.220
 3111TIP3    H1 9276   0.376   1.393   4.215
 3111TIP3    H2 9277   0.274   1.317   4.295
 3112TIP3   OH2 9278   5.363   5.311   3.994
 3112TIP3    H1 9279   5.390   5.378   4.057
 3112TIP3    H2 9280   5.442   5.294   3.943
 3113TIP3   OH2 9281   8.233   2.915   3.590
 3113TIP3    H1 9282   8.215   2.829   3.551
 3113TIP3    H2 9283   8.154   2.966   3.571
 3114TIP3   OH2 9284   1.012   6.352   4.307
 3114TIP3    H1 9285   1.015   6.429   4.364
 3114TIP3    H2 9286   1.002   6.388   4.219
 3115TIP3   OH2 9287   2.303   6.192   3.476
 3115TIP3    H1 9288   2.353   6.270   3.451
 3115TIP3    H2 9289   2.299   6.195   3.571
 3116TIP3   OH2 9290   5.239   0.648   1.678
 3116TIP3    H1 9291   5.235   0.736   1.640
 3116TIP3    H2 9292   5.222   0.589   1.605
 3117TIP3   OH2 9293   6.355   4.425   0.226
 3117TIP3    H1 9294   6.373   4.403   0.134
 3117TIP3    H2 9295   6.332   4.342   0.267
 3118TIP3   OH2 9296   2.906   0.820   4.528
 3118TIP3    H1 9297   2.938   0.832   4.438
 3118TIP3    H2 9298   2.831   0.880   4.534
 3119TIP3   OH2 9299   5.968   0.792   5.559
 3119TIP3    H1 9300   5.957   0.870   5.505
 3119TIP3    H2 9301   6.046   0.811   5.612
 3120TIP3   OH2 9302   0.293   5.662   3.075
 3120TIP3    H1 9303   0.271   5.680   2.983
 3120TIP3    H2 9304   0.210   5.637   3.115
 3121TIP3   OH2 9305   0.895   0.528   3.240
 3121TIP3    H1 9306   0.807   0.536   3.203
 3121TIP3    H2 9307   0.898   0.596   3.308
 3122TIP3   OH2 9308   7.729   5.710   6.203
 3122TIP3    H1 9309   7.686   5.754   6.277
 3122TIP3    H2 9310   7.658   5.691   6.142
 3123TIP3   OH2 9311   0.115   5.648   2.401
 3123TIP3    H1 9312   0.142   5.688   2.318
 3123TIP3    H2 9313   0.192   5.599   2.429
 3124TIP3   OH2 9314   3.908   2.677   1.982
 3124TIP3    H1 9315   3.944   2.620   1.913
 3124TIP3    H2 9316   3.821   2.700   1.951
 3125TIP3   OH2 9317   6.340   6.640   6.807
 3125TIP3    H1 9318   6.338   6.709   6.741
 3125TIP3    H2 9319   6.321   6.560   6.759
 3126TIP3   OH2 9320   4.732   1.923   3.028
 3126TIP3    H1 9321   4.640   1.942   3.044
 3126TIP3    H2 9322   4.737   1.902   2.935
 3127TIP3   OH2 9323   5.703   2.955   0.313
 3127TIP3    H1 9324   5.777   2.960   0.374
 3127TIP3    H2 9325   5.656   3.037   0.327
 3128TIP3   OH2 9326   1.805   3.046   3.130
 3128TIP3    H1 9327   1.827   3.029   3.038
 3128TIP3    H2 9328   1.849   3.128   3.150
 3129TIP3   OH2 9329   0.428   5.181   0.693
 3129TIP3    H1 9330   0.431   5.115   0.762
 3129TIP3    H2 9331   0.516   5.218   0.691
 3130TIP3   OH2 9332   4.405   7.598   4.472
 3130TIP3    H1 9333   4.416   7.561   4.384
 3130TIP3    H2 9334   4.321   7.643   4.469
 3131TIP3   OH2 9335   7.264   1.618   3.800
 3131TIP3    H1 9336   7.170   1.636   3.794
 3131TIP3    H2 9337   7.305   1.680   3.741
 3132TIP3   OH2 9338   1.647   1.349   3.847
 3132TIP3    H1 9339   1.737   1.381   3.839
 3132TIP3    H2 9340   1.627   1.313   3.761
 3133TIP3   OH2 9341   6.922   1.053   6.035
 3133TIP3    H1 9342   6.830   1.049   6.010
 3133TIP3    H2 9343   6.923   1.026   6.127
 3134TIP3   OH2 9344   0.058   5.691   3.893
 3134TIP3    H1 9345   0.074   5.718   3.802
 3134TIP3    H2 9346   0.014   5.606   3.885
 3135TIP3   OH2 9347   7.051   6.919   3.582
 3135TIP3    H1 9348   6.976   6.938   3.526
 3135TIP3    H2 9349   7.121   6.973   3.547
 3136TIP3   OH2 9350   4.465   4.508   1.696
 3136TIP3    H1 9351   4.530   4.559   1.647
 3136TIP3    H2 9352   4.408   4.472   1.629
 3137TIP3   OH2 9353   0.170   3.601   1.977
 3137TIP3    H1 9354   0.144   3.620   1.886
 3137TIP3    H2 9355   0.135   3.513   1.993
 3138TIP3   OH2 9356   4.108   7.345   6.022
 3138TIP3    H1 9357   4.194   7.385   6.012
 3138TIP3    H2 9358   4.126   7.251   6.024
 3139TIP3   OH2 9359   3.772   3.603   0.971
 3139TIP3    H1 9360   3.866   3.621   0.970
 3139TIP3    H2 9361   3.734   3.666   0.910
 3140TIP3   OH2 9362   2.711   3.765   2.624
 3140TIP3    H1 9363   2.649   3.764   2.697
 3140TIP3    H2 9364   2.741   3.856   2.620
 3141TIP3   OH2 9365   0.643  -0.014   3.632
 3141TIP3    H1 9366   0.726   0.030   3.610
 3141TIP3    H2 9367   0.589   0.055   3.671
 3142TIP3   OH2 9368   5.565   4.369   0.750
 3142TIP3    H1 9369   5.508   4.445   0.761
 3142TIP3    H2 9370   5.582   4.365   0.656
 3143TIP3   OH2 9371   6.300   4.055   2.647
 3143TIP3    H1 9372   6.273   4.008   2.567
 3143TIP3    H2 9373   6.379   4.103   2.621
 3144TIP3   OH2 9374   4.991   5.032   6.361
 3144TIP3    H1 9375   4.908   4.992   6.385
 3144TIP3    H2 9376   5.003   5.008   6.269
 3145TIP3   OH2 9377   5.578   7.209   4.372
 3145TIP3    H1 9378   5.616   7.154   4.441
 3145TIP3    H2 9379   5.597   7.161   4.291
 3146TIP3   OH2 9380   3.459   4.645   4.541
 3146TIP3    H1 9381   3.417   4.651   4.627
 3146TIP3    H2 9382   3.467   4.551   4.526
 3147TIP3   OH2 9383   4.110   0.924   5.940
 3147TIP3    H1 9384   4.043   0.878   5.890
 3147TIP3    H2 9385   4.073   0.934   6.027
 3148TIP3   OH2 9386   6.689   0.845   2.644
 3148TIP3    H1 9387   6.627   0.863   2.574
 3148TIP3    H2 9388   6.678   0.917   2.705
 3149TIP3   OH2 9389   7.230   1.958   5.849
 3149TIP3    H1 9390   7.280   1.886   5.887
 3149TIP3    H2 9391   7.139   1.935   5.867
 3150TIP3   OH2 9392   0.948   2.134   5.378
 3150TIP3    H1 9393   0.901   2.191   5.317
 3150TIP3    H2 9394   0.942   2.047   5.339
 3151TIP3   OH2 9395   1.324   1.723   1.220
 3151TIP3    H1 9396   1.282   1.685   1.297
 3151TIP3    H2 9397   1.394   1.778   1.256
 3152TIP3   OH2 9398   0.823   1.019   0.768
 3152TIP3    H1 9399   0.850   0.946   0.713
 3152TIP3    H2 9400   0.728   1.012   0.773
 3153TIP3   OH2 9401   7.485   7.105   5.533
 3153TIP3    H1 9402   7.415   7.153   5.488
 3153TIP3    H2 9403   7.564   7.154   5.514
 3154TIP3   OH2 9404   5.482   1.755   6.018
 3154TIP3    H1 9405   5.423   1.690   6.055
 3154TIP3    H2 9406   5.538   1.705   5.958
 3155TIP3   OH2 9407   7.293   1.706   6.396
 3155TIP3    H1 9408   7.271   1.751   6.478
 3155TIP3    H2 9409   7.377   1.663   6.414
 3156TIP3   OH2 9410   5.551   3.162   1.643
 3156TIP3    H1 9411   5.541   3.215   1.564
 3156TIP3    H2 9412   5.620   3.205   1.693
 3157TIP3   OH2 9413   1.390   4.873   5.519
 3157TIP3    H1 9414   1.450   4.900   5.450
 3157TIP3    H2 9415   1.368   4.954   5.565
 3158TIP3   OH2 9416   4.454   4.203   0.934
 3158TIP3    H1 9417   4.451   4.294   0.963
 3158TIP3    H2 9418   4.366   4.184   0.903
 3159TIP3   OH2 9419   6.261   6.651   4.028
 3159TIP3    H1 9420   6.176   6.614   4.050
 3159TIP3    H2 9421   6.247   6.697   3.945
 3160TIP3   OH2 9422   1.690   1.172   5.682
 3160TIP3    H1 9423   1.683   1.257   5.638
 3160TIP3    H2 9424   1.658   1.109   5.617
 3161TIP3   OH2 9425   7.575   4.507   2.491
 3161TIP3    H1 9426   7.540   4.420   2.468
 3161TIP3    H2 9427   7.642   4.488   2.556
 3162TIP3   OH2 9428   5.396   1.594   1.940
 3162TIP3    H1 9429   5.353   1.642   2.010
 3162TIP3    H2 9430   5.451   1.659   1.896
 3163TIP3   OH2 9431   2.631   1.386   6.136
 3163TIP3    H1 9432   2.681   1.467   6.142
 3163TIP3    H2 9433   2.548   1.405   6.181
 3164TIP3   OH2 9434   5.119   4.712   5.185
 3164TIP3    H1 9435   5.143   4.804   5.183
 3164TIP3    H2 9436   5.202   4.665   5.179
 3165TIP3   OH2 9437   4.019   0.163   1.601
 3165TIP3    H1 9438   3.986   0.074   1.608
 3165TIP3    H2 9439   4.114   0.154   1.613
 3166TIP3   OH2 9440   3.577   2.322   5.405
 3166TIP3    H1 9441   3.649   2.380   5.383
 3166TIP3    H2 9442   3.583   2.251   5.341
 3167TIP3   OH2 9443   4.830   4.914   5.212
 3167TIP3    H1 9444   4.804   4.867   5.133
 3167TIP3    H2 9445   4.809   4.855   5.283
 3168TIP3   OH2 9446   0.187   1.988   2.950
 3168TIP3    H1 9447   0.148   1.973   2.864
 3168TIP3    H2 9448   0.200   2.083   2.954
 3169TIP3   OH2 9449   5.144   4.025   5.990
 3169TIP3    H1 9450   5.161   4.111   5.952
 3169TIP3    H2 9451   5.167   4.034   6.082
 3170TIP3   OH2 9452   6.565   4.071   6.035
 3170TIP3    H1 9453   6.543   3.988   5.993
 3170TIP3    H2 9454   6.481   4.102   6.071
 3171TIP3   OH2 9455   5.843   5.544   5.534
 3171TIP3    H1 9456   5.778   5.604   5.497
 3171TIP3    H2 9457   5.792   5.488   5.592
 3172TIP3   OH2 9458   1.887   7.024   1.018
 3172TIP3    H1 9459   1.927   7.092   1.072
 3172TIP3    H2 9460   1.933   6.944   1.042
 3173TIP3   OH2 9461   1.244   5.556   1.146
 3173TIP3    H1 9462   1.281   5.614   1.080
 3173TIP3    H2 9463   1.212   5.615   1.214
 3174TIP3   OH2 9464   5.241   3.583   0.078
 3174TIP3    H1 9465   5.252   3.635  -0.001
 3174TIP3    H2 9466   5.148   3.562   0.081
 3175TIP3   OH2 9467   3.822   5.195   6.314
 3175TIP3    H1 9468   3.823   5.105   6.280
 3175TIP3    H2 9469   3.869   5.246   6.249
 3176TIP3   OH2 9470   7.462   3.532   1.727
 3176TIP3    H1 9471   7.386   3.546   1.670
 3176TIP3    H2 9472   7.464   3.437   1.741
 3177TIP3   OH2 9473   2.669   2.193   2.899
 3177TIP3    H1 9474   2.591   2.170   2.848
 3177TIP3    H2 9475   2.647   2.277   2.940
 3178TIP3   OH2 9476   2.571   5.803   5.163
 3178TIP3    H1 9477   2.646   5.805   5.103
 3178TIP3    H2 9478   2.575   5.887   5.208
 3179TIP3   OH2 9479   7.532   6.873   3.980
 3179TIP3    H1 9480   7.494   6.794   4.018
 3179TIP3    H2 9481   7.587   6.842   3.909
 3180TIP3   OH2 9482   4.554   0.654   3.165
 3180TIP3    H1 9483   4.581   0.712   3.236
 3180TIP3    H2 9484   4.495   0.590   3.207
 3181TIP3   OH2 9485   5.814   1.886   4.635
 3181TIP3    H1 9486   5.791   1.970   4.596
 3181TIP3    H2 9487   5.859   1.907   4.716
 3182TIP3   OH2 9488   7.434   3.248   1.560
 3182TIP3    H1 9489   7.370   3.291   1.616
 3182TIP3    H2 9490   7.445   3.161   1.598
 3183TIP3   OH2 9491   1.991   7.010   2.539
 3183TIP3    H1 9492   2.023   7.091   2.498
 3183TIP3    H2 9493   1.940   6.967   2.471
 3184TIP3   OH2 9494   2.141   6.180   2.225
 3184TIP3    H1 9495   2.053   6.213   2.245
 3184TIP3    H2 9496   2.130   6.085   2.218
 3185TIP3   OH2 9497   6.792   4.755   3.908
 3185TIP3    H1 9498   6.881   4.778   3.934
 3185TIP3    H2 9499   6.791   4.659   3.905
 3186TIP3   OH2 9500   5.333   1.976   0.670
 3186TIP3    H1 9501   5.281   1.972   0.589
 3186TIP3    H2 9502   5.320   2.066   0.701
 3187TIP3   OH2 9503   2.009   2.453   6.201
 3187TIP3    H1 9504   1.984   2.377   6.254
 3187TIP3    H2 9505   2.041   2.416   6.119
 3188TIP3   OH2 9506   4.664   3.137   4.225
 3188TIP3    H1 9507   4.643   3.203   4.159
 3188TIP3    H2 9508   4.669   3.185   4.307
 3189TIP3   OH2 9509   1.948   4.378   6.583
 3189TIP3    H1 9510   1.985   4.307   6.531
 3189TIP3    H2 9511   1.912   4.335   6.661
 3190TIP3   OH2 9512   7.609   0.323   6.531
 3190TIP3    H1 9513   7.535   0.276   6.568
 3190TIP3    H2 9514   7.611   0.406   6.577
 3191TIP3   OH2 9515   3.818   5.582   5.601
 3191TIP3    H1 9516   3.757   5.655   5.594
 3191TIP3    H2 9517   3.776   5.511   5.554
 3192TIP3   OH2 9518   6.546   2.393   4.382
 3192TIP3    H1 9519   6.523   2.396   4.289
 3192TIP3    H2 9520   6.569   2.483   4.404
 3193TIP3   OH2 9521   3.750   2.357   2.724
 3193TIP3    H1 9522   3.759   2.418   2.797
 3193TIP3    H2 9523   3.813   2.389   2.659
 3194TIP3   OH2 9524   3.625   4.242   3.901
 3194TIP3    H1 9525   3.668   4.171   3.949
 3194TIP3    H2 9526   3.545   4.259   3.950
 3195TIP3   OH2 9527   6.739   7.487   0.664
 3195TIP3    H1 9528   6.650   7.492   0.629
 3195TIP3    H2 9529   6.796   7.505   0.589
 3196TIP3   OH2 9530   0.629   4.995   1.982
 3196TIP3    H1 9531   0.627   5.018   2.075
 3196TIP3    H2 9532   0.571   4.920   1.975
 3197TIP3   OH2 9533   6.509   5.329   4.966
 3197TIP3    H1 9534   6.431   5.372   4.932
 3197TIP3    H2 9535   6.485   5.304   5.055
 3198TIP3   OH2 9536   2.345   6.741   4.366
 3198TIP3    H1 9537   2.257   6.723   4.333
 3198TIP3    H2 9538   2.342   6.832   4.396
 3199TIP3   OH2 9539   7.440   3.559   4.824
 3199TIP3    H1 9540   7.359   3.610   4.813
 3199TIP3    H2 9541   7.510   3.624   4.814
 3200TIP3   OH2 9542   1.315   3.905   1.614
 3200TIP3    H1 9543   1.299   3.998   1.603
 3200TIP3    H2 9544   1.401   3.891   1.574
 3201TIP3   OH2 9545   2.937   1.554   6.201
 3201TIP3    H1 9546   3.033   1.553   6.196
 3201TIP3    H2 9547   2.916   1.636   6.246
 3202TIP3   OH2 9548   4.476   2.631   0.443
 3202TIP3    H1 9549   4.486   2.723   0.420
 3202TIP3    H2 9550   4.555   2.589   0.407
 3203TIP3   OH2 9551   4.930   6.169   6.586
 3203TIP3    H1 9552   4.854   6.111   6.588
 3203TIP3    H2 9553   4.896   6.256   6.608
 3204TIP3   OH2 9554   7.094   4.591   2.369
 3204TIP3    H1 9555   7.121   4.680   2.387
 3204TIP3    H2 9556   7.103   4.581   2.274
 3205TIP3   OH2 9557   7.065   1.842   4.781
 3205TIP3    H1 9558   7.014   1.777   4.828
 3205TIP3    H2 9559   7.135   1.792   4.739
 3206TIP3   OH2 9560   0.559   2.647   0.881
 3206TIP3    H1 9561   0.555   2.587   0.956
 3206TIP3    H2 9562   0.610   2.600   0.815
 3207TIP3   OH2 9563   8.029   7.503   1.333
 3207TIP3    H1 9564   8.064   7.414   1.336
 3207TIP3    H2 9565   8.076   7.550   1.402
 3208TIP3   OH2 9566   2.217   1.207   4.348
 3208TIP3    H1 9567   2.313   1.203   4.350
 3208TIP3    H2 9568   2.189   1.121   4.377
 3209TIP3   OH2 9569   7.709   3.233   0.256
 3209TIP3    H1 9570   7.703   3.252   0.163
 3209TIP3    H2 9571   7.705   3.138   0.262
 3210TIP3   OH2 9572   3.807   6.041   0.673
 3210TIP3    H1 9573   3.722   6.073   0.643
 3210TIP3    H2 9574   3.834   6.104   0.740
 3211TIP3   OH2 9575   4.151   3.963   5.893
 3211TIP3    H1 9576   4.163   3.979   5.800
 3211TIP3    H2 9577   4.199   4.034   5.936
 3212TIP3   OH2 9578   0.565   2.158   2.445
 3212TIP3    H1 9579   0.596   2.243   2.413
 3212TIP3    H2 9580   0.569   2.100   2.369
 3213TIP3   OH2 9581   7.766   2.208   6.216
 3213TIP3    H1 9582   7.827   2.168   6.278
 3213TIP3    H2 9583   7.821   2.240   6.144
 3214TIP3   OH2 9584   7.147   7.120   1.389
 3214TIP3    H1 9585   7.086   7.080   1.326
 3214TIP3    H2 9586   7.118   7.086   1.474
 3215TIP3   OH2 9587   6.384   4.725   6.567
 3215TIP3    H1 9588   6.474   4.695   6.580
 3215TIP3    H2 9589   6.364   4.774   6.647
 3216TIP3   OH2 9590   2.110   6.002   4.971
 3216TIP3    H1 9591   2.134   5.919   4.930
 3216TIP3    H2 9592   2.014   6.004   4.968
 3217TIP3   OH2 9593   3.162   5.327   6.206
 3217TIP3    H1 9594   3.078   5.287   6.229
 3217TIP3    H2 9595   3.223   5.299   6.274
 3218TIP3   OH2 9596   4.047   0.347   5.574
 3218TIP3    H1 9597   4.076   0.359   5.664
 3218TIP3    H2 9598   3.971   0.404   5.565
 3219TIP3   OH2 9599   0.915   6.096   0.508
 3219TIP3    H1 9600   0.962   6.030   0.559
 3219TIP3    H2 9601   0.835   6.053   0.479
 3220TIP3   OH2 9602   4.926   1.894   1.486
 3220TIP3    H1 9603   4.966   1.884   1.573
 3220TIP3    H2 9604   5.001   1.901   1.426
 3221TIP3   OH2 9605   1.726   3.119   3.447
 3221TIP3    H1 9606   1.777   3.108   3.367
 3221TIP3    H2 9607   1.692   3.209   3.441
 3222TIP3   OH2 9608   5.013   0.583   0.094
 3222TIP3    H1 9609   5.002   0.588  -0.001
 3222TIP3    H2 9610   5.083   0.646   0.113
 3223TIP3   OH2 9611   7.526   2.507   3.733
 3223TIP3    H1 9612   7.570   2.539   3.654
 3223TIP3    H2 9613   7.531   2.411   3.726
 3224TIP3   OH2 9614   6.755   7.003   4.523
 3224TIP3    H1 9615   6.747   6.953   4.441
 3224TIP3    H2 9616   6.709   6.950   4.588
 3225TIP3   OH2 9617   7.258   4.991   3.176
 3225TIP3    H1 9618   7.241   4.983   3.270
 3225TIP3    H2 9619   7.240   4.904   3.141
 3226TIP3   OH2 9620   4.191   0.004   1.957
 3226TIP3    H1 9621   4.207   0.059   1.880
 3226TIP3    H2 9622   4.140  -0.069   1.922
 3227TIP3   OH2 9623   8.012   6.695   1.671
 3227TIP3    H1 9624   8.020   6.773   1.615
 3227TIP3    H2 9625   8.073   6.711   1.743
 3228TIP3   OH2 9626   8.232   0.610   2.356
 3228TIP3    H1 9627   8.145   0.577   2.333
 3228TIP3    H2 9628   8.220   0.655   2.439
 3229TIP3   OH2 9629   4.994   0.042   2.089
 3229TIP3    H1 9630   5.080   0.003   2.103
 3229TIP3    H2 9631   4.954   0.042   2.176
 3230TIP3   OH2 9632   0.387   7.069   3.890
 3230TIP3    H1 9633   0.412   7.125   3.964
 3230TIP3    H2 9634   0.407   6.980   3.920
 3231TIP3   OH2 9635   5.669   2.495   2.633
 3231TIP3    H1 9636   5.745   2.533   2.590
 3231TIP3    H2 9637   5.651   2.554   2.707
 3232TIP3   OH2 9638   1.160   5.051   4.595
 3232TIP3    H1 9639   1.125   5.091   4.675
 3232TIP3    H2 9640   1.241   5.009   4.623
 3233TIP3   OH2 9641   6.486   2.880   4.249
 3233TIP3    H1 9642   6.565   2.829   4.268
 3233TIP3    H2 9643   6.437   2.826   4.187
 3234TIP3   OH2 9644   4.190   3.992   6.517
 3234TIP3    H1 9645   4.235   3.938   6.581
 3234TIP3    H2 9646   4.260   4.026   6.461
 3235TIP3   OH2 9647   5.495   3.432   4.010
 3235TIP3    H1 9648   5.407   3.414   3.978
 3235TIP3    H2 9649   5.490   3.410   4.103
 3236TIP3   OH2 9650   2.509   7.006   4.662
 3236TIP3    H1 9651   2.447   7.031   4.593
 3236TIP3    H2 9652   2.555   6.930   4.626
 3237TIP3   OH2 9653   5.834   6.667   5.372
 3237TIP3    H1 9654   5.880   6.741   5.411
 3237TIP3    H2 9655   5.742   6.680   5.396
 3238TIP3   OH2 9656   1.866   4.986   1.649
 3238TIP3    H1 9657   1.806   4.924   1.608
 3238TIP3    H2 9658   1.938   4.994   1.587
 3239TIP3   OH2 9659   7.043   6.101   2.701
 3239TIP3    H1 9660   7.055   6.182   2.651
 3239TIP3    H2 9661   7.123   6.095   2.754
 3240TIP3   OH2 9662   4.805   6.595   6.450
 3240TIP3    H1 9663   4.885   6.560   6.489
 3240TIP3    H2 9664   4.740   6.591   6.520
 3241TIP3   OH2 9665   2.475   6.839   1.376
 3241TIP3    H1 9666   2.427   6.807   1.453
 3241TIP3    H2 9667   2.474   6.934   1.385
 3242TIP3   OH2 9668   0.948   2.064   3.817
 3242TIP3    H1 9669   0.914   2.056   3.906
 3242TIP3    H2 9670   1.037   2.098   3.828
 3243TIP3   OH2 9671   2.037   0.019   4.597
 3243TIP3    H1 9672   2.125   0.021   4.560
 3243TIP3    H2 9673   1.997  -0.060   4.559
 3244TIP3   OH2 9674   6.322   3.181   3.990
 3244TIP3    H1 9675   6.270   3.128   4.051
 3244TIP3    H2 9676   6.410   3.183   4.029
 3245TIP3   OH2 9677   0.764   2.020   6.687
 3245TIP3    H1 9678   0.723   2.061   6.611
 3245TIP3    H2 9679   0.718   1.937   6.697
 3246TIP3   OH2 9680   3.880   7.634   1.562
 3246TIP3    H1 9681   3.936   7.699   1.604
 3246TIP3    H2 9682   3.884   7.558   1.621
 3247TIP3   OH2 9683   5.908   0.267   5.414
 3247TIP3    H1 9684   5.834   0.213   5.441
 3247TIP3    H2 9685   5.914   0.335   5.481
 3248TIP3   OH2 9686   7.332   6.214   5.978
 3248TIP3    H1 9687   7.244   6.252   5.989
 3248TIP3    H2 9688   7.376   6.273   5.916
 3249TIP3   OH2 9689   5.027   5.463   4.676
 3249TIP3    H1 9690   5.092   5.437   4.740
 3249TIP3    H2 9691   5.013   5.385   4.622
 3250TIP3   OH2 9692   2.158   7.044   5.410
 3250TIP3    H1 9693   2.146   7.084   5.324
 3250TIP3    H2 9694   2.151   6.950   5.393
 3251TIP3   OH2 9695   4.473   5.853   0.445
 3251TIP3    H1 9696   4.407   5.873   0.512
 3251TIP3    H2 9697   4.489   5.936   0.401
 3252TIP3   OH2 9698   1.483   2.675   5.436
 3252TIP3    H1 9699   1.492   2.716   5.522
 3252TIP3    H2 9700   1.565   2.697   5.391
 3253TIP3   OH2 9701   1.523   2.719   3.551
 3253TIP3    H1 9702   1.467   2.643   3.564
 3253TIP3    H2 9703   1.462   2.793   3.545
 3254TIP3   OH2 9704   2.790   4.418   1.253
 3254TIP3    H1 9705   2.814   4.339   1.302
 3254TIP3    H2 9706   2.842   4.488   1.294
 3255TIP3   OH2 9707   6.255   7.382   3.957
 3255TIP3    H1 9708   6.246   7.470   3.922
 3255TIP3    H2 9709   6.342   7.353   3.928
 3256TIP3   OH2 9710   6.946   4.146   4.393
 3256TIP3    H1 9711   6.952   4.176   4.484
 3256TIP3    H2 9712   6.918   4.224   4.344
 3257TIP3   OH2 9713   7.367   4.061   5.999
 3257TIP3    H1 9714   7.425   4.117   6.050
 3257TIP3    H2 9715   7.308   4.122   5.955
 3258TIP3   OH2 9716   8.102   3.640   2.998
 3258TIP3    H1 9717   8.178   3.596   3.037
 3258TIP3    H2 9718   8.124   3.733   3.003
 3259TIP3   OH2 9719   1.793   1.260   3.471
 3259TIP3    H1 9720   1.776   1.222   3.385
 3259TIP3    H2 9721   1.710   1.250   3.518
 3260TIP3   OH2 9722   5.360   6.817   2.793
 3260TIP3    H1 9723   5.416   6.774   2.858
 3260TIP3    H2 9724   5.281   6.841   2.842
 3261TIP3   OH2 9725   4.430   2.760   5.473
 3261TIP3    H1 9726   4.366   2.711   5.526
 3261TIP3    H2 9727   4.443   2.706   5.395
 3262TIP3   OH2 9728   0.754   3.103   5.473
 3262TIP3    H1 9729   0.846   3.120   5.491
 3262TIP3    H2 9730   0.743   3.010   5.488
 3263TIP3   OH2 9731   2.008   5.908   1.900
 3263TIP3    H1 9732   1.981   6.000   1.900
 3263TIP3    H2 9733   2.056   5.898   1.983
 3264TIP3   OH2 9734   2.393   0.322   4.539
 3264TIP3    H1 9735   2.477   0.338   4.583
 3264TIP3    H2 9736   2.386   0.226   4.536
 3265TIP3   OH2 9737   4.043   6.712   6.281
 3265TIP3    H1 9738   4.089   6.745   6.358
 3265TIP3    H2 9739   4.114   6.690   6.220
 3266TIP3   OH2 9740   4.031   3.315   5.268
 3266TIP3    H1 9741   3.981   3.237   5.244
 3266TIP3    H2 9742   4.078   3.289   5.348
 3267TIP3   OH2 9743   6.083   3.988   6.493
 3267TIP3    H1 9744   6.160   3.931   6.496
 3267TIP3    H2 9745   6.022   3.950   6.556
 3268TIP3   OH2 9746   4.540   4.543   3.614
 3268TIP3    H1 9747   4.606   4.585   3.668
 3268TIP3    H2 9748   4.457   4.556   3.661
 3269TIP3   OH2 9749   6.495   0.361   4.243
 3269TIP3    H1 9750   6.533   0.356   4.155
 3269TIP3    H2 9751   6.562   0.324   4.300
 3270TIP3   OH2 9752   0.869   2.021   5.641
 3270TIP3    H1 9753   0.912   2.014   5.555
 3270TIP3    H2 9754   0.929   1.977   5.701
 3271TIP3   OH2 9755   4.911   2.892   2.804
 3271TIP3    H1 9756   4.877   2.980   2.821
 3271TIP3    H2 9757   4.834   2.835   2.807
 3272TIP3   OH2 9758   6.369   7.283   2.948
 3272TIP3    H1 9759   6.337   7.238   2.869
 3272TIP3    H2 9760   6.289   7.302   2.998
 3273TIP3   OH2 9761   5.465   5.318   3.118
 3273TIP3    H1 9762   5.433   5.263   3.190
 3273TIP3    H2 9763   5.518   5.258   3.064
 3274TIP3   OH2 9764   7.754   5.784   4.666
 3274TIP3    H1 9765   7.731   5.699   4.704
 3274TIP3    H2 9766   7.842   5.802   4.698
 3275TIP3   OH2 9767   3.448   5.961   0.412
 3275TIP3    H1 9768   3.435   5.902   0.486
 3275TIP3    H2 9769   3.489   5.907   0.345
 3276TIP3   OH2 9770   7.626   0.674   2.726
 3276TIP3    H1 9771   7.548   0.628   2.755
 3276TIP3    H2 9772   7.633   0.653   2.633
 3277TIP3   OH2 9773   1.262   2.095   3.544
 3277TIP3    H1 9774   1.237   2.071   3.634
 3277TIP3    H2 9775   1.202   2.046   3.488
 3278TIP3   OH2 9776   4.868   1.695   4.572
 3278TIP3    H1 9777   4.830   1.620   4.618
 3278TIP3    H2 9778   4.885   1.662   4.483
 3279TIP3   OH2 9779   7.556   1.137   3.085
 3279TIP3    H1 9780   7.621   1.149   3.016
 3279TIP3    H2 9781   7.597   1.174   3.163
 3280TIP3   OH2 9782   7.122   4.251   2.202
 3280TIP3    H1 9783   7.065   4.291   2.137
 3280TIP3    H2 9784   7.071   4.253   2.283
 3281TIP3   OH2 9785   4.040   5.627   5.980
 3281TIP3    H1 9786   4.100   5.688   5.938
 3281TIP3    H2 9787   3.953   5.652   5.948
 3282TIP3   OH2 9788   3.255   0.721   5.146
 3282TIP3    H1 9789   3.346   0.698   5.127
 3282TIP3    H2 9790   3.210   0.712   5.062
 3283TIP3   OH2 9791   8.201   7.387   4.307
 3283TIP3    H1 9792   8.174   7.325   4.375
 3283TIP3    H2 9793   8.206   7.472   4.352
 3284TIP3   OH2 9794   2.469   3.095   5.975
 3284TIP3    H1 9795   2.507   3.066   6.058
 3284TIP3    H2 9796   2.532   3.067   5.909
 3285TIP3   OH2 9797   1.734   5.774   5.596
 3285TIP3    H1 9798   1.731   5.690   5.643
 3285TIP3    H2 9799   1.805   5.763   5.532
 3286TIP3   OH2 9800   5.195   7.524   6.472
 3286TIP3    H1 9801   5.250   7.530   6.550
 3286TIP3    H2 9802   5.212   7.438   6.436
 3287TIP3   OH2 9803   1.601   2.628   3.847
 3287TIP3    H1 9804   1.566   2.539   3.838
 3287TIP3    H2 9805   1.530   2.685   3.816
 3288TIP3   OH2 9806   7.655   0.708   5.309
 3288TIP3    H1 9807   7.703   0.626   5.298
 3288TIP3    H2 9808   7.705   0.758   5.373
 3289TIP3   OH2 9809   6.170   5.327   0.340
 3289TIP3    H1 9810   6.183   5.411   0.295
 3289TIP3    H2 9811   6.257   5.303   0.371
 3290TIP3   OH2 9812   4.351   2.240   6.262
 3290TIP3    H1 9813   4.298   2.299   6.315
 3290TIP3    H2 9814   4.403   2.189   6.325
 3291TIP3   OH2 9815   0.302   1.983   4.894
 3291TIP3    H1 9816   0.302   1.931   4.975
 3291TIP3    H2 9817   0.216   2.024   4.892
 3292TIP3   OH2 9818   7.826   1.544   4.506
 3292TIP3    H1 9819   7.819   1.611   4.439
 3292TIP3    H2 9820   7.737   1.511   4.518
 3293TIP3   OH2 9821   3.229   1.092   5.264
 3293TIP3    H1 9822   3.170   1.020   5.283
 3293TIP3    H2 9823   3.313   1.051   5.245
 3294TIP3   OH2 9824   7.096   5.614   5.415
 3294TIP3    H1 9825   7.023   5.650   5.364
 3294TIP3    H2 9826   7.058   5.539   5.461
 3295TIP3   OH2 9827   1.557   6.716   3.486
 3295TIP3    H1 9828   1.595   6.689   3.569
 3295TIP3    H2 9829   1.526   6.806   3.503
 3296TIP3   OH2 9830   6.519   0.626   4.247
 3296TIP3    H1 9831   6.546   0.644   4.337
 3296TIP3    H2 9832   6.504   0.531   4.245
 3297TIP3   OH2 9833   6.792   3.171   3.372
 3297TIP3    H1 9834   6.806   3.218   3.455
 3297TIP3    H2 9835   6.697   3.159   3.367
 3298TIP3   OH2 9836   8.049   1.428   2.364
 3298TIP3    H1 9837   8.120   1.441   2.426
 3298TIP3    H2 9838   7.970   1.427   2.418
 3299TIP3   OH2 9839   5.032   2.254   4.102
 3299TIP3    H1 9840   4.981   2.282   4.178
 3299TIP3    H2 9841   4.966   2.224   4.039
 3300TIP3   OH2 9842   5.040   1.488   6.594
 3300TIP3    H1 9843   5.106   1.431   6.632
 3300TIP3    H2 9844   5.014   1.445   6.512
 3301TIP3   OH2 9845   4.520   1.132   3.984
 3301TIP3    H1 9846   4.554   1.216   4.017
 3301TIP3    H2 9847   4.549   1.068   4.048
 3302TIP3   OH2 9848   8.042   5.917   2.319
 3302TIP3    H1 9849   8.122   5.968   2.325
 3302TIP3    H2 9850   8.072   5.826   2.315
 3303TIP3   OH2 9851   2.663   4.623   0.630
 3303TIP3    H1 9852   2.640   4.631   0.723
 3303TIP3    H2 9853   2.745   4.672   0.622
 3304TIP3   OH2 9854   5.090   6.551   0.070
 3304TIP3    H1 9855   5.108   6.458   0.051
 3304TIP3    H2 9856   5.177   6.591   0.073
 3305TIP3   OH2 9857   7.560   0.123   4.652
 3305TIP3    H1 9858   7.589   0.081   4.733
 3305TIP3    H2 9859   7.638   0.169   4.620
 3306TIP3   OH2 9860   6.864   2.531   6.326
 3306TIP3    H1 9861   6.944   2.479   6.315
 3306TIP3    H2 9862   6.804   2.498   6.259
 3307TIP3   OH2 9863   2.411   5.788   2.299
 3307TIP3    H1 9864   2.386   5.769   2.390
 3307TIP3    H2 9865   2.380   5.712   2.250
 3308TIP3   OH2 9866   5.273   7.813   2.169
 3308TIP3    H1 9867   5.368   7.811   2.164
 3308TIP3    H2 9868   5.243   7.790   2.080
 3309TIP3   OH2 9869   7.010   1.846   3.226
 3309TIP3    H1 9870   7.033   1.759   3.258
 3309TIP3    H2 9871   6.945   1.879   3.288
 3310TIP3   OH2 9872   7.128   2.636   6.524
 3310TIP3    H1 9873   7.067   2.575   6.565
 3310TIP3    H2 9874   7.188   2.580   6.475
 3311TIP3   OH2 9875   5.907   1.708   1.521
 3311TIP3    H1 9876   5.893   1.800   1.499
 3311TIP3    H2 9877   5.889   1.702   1.615
 3312TIP3   OH2 9878   6.926   4.454   4.104
 3312TIP3    H1 9879   6.866   4.396   4.151
 3312TIP3    H2 9880   6.888   4.463   4.017
 3313TIP3   OH2 9881   8.204   1.988   3.304
 3313TIP3    H1 9882   8.249   1.921   3.252
 3313TIP3    H2 9883   8.115   1.954   3.316
 3314TIP3   OH2 9884   1.987   1.840   3.734
 3314TIP3    H1 9885   2.038   1.788   3.671
 3314TIP3    H2 9886   1.961   1.918   3.685
 3315TIP3   OH2 9887   7.266   7.676   3.310
 3315TIP3    H1 9888   7.194   7.664   3.248
 3315TIP3    H2 9889   7.340   7.704   3.257
 3316TIP3   OH2 9890   2.971   0.342   4.131
 3316TIP3    H1 9891   2.922   0.357   4.050
 3316TIP3    H2 9892   2.990   0.429   4.164
 3317TIP3   OH2 9893   4.789   0.092   1.871
 3317TIP3    H1 9894   4.852   0.145   1.822
 3317TIP3    H2 9895   4.838   0.059   1.946
 3318TIP3   OH2 9896   3.954   2.505   2.205
 3318TIP3    H1 9897   3.888   2.437   2.196
 3318TIP3    H2 9898   3.942   2.560   2.128
 3319TIP3   OH2 9899   7.891   5.212   1.598
 3319TIP3    H1 9900   7.909   5.206   1.504
 3319TIP3    H2 9901   7.959   5.158   1.639
 3320TIP3   OH2 9902   3.775   6.574   6.423
 3320TIP3    H1 9903   3.795   6.556   6.332
 3320TIP3    H2 9904   3.776   6.670   6.429
 3321TIP3   OH2 9905   2.333   7.469   2.021
 3321TIP3    H1 9906   2.240   7.457   2.041
 3321TIP3    H2 9907   2.340   7.444   1.928
 3322TIP3   OH2 9908   2.001   0.692   1.005
 3322TIP3    H1 9909   1.961   0.607   1.024
 3322TIP3    H2 9910   1.992   0.702   0.910
 3323TIP3   OH2 9911   6.149   5.720   0.594
 3323TIP3    H1 9912   6.065   5.730   0.639
 3323TIP3    H2 9913   6.202   5.793   0.626
 3324TIP3   OH2 9914   7.517   0.700   0.627
 3324TIP3    H1 9915   7.569   0.720   0.550
 3324TIP3    H2 9916   7.464   0.625   0.602
 3325TIP3   OH2 9917   1.008   2.489   1.244
 3325TIP3    H1 9918   0.955   2.416   1.276
 3325TIP3    H2 9919   0.968   2.513   1.161
 3326TIP3   OH2 9920   2.648   6.703   4.323
 3326TIP3    H1 9921   2.579   6.717   4.388
 3326TIP3    H2 9922   2.621   6.625   4.275
 3327TIP3   OH2 9923   3.968   1.294   6.256
 3327TIP3    H1 9924   3.981   1.323   6.166
 3327TIP3    H2 9925   4.011   1.209   6.261
 3328TIP3   OH2 9926   2.839   1.196   6.159
 3328TIP3    H1 9927   2.779   1.133   6.199
 3328TIP3    H2 9928   2.801   1.281   6.178
 3329TIP3   OH2 9929   0.463   1.835   4.699
 3329TIP3    H1 9930   0.422   1.901   4.754
 3329TIP3    H2 9931   0.397   1.812   4.635
 3330TIP3   OH2 9932   4.133   2.558   3.074
 3330TIP3    H1 9933   4.113   2.508   2.995
 3330TIP3    H2 9934   4.057   2.545   3.131
 3331TIP3   OH2 9935   1.857   4.721   5.973
 3331TIP3    H1 9936   1.849   4.628   5.954
 3331TIP3    H2 9937   1.775   4.744   6.016
 3332TIP3   OH2 9938   5.686   6.335   3.491
 3332TIP3    H1 9939   5.726   6.419   3.472
 3332TIP3    H2 9940   5.744   6.295   3.556
 3333TIP3   OH2 9941   6.918   1.165   5.755
 3333TIP3    H1 9942   6.899   1.159   5.662
 3333TIP3    H2 9943   6.914   1.259   5.774
 3334TIP3   OH2 9944   7.773   1.624   3.177
 3334TIP3    H1 9945   7.693   1.586   3.141
 3334TIP3    H2 9946   7.761   1.617   3.272
 3335TIP3   OH2 9947   0.432   1.587   1.327
 3335TIP3    H1 9948   0.522   1.554   1.331
 3335TIP3    H2 9949   0.441   1.677   1.296
 3336TIP3   OH2 9950   5.365   6.179   1.191
 3336TIP3    H1 9951   5.339   6.199   1.101
 3336TIP3    H2 9952   5.454   6.214   1.198
 3337TIP3   OH2 9953   4.924   5.188   1.849
 3337TIP3    H1 9954   4.899   5.248   1.779
 3337TIP3    H2 9955   4.884   5.104   1.825
 3338TIP3   OH2 9956   2.768   7.235   2.567
 3338TIP3    H1 9957   2.797   7.160   2.515
 3338TIP3    H2 9958   2.741   7.300   2.502
 3339TIP3   OH2 9959   3.772   0.326   5.247
 3339TIP3    H1 9960   3.862   0.297   5.237
 3339TIP3    H2 9961   3.727   0.251   5.285
 3340TIP3   OH2 9962   7.415   6.327   5.568
 3340TIP3    H1 9963   7.319   6.328   5.571
 3340TIP3    H2 9964   7.441   6.412   5.604
 3341TIP3   OH2 9965   2.063   4.208   5.681
 3341TIP3    H1 9966   2.077   4.150   5.606
 3341TIP3    H2 9967   2.022   4.285   5.644
 3342TIP3   OH2 9968   5.889   2.527   5.109
 3342TIP3    H1 9969   5.842   2.556   5.031
 3342TIP3    H2 9970   5.824   2.527   5.178
 3343TIP3   OH2 9971   2.663   2.677   2.755
 3343TIP3    H1 9972   2.732   2.653   2.817
 3343TIP3    H2 9973   2.597   2.720   2.810
 3344TIP3   OH2 9974   2.602   4.821   6.200
 3344TIP3    H1 9975   2.587   4.729   6.223
 3344TIP3    H2 9976   2.518   4.851   6.166
 3345TIP3   OH2 9977   4.806   0.018   1.293
 3345TIP3    H1 9978   4.810  -0.033   1.374
 3345TIP3    H2 9979   4.777   0.105   1.321
 3346TIP3   OH2 9980   5.980   5.683   1.134
 3346TIP3    H1 9981   5.914   5.746   1.164
 3346TIP3    H2 9982   5.967   5.606   1.189
 3347TIP3   OH2 9983   1.272   1.289   5.537
 3347TIP3    H1 9984   1.258   1.372   5.492
 3347TIP3    H2 9985   1.362   1.265   5.514
 3348TIP3   OH2 9986   0.595   5.135   4.072
 3348TIP3    H1 9987   0.645   5.187   4.008
 3348TIP3    H2 9988   0.660   5.075   4.109
 3349TIP3   OH2 9989   7.745   5.829   6.687
 3349TIP3    H1 9990   7.783   5.752   6.645
 3349TIP3    H2 9991   7.745   5.808   6.781
 3350TIP3   OH2 9992   1.788   6.200   4.255
 3350TIP3    H1 9993   1.789   6.120   4.307
 3350TIP3    H2 9994   1.850   6.258   4.299
 3351TIP3   OH2 9995   1.261   2.999   1.057
 3351TIP3    H1 9996   1.183   3.032   1.013
 3351TIP3    H2 9997   1.313   2.960   0.986
 3352TIP3   OH2 9998   3.343   7.054   4.589
 3352TIP3    H1 9999   3.374   7.108   4.662
 3352TIP3    H210000   3.340   7.113   4.514
 3353TIP3   OH210001   0.824   0.255   6.381
 3353TIP3    H110002   0.890   0.320   6.404
 3353TIP3    H210003   0.874   0.175   6.365
 3354TIP3   OH210004   0.761   4.031   0.536
 3354TIP3    H110005   0.816   3.973   0.483
 3354TIP3    H210006   0.790   4.015   0.626
 3355TIP3   OH210007   2.065   5.847   6.287
 3355TIP3    H110008   2.070   5.918   6.352
 3355TIP3    H210009   2.030   5.890   6.208
 3356TIP3   OH210010   6.085   5.994   1.357
 3356TIP3    H110011   6.179   6.001   1.338
 3356TIP3    H210012   6.053   6.084   1.354
 3357TIP3   OH210013   7.166   6.149   0.423
 3357TIP3    H110014   7.248   6.182   0.385
 3357TIP3    H210015   7.179   6.155   0.518
 3358TIP3   OH210016   8.179   3.241   3.642
 3358TIP3    H110017   8.213   3.188   3.570
 3358TIP3    H210018   8.096   3.200   3.666
 3359TIP3   OH210019   1.441   6.781   5.914
 3359TIP3    H110020   1.463   6.806   5.825
 3359TIP3    H210021   1.345   6.779   5.915
 3360TIP3   OH210022   3.014   7.141   5.879
 3360TIP3    H110023   3.031   7.205   5.947
 3360TIP3    H210024   3.044   7.183   5.798
 3361TIP3   OH210025  -0.016   7.042   6.213
 3361TIP3    H110026   0.053   7.025   6.278
 3361TIP3    H210027   0.030   7.048   6.130
 3362TIP3   OH210028   4.289   2.645   6.598
 3362TIP3    H110029   4.217   2.588   6.623
 3362TIP3    H210030   4.367   2.589   6.603
 3363TIP3   OH210031   4.600   4.851   4.988
 3363TIP3    H110032   4.590   4.809   4.903
 3363TIP3    H210033   4.592   4.779   5.051
 3364TIP3   OH210034   8.349   7.772   0.741
 3364TIP3    H110035   8.265   7.780   0.786
 3364TIP3    H210036   8.339   7.693   0.687
 3365TIP3   OH210037   4.444   3.956   4.117
 3365TIP3    H110038   4.488   3.999   4.044
 3365TIP3    H210039   4.445   3.863   4.095
 3366TIP3   OH210040   3.696   2.505   0.295
 3366TIP3    H110041   3.788   2.519   0.316
 3366TIP3    H210042   3.651   2.578   0.338
 3367TIP3   OH210043   6.702   6.917   6.102
 3367TIP3    H110044   6.677   6.891   6.190
 3367TIP3    H210045   6.687   7.012   6.099
 3368TIP3   OH210046   4.162   5.267   4.105
 3368TIP3    H110047   4.222   5.194   4.113
 3368TIP3    H210048   4.094   5.236   4.045
 3369TIP3   OH210049   4.284   4.148   0.459
 3369TIP3    H110050   4.206   4.172   0.409
 3369TIP3    H210051   4.286   4.053   0.457
 3370TIP3   OH210052   2.948   6.902   3.923
 3370TIP3    H110053   2.999   6.969   3.879
 3370TIP3    H210054   2.954   6.925   4.016
 3371TIP3   OH210055   5.176   4.968   1.709
 3371TIP3    H110056   5.210   4.985   1.797
 3371TIP3    H210057   5.244   5.001   1.651
 3372TIP3   OH210058   2.768   5.429   5.039
 3372TIP3    H110059   2.810   5.511   5.016
 3372TIP3    H210060   2.674   5.447   5.032
 3373TIP3   OH210061   2.551   5.114   0.318
 3373TIP3    H110062   2.464   5.135   0.352
 3373TIP3    H210063   2.610   5.133   0.391
 3374TIP3   OH210064   3.167   3.269   5.094
 3374TIP3    H110065   3.131   3.253   5.006
 3374TIP3    H210066   3.090   3.275   5.150
 3375TIP3   OH210067   6.125   5.531   5.502
 3375TIP3    H110068   6.156   5.620   5.521
 3375TIP3    H210069   6.030   5.539   5.497
 3376TIP3   OH210070   6.098   4.764   1.243
 3376TIP3    H110071   6.175   4.755   1.298
 3376TIP3    H210072   6.098   4.686   1.188
 3377TIP3   OH210073   3.787   2.691   6.763
 3377TIP3    H110074   3.736   2.733   6.694
 3377TIP3    H210075   3.798   2.600   6.732
 3378TIP3   OH210076   5.909   7.652   2.848
 3378TIP3    H110077   5.814   7.661   2.843
 3378TIP3    H210078   5.926   7.563   2.816
 3379TIP3   OH210079   3.921   4.451   2.922
 3379TIP3    H110080   3.887   4.371   2.882
 3379TIP3    H210081   3.852   4.479   2.983
 3380TIP3   OH210082   7.717   3.955   0.917
 3380TIP3    H110083   7.785   3.892   0.890
 3380TIP3    H210084   7.635   3.905   0.911
 3381TIP3   OH210085   5.376   2.665   2.937
 3381TIP3    H110086   5.316   2.739   2.930
 3381TIP3    H210087   5.336   2.596   2.884
 3382TIP3   OH210088   4.508   5.022   1.203
 3382TIP3    H110089   4.431   5.079   1.201
 3382TIP3    H210090   4.571   5.069   1.257
 3383TIP3   OH210091   3.440   6.121   6.617
 3383TIP3    H110092   3.353   6.095   6.587
 3383TIP3    H210093   3.456   6.066   6.694
 3384TIP3   OH210094   0.656   0.873   0.449
 3384TIP3    H110095   0.751   0.884   0.452
 3384TIP3    H210096   0.621   0.962   0.452
 3385TIP3   OH210097   4.532   0.445   5.087
 3385TIP3    H110098   4.610   0.394   5.106
 3385TIP3    H210099   4.540   0.523   5.143
 3386TIP3   OH210100   3.053   0.205   3.794
 3386TIP3    H110101   3.066   0.160   3.711
 3386TIP3    H210102   3.083   0.295   3.778
 3387TIP3   OH210103   7.721   3.908   4.603
 3387TIP3    H110104   7.712   3.886   4.696
 3387TIP3    H210105   7.798   3.861   4.574
 3388TIP3   OH210106   2.345   1.704   1.750
 3388TIP3    H110107   2.348   1.609   1.763
 3388TIP3    H210108   2.262   1.719   1.703
 3389TIP3   OH210109   5.594   1.338   2.653
 3389TIP3    H110110   5.685   1.312   2.635
 3389TIP3    H210111   5.552   1.258   2.683
 3390TIP3   OH210112   8.034   2.347   3.178
 3390TIP3    H110113   7.964   2.395   3.222
 3390TIP3    H210114   8.012   2.255   3.192
 3391TIP3   OH210115   5.202   0.062   5.162
 3391TIP3    H110116   5.223   0.155   5.155
 3391TIP3    H210117   5.204   0.044   5.256
 3392TIP3   OH210118   0.252   0.082   0.739
 3392TIP3    H110119   0.265   0.008   0.799
 3392TIP3    H210120   0.161   0.106   0.750
 3393TIP3   OH210121   3.265   0.719   6.321
 3393TIP3    H110122   3.222   0.634   6.328
 3393TIP3    H210123   3.194   0.783   6.324
 3394TIP3   OH210124   7.208   0.615   2.560
 3394TIP3    H110125   7.155   0.545   2.597
 3394TIP3    H210126   7.164   0.696   2.587
 3395TIP3   OH210127   4.550   4.841   2.609
 3395TIP3    H110128   4.482   4.906   2.630
 3395TIP3    H210129   4.612   4.888   2.553
 3396TIP3   OH210130   4.135   7.348   0.240
 3396TIP3    H110131   4.106   7.411   0.174
 3396TIP3    H210132   4.117   7.390   0.323
 3397TIP3   OH210133   6.094   4.220   3.053
 3397TIP3    H110134   6.097   4.160   2.979
 3397TIP3    H210135   6.184   4.227   3.082
 3398TIP3   OH210136   5.662   6.271   2.683
 3398TIP3    H110137   5.650   6.176   2.684
 3398TIP3    H210138   5.595   6.305   2.743
 3399TIP3   OH210139   1.957   6.156   4.540
 3399TIP3    H110140   2.004   6.078   4.511
 3399TIP3    H210141   2.017   6.228   4.523
 3400TIP3   OH210142   7.996   4.010   5.974
 3400TIP3    H110143   7.955   4.032   6.058
 3400TIP3    H210144   7.923   4.000   5.914
 3401TIP3   OH210145   4.396   5.051   4.876
 3401TIP3    H110146   4.385   5.111   4.802
 3401TIP3    H210147   4.341   4.975   4.854
 3402TIP3   OH210148   4.152   0.772   1.506
 3402TIP3    H110149   4.130   0.811   1.591
 3402TIP3    H210150   4.086   0.807   1.446
 3403TIP3   OH210151   0.900   0.935   4.209
 3403TIP3    H110152   0.902   1.025   4.176
 3403TIP3    H210153   0.991   0.916   4.231
 3404TIP3   OH210154   0.332   5.658   3.923
 3404TIP3    H110155   0.246   5.687   3.894
 3404TIP3    H210156   0.349   5.579   3.872
 3405TIP3   OH210157   5.101   6.335   5.774
 3405TIP3    H110158   5.159   6.385   5.716
 3405TIP3    H210159   5.046   6.284   5.715
 3406TIP3   OH210160   6.516   4.509   5.978
 3406TIP3    H110161   6.441   4.457   5.949
 3406TIP3    H210162   6.494   4.535   6.068
 3407TIP3   OH210163   2.054   0.375   0.157
 3407TIP3    H110164   2.074   0.335   0.072
 3407TIP3    H210165   2.115   0.448   0.164
 3408TIP3   OH210166   0.055   3.559   1.128
 3408TIP3    H110167   0.106   3.639   1.139
 3408TIP3    H210168  -0.035   3.586   1.145
 3409TIP3   OH210169   2.997   7.341   0.552
 3409TIP3    H110170   2.985   7.426   0.510
 3409TIP3    H210171   3.051   7.359   0.628
 3410TIP3   OH210172   7.256   4.058   0.455
 3410TIP3    H110173   7.163   4.078   0.464
 3410TIP3    H210174   7.299   4.113   0.521
 3411TIP3   OH210175   6.796   3.110   6.223
 3411TIP3    H110176   6.852   3.176   6.183
 3411TIP3    H210177   6.830   3.027   6.189
 3412TIP3   OH210178   0.319   7.394   0.676
 3412TIP3    H110179   0.328   7.347   0.758
 3412TIP3    H210180   0.244   7.353   0.633
 3413TIP3   OH210181   1.060   7.144   2.868
 3413TIP3    H110182   1.078   7.206   2.798
 3413TIP3    H210183   0.973   7.110   2.849
 3414TIP3   OH210184   2.418   5.293   5.180
 3414TIP3    H110185   2.409   5.368   5.121
 3414TIP3    H210186   2.482   5.236   5.137
 3415TIP3   OH210187   0.840   0.369   5.385
 3415TIP3    H110188   0.870   0.282   5.359
 3415TIP3    H210189   0.919   0.415   5.413
 3416TIP3   OH210190   2.581   6.259   1.602
 3416TIP3    H110191   2.567   6.293   1.690
 3416TIP3    H210192   2.546   6.327   1.544
 3417TIP3   OH210193   2.057   1.010   4.795
 3417TIP3    H110194   1.997   1.025   4.868
 3417TIP3    H210195   2.001   1.012   4.717
 3418TIP3   OH210196   6.812   4.708   3.487
 3418TIP3    H110197   6.732   4.750   3.519
 3418TIP3    H210198   6.821   4.741   3.397
 3419TIP3   OH210199   1.042   6.882   0.549
 3419TIP3    H110200   1.132   6.878   0.517
 3419TIP3    H210201   0.994   6.927   0.480
 3420TIP3   OH210202   5.703   6.860   0.268
 3420TIP3    H110203   5.668   6.943   0.299
 3420TIP3    H210204   5.633   6.822   0.216
 3421TIP3   OH210205   2.205   5.747   4.789
 3421TIP3    H110206   2.126   5.694   4.799
 3421TIP3    H210207   2.246   5.746   4.876
 3422TIP3   OH210208   1.109   6.514   2.115
 3422TIP3    H110209   1.060   6.444   2.158
 3422TIP3    H210210   1.045   6.556   2.058
 3423TIP3   OH210211   7.482   7.101   0.899
 3423TIP3    H110212   7.471   7.179   0.954
 3423TIP3    H210213   7.577   7.096   0.884
 3424TIP3   OH210214   1.656   6.343   2.541
 3424TIP3    H110215   1.589   6.303   2.597
 3424TIP3    H210216   1.690   6.416   2.593
 3425TIP3   OH210217   2.638   1.742   2.728
 3425TIP3    H110218   2.625   1.809   2.661
 3425TIP3    H210219   2.730   1.748   2.751
 3426TIP3   OH210220   5.106   2.059   6.037
 3426TIP3    H110221   5.067   1.988   5.986
 3426TIP3    H210222   5.117   2.023   6.125
 3427TIP3   OH210223   1.212   1.423   2.063
 3427TIP3    H110224   1.201   1.389   2.151
 3427TIP3    H210225   1.164   1.506   2.063
 3428TIP3   OH210226   8.005   0.462   1.817
 3428TIP3    H110227   8.045   0.377   1.799
 3428TIP3    H210228   7.940   0.472   1.746
 3429TIP3   OH210229   0.267   3.515   2.981
 3429TIP3    H110230   0.228   3.545   2.899
 3429TIP3    H210231   0.361   3.528   2.968
 3430TIP3   OH210232   6.351   3.211   5.833
 3430TIP3    H110233   6.368   3.117   5.847
 3430TIP3    H210234   6.438   3.250   5.824
 3431TIP3   OH210235   7.275   5.611   0.510
 3431TIP3    H110236   7.257   5.522   0.541
 3431TIP3    H210237   7.200   5.632   0.455
 3432TIP3   OH210238   3.888   5.406   4.624
 3432TIP3    H110239   3.977   5.441   4.622
 3432TIP3    H210240   3.880   5.356   4.542
 3433TIP3   OH210241   0.731   5.492   3.017
 3433TIP3    H110242   0.739   5.510   2.923
 3433TIP3    H210243   0.756   5.574   3.059
 3434TIP3   OH210244   6.682   1.906   5.664
 3434TIP3    H110245   6.682   1.913   5.568
 3434TIP3    H210246   6.721   1.820   5.681
 3435TIP3   OH210247   1.723   3.700   4.568
 3435TIP3    H110248   1.755   3.658   4.489
 3435TIP3    H210249   1.660   3.765   4.537
 3436TIP3   OH210250   5.124   6.402   3.974
 3436TIP3    H110251   5.136   6.388   4.068
 3436TIP3    H210252   5.145   6.318   3.934
 3437TIP3   OH210253   5.933   6.958   3.236
 3437TIP3    H110254   5.915   7.046   3.203
 3437TIP3    H210255   6.028   6.951   3.236
 3438TIP3   OH210256   2.086   0.469   0.534
 3438TIP3    H110257   2.115   0.380   0.553
 3438TIP3    H210258   2.130   0.492   0.452
 3439TIP3   OH210259   8.348   6.689   4.183
 3439TIP3    H110260   8.439   6.694   4.211
 3439TIP3    H210261   8.303   6.645   4.256
 3440TIP3   OH210262   5.876   7.722   2.297
 3440TIP3    H110263   5.883   7.818   2.295
 3440TIP3    H210264   5.962   7.692   2.327
 3441TIP3   OH210265   6.233   6.589   4.770
 3441TIP3    H110266   6.230   6.527   4.844
 3441TIP3    H210267   6.293   6.547   4.708
 3442TIP3   OH210268   1.575   1.338   5.306
 3442TIP3    H110269   1.483   1.365   5.309
 3442TIP3    H210270   1.602   1.355   5.216
 3443TIP3   OH210271   0.388   5.617   2.413
 3443TIP3    H110272   0.398   5.677   2.488
 3443TIP3    H210273   0.469   5.567   2.410
 3444TIP3   OH210274   1.828   2.523   1.671
 3444TIP3    H110275   1.788   2.609   1.675
 3444TIP3    H210276   1.811   2.493   1.582
 3445TIP3   OH210277   0.621   0.929   2.188
 3445TIP3    H110278   0.687   0.895   2.128
 3445TIP3    H210279   0.593   1.012   2.150
 3446TIP3   OH210280   8.229   1.312   6.544
 3446TIP3    H110281   8.262   1.354   6.624
 3446TIP3    H210282   8.136   1.298   6.562
 3447TIP3   OH210283   2.043   6.074   2.841
 3447TIP3    H110284   2.022   6.054   2.933
 3447TIP3    H210285   1.991   6.151   2.820
 3448TIP3   OH210286   4.049   7.784   3.738
 3448TIP3    H110287   4.019   7.870   3.768
 3448TIP3    H210288   3.999   7.769   3.657
 3449TIP3   OH210289   2.481   7.578   3.741
 3449TIP3    H110290   2.400   7.540   3.777
 3449TIP3    H210291   2.533   7.502   3.715
 3450TIP3   OH210292   2.068   2.296   3.924
 3450TIP3    H110293   2.128   2.281   3.997
 3450TIP3    H210294   2.013   2.368   3.952
 3451TIP3   OH210295   2.429   6.293   1.343
 3451TIP3    H110296   2.342   6.313   1.375
 3451TIP3    H210297   2.421   6.207   1.301
 3452TIP3   OH210298   2.505   2.403   4.358
 3452TIP3    H110299   2.447   2.345   4.407
 3452TIP3    H210300   2.506   2.485   4.408
 3453TIP3   OH210301   0.457   2.678   5.874
 3453TIP3    H110302   0.420   2.718   5.795
 3453TIP3    H210303   0.414   2.724   5.946
 3454TIP3   OH210304   2.572   6.483   4.186
 3454TIP3    H110305   2.643   6.441   4.233
 3454TIP3    H210306   2.543   6.418   4.122
 3455TIP3   OH210307   4.187   3.176   6.549
 3455TIP3    H110308   4.247   3.164   6.475
 3455TIP3    H210309   4.193   3.094   6.598
 3456TIP3   OH210310   2.275   1.895   5.965
 3456TIP3    H110311   2.298   1.851   5.883
 3456TIP3    H210312   2.346   1.872   6.025
 3457TIP3   OH210313   0.571   4.240   6.700
 3457TIP3    H110314   0.548   4.332   6.714
 3457TIP3    H210315   0.635   4.242   6.629
 3458TIP3   OH210316   4.865   3.449   1.691
 3458TIP3    H110317   4.921   3.506   1.638
 3458TIP3    H210318   4.919   3.424   1.765
 3459TIP3   OH210319   6.531   0.290   6.040
 3459TIP3    H110320   6.490   0.293   6.126
 3459TIP3    H210321   6.585   0.370   6.037
 3460TIP3   OH210322   5.978   2.456   0.271
 3460TIP3    H110323   5.949   2.479   0.182
 3460TIP3    H210324   6.012   2.539   0.306
 3461TIP3   OH210325   5.526   3.466   3.719
 3461TIP3    H110326   5.618   3.492   3.720
 3461TIP3    H210327   5.500   3.466   3.811
 3462TIP3   OH210328   1.132   2.195   5.951
 3462TIP3    H110329   1.219   2.191   5.910
 3462TIP3    H210330   1.134   2.276   6.002
 3463TIP3   OH210331   7.696   6.671   1.849
 3463TIP3    H110332   7.716   6.728   1.775
 3463TIP3    H210333   7.622   6.714   1.893
 3464TIP3   OH210334   2.159   4.564   6.615
 3464TIP3    H110335   2.096   4.495   6.638
 3464TIP3    H210336   2.243   4.519   6.612
 3465TIP3   OH210337   0.037   6.961   3.437
 3465TIP3    H110338  -0.017   6.961   3.517
 3465TIP3    H210339   0.051   6.868   3.419
 3466TIP3   OH210340   6.680   1.642   0.096
 3466TIP3    H110341   6.693   1.560   0.144
 3466TIP3    H210342   6.683   1.617   0.004
 3467TIP3   OH210343   7.838   1.310   4.240
 3467TIP3    H110344   7.773   1.291   4.173
 3467TIP3    H210345   7.865   1.224   4.272
 3468TIP3   OH210346   5.762   3.424   2.844
 3468TIP3    H110347   5.733   3.406   2.754
 3468TIP3    H210348   5.852   3.455   2.834
 3469TIP3   OH210349   6.098   3.004   4.109
 3469TIP3    H110350   6.039   2.968   4.175
 3469TIP3    H210351   6.119   2.930   4.052
 3470TIP3   OH210352   1.176   1.050   4.415
 3470TIP3    H110353   1.210   0.993   4.346
 3470TIP3    H210354   1.183   0.998   4.495
 3471TIP3   OH210355   5.915   6.330   3.693
 3471TIP3    H110356   5.923   6.415   3.650
 3471TIP3    H210357   5.889   6.350   3.783
 3472TIP3   OH210358   5.268   7.403   5.596
 3472TIP3    H110359   5.304   7.370   5.514
 3472TIP3    H210360   5.344   7.431   5.646
 3473TIP3   OH210361   1.904   1.264   2.276
 3473TIP3    H110362   1.887   1.358   2.279
 3473TIP3    H210363   1.884   1.239   2.186
 3474TIP3   OH210364   2.671   1.309   2.171
 3474TIP3    H110365   2.617   1.314   2.249
 3474TIP3    H210366   2.717   1.225   2.178
 3475TIP3   OH210367   6.178   6.445   4.446
 3475TIP3    H110368   6.194   6.526   4.398
 3475TIP3    H210369   6.087   6.423   4.427
 3476TIP3   OH210370   2.747   4.219   4.879
 3476TIP3    H110371   2.772   4.262   4.798
 3476TIP3    H210372   2.679   4.276   4.916
 3477TIP3   OH210373   6.278   0.669   6.795
 3477TIP3    H110374   6.348   0.725   6.828
 3477TIP3    H210375   6.323   0.596   6.752
 3478TIP3   OH210376   7.223   0.775   6.776
 3478TIP3    H110377   7.270   0.799   6.696
 3478TIP3    H210378   7.214   0.680   6.771
 3479TIP3   OH210379   4.019   4.635   4.906
 3479TIP3    H110380   3.971   4.675   4.834
 3479TIP3    H210381   4.020   4.702   4.975
 3480TIP3   OH210382   8.156   4.521   3.452
 3480TIP3    H110383   8.226   4.473   3.407
 3480TIP3    H210384   8.144   4.474   3.535
 3481TIP3   OH210385   7.049   6.169   4.299
 3481TIP3    H110386   6.972   6.144   4.248
 3481TIP3    H210387   7.118   6.110   4.269
 3482TIP3   OH210388   6.082   0.424   1.305
 3482TIP3    H110389   6.058   0.516   1.294
 3482TIP3    H210390   6.002   0.382   1.336
 3483TIP3   OH210391   5.809   5.121   3.503
 3483TIP3    H110392   5.857   5.193   3.544
 3483TIP3    H210393   5.773   5.160   3.423
 3484TIP3   OH210394   5.186   6.880   0.504
 3484TIP3    H110395   5.203   6.974   0.494
 3484TIP3    H210396   5.151   6.853   0.420
 3485TIP3   OH210397   3.863   0.877   5.526
 3485TIP3    H110398   3.945   0.916   5.497
 3485TIP3    H210399   3.883   0.785   5.540
 3486TIP3   OH210400   3.078   6.038   5.783
 3486TIP3    H110401   3.091   5.961   5.838
 3486TIP3    H210402   3.031   6.005   5.707
 3487TIP3   OH210403   7.965   3.548   3.219
 3487TIP3    H110404   8.003   3.605   3.152
 3487TIP3    H210405   8.036   3.532   3.281
 3488TIP3   OH210406   6.792   4.532   5.498
 3488TIP3    H110407   6.839   4.592   5.440
 3488TIP3    H210408   6.791   4.449   5.451
 3489TIP3   OH210409   1.418   7.756   4.622
 3489TIP3    H110410   1.487   7.766   4.557
 3489TIP3    H210411   1.337   7.751   4.572
 3490TIP3   OH210412   3.793   6.471   0.040
 3490TIP3    H110413   3.737   6.405   0.080
 3490TIP3    H210414   3.833   6.516   0.115
 3491TIP3   OH210415   3.833   4.385   3.188
 3491TIP3    H110416   3.824   4.322   3.117
 3491TIP3    H210417   3.795   4.341   3.264
 3492TIP3   OH210418   6.356   0.938   5.095
 3492TIP3    H110419   6.379   1.031   5.095
 3492TIP3    H210420   6.389   0.905   5.012
 3493TIP3   OH210421   4.445   5.852   2.286
 3493TIP3    H110422   4.379   5.901   2.238
 3493TIP3    H210423   4.492   5.802   2.219
 3494TIP3   OH210424   4.991   2.221   0.565
 3494TIP3    H110425   4.949   2.295   0.521
 3494TIP3    H210426   4.930   2.148   0.552
 3495TIP3   OH210427   6.098   7.592   4.598
 3495TIP3    H110428   6.011   7.595   4.637
 3495TIP3    H210429   6.137   7.677   4.618
 3496TIP3   OH210430   1.420   4.948   4.946
 3496TIP3    H110431   1.360   4.975   5.016
 3496TIP3    H210432   1.447   5.030   4.905
 3497TIP3   OH210433   2.555   0.707   3.390
 3497TIP3    H110434   2.552   0.803   3.383
 3497TIP3    H210435   2.645   0.687   3.415
 3498TIP3   OH210436   6.089   1.926   5.848
 3498TIP3    H110437   6.129   1.913   5.933
 3498TIP3    H210438   6.117   1.851   5.796
 3499TIP3   OH210439   2.151   5.657   3.831
 3499TIP3    H110440   2.131   5.564   3.823
 3499TIP3    H210441   2.242   5.664   3.802
 3500TIP3   OH210442   1.168   3.479   6.776
 3500TIP3    H110443   1.106   3.407   6.787
 3500TIP3    H210444   1.239   3.443   6.722
 3501TIP3   OH210445   4.236   7.409   4.548
 3501TIP3    H110446   4.295   7.355   4.601
 3501TIP3    H210447   4.294   7.468   4.501
 3502TIP3   OH210448   4.605   6.830   2.639
 3502TIP3    H110449   4.560   6.912   2.664
 3502TIP3    H210450   4.685   6.831   2.691
 3503TIP3   OH210451   7.902   2.241   4.704
 3503TIP3    H110452   7.930   2.248   4.613
 3503TIP3    H210453   7.969   2.289   4.753
 3504TIP3   OH210454   6.713   7.591   0.919
 3504TIP3    H110455   6.687   7.590   0.827
 3504TIP3    H210456   6.793   7.539   0.922
 3505TIP3   OH210457   7.497   4.880   3.059
 3505TIP3    H110458   7.417   4.832   3.078
 3505TIP3    H210459   7.478   4.971   3.082
 3506TIP3   OH210460   5.797   4.949   0.498
 3506TIP3    H110461   5.748   4.904   0.429
 3506TIP3    H210462   5.787   5.042   0.476
 3507TIP3   OH210463   2.449   7.201   0.908
 3507TIP3    H110464   2.508   7.196   0.832
 3507TIP3    H210465   2.368   7.161   0.877
 3508TIP3   OH210466   5.259   3.540   4.698
 3508TIP3    H110467   5.180   3.510   4.742
 3508TIP3    H210468   5.279   3.625   4.739
 3509TIP3   OH210469   2.626   7.318   3.672
 3509TIP3    H110470   2.578   7.253   3.621
 3509TIP3    H210471   2.615   7.291   3.763
 3510TIP3   OH210472   0.728   1.907   4.004
 3510TIP3    H110473   0.642   1.940   4.030
 3510TIP3    H210474   0.743   1.833   4.062
 3511TIP3   OH210475   1.451   0.317   1.606
 3511TIP3    H110476   1.538   0.278   1.605
 3511TIP3    H210477   1.464   0.406   1.638
 3512TIP3   OH210478   3.620   5.965   5.634
 3512TIP3    H110479   3.588   5.906   5.702
 3512TIP3    H210480   3.607   6.053   5.669
 3513TIP3   OH210481   8.133   0.950   2.425
 3513TIP3    H110482   8.089   1.033   2.440
 3513TIP3    H210483   8.144   0.946   2.329
 3514TIP3   OH210484   1.498   0.410   2.352
 3514TIP3    H110485   1.440   0.339   2.381
 3514TIP3    H210486   1.577   0.399   2.405
 3515TIP3   OH210487   5.435   4.614   0.750
 3515TIP3    H110488   5.483   4.696   0.757
 3515TIP3    H210489   5.374   4.628   0.678
 3516TIP3   OH210490   1.743   1.719   0.113
 3516TIP3    H110491   1.721   1.627   0.123
 3516TIP3    H210492   1.660   1.761   0.091
 3517TIP3   OH210493   5.962   6.362   2.679
 3517TIP3    H110494   5.885   6.312   2.707
 3517TIP3    H210495   5.940   6.395   2.592
 3518TIP3   OH210496   7.259   5.255   4.816
 3518TIP3    H110497   7.354   5.250   4.806
 3518TIP3    H210498   7.239   5.197   4.890
 3519TIP3   OH210499   7.813   7.844   0.540
 3519TIP3    H110500   7.756   7.766   0.534
 3519TIP3    H210501   7.847   7.855   0.452
 3520TIP3   OH210502   7.223   3.851   1.186
 3520TIP3    H110503   7.289   3.782   1.181
 3520TIP3    H210504   7.144   3.807   1.216
 3521TIP3   OH210505   1.358   1.601   3.401
 3521TIP3    H110506   1.295   1.602   3.329
 3521TIP3    H210507   1.372   1.693   3.423
 3522TIP3   OH210508   5.731   2.862   1.037
 3522TIP3    H110509   5.789   2.895   1.106
 3522TIP3    H210510   5.788   2.815   0.977
 3523TIP3   OH210511   2.446   3.725   3.183
 3523TIP3    H110512   2.484   3.745   3.269
 3523TIP3    H210513   2.368   3.674   3.203
 3524TIP3   OH210514   6.629   0.266   3.076
 3524TIP3    H110515   6.544   0.229   3.054
 3524TIP3    H210516   6.687   0.239   3.005
 3525TIP3   OH210517   3.347   3.114   1.075
 3525TIP3    H110518   3.373   3.046   1.013
 3525TIP3    H210519   3.357   3.074   1.161
 3526TIP3   OH210520   7.944   1.925   2.446
 3526TIP3    H110521   7.965   1.861   2.379
 3526TIP3    H210522   7.961   2.010   2.404
 3527TIP3   OH210523   0.484   5.906   2.979
 3527TIP3    H110524   0.466   5.813   2.989
 3527TIP3    H210525   0.403   5.943   2.943
 3528TIP3   OH210526   0.866   4.204   4.317
 3528TIP3    H110527   0.777   4.176   4.337
 3528TIP3    H210528   0.909   4.211   4.402
 3529TIP3   OH210529   2.076   1.084   5.188
 3529TIP3    H110530   2.057   1.148   5.119
 3529TIP3    H210531   2.025   1.114   5.263
 3530TIP3   OH210532   4.282   0.093   0.984
 3530TIP3    H110533   4.347   0.160   0.963
 3530TIP3    H210534   4.234   0.079   0.901
 3531TIP3   OH210535   0.677   6.612   2.444
 3531TIP3    H110536   0.704   6.593   2.355
 3531TIP3    H210537   0.724   6.691   2.468
 3532TIP3   OH210538   0.160   0.079   4.393
 3532TIP3    H110539   0.188   0.046   4.308
 3532TIP3    H210540   0.242   0.089   4.443
 3533TIP3   OH210541   3.247   4.199   1.290
 3533TIP3    H110542   3.339   4.224   1.283
 3533TIP3    H210543   3.249   4.105   1.310
 3534TIP3   OH210544   2.696   5.866   1.045
 3534TIP3    H110545   2.625   5.907   1.095
 3534TIP3    H210546   2.665   5.777   1.029
 3535TIP3   OH210547   0.877   4.260   3.715
 3535TIP3    H110548   0.843   4.175   3.688
 3535TIP3    H210549   0.963   4.240   3.752
 3536TIP3   OH210550   8.120   7.710   0.903
 3536TIP3    H110551   8.048   7.742   0.849
 3536TIP3    H210552   8.130   7.776   0.971
 3537TIP3   OH210553   3.593   0.291   0.588
 3537TIP3    H110554   3.614   0.255   0.674
 3537TIP3    H210555   3.532   0.227   0.550
 3538TIP3   OH210556   3.341   6.320   5.415
 3538TIP3    H110557   3.350   6.295   5.323
 3538TIP3    H210558   3.370   6.243   5.464
 3539TIP3   OH210559   0.866   0.439   0.286
 3539TIP3    H110560   0.941   0.482   0.245
 3539TIP3    H210561   0.857   0.483   0.370
 3540TIP3   OH210562   6.788   2.919   4.300
 3540TIP3    H110563   6.846   2.845   4.283
 3540TIP3    H210564   6.800   2.976   4.224
 3541TIP3   OH210565   2.176   5.097   6.453
 3541TIP3    H110566   2.252   5.156   6.456
 3541TIP3    H210567   2.191   5.035   6.524
 3542TIP3   OH210568   6.224   2.162   0.798
 3542TIP3    H110569   6.226   2.214   0.717
 3542TIP3    H210570   6.245   2.073   0.770
 3543TIP3   OH210571  -0.031   0.134   5.056
 3543TIP3    H110572  -0.111   0.128   5.109
 3543TIP3    H210573   0.029   0.186   5.109
 3544TIP3   OH210574   1.750   6.826   5.471
 3544TIP3    H110575   1.832   6.804   5.515
 3544TIP3    H210576   1.761   6.917   5.443
 3545TIP3   OH210577   4.076   0.526   3.617
 3545TIP3    H110578   4.125   0.449   3.645
 3545TIP3    H210579   4.102   0.540   3.526
 3546TIP3   OH210580   3.819   1.758   2.160
 3546TIP3    H110581   3.787   1.764   2.250
 3546TIP3    H210582   3.863   1.673   2.155
 3547TIP3   OH210583   3.243   6.708   4.840
 3547TIP3    H110584   3.198   6.720   4.756
 3547TIP3    H210585   3.191   6.643   4.886
 3548TIP3   OH210586   4.798   0.278   1.397
 3548TIP3    H110587   4.835   0.260   1.484
 3548TIP3    H210588   4.867   0.327   1.352
 3549TIP3   OH210589   1.676   4.176   1.074
 3549TIP3    H110590   1.624   4.148   0.999
 3549TIP3    H210591   1.741   4.236   1.037
 3550TIP3   OH210592   2.100   2.018   5.496
 3550TIP3    H110593   2.147   2.091   5.537
 3550TIP3    H210594   2.036   1.990   5.561
 3551TIP3   OH210595   1.177   4.682   3.883
 3551TIP3    H110596   1.108   4.703   3.821
 3551TIP3    H210597   1.131   4.650   3.961
 3552TIP3   OH210598   0.982   6.559   0.030
 3552TIP3    H110599   1.055   6.499   0.044
 3552TIP3    H210600   1.014   6.621  -0.036
 3553TIP3   OH210601   8.069   1.145   3.194
 3553TIP3    H110602   8.161   1.168   3.186
 3553TIP3    H210603   8.029   1.178   3.114
 3554TIP3   OH210604   3.120   4.223   6.237
 3554TIP3    H110605   3.128   4.308   6.193
 3554TIP3    H210606   3.171   4.233   6.317
 3555TIP3   OH210607   8.051   5.540   1.337
 3555TIP3    H110608   8.122   5.485   1.369
 3555TIP3    H210609   7.982   5.530   1.402
 3556TIP3   OH210610   1.313   5.397   4.871
 3556TIP3    H110611   1.316   5.491   4.885
 3556TIP3    H210612   1.253   5.386   4.797
 3557TIP3   OH210613   0.852   2.414   6.059
 3557TIP3    H110614   0.875   2.400   5.967
 3557TIP3    H210615   0.926   2.379   6.108
 3558TIP3   OH210616   3.911   7.549   5.865
 3558TIP3    H110617   3.930   7.640   5.846
 3558TIP3    H210618   3.994   7.513   5.897
 3559TIP3   OH210619   1.241   5.295   1.372
 3559TIP3    H110620   1.331   5.325   1.375
 3559TIP3    H210621   1.189   5.376   1.374
 3560TIP3   OH210622   4.936   5.652   2.278
 3560TIP3    H110623   4.843   5.666   2.291
 3560TIP3    H210624   4.943   5.562   2.246
 3561TIP3   OH210625   3.435   0.160   4.931
 3561TIP3    H110626   3.511   0.202   4.971
 3561TIP3    H210627   3.451   0.166   4.837
 3562TIP3   OH210628   1.557   7.751   6.404
 3562TIP3    H110629   1.508   7.728   6.483
 3562TIP3    H210630   1.606   7.829   6.428
 3563TIP3   OH210631   0.424   3.149   5.649
 3563TIP3    H110632   0.466   3.229   5.618
 3563TIP3    H210633   0.428   3.155   5.745
 3564TIP3   OH210634   5.079   6.850   5.450
 3564TIP3    H110635   5.169   6.883   5.448
 3564TIP3    H210636   5.055   6.840   5.358
 3565TIP3   OH210637   5.646   1.956   2.465
 3565TIP3    H110638   5.620   1.870   2.499
 3565TIP3    H210639   5.716   1.985   2.524
 3566TIP3   OH210640   4.401   7.810   0.132
 3566TIP3    H110641   4.362   7.896   0.117
 3566TIP3    H210642   4.400   7.768   0.045
 3567TIP3   OH210643   3.519   5.816   2.202
 3567TIP3    H110644   3.543   5.825   2.294
 3567TIP3    H210645   3.588   5.865   2.155
 3568TIP3   OH210646   3.772   3.376   4.449
 3568TIP3    H110647   3.788   3.458   4.402
 3568TIP3    H210648   3.679   3.358   4.436
 3569TIP3   OH210649   4.728   7.394   4.508
 3569TIP3    H110650   4.641   7.356   4.502
 3569TIP3    H210651   4.730   7.435   4.595
 3570TIP3   OH210652   6.848   2.679   1.082
 3570TIP3    H110653   6.767   2.727   1.103
 3570TIP3    H210654   6.902   2.742   1.035
 3571TIP3   OH210655   0.656   6.607   5.341
 3571TIP3    H110656   0.643   6.628   5.248
 3571TIP3    H210657   0.736   6.554   5.341
 3572TIP3   OH210658   5.366   4.888   4.165
 3572TIP3    H110659   5.322   4.803   4.161
 3572TIP3    H210660   5.360   4.923   4.076
 3573TIP3   OH210661   0.681   7.718   5.498
 3573TIP3    H110662   0.733   7.701   5.419
 3573TIP3    H210663   0.746   7.744   5.564
 3574TIP3   OH210664   1.816   1.930   5.502
 3574TIP3    H110665   1.832   1.886   5.419
 3574TIP3    H210666   1.748   1.995   5.483
 3575TIP3   OH210667   7.644   2.288   6.571
 3575TIP3    H110668   7.575   2.254   6.513
 3575TIP3    H210669   7.598   2.306   6.654
 3576TIP3   OH210670   1.305   3.062   0.438
 3576TIP3    H110671   1.247   3.014   0.497
 3576TIP3    H210672   1.279   3.033   0.350
 3577TIP3   OH210673   1.217   6.382   2.751
 3577TIP3    H110674   1.230   6.372   2.845
 3577TIP3    H210675   1.179   6.469   2.741
 3578TIP3   OH210676   2.046   5.938   4.437
 3578TIP3    H110677   1.976   5.879   4.410
 3578TIP3    H210678   2.123   5.909   4.389
 3579TIP3   OH210679   1.849   3.234   6.813
 3579TIP3    H110680   1.765   3.264   6.847
 3579TIP3    H210681   1.830   3.148   6.776
 3580TIP3   OH210682   5.017   1.254   1.661
 3580TIP3    H110683   4.994   1.192   1.731
 3580TIP3    H210684   4.935   1.299   1.642
 3581TIP3   OH210685   8.058   3.500   2.367
 3581TIP3    H110686   8.081   3.420   2.320
 3581TIP3    H210687   8.142   3.541   2.387
 3582TIP3   OH210688   5.519   0.603   1.806
 3582TIP3    H110689   5.437   0.605   1.755
 3582TIP3    H210690   5.574   0.669   1.765
 3583TIP3   OH210691   0.090   6.006   1.312
 3583TIP3    H110692   0.159   5.998   1.378
 3583TIP3    H210693   0.029   6.070   1.349
 3584TIP3   OH210694   1.469   5.349   3.881
 3584TIP3    H110695   1.497   5.368   3.791
 3584TIP3    H210696   1.544   5.305   3.921
 3585TIP3   OH210697   1.751   1.116   5.331
 3585TIP3    H110698   1.753   1.025   5.362
 3585TIP3    H210699   1.678   1.119   5.270
 3586TIP3   OH210700   2.930   0.783   0.290
 3586TIP3    H110701   2.908   0.853   0.352
 3586TIP3    H210702   3.004   0.737   0.331
 3587TIP3   OH210703   3.787   4.347   6.456
 3587TIP3    H110704   3.740   4.430   6.454
 3587TIP3    H210705   3.863   4.364   6.513
 3588TIP3   OH210706   4.346   4.325   2.330
 3588TIP3    H110707   4.271   4.285   2.287
 3588TIP3    H210708   4.374   4.395   2.270
 3589TIP3   OH210709   0.139   1.151   4.412
 3589TIP3    H110710   0.046   1.128   4.415
 3589TIP3    H210711   0.181   1.087   4.471
 3590TIP3   OH210712   1.507   2.529   6.584
 3590TIP3    H110713   1.494   2.575   6.667
 3590TIP3    H210714   1.594   2.556   6.555
 3591TIP3   OH210715   0.459   5.839   0.135
 3591TIP3    H110716   0.479   5.898   0.062
 3591TIP3    H210717   0.544   5.821   0.176
 3592TIP3   OH210718   1.293   7.614   1.837
 3592TIP3    H110719   1.237   7.616   1.914
 3592TIP3    H210720   1.245   7.560   1.774
 3593TIP3   OH210721   6.075   4.143   1.314
 3593TIP3    H110722   6.096   4.066   1.367
 3593TIP3    H210723   6.143   4.145   1.247
 3594TIP3   OH210724   4.022   6.544   5.915
 3594TIP3    H110725   4.110   6.568   5.944
 3594TIP3    H210726   3.989   6.622   5.871
 3595TIP3   OH210727   1.077   5.138   4.153
 3595TIP3    H110728   1.112   5.150   4.065
 3595TIP3    H210729   1.122   5.204   4.206
 3596TIP3   OH210730   6.754   6.835   0.147
 3596TIP3    H110731   6.688   6.766   0.159
 3596TIP3    H210732   6.705   6.917   0.156
 3597TIP3   OH210733   2.673   5.407   4.562
 3597TIP3    H110734   2.614   5.474   4.596
 3597TIP3    H210735   2.627   5.370   4.486
 3598TIP3   OH210736   0.316   4.133   5.790
 3598TIP3    H110737   0.274   4.047   5.783
 3598TIP3    H210738   0.246   4.192   5.817
 3599TIP3   OH210739   6.092   4.425   3.591
 3599TIP3    H110740   6.019   4.485   3.604
 3599TIP3    H210741   6.066   4.346   3.639
 3600TIP3   OH210742   2.667   5.174   1.330
 3600TIP3    H110743   2.733   5.191   1.398
 3600TIP3    H210744   2.697   5.093   1.288
 3601TIP3   OH210745   7.703   0.559   0.886
 3601TIP3    H110746   7.787   0.604   0.899
 3601TIP3    H210747   7.638   0.620   0.921
 3602TIP3   OH210748   6.951   3.297   3.163
 3602TIP3    H110749   6.941   3.388   3.189
 3602TIP3    H210750   6.899   3.248   3.226
 3603TIP3   OH210751   0.333   3.900   2.729
 3603TIP3    H110752   0.357   3.931   2.642
 3603TIP3    H210753   0.333   3.805   2.721
 3604TIP3   OH210754   2.896   6.332   0.220
 3604TIP3    H110755   2.850   6.271   0.163
 3604TIP3    H210756   2.937   6.394   0.160
 3605TIP3   OH210757   7.390   3.484   0.917
 3605TIP3    H110758   7.396   3.492   0.821
 3605TIP3    H210759   7.348   3.399   0.931
 3606TIP3   OH210760   2.751   0.449   1.023
 3606TIP3    H110761   2.712   0.525   0.980
 3606TIP3    H210762   2.810   0.412   0.958
 3607TIP3   OH210763   3.154   4.769   0.778
 3607TIP3    H110764   3.237   4.817   0.778
 3607TIP3    H210765   3.093   4.827   0.733
 3608TIP3   OH210766   7.336   5.856   4.752
 3608TIP3    H110767   7.356   5.944   4.783
 3608TIP3    H210768   7.409   5.835   4.693
 3609TIP3   OH210769   0.599   0.504   3.596
 3609TIP3    H110770   0.679   0.556   3.594
 3609TIP3    H210771   0.568   0.502   3.506
 3610TIP3   OH210772   2.594   3.580   3.725
 3610TIP3    H110773   2.588   3.487   3.704
 3610TIP3    H210774   2.587   3.583   3.820
 3611TIP3   OH210775   0.595   3.758   0.178
 3611TIP3    H110776   0.646   3.703   0.239
 3611TIP3    H210777   0.624   3.731   0.091
 3612TIP3   OH210778   0.990   2.958   6.675
 3612TIP3    H110779   1.036   2.883   6.637
 3612TIP3    H210780   1.031   2.971   6.760
 3613TIP3   OH210781   6.337   3.338   3.542
 3613TIP3    H110782   6.366   3.359   3.631
 3613TIP3    H210783   6.374   3.407   3.487
 3614TIP3   OH210784   7.779   4.494   6.571
 3614TIP3    H110785   7.705   4.489   6.510
 3614TIP3    H210786   7.819   4.579   6.555
 3615TIP3   OH210787   4.837   2.966   6.478
 3615TIP3    H110788   4.809   2.919   6.399
 3615TIP3    H210789   4.842   2.897   6.545
 3616TIP3   OH210790   2.639   6.315   3.569
 3616TIP3    H110791   2.725   6.316   3.527
 3616TIP3    H210792   2.581   6.355   3.504
 3617TIP3   OH210793   4.713   2.511   2.159
 3617TIP3    H110794   4.631   2.543   2.121
 3617TIP3    H210795   4.693   2.423   2.190
 3618TIP3   OH210796   7.456   1.308   5.184
 3618TIP3    H110797   7.473   1.361   5.106
 3618TIP3    H210798   7.392   1.359   5.234
 3619TIP3   OH210799   7.445   0.106   0.907
 3619TIP3    H110800   7.485   0.018   0.904
 3619TIP3    H210801   7.502   0.156   0.966
 3620TIP3   OH210802   8.268   7.612   2.742
 3620TIP3    H110803   8.257   7.620   2.647
 3620TIP3    H210804   8.191   7.564   2.772
 3621TIP3   OH210805   3.919   3.023   4.748
 3621TIP3    H110806   3.976   2.961   4.702
 3621TIP3    H210807   3.924   3.103   4.696
 3622TIP3   OH210808   0.603   5.282   3.635
 3622TIP3    H110809   0.639   5.366   3.606
 3622TIP3    H210810   0.638   5.218   3.574
 3623TIP3   OH210811   0.775   4.792   3.990
 3623TIP3    H110812   0.842   4.857   3.969
 3623TIP3    H210813   0.767   4.797   4.085
 3624TIP3   OH210814   3.281   7.148   4.859
 3624TIP3    H110815   3.214   7.139   4.792
 3624TIP3    H210816   3.256   7.226   4.908
 3625TIP3   OH210817   6.167   7.116   3.809
 3625TIP3    H110818   6.161   7.210   3.826
 3625TIP3    H210819   6.259   7.095   3.821
 3626TIP3   OH210820   3.802   2.015   2.243
 3626TIP3    H110821   3.826   1.943   2.185
 3626TIP3    H210822   3.871   2.016   2.309
 3627TIP3   OH210823   5.168   2.870   2.434
 3627TIP3    H110824   5.130   2.876   2.347
 3627TIP3    H210825   5.104   2.911   2.492
 3628TIP3   OH210826   2.106   2.426   2.523
 3628TIP3    H110827   2.074   2.428   2.433
 3628TIP3    H210828   2.096   2.335   2.550
 3629TIP3   OH210829   0.021   3.614   2.303
 3629TIP3    H110830   0.047   3.524   2.285
 3629TIP3    H210831   0.079   3.667   2.248
 3630TIP3   OH210832   2.311   6.239   4.792
 3630TIP3    H110833   2.217   6.249   4.806
 3630TIP3    H210834   2.350   6.257   4.878
 3631TIP3   OH210835   3.324   5.784   6.135
 3631TIP3    H110836   3.388   5.715   6.116
 3631TIP3    H210837   3.350   5.857   6.080
 3632TIP3   OH210838   0.771   1.174   3.618
 3632TIP3    H110839   0.698   1.198   3.675
 3632TIP3    H210840   0.731   1.160   3.532
 3633TIP3   OH210841   5.647   3.003   4.177
 3633TIP3    H110842   5.640   3.028   4.085
 3633TIP3    H210843   5.558   2.982   4.203
 3634TIP3   OH210844   0.832   4.054   1.998
 3634TIP3    H110845   0.924   4.070   1.979
 3634TIP3    H210846   0.827   4.055   2.094
 3635TIP3   OH210847   3.100   6.929   2.713
 3635TIP3    H110848   3.133   6.986   2.643
 3635TIP3    H210849   3.005   6.930   2.702
 3636TIP3   OH210850   4.407   3.508   2.197
 3636TIP3    H110851   4.476   3.473   2.254
 3636TIP3    H210852   4.390   3.438   2.134
 3637TIP3   OH210853   5.152   1.416   0.671
 3637TIP3    H110854   5.165   1.333   0.716
 3637TIP3    H210855   5.235   1.463   0.684
 3638TIP3   OH210856   5.401   4.871   5.637
 3638TIP3    H110857   5.402   4.870   5.541
 3638TIP3    H210858   5.333   4.934   5.660
 3639TIP3   OH210859   4.835   3.580   2.912
 3639TIP3    H110860   4.865   3.537   2.832
 3639TIP3    H210861   4.766   3.522   2.946
 3640TIP3   OH210862   7.886   1.520   0.217
 3640TIP3    H110863   7.977   1.549   0.207
 3640TIP3    H210864   7.835   1.600   0.204
 3641TIP3   OH210865   8.119   4.520   3.177
 3641TIP3    H110866   8.169   4.597   3.148
 3641TIP3    H210867   8.114   4.529   3.272
 3642TIP3   OH210868   6.881   1.238   3.660
 3642TIP3    H110869   6.966   1.196   3.670
 3642TIP3    H210870   6.901   1.321   3.617
 3643TIP3   OH210871   3.865   7.430   2.931
 3643TIP3    H110872   3.825   7.362   2.878
 3643TIP3    H210873   3.959   7.412   2.928
 3644TIP3   OH210874   8.147   5.008   5.505
 3644TIP3    H110875   8.181   4.961   5.429
 3644TIP3    H210876   8.218   5.067   5.531
 3645TIP3   OH210877   0.364   7.251   4.093
 3645TIP3    H110878   0.292   7.291   4.045
 3645TIP3    H210879   0.435   7.315   4.088
 3646TIP3   OH210880   1.175   3.111   5.196
 3646TIP3    H110881   1.216   3.192   5.227
 3646TIP3    H210882   1.239   3.043   5.216
 3647TIP3   OH210883   4.670   0.383   0.552
 3647TIP3    H110884   4.666   0.291   0.524
 3647TIP3    H210885   4.690   0.379   0.645
 3648TIP3   OH210886   7.313   2.585   4.488
 3648TIP3    H110887   7.388   2.604   4.432
 3648TIP3    H210888   7.299   2.491   4.477
 3649TIP3   OH210889   5.576   3.897   1.429
 3649TIP3    H110890   5.506   3.883   1.493
 3649TIP3    H210891   5.530   3.903   1.345
 3650TIP3   OH210892   4.079   7.375   4.098
 3650TIP3    H110893   4.074   7.429   4.018
 3650TIP3    H210894   4.023   7.300   4.080
 3651TIP3   OH210895   6.849   1.189   4.931
 3651TIP3    H110896   6.935   1.164   4.966
 3651TIP3    H210897   6.854   1.284   4.921
 3652TIP3   OH210898   4.155   2.435   0.901
 3652TIP3    H110899   4.140   2.530   0.908
 3652TIP3    H210900   4.243   2.428   0.862
 3653TIP3   OH210901   8.095   4.944   1.514
 3653TIP3    H110902   8.055   4.862   1.544
 3653TIP3    H210903   8.189   4.929   1.521
 3654TIP3   OH210904   0.345   2.306   1.730
 3654TIP3    H110905   0.417   2.245   1.716
 3654TIP3    H210906   0.387   2.385   1.764
 3655TIP3   OH210907   2.045   0.961   1.286
 3655TIP3    H110908   2.127   0.926   1.251
 3655TIP3    H210909   2.060   1.055   1.292
 3656TIP3   OH210910   4.935   1.643   0.120
 3656TIP3    H110911   4.960   1.559   0.082
 3656TIP3    H210912   5.018   1.682   0.148
 3657TIP3   OH210913   1.649   0.715   6.494
 3657TIP3    H110914   1.690   0.649   6.439
 3657TIP3    H210915   1.648   0.676   6.581
 3658TIP3   OH210916   3.817   3.825   3.162
 3658TIP3    H110917   3.764   3.905   3.160
 3658TIP3    H210918   3.902   3.853   3.126
 3659TIP3   OH210919   4.928   4.379   4.776
 3659TIP3    H110920   4.893   4.450   4.830
 3659TIP3    H210921   4.979   4.325   4.836
 3660TIP3   OH210922   8.045   1.545   3.167
 3660TIP3    H110923   8.090   1.574   3.247
 3660TIP3    H210924   7.953   1.561   3.184
 3661TIP3   OH210925   7.471   7.854   1.064
 3661TIP3    H110926   7.493   7.762   1.081
 3661TIP3    H210927   7.380   7.852   1.034
 3662TIP3   OH210928   0.660   7.403   3.291
 3662TIP3    H110929   0.651   7.495   3.266
 3662TIP3    H210930   0.745   7.376   3.256
 3663TIP3   OH210931   6.669   3.517   4.090
 3663TIP3    H110932   6.589   3.531   4.140
 3663TIP3    H210933   6.688   3.601   4.048
 3664TIP3   OH210934   0.120   7.443   0.017
 3664TIP3    H110935   0.169   7.524   0.005
 3664TIP3    H210936   0.187   7.375   0.021
 3665TIP3   OH210937   4.057   0.064   3.389
 3665TIP3    H110938   4.107   0.056   3.308
 3665TIP3    H210939   4.043  -0.027   3.417
 3666TIP3   OH210940   1.583   5.580   4.687
 3666TIP3    H110941   1.621   5.560   4.773
 3666TIP3    H210942   1.621   5.665   4.664
 3667TIP3   OH210943   0.754   3.718   2.919
 3667TIP3    H110944   0.792   3.747   3.002
 3667TIP3    H210945   0.734   3.799   2.873
 3668TIP3   OH210946   6.103   5.318   2.716
 3668TIP3    H110947   6.081   5.225   2.729
 3668TIP3    H210948   6.198   5.322   2.730
 3669TIP3   OH210949   2.813   4.300   4.608
 3669TIP3    H110950   2.755   4.334   4.540
 3669TIP3    H210951   2.864   4.232   4.564
 3670TIP3   OH210952   1.126   5.215   0.307
 3670TIP3    H110953   1.150   5.188   0.218
 3670TIP3    H210954   1.205   5.255   0.342
 3671TIP3   OH210955   0.293   7.665   0.067
 3671TIP3    H110956   0.309   7.732   0.001
 3671TIP3    H210957   0.373   7.664   0.120
 3672TIP3   OH210958   5.846   0.153   5.025
 3672TIP3    H110959   5.890   0.123   5.104
 3672TIP3    H210960   5.910   0.138   4.955
 3673TIP3   OH210961   3.420   5.238   5.552
 3673TIP3    H110962   3.428   5.329   5.521
 3673TIP3    H210963   3.496   5.225   5.608
 3674TIP3   OH210964   5.433   3.516   6.526
 3674TIP3    H110965   5.353   3.534   6.576
 3674TIP3    H210966   5.494   3.584   6.554
 3675TIP3   OH210967   7.713   4.679   4.111
 3675TIP3    H110968   7.766   4.635   4.044
 3675TIP3    H210969   7.778   4.714   4.173
 3676TIP3   OH210970   4.968   2.246   3.647
 3676TIP3    H110971   4.892   2.226   3.591
 3676TIP3    H210972   4.940   2.321   3.699
 3677TIP3   OH210973   6.232   3.935   2.370
 3677TIP3    H110974   6.248   3.867   2.305
 3677TIP3    H210975   6.150   3.976   2.341
 3678TIP3   OH210976   3.101   0.079   0.445
 3678TIP3    H110977   3.012   0.043   0.444
 3678TIP3    H210978   3.147   0.030   0.513
 3679TIP3   OH210979   3.874   6.678   5.282
 3679TIP3    H110980   3.899   6.691   5.191
 3679TIP3    H210981   3.837   6.589   5.284
 3680TIP3   OH210982   2.894   6.523   4.854
 3680TIP3    H110983   2.972   6.510   4.907
 3680TIP3    H210984   2.842   6.443   4.868
 3681TIP3   OH210985   5.760   0.787   1.178
 3681TIP3    H110986   5.668   0.795   1.203
 3681TIP3    H210987   5.778   0.867   1.129
 3682TIP3   OH210988   2.513   5.440   0.803
 3682TIP3    H110989   2.482   5.412   0.717
 3682TIP3    H210990   2.533   5.359   0.849
 3683TIP3   OH210991   6.028   0.865   3.178
 3683TIP3    H110992   6.072   0.895   3.099
 3683TIP3    H210993   5.999   0.945   3.222
 3684TIP3   OH210994   6.561   3.267   0.078
 3684TIP3    H110995   6.501   3.304   0.014
 3684TIP3    H210996   6.606   3.196   0.032
 3685TIP3   OH210997   5.829   1.205   2.604
 3685TIP3    H110998   5.824   1.152   2.524
 3685TIP3    H210999   5.883   1.153   2.664
 3686TIP3   OH211000   5.075   4.159   1.474
 3686TIP3    H111001   5.027   4.193   1.399
 3686TIP3    H211002   5.090   4.067   1.453
 3687TIP3   OH211003   4.920   6.743   1.754
 3687TIP3    H111004   4.901   6.664   1.703
 3687TIP3    H211005   4.937   6.810   1.687
 3688TIP3   OH211006   2.701   5.153   6.232
 3688TIP3    H111007   2.688   5.091   6.160
 3688TIP3    H211008   2.642   5.123   6.301
 3689TIP3   OH211009   7.146   6.697   4.502
 3689TIP3    H111010   7.190   6.702   4.587
 3689TIP3    H211011   7.058   6.664   4.523
 3690TIP3   OH211012   7.925   6.180   1.530
 3690TIP3    H111013   7.898   6.131   1.608
 3690TIP3    H211014   7.930   6.271   1.559
 3691TIP3   OH211015   5.332   1.130   1.101
 3691TIP3    H111016   5.274   1.079   1.158
 3691TIP3    H211017   5.419   1.094   1.116
 3692TIP3   OH211018   1.871   1.579   1.520
 3692TIP3    H111019   1.863   1.508   1.456
 3692TIP3    H211020   1.845   1.540   1.603
 3693TIP3   OH211021   2.628   2.524   4.914
 3693TIP3    H111022   2.683   2.571   4.851
 3693TIP3    H211023   2.669   2.438   4.922
 3694TIP3   OH211024   3.610   5.827   1.273
 3694TIP3    H111025   3.529   5.878   1.274
 3694TIP3    H211026   3.612   5.783   1.358
 3695TIP3   OH211027   3.067   4.882   2.468
 3695TIP3    H111028   3.075   4.977   2.471
 3695TIP3    H211029   3.152   4.849   2.496
 3696TIP3   OH211030   1.330   5.756   0.969
 3696TIP3    H111031   1.383   5.820   0.921
 3696TIP3    H211032   1.292   5.806   1.041
 3697TIP3   OH211033   0.028   6.234   0.667
 3697TIP3    H111034   0.090   6.171   0.703
 3697TIP3    H211035   0.081   6.313   0.650
 3698TIP3   OH211036   3.856   3.165   1.666
 3698TIP3    H111037   3.765   3.188   1.649
 3698TIP3    H211038   3.893   3.145   1.580
 3699TIP3   OH211039   3.501   1.815   0.669
 3699TIP3    H111040   3.500   1.784   0.578
 3699TIP3    H211041   3.519   1.908   0.662
 3700TIP3   OH211042   7.771   7.827   2.963
 3700TIP3    H111043   7.809   7.829   2.875
 3700TIP3    H211044   7.678   7.847   2.950
 3701TIP3   OH211045   7.006   4.679   0.496
 3701TIP3    H111046   6.927   4.649   0.540
 3701TIP3    H211047   6.975   4.717   0.414
 3702TIP3   OH211048   0.090   5.593   3.305
 3702TIP3    H111049   0.034   5.518   3.282
 3702TIP3    H211050   0.028   5.663   3.326
 3703TIP3   OH211051   4.459   2.192   2.251
 3703TIP3    H111052   4.543   2.213   2.293
 3703TIP3    H211053   4.422   2.122   2.305
 3704TIP3   OH211054   7.833   7.510   5.441
 3704TIP3    H111055   7.901   7.560   5.486
 3704TIP3    H211056   7.825   7.429   5.491
 3705TIP3   OH211057   4.431   4.994   2.356
 3705TIP3    H111058   4.407   5.025   2.443
 3705TIP3    H211059   4.521   5.026   2.343
 3706TIP3   OH211060   2.386   6.472   0.524
 3706TIP3    H111061   2.307   6.455   0.576
 3706TIP3    H211062   2.443   6.521   0.583
 3707TIP3   OH211063   8.210   1.647   6.428
 3707TIP3    H111064   8.246   1.589   6.360
 3707TIP3    H211065   8.245   1.612   6.510
 3708TIP3   OH211066   3.309   3.345   0.922
 3708TIP3    H111067   3.352   3.320   0.840
 3708TIP3    H211068   3.327   3.271   0.981
 3709TIP3   OH211069   4.081   3.491   5.769
 3709TIP3    H111070   4.081   3.450   5.855
 3709TIP3    H211071   4.170   3.524   5.758
 3710TIP3   OH211072   8.150   3.052   4.548
 3710TIP3    H111073   8.203   3.011   4.616
 3710TIP3    H211074   8.208   3.056   4.472
 3711TIP3   OH211075   0.411   0.679   5.777
 3711TIP3    H111076   0.339   0.659   5.838
 3711TIP3    H211077   0.418   0.602   5.722
 3712TIP3   OH211078   2.801   6.908   1.291
 3712TIP3    H111079   2.865   6.857   1.241
 3712TIP3    H211080   2.730   6.926   1.229
 3713TIP3   OH211081   0.813   2.624   2.704
 3713TIP3    H111082   0.837   2.695   2.644
 3713TIP3    H211083   0.867   2.639   2.782
 3714TIP3   OH211084   7.448   6.689   5.727
 3714TIP3    H111085   7.478   6.776   5.753
 3714TIP3    H211086   7.378   6.706   5.663
 3715TIP3   OH211087   5.198   2.900   4.557
 3715TIP3    H111088   5.282   2.945   4.555
 3715TIP3    H211089   5.151   2.940   4.631
 3716TIP3   OH211090   6.286   0.386   2.603
 3716TIP3    H111091   6.332   0.404   2.684
 3716TIP3    H211092   6.354   0.389   2.535
 3717TIP3   OH211093   1.690   3.653   5.864
 3717TIP3    H111094   1.776   3.686   5.888
 3717TIP3    H211095   1.634   3.675   5.939
 3718TIP3   OH211096   6.232   7.669   3.042
 3718TIP3    H111097   6.293   7.696   2.973
 3718TIP3    H211098   6.146   7.667   3.000
 3719TIP3   OH211099   4.275   6.045   5.849
 3719TIP3    H111100   4.297   6.080   5.762
 3719TIP3    H211101   4.212   6.107   5.885
 3720TIP3   OH211102   3.044   3.200   2.399
 3720TIP3    H111103   2.963   3.250   2.396
 3720TIP3    H211104   3.093   3.238   2.472
 3721TIP3   OH211105   4.966   5.480   5.658
 3721TIP3    H111106   4.908   5.462   5.732
 3721TIP3    H211107   4.950   5.572   5.638
 3722TIP3   OH211108   5.770   5.293   2.571
 3722TIP3    H111109   5.799   5.211   2.611
 3722TIP3    H211110   5.804   5.290   2.482
 3723TIP3   OH211111   5.518   6.385   6.028
 3723TIP3    H111112   5.573   6.344   5.962
 3723TIP3    H211113   5.435   6.336   6.024
 3724TIP3   OH211114   6.055   4.023   4.570
 3724TIP3    H111115   6.117   4.096   4.568
 3724TIP3    H211116   5.983   4.051   4.514
 3725TIP3   OH211117   2.130   3.841   0.561
 3725TIP3    H111118   2.039   3.863   0.582
 3725TIP3    H211119   2.152   3.771   0.623
 3726TIP3   OH211120   7.254   7.199   3.736
 3726TIP3    H111121   7.198   7.233   3.806
 3726TIP3    H211122   7.332   7.255   3.739
 3727TIP3   OH211123   5.704   5.378   5.698
 3727TIP3    H111124   5.622   5.335   5.676
 3727TIP3    H211125   5.691   5.412   5.786
 3728TIP3   OH211126   0.430   7.259   2.152
 3728TIP3    H111127   0.374   7.336   2.160
 3728TIP3    H211128   0.381   7.188   2.195
 3729TIP3   OH211129   6.846   1.995   5.411
 3729TIP3    H111130   6.794   2.048   5.351
 3729TIP3    H211131   6.935   1.998   5.376
 3730TIP3   OH211132   5.815   4.136   4.835
 3730TIP3    H111133   5.829   4.050   4.796
 3730TIP3    H211134   5.788   4.191   4.761
 3731TIP3   OH211135   0.579   4.775   3.302
 3731TIP3    H111136   0.620   4.824   3.374
 3731TIP3    H211137   0.645   4.710   3.278
 3732TIP3   OH211138   5.091   1.628   2.318
 3732TIP3    H111139   5.096   1.550   2.374
 3732TIP3    H211140   4.998   1.651   2.317
 3733TIP3   OH211141   2.247   3.778   3.502
 3733TIP3    H111142   2.170   3.786   3.558
 3733TIP3    H211143   2.237   3.847   3.437
 3734TIP3   OH211144   2.719   1.643   2.221
 3734TIP3    H111145   2.650   1.584   2.251
 3734TIP3    H211146   2.790   1.585   2.193
 3735TIP3   OH211147   4.743   1.962   6.469
 3735TIP3    H111148   4.761   1.979   6.377
 3735TIP3    H211149   4.810   2.013   6.516
 3736TIP3   OH211150   2.202   7.174   2.846
 3736TIP3    H111151   2.141   7.224   2.792
 3736TIP3    H211152   2.239   7.108   2.787
 3737TIP3   OH211153   6.643   5.511   1.332
 3737TIP3    H111154   6.738   5.525   1.332
 3737TIP3    H211155   6.620   5.504   1.239
 3738TIP3   OH211156   7.971   7.419   6.317
 3738TIP3    H111157   8.017   7.336   6.304
 3738TIP3    H211158   7.981   7.466   6.234
 3739TIP3   OH211159   1.833   3.916   5.964
 3739TIP3    H111160   1.907   3.976   5.960
 3739TIP3    H211161   1.760   3.971   5.993
 3740TIP3   OH211162   0.655   6.447   1.791
 3740TIP3    H111163   0.600   6.396   1.732
 3740TIP3    H211164   0.606   6.528   1.805
 3741TIP3   OH211165   0.228   7.774   6.671
 3741TIP3    H111166   0.205   7.866   6.678
 3741TIP3    H211167   0.175   7.731   6.738
 3742TIP3   OH211168   4.509   6.572   2.545
 3742TIP3    H111169   4.438   6.605   2.489
 3742TIP3    H211170   4.576   6.640   2.540
 3743TIP3   OH211171   3.401   7.707   4.312
 3743TIP3    H111172   3.345   7.710   4.234
 3743TIP3    H211173   3.422   7.799   4.330
 3744TIP3   OH211174   7.262   4.793   0.431
 3744TIP3    H111175   7.297   4.772   0.345
 3744TIP3    H211176   7.208   4.870   0.418
 3745TIP3   OH211177   2.757   2.046   0.669
 3745TIP3    H111178   2.793   2.009   0.588
 3745TIP3    H211179   2.828   2.041   0.732
 3746TIP3   OH211180   5.469   5.659   0.120
 3746TIP3    H111181   5.519   5.578   0.122
 3746TIP3    H211182   5.381   5.634   0.145
 3747TIP3   OH211183   7.999   4.995   6.697
 3747TIP3    H111184   8.053   4.944   6.637
 3747TIP3    H211185   8.050   5.074   6.713
 3748TIP3   OH211186   7.947   5.465   5.476
 3748TIP3    H111187   7.956   5.413   5.556
 3748TIP3    H211188   7.898   5.542   5.503
 3749TIP3   OH211189   7.320   1.812   1.766
 3749TIP3    H111190   7.380   1.821   1.693
 3749TIP3    H211191   7.247   1.760   1.732
 3750TIP3   OH211192   7.390   0.014   1.537
 3750TIP3    H111193   7.337  -0.006   1.615
 3750TIP3    H211194   7.327   0.019   1.465
 3751TIP3   OH211195   7.542   4.424   5.921
 3751TIP3    H111196   7.536   4.352   5.983
 3751TIP3    H211197   7.458   4.423   5.874
 3752TIP3   OH211198   1.520   5.825   2.144
 3752TIP3    H111199   1.572   5.798   2.068
 3752TIP3    H211200   1.498   5.743   2.188
 3753TIP3   OH211201   2.254   5.391   0.064
 3753TIP3    H111202   2.327   5.398   0.125
 3753TIP3    H211203   2.178   5.420   0.113
 3754TIP3   OH211204   4.815   7.174   4.720
 3754TIP3    H111205   4.882   7.212   4.664
 3754TIP3    H211206   4.732   7.198   4.678
 3755TIP3   OH211207   0.662   1.489   2.495
 3755TIP3    H111208   0.578   1.450   2.520
 3755TIP3    H211209   0.727   1.438   2.545
 3756TIP3   OH211210   1.067   5.653   5.078
 3756TIP3    H111211   1.051   5.562   5.051
 3756TIP3    H211212   1.162   5.657   5.092
 3757TIP3   OH211213   2.110   5.889   2.157
 3757TIP3    H111214   2.194   5.853   2.129
 3757TIP3    H211215   2.079   5.829   2.225
 3758TIP3   OH211216   3.370   3.080   3.423
 3758TIP3    H111217   3.343   3.169   3.402
 3758TIP3    H211218   3.461   3.074   3.393
 3759TIP3   OH211219   5.367   7.564   2.780
 3759TIP3    H111220   5.301   7.618   2.823
 3759TIP3    H211221   5.365   7.593   2.689
 3760TIP3   OH211222   5.743   3.215   3.411
 3760TIP3    H111223   5.730   3.309   3.422
 3760TIP3    H211224   5.655   3.179   3.400
 3761TIP3   OH211225   4.259   4.645   5.071
 3761TIP3    H111226   4.210   4.610   4.996
 3761TIP3    H211227   4.213   4.725   5.095
 3762TIP3   OH211228   8.161   0.110   0.498
 3762TIP3    H111229   8.087   0.052   0.519
 3762TIP3    H211230   8.212   0.061   0.434
 3763TIP3   OH211231   5.484   6.850   1.988
 3763TIP3    H111232   5.547   6.911   2.027
 3763TIP3    H211233   5.429   6.905   1.932
 3764TIP3   OH211234   7.462   6.770   2.008
 3764TIP3    H111235   7.427   6.683   1.988
 3764TIP3    H211236   7.428   6.789   2.096
 3765TIP3   OH211237   1.984   3.363   3.637
 3765TIP3    H111238   1.940   3.341   3.555
 3765TIP3    H211239   2.074   3.383   3.611
 3766TIP3   OH211240   1.969   5.643   6.806
 3766TIP3    H111241   2.055   5.631   6.766
 3766TIP3    H211242   1.951   5.736   6.796
 3767TIP3   OH211243   6.748   4.690   0.845
 3767TIP3    H111244   6.834   4.648   0.837
 3767TIP3    H211245   6.718   4.667   0.933
 3768TIP3   OH211246   4.914   1.052   5.262
 3768TIP3    H111247   4.833   1.015   5.227
 3768TIP3    H211248   4.956   0.979   5.307
 3769TIP3   OH211249   0.058   2.290   4.647
 3769TIP3    H111250   0.109   2.325   4.573
 3769TIP3    H211251   0.048   2.197   4.627
 3770TIP3   OH211252   8.228   4.579   6.582
 3770TIP3    H111253   8.194   4.656   6.627
 3770TIP3    H211254   8.263   4.612   6.499
 3771TIP3   OH211255   1.675   2.866   0.975
 3771TIP3    H111256   1.703   2.948   0.934
 3771TIP3    H211257   1.722   2.798   0.926
 3772TIP3   OH211258   1.327   0.445   0.231
 3772TIP3    H111259   1.383   0.465   0.157
 3772TIP3    H211260   1.340   0.352   0.248
 3773TIP3   OH211261   7.462   6.626   4.095
 3773TIP3    H111262   7.505   6.540   4.093
 3773TIP3    H211263   7.439   6.638   4.188
 3774TIP3   OH211264   0.786   0.171   3.032
 3774TIP3    H111265   0.819   0.153   2.944
 3774TIP3    H211266   0.692   0.154   3.026
 3775TIP3   OH211267   6.456   0.553   1.916
 3775TIP3    H111268   6.377   0.604   1.903
 3775TIP3    H211269   6.426   0.462   1.925
 3776TIP3   OH211270   0.920   3.112   0.310
 3776TIP3    H111271   0.934   3.128   0.404
 3776TIP3    H211272   0.996   3.060   0.284
 3777TIP3   OH211273   6.722   1.487   6.265
 3777TIP3    H111274   6.791   1.453   6.208
 3777TIP3    H211275   6.693   1.410   6.315
 3778TIP3   OH211276   0.896   3.552   4.661
 3778TIP3    H111277   0.846   3.627   4.630
 3778TIP3    H211278   0.970   3.590   4.707
 3779TIP3   OH211279   0.346   5.434   5.009
 3779TIP3    H111280   0.285   5.497   4.971
 3779TIP3    H211281   0.432   5.463   4.982
 3780TIP3   OH211282   5.280   2.635   6.652
 3780TIP3    H111283   5.374   2.647   6.667
 3780TIP3    H211284   5.238   2.690   6.718
 3781TIP3   OH211285   6.412   3.175   0.307
 3781TIP3    H111286   6.461   3.218   0.236
 3781TIP3    H211287   6.346   3.123   0.262
 3782TIP3   OH211288   4.789   1.555   5.489
 3782TIP3    H111289   4.861   1.618   5.482
 3782TIP3    H211290   4.809   1.488   5.424
 3783TIP3   OH211291   1.747   0.078   4.718
 3783TIP3    H111292   1.831   0.074   4.673
 3783TIP3    H211293   1.731   0.172   4.730
 3784TIP3   OH211294   7.508   5.752   0.467
 3784TIP3    H111295   7.437   5.688   0.474
 3784TIP3    H211296   7.515   5.769   0.373
 3785TIP3   OH211297   5.253   0.276   0.543
 3785TIP3    H111298   5.178   0.267   0.603
 3785TIP3    H211299   5.308   0.201   0.563
 3786TIP3   OH211300   2.017   0.196   4.826
 3786TIP3    H111301   2.057   0.142   4.758
 3786TIP3    H211302   1.969   0.133   4.881
 3787TIP3   OH211303   8.102   1.266   5.416
 3787TIP3    H111304   8.047   1.336   5.382
 3787TIP3    H211305   8.191   1.304   5.415
 3788TIP3   OH211306   7.839   1.626   6.012
 3788TIP3    H111307   7.846   1.718   6.037
 3788TIP3    H211308   7.811   1.582   6.092
 3789TIP3   OH211309   1.888   2.799   2.077
 3789TIP3    H111310   1.925   2.857   2.010
 3789TIP3    H211311   1.883   2.713   2.034
 3790TIP3   OH211312   7.533   1.678   0.642
 3790TIP3    H111313   7.597   1.616   0.607
 3790TIP3    H211314   7.455   1.626   0.659
 3791TIP3   OH211315   5.124   1.135   2.620
 3791TIP3    H111316   5.156   1.093   2.700
 3791TIP3    H211317   5.034   1.162   2.642
 3792TIP3   OH211318   3.568   4.812   1.807
 3792TIP3    H111319   3.480   4.850   1.811
 3792TIP3    H211320   3.623   4.874   1.855
 3793TIP3   OH211321   0.541   3.534   2.959
 3793TIP3    H111322   0.578   3.623   2.963
 3793TIP3    H211323   0.616   3.477   2.944
 3794TIP3   OH211324   2.840   3.135   0.673
 3794TIP3    H111325   2.793   3.071   0.620
 3794TIP3    H211326   2.930   3.103   0.676
 3795TIP3   OH211327   3.130   3.103   1.863
 3795TIP3    H111328   3.049   3.087   1.911
 3795TIP3    H211329   3.154   3.018   1.827
 3796TIP3   OH211330   5.146   5.261   1.692
 3796TIP3    H111331   5.089   5.225   1.623
 3796TIP3    H211332   5.106   5.232   1.774
 3797TIP3   OH211333   3.142   6.376   0.336
 3797TIP3    H111334   3.196   6.309   0.296
 3797TIP3    H211335   3.053   6.354   0.311
 3798TIP3   OH211336   2.422   5.955   4.347
 3798TIP3    H111337   2.381   5.907   4.419
 3798TIP3    H211338   2.374   5.926   4.269
 3799TIP3   OH211339   6.718   2.357   0.808
 3799TIP3    H111340   6.643   2.304   0.832
 3799TIP3    H211341   6.756   2.385   0.892
 3800TIP3   OH211342   4.532   6.322   1.766
 3800TIP3    H111343   4.553   6.405   1.724
 3800TIP3    H211344   4.617   6.280   1.781
 3801TIP3   OH211345   5.612   5.308   4.286
 3801TIP3    H111346   5.680   5.330   4.349
 3801TIP3    H211347   5.658   5.263   4.215
 3802TIP3   OH211348   6.954   1.261   2.759
 3802TIP3    H111349   6.982   1.278   2.849
 3802TIP3    H211350   6.969   1.344   2.713
 3803TIP3   OH211351   3.504   5.249   0.419
 3803TIP3    H111352   3.545   5.248   0.505
 3803TIP3    H211353   3.447   5.326   0.421
 3804TIP3   OH211354   2.203   3.297   6.707
 3804TIP3    H111355   2.125   3.241   6.707
 3804TIP3    H211356   2.200   3.343   6.623
 3805TIP3   OH211357   5.536   1.620   3.465
 3805TIP3    H111358   5.524   1.710   3.496
 3805TIP3    H211359   5.617   1.591   3.506
 3806TIP3   OH211360   0.977   5.860   5.594
 3806TIP3    H111361   0.908   5.890   5.535
 3806TIP3    H211362   1.023   5.939   5.620
 3807TIP3   OH211363   5.127   6.057   3.174
 3807TIP3    H111364   5.119   5.963   3.194
 3807TIP3    H211365   5.198   6.062   3.110
 3808TIP3   OH211366   4.381   3.528   0.622
 3808TIP3    H111367   4.286   3.521   0.611
 3808TIP3    H211368   4.393   3.576   0.704
 3809TIP3   OH211369   3.477   1.686   1.678
 3809TIP3    H111370   3.399   1.712   1.728
 3809TIP3    H211371   3.546   1.678   1.744
 3810TIP3   OH211372   1.506   1.823   4.829
 3810TIP3    H111373   1.524   1.814   4.923
 3810TIP3    H211374   1.433   1.885   4.825
 3811TIP3   OH211375   1.826   3.359   5.829
 3811TIP3    H111376   1.888   3.385   5.762
 3811TIP3    H211377   1.744   3.344   5.781
 3812TIP3   OH211378   3.246   0.916   6.672
 3812TIP3    H111379   3.297   0.853   6.724
 3812TIP3    H211380   3.159   0.877   6.665
 3813TIP3   OH211381   1.342   6.481   2.006
 3813TIP3    H111382   1.412   6.519   2.060
 3813TIP3    H211383   1.261   6.506   2.051
 3814TIP3   OH211384   0.908   3.764   5.442
 3814TIP3    H111385   0.908   3.858   5.457
 3814TIP3    H211386   0.997   3.737   5.465
 3815TIP3   OH211387   7.776   5.513   4.502
 3815TIP3    H111388   7.849   5.513   4.565
 3815TIP3    H211389   7.818   5.532   4.418
 3816TIP3   OH211390   1.369   2.090   1.266
 3816TIP3    H111391   1.344   2.115   1.177
 3816TIP3    H211392   1.389   1.997   1.259
 3817TIP3   OH211393   3.272   6.695   3.111
 3817TIP3    H111394   3.251   6.603   3.129
 3817TIP3    H211395   3.193   6.730   3.069
 3818TIP3   OH211396   8.100   7.828   0.328
 3818TIP3    H111397   8.096   7.733   0.341
 3818TIP3    H211398   8.158   7.859   0.397
 3819TIP3   OH211399   5.967   5.465   4.852
 3819TIP3    H111400   5.879   5.472   4.889
 3819TIP3    H211401   5.981   5.371   4.841
 3820TIP3   OH211402   7.381   3.607   5.284
 3820TIP3    H111403   7.472   3.577   5.285
 3820TIP3    H211404   7.356   3.609   5.376
 3821TIP3   OH211405   7.418   3.135   2.104
 3821TIP3    H111406   7.466   3.116   2.185
 3821TIP3    H211407   7.326   3.119   2.127
 3822TIP3   OH211408   5.094   0.719   3.308
 3822TIP3    H111409   5.053   0.673   3.382
 3822TIP3    H211410   5.081   0.661   3.233
 3823TIP3   OH211411   4.987   7.169   5.859
 3823TIP3    H111412   5.033   7.158   5.942
 3823TIP3    H211413   5.004   7.089   5.811
 3824TIP3   OH211414   1.316   4.471   4.060
 3824TIP3    H111415   1.325   4.468   3.964
 3824TIP3    H211416   1.290   4.382   4.084
 3825TIP3   OH211417   7.587   7.619   1.153
 3825TIP3    H111418   7.679   7.603   1.131
 3825TIP3    H211419   7.586   7.622   1.249
 3826TIP3   OH211420   7.240   3.238   2.407
 3826TIP3    H111421   7.328   3.235   2.369
 3826TIP3    H211422   7.185   3.190   2.345
 3827TIP3   OH211423   2.480   5.419   3.911
 3827TIP3    H111424   2.482   5.342   3.854
 3827TIP3    H211425   2.461   5.492   3.852
 3828TIP3   OH211426   0.929   6.197   4.986
 3828TIP3    H111427   0.903   6.142   4.912
 3828TIP3    H211428   1.024   6.200   4.981
 3829TIP3   OH211429   2.079   6.647   2.756
 3829TIP3    H111430   2.075   6.612   2.667
 3829TIP3    H211431   2.131   6.583   2.805
 3830TIP3   OH211432   8.082   6.824   6.242
 3830TIP3    H111433   8.125   6.898   6.284
 3830TIP3    H211434   8.000   6.813   6.290
 3831TIP3   OH211435   7.810   6.558   6.537
 3831TIP3    H111436   7.747   6.580   6.605
 3831TIP3    H211437   7.758   6.551   6.457
 3832TIP3   OH211438   5.939   3.922   1.703
 3832TIP3    H111439   5.872   3.990   1.710
 3832TIP3    H211440   5.900   3.855   1.647
 3833TIP3   OH211441   3.034   7.713   0.931
 3833TIP3    H111442   3.110   7.697   0.988
 3833TIP3    H211443   2.965   7.658   0.968
 3834TIP3   OH211444   8.270   5.890   1.098
 3834TIP3    H111445   8.320   5.909   1.178
 3834TIP3    H211446   8.224   5.972   1.079
 3835TIP3   OH211447   0.496   7.793   1.903
 3835TIP3    H111448   0.562   7.857   1.929
 3835TIP3    H211449   0.520   7.769   1.814
 3836TIP3   OH211450   2.066   4.033   2.589
 3836TIP3    H111451   2.058   3.975   2.514
 3836TIP3    H211452   2.080   4.120   2.552
 3837TIP3   OH211453   7.626   2.431   2.359
 3837TIP3    H111454   7.703   2.387   2.322
 3837TIP3    H211455   7.552   2.375   2.334
 3838TIP3   OH211456   5.258   5.632   2.567
 3838TIP3    H111457   5.278   5.561   2.629
 3838TIP3    H211458   5.310   5.612   2.489
 3839TIP3   OH211459   8.112   7.619   1.586
 3839TIP3    H111460   8.174   7.580   1.648
 3839TIP3    H211461   8.034   7.637   1.638
 3840TIP3   OH211462   0.044   5.711   0.900
 3840TIP3    H111463  -0.001   5.756   0.972
 3840TIP3    H211464  -0.006   5.735   0.822
 3841TIP3   OH211465   8.340   2.140   3.816
 3841TIP3    H111466   8.259   2.089   3.815
 3841TIP3    H211467   8.327   2.208   3.749
 3842TIP3   OH211468   7.134   2.932   3.025
 3842TIP3    H111469   7.172   2.862   2.972
 3842TIP3    H211470   7.186   2.932   3.106
 3843TIP3   OH211471   0.721   6.279   5.193
 3843TIP3    H111472   0.783   6.248   5.126
 3843TIP3    H211473   0.774   6.333   5.251
 3844TIP3   OH211474   6.798   7.354   4.165
 3844TIP3    H111475   6.762   7.325   4.081
 3844TIP3    H211476   6.836   7.275   4.203
 3845TIP3   OH211477   2.425   0.557   6.251
 3845TIP3    H111478   2.443   0.496   6.323
 3845TIP3    H211479   2.495   0.540   6.188
 3846TIP3   OH211480   2.425   2.164   5.800
 3846TIP3    H111481   2.479   2.219   5.744
 3846TIP3    H211482   2.486   2.104   5.842
 3847TIP3   OH211483   7.707   2.903   0.323
 3847TIP3    H111484   7.797   2.887   0.293
 3847TIP3    H211485   7.717   2.940   0.411
 3848TIP3   OH211486   1.345   1.846   2.816
 3848TIP3    H111487   1.250   1.850   2.806
 3848TIP3    H211488   1.362   1.766   2.865
 3849TIP3   OH211489   6.681   4.094   3.155
 3849TIP3    H111490   6.776   4.088   3.150
 3849TIP3    H211491   6.652   4.085   3.064
 3850TIP3   OH211492   7.662   2.919   5.883
 3850TIP3    H111493   7.594   2.987   5.880
 3850TIP3    H211494   7.656   2.876   5.797
 3851TIP3   OH211495   1.416   2.273   3.370
 3851TIP3    H111496   1.453   2.336   3.433
 3851TIP3    H211497   1.372   2.208   3.425
 3852TIP3   OH211498   3.485   0.465   3.086
 3852TIP3    H111499   3.474   0.557   3.111
 3852TIP3    H211500   3.514   0.468   2.995
 3853TIP3   OH211501   6.179   7.069   5.564
 3853TIP3    H111502   6.272   7.092   5.567
 3853TIP3    H211503   6.134   7.145   5.601
 3854TIP3   OH211504   0.070   7.218   4.762
 3854TIP3    H111505   0.112   7.141   4.800
 3854TIP3    H211506   0.109   7.292   4.810
 3855TIP3   OH211507   8.185   1.857   1.476
 3855TIP3    H111508   8.159   1.800   1.549
 3855TIP3    H211509   8.150   1.943   1.500
 3856TIP3   OH211510   2.349   2.451   4.017
 3856TIP3    H111511   2.286   2.503   4.068
 3856TIP3    H211512   2.433   2.466   4.060
 3857TIP3   OH211513   3.869   0.445   2.149
 3857TIP3    H111514   3.849   0.373   2.090
 3857TIP3    H211515   3.796   0.448   2.211
 3858TIP3   OH211516   5.050   7.202   4.579
 3858TIP3    H111517   5.121   7.138   4.582
 3858TIP3    H211518   5.020   7.202   4.488
 3859TIP3   OH211519   1.192   3.439   3.649
 3859TIP3    H111520   1.107   3.396   3.637
 3859TIP3    H211521   1.230   3.394   3.725
 3860TIP3   OH211522   2.207   2.463   6.538
 3860TIP3    H111523   2.124   2.504   6.563
 3860TIP3    H211524   2.268   2.536   6.527
 3861TIP3   OH211525   5.379   3.381   2.581
 3861TIP3    H111526   5.403   3.381   2.674
 3861TIP3    H211527   5.462   3.374   2.535
 3862TIP3   OH211528   1.124   4.433   0.825
 3862TIP3    H111529   1.122   4.528   0.819
 3862TIP3    H211530   1.120   4.403   0.734
 3863TIP3   OH211531   3.833   6.552   5.608
 3863TIP3    H111532   3.813   6.476   5.663
 3863TIP3    H211533   3.850   6.515   5.522
 3864TIP3   OH211534   3.052   1.359   2.294
 3864TIP3    H111535   3.040   1.404   2.378
 3864TIP3    H211536   3.146   1.346   2.286
 3865TIP3   OH211537   1.082   0.241   0.372
 3865TIP3    H111538   1.106   0.199   0.290
 3865TIP3    H211539   1.028   0.315   0.346
 3866TIP3   OH211540   1.261   2.373   2.939
 3866TIP3    H111541   1.301   2.451   2.901
 3866TIP3    H211542   1.334   2.326   2.980
 3867TIP3   OH211543   2.886   0.881   1.969
 3867TIP3    H111544   2.973   0.891   2.007
 3867TIP3    H211545   2.852   0.802   2.010
 3868TIP3   OH211546   6.771   2.639   5.188
 3868TIP3    H111547   6.809   2.709   5.241
 3868TIP3    H211548   6.737   2.684   5.110
 3869TIP3   OH211549   0.586   4.020   4.645
 3869TIP3    H111550   0.552   4.016   4.556
 3869TIP3    H211551   0.523   3.969   4.697
 3870TIP3   OH211552   5.270   5.135   0.394
 3870TIP3    H111553   5.216   5.177   0.327
 3870TIP3    H211554   5.222   5.149   0.476
 3871TIP3   OH211555   2.961   0.102   5.143
 3871TIP3    H111556   3.015   0.115   5.065
 3871TIP3    H211557   3.014   0.136   5.215
 3872TIP3   OH211558   6.536   1.975   6.234
 3872TIP3    H111559   6.509   1.957   6.144
 3872TIP3    H211560   6.556   1.889   6.271
 3873TIP3   OH211561   0.486   2.542   6.545
 3873TIP3    H111562   0.478   2.624   6.496
 3873TIP3    H211563   0.503   2.476   6.478
 3874TIP3   OH211564   2.656   2.259   1.833
 3874TIP3    H111565   2.597   2.237   1.905
 3874TIP3    H211566   2.744   2.252   1.870
 3875TIP3   OH211567   3.474   1.203   3.420
 3875TIP3    H111568   3.534   1.256   3.473
 3875TIP3    H211569   3.467   1.250   3.337
 3876TIP3   OH211570   2.275   3.366   3.129
 3876TIP3    H111571   2.307   3.369   3.039
 3876TIP3    H211572   2.286   3.274   3.154
 3877TIP3   OH211573   3.020   2.349   0.602
 3877TIP3    H111574   3.099   2.364   0.655
 3877TIP3    H211575   3.034   2.264   0.561
 3878TIP3   OH211576   5.347   5.611   0.500
 3878TIP3    H111577   5.298   5.534   0.470
 3878TIP3    H211578   5.330   5.677   0.433
 3879TIP3   OH211579   2.979   4.403   3.282
 3879TIP3    H111580   2.914   4.465   3.250
 3879TIP3    H211581   3.061   4.452   3.285
 3880TIP3   OH211582   6.521   0.636   2.671
 3880TIP3    H111583   6.582   0.709   2.665
 3880TIP3    H211584   6.446   0.672   2.718
 3881TIP3   OH211585   0.143   4.423   3.125
 3881TIP3    H111586   0.085   4.433   3.050
 3881TIP3    H211587   0.116   4.342   3.167
 3882TIP3   OH211588   3.189   4.105   1.829
 3882TIP3    H111589   3.230   4.172   1.884
 3882TIP3    H211590   3.236   4.111   1.746
 3883TIP3   OH211591   1.931   3.021   4.667
 3883TIP3    H111592   1.855   2.983   4.624
 3883TIP3    H211593   1.930   3.113   4.642
 3884TIP3   OH211594   8.113   7.686   5.333
 3884TIP3    H111595   8.101   7.705   5.426
 3884TIP3    H211596   8.024   7.677   5.299
 3885TIP3   OH211597   4.712   2.766   5.442
 3885TIP3    H111598   4.621   2.755   5.469
 3885TIP3    H211599   4.744   2.838   5.497
 3886TIP3   OH211600   6.110   2.467   5.926
 3886TIP3    H111601   6.162   2.506   5.997
 3886TIP3    H211602   6.102   2.538   5.862
 3887TIP3   OH211603   1.634   0.749   4.743
 3887TIP3    H111604   1.637   0.709   4.656
 3887TIP3    H211605   1.721   0.733   4.780
 3888TIP3   OH211606   0.511   5.678   6.308
 3888TIP3    H111607   0.603   5.665   6.331
 3888TIP3    H211608   0.465   5.609   6.355
 3889TIP3   OH211609   2.023   5.235   2.258
 3889TIP3    H111610   2.056   5.321   2.232
 3889TIP3    H211611   2.102   5.180   2.262
 3890TIP3   OH211612   0.450   7.444   6.011
 3890TIP3    H111613   0.472   7.475   5.923
 3890TIP3    H211614   0.365   7.482   6.029
 3891TIP3   OH211615   7.746   5.562   6.564
 3891TIP3    H111616   7.761   5.516   6.481
 3891TIP3    H211617   7.739   5.491   6.629
 3892TIP3   OH211618   2.390   4.034   3.166
 3892TIP3    H111619   2.348   4.120   3.168
 3892TIP3    H211620   2.419   4.019   3.256
 3893TIP3   OH211621   0.975   5.564   5.575
 3893TIP3    H111622   0.977   5.571   5.479
 3893TIP3    H211623   0.991   5.653   5.606
 3894TIP3   OH211624   1.946   1.908   0.886
 3894TIP3    H111625   1.959   1.820   0.851
 3894TIP3    H211626   1.984   1.906   0.973
 3895TIP3   OH211627   2.041   5.278   0.490
 3895TIP3    H111628   2.007   5.191   0.509
 3895TIP3    H211629   1.963   5.333   0.480
 3896TIP3   OH211630   5.648   0.379   5.209
 3896TIP3    H111631   5.729   0.347   5.248
 3896TIP3    H211632   5.648   0.473   5.228
 3897TIP3   OH211633   4.140   4.325   4.049
 3897TIP3    H111634   4.082   4.276   3.991
 3897TIP3    H211635   4.176   4.258   4.108
 3898TIP3   OH211636   0.718   2.918   6.027
 3898TIP3    H111637   0.732   2.859   6.101
 3898TIP3    H211638   0.623   2.925   6.019
 3899TIP3   OH211639   3.540   7.616   2.694
 3899TIP3    H111640   3.546   7.600   2.788
 3899TIP3    H211641   3.578   7.538   2.654
 3900TIP3   OH211642   0.542   5.681   1.664
 3900TIP3    H111643   0.569   5.763   1.704
 3900TIP3    H211644   0.463   5.703   1.614
 3901TIP3   OH211645   8.148   4.642   5.215
 3901TIP3    H111646   8.117   4.636   5.125
 3901TIP3    H211647   8.084   4.697   5.260
 3902TIP3   OH211648   4.529   6.442   3.121
 3902TIP3    H111649   4.503   6.523   3.078
 3902TIP3    H211650   4.539   6.379   3.049
 3903TIP3   OH211651   7.103   2.449   4.144
 3903TIP3    H111652   7.037   2.433   4.212
 3903TIP3    H211653   7.184   2.463   4.193
 3904TIP3   OH211654   2.207   6.365   6.258
 3904TIP3    H111655   2.241   6.335   6.343
 3904TIP3    H211656   2.266   6.436   6.232
 3905TIP3   OH211657   4.115   4.408   4.745
 3905TIP3    H111658   4.065   4.489   4.753
 3905TIP3    H211659   4.096   4.377   4.656
 3906TIP3   OH211660   7.366   5.004   0.696
 3906TIP3    H111661   7.342   5.049   0.616
 3906TIP3    H211662   7.431   4.939   0.669
 3907TIP3   OH211663   1.780   6.667   6.708
 3907TIP3    H111664   1.754   6.739   6.766
 3907TIP3    H211665   1.839   6.613   6.760
 3908TIP3   OH211666   4.105   5.032   2.919
 3908TIP3    H111667   4.118   5.079   2.837
 3908TIP3    H211668   4.012   5.010   2.921
 3909TIP3   OH211669   1.256   2.389   2.209
 3909TIP3    H111670   1.244   2.309   2.158
 3909TIP3    H211671   1.333   2.430   2.170
 3910TIP3   OH211672   6.002   6.740   2.294
 3910TIP3    H111673   6.056   6.788   2.231
 3910TIP3    H211674   6.009   6.791   2.374
 3911TIP3   OH211675   4.109   1.386   2.661
 3911TIP3    H111676   4.043   1.429   2.606
 3911TIP3    H211677   4.065   1.308   2.693
 3912TIP3   OH211678   3.595   5.229   3.659
 3912TIP3    H111679   3.640   5.237   3.575
 3912TIP3    H211680   3.662   5.252   3.724
 3913TIP3   OH211681   4.151   5.580   4.845
 3913TIP3    H111682   4.181   5.670   4.859
 3913TIP3    H211683   4.136   5.575   4.751
 3914TIP3   OH211684   1.550   1.234   3.608
 3914TIP3    H111685   1.581   1.143   3.606
 3914TIP3    H211686   1.457   1.227   3.627
 3915TIP3   OH211687   2.756   1.613   4.953
 3915TIP3    H111688   2.838   1.605   5.002
 3915TIP3    H211689   2.768   1.558   4.876
 3916TIP3   OH211690   4.395   1.530   0.095
 3916TIP3    H111691   4.342   1.459   0.059
 3916TIP3    H211692   4.484   1.497   0.092
 3917TIP3   OH211693   1.831   2.582   2.399
 3917TIP3    H111694   1.907   2.621   2.355
 3917TIP3    H211695   1.810   2.643   2.469
 3918TIP3   OH211696   3.799   1.454   5.982
 3918TIP3    H111697   3.794   1.479   5.889
 3918TIP3    H211698   3.893   1.441   5.997
 3919TIP3   OH211699   4.702   2.544   4.380
 3919TIP3    H111700   4.765   2.597   4.430
 3919TIP3    H211701   4.619   2.589   4.392
 3920TIP3   OH211702   7.023   6.760   4.254
 3920TIP3    H111703   7.075   6.755   4.334
 3920TIP3    H211704   7.080   6.805   4.190
 3921TIP3   OH211705   2.686   5.385   2.485
 3921TIP3    H111706   2.632   5.415   2.558
 3921TIP3    H211707   2.673   5.290   2.484
 3922TIP3   OH211708   7.195   7.124   6.390
 3922TIP3    H111709   7.112   7.081   6.409
 3922TIP3    H211710   7.234   7.072   6.319
 3923TIP3   OH211711   5.730   6.248   0.810
 3923TIP3    H111712   5.757   6.272   0.721
 3923TIP3    H211713   5.663   6.181   0.797
 3924TIP3   OH211714   5.114   6.725   0.949
 3924TIP3    H111715   5.133   6.633   0.932
 3924TIP3    H211716   5.098   6.763   0.863
 3925TIP3   OH211717   2.468   6.331   5.066
 3925TIP3    H111718   2.480   6.414   5.019
 3925TIP3    H211719   2.445   6.357   5.155
 3926TIP3   OH211720   3.930   4.935   3.694
 3926TIP3    H111721   3.917   4.869   3.762
 3926TIP3    H211722   3.926   4.885   3.612
 3927TIP3   OH211723   4.660   5.519   2.779
 3927TIP3    H111724   4.751   5.535   2.755
 3927TIP3    H211725   4.664   5.485   2.868
 3928TIP3   OH211726   0.202   6.820   2.117
 3928TIP3    H111727   0.156   6.736   2.121
 3928TIP3    H211728   0.263   6.810   2.044
 3929TIP3   OH211729   5.612   2.622   0.296
 3929TIP3    H111730   5.656   2.706   0.309
 3929TIP3    H211731   5.619   2.578   0.380
 3930TIP3   OH211732   2.679   3.386   5.517
 3930TIP3    H111733   2.768   3.423   5.512
 3930TIP3    H211734   2.631   3.449   5.571
 3931TIP3   OH211735   1.610   0.451   0.937
 3931TIP3    H111736   1.614   0.546   0.931
 3931TIP3    H211737   1.546   0.425   0.871
 3932TIP3   OH211738   0.532   6.528   4.735
 3932TIP3    H111739   0.527   6.603   4.793
 3932TIP3    H211740   0.453   6.534   4.681
 3933TIP3   OH211741   5.192   3.666   6.731
 3933TIP3    H111742   5.281   3.693   6.754
 3933TIP3    H211743   5.184   3.577   6.767
 3934TIP3   OH211744   2.788   4.109   1.993
 3934TIP3    H111745   2.819   4.167   2.062
 3934TIP3    H211746   2.800   4.158   1.912
 3935TIP3   OH211747   5.006   5.663   3.383
 3935TIP3    H111748   5.058   5.590   3.417
 3935TIP3    H211749   5.071   5.727   3.355
 3936TIP3   OH211750   5.324   0.419   6.295
 3936TIP3    H111751   5.357   0.457   6.376
 3936TIP3    H211752   5.349   0.327   6.299
 3937TIP3   OH211753   5.087   5.146   4.973
 3937TIP3    H111754   5.144   5.186   4.907
 3937TIP3    H211755   5.141   5.078   5.013
 3938TIP3   OH211756   5.027   2.569   5.150
 3938TIP3    H111757   4.971   2.593   5.225
 3938TIP3    H211758   5.111   2.612   5.169
 3939TIP3   OH211759   6.486   5.731   0.373
 3939TIP3    H111760   6.566   5.709   0.421
 3939TIP3    H211761   6.460   5.817   0.408
 3940TIP3   OH211762   2.956   2.579   3.725
 3940TIP3    H111763   3.024   2.527   3.682
 3940TIP3    H211764   2.942   2.535   3.809
 3941TIP3   OH211765   5.776   7.042   5.610
 3941TIP3    H111766   5.702   7.087   5.570
 3941TIP3    H211767   5.797   7.096   5.687
 3942TIP3   OH211768   8.168   3.500   4.088
 3942TIP3    H111769   8.177   3.417   4.135
 3942TIP3    H211770   8.256   3.520   4.057
 3943TIP3   OH211771   0.361   5.941   5.173
 3943TIP3    H111772   0.445   5.987   5.176
 3943TIP3    H211773   0.300   6.007   5.140
 3944TIP3   OH211774   3.874   7.421   1.262
 3944TIP3    H111775   3.785   7.386   1.269
 3944TIP3    H211776   3.918   7.391   1.342
 3945TIP3   OH211777   1.635   0.455   3.695
 3945TIP3    H111778   1.695   0.395   3.738
 3945TIP3    H211779   1.655   0.541   3.731
 3946TIP3   OH211780   3.405   1.812   5.922
 3946TIP3    H111781   3.496   1.787   5.905
 3946TIP3    H211782   3.391   1.792   6.014
 3947TIP3   OH211783   3.004   1.915   5.550
 3947TIP3    H111784   3.047   1.873   5.624
 3947TIP3    H211785   2.926   1.861   5.535
 3948TIP3   OH211786   6.663   3.955   4.717
 3948TIP3    H111787   6.722   4.014   4.765
 3948TIP3    H211788   6.664   3.988   4.627
 3949TIP3   OH211789   2.940   2.115   0.035
 3949TIP3    H111790   2.846   2.129   0.048
 3949TIP3    H211791   2.982   2.188   0.082
 3950TIP3   OH211792   0.424   6.271   3.485
 3950TIP3    H111793   0.473   6.333   3.431
 3950TIP3    H211794   0.470   6.187   3.472
 3951TIP3   OH211795   1.585   1.661   2.264
 3951TIP3    H111796   1.569   1.570   2.241
 3951TIP3    H211797   1.501   1.704   2.252
 3952TIP3   OH211798   0.518   3.864   3.348
 3952TIP3    H111799   0.536   3.773   3.329
 3952TIP3    H211800   0.600   3.910   3.330
 3953TIP3   OH211801   4.797   2.496   1.196
 3953TIP3    H111802   4.734   2.439   1.240
 3953TIP3    H211803   4.778   2.583   1.231
 3954TIP3   OH211804   0.140   7.182   0.549
 3954TIP3    H111805   0.069   7.175   0.485
 3954TIP3    H211806   0.219   7.160   0.499
 3955TIP3   OH211807   0.976   6.511   4.066
 3955TIP3    H111808   1.019   6.593   4.040
 3955TIP3    H211809   0.882   6.531   4.059
 3956TIP3   OH211810   0.005   4.267   3.899
 3956TIP3    H111811   0.026   4.187   3.948
 3956TIP3    H211812   0.086   4.288   3.852
 3957TIP3   OH211813   4.512   4.627   3.084
 3957TIP3    H111814   4.518   4.698   3.019
 3957TIP3    H211815   4.418   4.619   3.102
 3958TIP3   OH211816   4.428   5.726   0.038
 3958TIP3    H111817   4.385   5.640   0.044
 3958TIP3    H211818   4.360   5.789   0.060
 3959TIP3   OH211819   6.415   0.136   2.458
 3959TIP3    H111820   6.451   0.136   2.547
 3959TIP3    H211821   6.325   0.167   2.469
 3960TIP3   OH211822   2.089   7.271   2.468
 3960TIP3    H111823   2.075   7.279   2.563
 3960TIP3    H211824   2.010   7.307   2.429
 3961TIP3   OH211825   3.640   3.101   6.648
 3961TIP3    H111826   3.553   3.116   6.610
 3961TIP3    H211827   3.675   3.028   6.597
 3962TIP3   OH211828   3.359   0.619   1.684
 3962TIP3    H111829   3.372   0.586   1.595
 3962TIP3    H211830   3.444   0.605   1.727
 3963TIP3   OH211831   1.956   3.669   5.913
 3963TIP3    H111832   1.979   3.756   5.946
 3963TIP3    H211833   1.965   3.612   5.990
 3964TIP3   OH211834   5.876   7.705   4.794
 3964TIP3    H111835   5.867   7.623   4.843
 3964TIP3    H211836   5.789   7.721   4.758
 3965TIP3   OH211837   5.851   7.269   6.758
 3965TIP3    H111838   5.914   7.241   6.824
 3965TIP3    H211839   5.841   7.193   6.700
 3966TIP3   OH211840   1.105   4.201   6.473
 3966TIP3    H111841   1.043   4.194   6.400
 3966TIP3    H211842   1.068   4.270   6.528
 3967TIP3   OH211843   5.295   7.139   2.559
 3967TIP3    H111844   5.249   7.194   2.622
 3967TIP3    H211845   5.293   7.190   2.477
 3968TIP3   OH211846   5.427   1.667   6.619
 3968TIP3    H111847   5.410   1.657   6.525
 3968TIP3    H211848   5.386   1.751   6.642
 3969TIP3   OH211849   0.976   1.614   3.413
 3969TIP3    H111850   0.989   1.598   3.507
 3969TIP3    H211851   0.912   1.547   3.387
 3970TIP3   OH211852   5.660   1.321   4.903
 3970TIP3    H111853   5.614   1.240   4.925
 3970TIP3    H211854   5.603   1.391   4.933
 3971TIP3   OH211855   6.753   5.785   1.764
 3971TIP3    H111856   6.691   5.712   1.756
 3971TIP3    H211857   6.773   5.789   1.857
 3972TIP3   OH211858   7.618   3.231   3.086
 3972TIP3    H111859   7.706   3.221   3.123
 3972TIP3    H211860   7.607   3.326   3.076
 3973TIP3   OH211861   7.144   1.937   3.795
 3973TIP3    H111862   7.094   2.016   3.774
 3973TIP3    H211863   7.110   1.910   3.880
 3974TIP3   OH211864   6.167   1.101   0.914
 3974TIP3    H111865   6.109   1.163   0.868
 3974TIP3    H211866   6.215   1.155   0.976
 3975TIP3   OH211867   4.511   1.577   4.602
 3975TIP3    H111868   4.527   1.647   4.540
 3975TIP3    H211869   4.455   1.516   4.555
 3976TIP3   OH211870   3.488   3.751   4.354
 3976TIP3    H111871   3.430   3.727   4.283
 3976TIP3    H211872   3.474   3.844   4.366
 3977TIP3   OH211873   6.009   5.751   0.839
 3977TIP3    H111874   6.027   5.845   0.836
 3977TIP3    H211875   6.033   5.724   0.927
 3978TIP3   OH211876   0.694   6.647   5.676
 3978TIP3    H111877   0.659   6.670   5.590
 3978TIP3    H211878   0.617   6.629   5.730
 3979TIP3   OH211879   3.028   2.671   6.377
 3979TIP3    H111880   3.045   2.765   6.371
 3979TIP3    H211881   2.987   2.659   6.463
 3980TIP3   OH211882   1.188   0.698   5.796
 3980TIP3    H111883   1.110   0.706   5.851
 3980TIP3    H211884   1.191   0.606   5.771
 3981TIP3   OH211885   3.889   6.707   2.364
 3981TIP3    H111886   3.807   6.753   2.378
 3981TIP3    H211887   3.920   6.737   2.279
 3982TIP3   OH211888   1.135   7.830   4.912
 3982TIP3    H111889   1.193   7.766   4.871
 3982TIP3    H211890   1.158   7.828   5.004
 3983TIP3   OH211891   2.872   4.714   1.371
 3983TIP3    H111892   2.798   4.681   1.422
 3983TIP3    H211893   2.847   4.803   1.347
 3984TIP3   OH211894   0.732   2.641   5.826
 3984TIP3    H111895   0.637   2.635   5.813
 3984TIP3    H211896   0.769   2.593   5.752
 3985TIP3   OH211897   2.548   5.090   3.438
 3985TIP3    H111898   2.543   5.012   3.492
 3985TIP3    H211899   2.574   5.058   3.352
 3986TIP3   OH211900   3.431   1.288   1.301
 3986TIP3    H111901   3.460   1.199   1.321
 3986TIP3    H211902   3.419   1.289   1.207
 3987TIP3   OH211903   1.362   2.266   6.508
 3987TIP3    H111904   1.294   2.273   6.575
 3987TIP3    H211905   1.424   2.336   6.528
 3988TIP3   OH211906   4.891   4.317   0.875
 3988TIP3    H111907   4.894   4.245   0.938
 3988TIP3    H211908   4.983   4.335   0.854
 3989TIP3   OH211909   2.809   3.436   4.031
 3989TIP3    H111910   2.866   3.413   4.105
 3989TIP3    H211911   2.781   3.352   3.996
 3990TIP3   OH211912   1.524   4.490   5.938
 3990TIP3    H111913   1.573   4.502   5.856
 3990TIP3    H211914   1.532   4.397   5.957
 3991TIP3   OH211915   0.970   5.830   2.501
 3991TIP3    H111916   1.063   5.835   2.480
 3991TIP3    H211917   0.950   5.915   2.541
 3992TIP3   OH211918   3.592   3.585   1.187
 3992TIP3    H111919   3.520   3.593   1.125
 3992TIP3    H211920   3.669   3.569   1.133
 3993TIP3   OH211921   2.837   0.403   1.477
 3993TIP3    H111922   2.818   0.480   1.531
 3993TIP3    H211923   2.858   0.439   1.391
 3994TIP3   OH211924   1.828   6.843   0.631
 3994TIP3    H111925   1.907   6.798   0.601
 3994TIP3    H211926   1.809   6.907   0.562
 3995TIP3   OH211927   5.912   6.003   0.384
 3995TIP3    H111928   5.982   5.975   0.324
 3995TIP3    H211929   5.909   5.933   0.450
 3996TIP3   OH211930   4.506   3.933   1.381
 3996TIP3    H111931   4.476   3.987   1.453
 3996TIP3    H211932   4.587   3.974   1.352
 3997TIP3   OH211933   2.978   1.865   0.704
 3997TIP3    H111934   3.032   1.915   0.765
 3997TIP3    H211935   3.040   1.833   0.639
 3998TIP3   OH211936   5.936   6.212   5.191
 3998TIP3    H111937   5.905   6.293   5.149
 3998TIP3    H211938   6.029   6.227   5.208
 3999TIP3   OH211939   3.062   2.097   3.648
 3999TIP3    H111940   3.126   2.041   3.692
 3999TIP3    H211941   2.998   2.036   3.612
 4000TIP3   OH211942   4.490   7.469   0.044
 4000TIP3    H111943   4.522   7.487   0.132
 4000TIP3    H211944   4.570   7.464  -0.009
 4001TIP3   OH211945   5.028   6.791   6.697
 4001TIP3    H111946   5.018   6.743   6.779
 4001TIP3    H211947   5.030   6.883   6.724
 4002TIP3   OH211948   6.740   3.793   4.920
 4002TIP3    H111949   6.703   3.846   4.850
 4002TIP3    H211950   6.744   3.705   4.884
 4003TIP3   OH211951   0.705   7.516   6.646
 4003TIP3    H111952   0.788   7.564   6.642
 4003TIP3    H211953   0.659   7.554   6.720
 4004TIP3   OH211954   1.579   4.123   3.244
 4004TIP3    H111955   1.614   4.176   3.172
 4004TIP3    H211956   1.657   4.093   3.291
 4005TIP3   OH211957   7.199   1.071   1.286
 4005TIP3    H111958   7.160   1.073   1.373
 4005TIP3    H211959   7.162   1.146   1.241
 4006TIP3   OH211960   1.103   2.862   2.373
 4006TIP3    H111961   1.073   2.792   2.431
 4006TIP3    H211962   1.155   2.920   2.429
 4007TIP3   OH211963   3.806   1.343   2.277
 4007TIP3    H111964   3.861   1.388   2.341
 4007TIP3    H211965   3.799   1.254   2.311
 4008TIP3   OH211966   0.632   4.315   2.362
 4008TIP3    H111967   0.566   4.306   2.431
 4008TIP3    H211968   0.701   4.368   2.402
 4009TIP3   OH211969   6.648   1.256   1.212
 4009TIP3    H111970   6.688   1.179   1.173
 4009TIP3    H211971   6.686   1.330   1.166
 4010TIP3   OH211972   0.070   4.907   1.531
 4010TIP3    H111973   0.131   4.911   1.457
 4010TIP3    H211974   0.124   4.924   1.608
 4011TIP3   OH211975   3.864   2.049   1.368
 4011TIP3    H111976   3.866   2.135   1.411
 4011TIP3    H211977   3.955   2.030   1.348
 4012TIP3   OH211978   6.797   7.633   4.040
 4012TIP3    H111979   6.764   7.569   4.104
 4012TIP3    H211980   6.778   7.593   3.955
 4013TIP3   OH211981   2.968   0.598   0.861
 4013TIP3    H111982   2.906   0.671   0.857
 4013TIP3    H211983   2.926   0.527   0.814
 4014TIP3   OH211984   0.664   1.646   5.108
 4014TIP3    H111985   0.600   1.677   5.172
 4014TIP3    H211986   0.656   1.706   5.034
 4015TIP3   OH211987   0.276   2.807   2.558
 4015TIP3    H111988   0.191   2.775   2.526
 4015TIP3    H211989   0.285   2.767   2.644
 4016TIP3   OH211990   0.794   7.117   2.782
 4016TIP3    H111991   0.809   7.132   2.688
 4016TIP3    H211992   0.708   7.075   2.786
 4017TIP3   OH211993   0.994   7.288   0.446
 4017TIP3    H111994   1.051   7.286   0.523
 4017TIP3    H211995   0.944   7.369   0.454
 4018TIP3   OH211996   0.831   2.944   4.001
 4018TIP3    H111997   0.754   3.001   4.002
 4018TIP3    H211998   0.885   2.976   4.073
 4019TIP3   OH211999   7.355   0.769   5.976
 4019TIP3    H112000   7.450   0.774   5.974
 4019TIP3    H212001   7.326   0.856   5.947
 4020TIP3   OH212002   8.002   6.833   4.827
 4020TIP3    H112003   7.972   6.911   4.875
 4020TIP3    H212004   8.083   6.808   4.871
 4021TIP3   OH212005   6.652   3.198   2.975
 4021TIP3    H112006   6.726   3.144   3.002
 4021TIP3    H212007   6.577   3.161   3.021
 4022TIP3   OH212008   1.937   5.231   4.588
 4022TIP3    H112009   1.845   5.237   4.565
 4022TIP3    H212010   1.965   5.322   4.599
 4023TIP3   OH212011   5.318   7.686   4.087
 4023TIP3    H112012   5.238   7.639   4.064
 4023TIP3    H212013   5.297   7.778   4.072
 4024TIP3   OH212014   6.012   3.553   6.403
 4024TIP3    H112015   6.050   3.478   6.449
 4024TIP3    H212016   5.980   3.516   6.321
 4025TIP3   OH212017   7.054   2.962   3.815
 4025TIP3    H112018   6.999   2.989   3.741
 4025TIP3    H212019   7.066   3.042   3.866
 4026TIP3   OH212020   7.685   4.151   1.964
 4026TIP3    H112021   7.622   4.212   1.929
 4026TIP3    H212022   7.633   4.076   1.994
 4027TIP3   OH212023   3.202   2.238   3.907
 4027TIP3    H112024   3.260   2.300   3.863
 4027TIP3    H212025   3.231   2.152   3.877
 4028TIP3   OH212026   7.972   3.347   0.240
 4028TIP3    H112027   7.883   3.320   0.262
 4028TIP3    H212028   8.024   3.326   0.317
 4029TIP3   OH212029   0.637   1.984   2.241
 4029TIP3    H112030   0.713   1.943   2.281
 4029TIP3    H212031   0.672   2.063   2.199
 4030TIP3   OH212032   2.799   4.239   3.950
 4030TIP3    H112033   2.770   4.148   3.951
 4030TIP3    H212034   2.791   4.267   4.042
 4031TIP3   OH212035   3.248   2.311   0.815
 4031TIP3    H112036   3.292   2.299   0.732
 4031TIP3    H212037   3.183   2.240   0.819
 4032TIP3   OH212038   3.786   1.943   3.657
 4032TIP3    H112039   3.860   1.995   3.626
 4032TIP3    H212040   3.747   1.907   3.578
 4033TIP3   OH212041   3.972   7.404   0.968
 4033TIP3    H112042   4.014   7.474   0.920
 4033TIP3    H212043   3.918   7.449   1.034
 4034TIP3   OH212044   1.355   0.690   3.169
 4034TIP3    H112045   1.405   0.609   3.155
 4034TIP3    H212046   1.292   0.668   3.237
 4035TIP3   OH212047   3.657   4.890   1.427
 4035TIP3    H112048   3.604   4.859   1.501
 4035TIP3    H212049   3.623   4.843   1.351
 4036TIP3   OH212050   7.841   1.828   1.825
 4036TIP3    H112051   7.782   1.784   1.885
 4036TIP3    H212052   7.871   1.905   1.873
 4037TIP3   OH212053   1.367   1.145   1.751
 4037TIP3    H112054   1.400   1.235   1.745
 4037TIP3    H212055   1.362   1.127   1.844
 4038TIP3   OH212056   2.747   2.262   6.334
 4038TIP3    H112057   2.760   2.354   6.354
 4038TIP3    H212058   2.669   2.260   6.278
 4039TIP3   OH212059   7.684   1.463   1.365
 4039TIP3    H112060   7.637   1.472   1.283
 4039TIP3    H212061   7.715   1.551   1.385
 4040TIP3   OH212062   4.880   6.527   5.197
 4040TIP3    H112063   4.898   6.447   5.148
 4040TIP3    H212064   4.788   6.548   5.177
 4041TIP3   OH212065   2.521   2.479   6.508
 4041TIP3    H112066   2.587   2.476   6.438
 4041TIP3    H212067   2.569   2.453   6.587
 4042TIP3   OH212068   0.477   4.637   0.066
 4042TIP3    H112069   0.474   4.723   0.110
 4042TIP3    H212070   0.566   4.605   0.082
 4043TIP3   OH212071   2.308   4.391   4.502
 4043TIP3    H112072   2.238   4.325   4.510
 4043TIP3    H212073   2.268   4.472   4.534
 4044TIP3   OH212074   6.863   5.425   3.719
 4044TIP3    H112075   6.841   5.340   3.757
 4044TIP3    H212076   6.929   5.462   3.779
 4045TIP3   OH212077   2.878   5.454   1.277
 4045TIP3    H112078   2.803   5.490   1.323
 4045TIP3    H212079   2.841   5.390   1.215
 4046TIP3   OH212080   3.522   3.705   0.817
 4046TIP3    H112081   3.474   3.674   0.894
 4046TIP3    H212082   3.478   3.664   0.743
 4047TIP3   OH212083   3.004   1.204   5.631
 4047TIP3    H112084   2.972   1.237   5.715
 4047TIP3    H212085   2.941   1.136   5.606
 4048TIP3   OH212086   0.147   0.878   0.580
 4048TIP3    H112087   0.110   0.965   0.598
 4048TIP3    H212088   0.150   0.836   0.666
 4049TIP3   OH212089   7.503   5.444   3.506
 4049TIP3    H112090   7.442   5.478   3.571
 4049TIP3    H212091   7.449   5.425   3.429
 4050TIP3   OH212092   2.346   7.445   0.988
 4050TIP3    H112093   2.356   7.351   0.968
 4050TIP3    H212094   2.433   7.482   0.975
 4051TIP3   OH212095   6.866   4.910   5.358
 4051TIP3    H112096   6.915   4.828   5.348
 4051TIP3    H212097   6.811   4.895   5.435
 4052TIP3   OH212098   5.755   7.694   0.925
 4052TIP3    H112099   5.742   7.755   0.998
 4052TIP3    H212100   5.823   7.634   0.957
 4053TIP3   OH212101   3.384   2.343   0.123
 4053TIP3    H112102   3.475   2.371   0.110
 4053TIP3    H212103   3.387   2.248   0.118
 4054TIP3   OH212104   3.761   3.659   0.254
 4054TIP3    H112105   3.735   3.572   0.223
 4054TIP3    H212106   3.749   3.717   0.179
 4055TIP3   OH212107   6.970   3.396   3.822
 4055TIP3    H112108   6.955   3.486   3.852
 4055TIP3    H212109   7.037   3.405   3.754
 4056TIP3   OH212110   4.983   1.941   2.430
 4056TIP3    H112111   5.037   1.955   2.508
 4056TIP3    H212112   5.044   1.950   2.357
 4057TIP3   OH212113   0.795   2.645   6.475
 4057TIP3    H112114   0.884   2.662   6.506
 4057TIP3    H212115   0.739   2.691   6.538
 4058TIP3   OH212116   1.118   5.385   6.642
 4058TIP3    H112117   1.030   5.371   6.676
 4058TIP3    H212118   1.151   5.297   6.624
 4059TIP3   OH212119   6.548   4.915   6.344
 4059TIP3    H112120   6.504   4.998   6.357
 4059TIP3    H212121   6.508   4.877   6.266
 4060TIP3   OH212122   7.596   1.081   6.577
 4060TIP3    H112123   7.585   1.048   6.488
 4060TIP3    H212124   7.609   1.175   6.566
 4061TIP3   OH212125   0.932   2.077   4.131
 4061TIP3    H112126   0.968   2.092   4.218
 4061TIP3    H212127   0.849   2.031   4.146
 4062TIP3   OH212128   4.870   1.920   4.727
 4062TIP3    H112129   4.862   2.006   4.686
 4062TIP3    H212130   4.881   1.860   4.654
 4063TIP3   OH212131   7.386   0.334   6.331
 4063TIP3    H112132   7.424   0.300   6.413
 4063TIP3    H212133   7.458   0.380   6.289
 4064TIP3   OH212134   1.278   7.117   4.981
 4064TIP3    H112135   1.287   7.023   4.971
 4064TIP3    H212136   1.293   7.152   4.894
 4065TIP3   OH212137   7.955   6.322   5.089
 4065TIP3    H112138   7.923   6.257   5.027
 4065TIP3    H212139   8.043   6.293   5.111
 4066TIP3   OH212140   0.872   1.538   2.302
 4066TIP3    H112141   0.801   1.550   2.366
 4066TIP3    H212142   0.952   1.542   2.355
 4067TIP3   OH212143   6.503   0.038   6.573
 4067TIP3    H112144   6.449   0.106   6.533
 4067TIP3    H212145   6.473   0.034   6.664
 4068TIP3   OH212146   8.264   5.378   1.469
 4068TIP3    H112147   8.337   5.363   1.530
 4068TIP3    H212148   8.306   5.409   1.389
 4069TIP3   OH212149   0.977   4.022   5.807
 4069TIP3    H112150   1.015   4.078   5.739
 4069TIP3    H212151   1.020   4.050   5.888
 4070TIP3   OH212152   1.604   3.235   0.687
 4070TIP3    H112153   1.617   3.208   0.778
 4070TIP3    H212154   1.675   3.297   0.671
 4071TIP3   OH212155   7.950   0.509   1.460
 4071TIP3    H112156   7.855   0.513   1.446
 4071TIP3    H212157   7.983   0.590   1.422
 4072TIP3   OH212158   4.385   6.317   3.727
 4072TIP3    H112159   4.296   6.332   3.695
 4072TIP3    H212160   4.431   6.398   3.708
 4073TIP3   OH212161   0.119   7.297   3.943
 4073TIP3    H112162   0.081   7.240   4.010
 4073TIP3    H212163   0.051   7.362   3.925
 4074TIP3   OH212164   3.992   4.408   4.512
 4074TIP3    H112165   3.948   4.475   4.459
 4074TIP3    H212166   4.051   4.364   4.450
 4075TIP3   OH212167   1.768   5.379   2.745
 4075TIP3    H112168   1.846   5.428   2.718
 4075TIP3    H212169   1.695   5.438   2.725
 4076TIP3   OH212170   5.474   0.108   0.589
 4076TIP3    H112171   5.557   0.068   0.616
 4076TIP3    H212172   5.465   0.084   0.497
 4077TIP3   OH212173   2.129   4.811   6.074
 4077TIP3    H112174   2.046   4.788   6.031
 4077TIP3    H212175   2.105   4.877   6.138
 4078TIP3   OH212176   1.809   7.758   2.001
 4078TIP3    H112177   1.744   7.821   2.033
 4078TIP3    H212178   1.864   7.809   1.942
 4079TIP3   OH212179   0.462   1.967   3.098
 4079TIP3    H112180   0.377   1.994   3.061
 4079TIP3    H212181   0.441   1.939   3.187
 4080TIP3   OH212182   6.866   3.694   0.190
 4080TIP3    H112183   6.841   3.616   0.240
 4080TIP3    H212184   6.926   3.741   0.247
 4081TIP3   OH212185   3.087   4.968   5.083
 4081TIP3    H112186   3.128   4.887   5.115
 4081TIP3    H212187   3.114   4.974   4.991
 4082TIP3   OH212188   5.071   5.842   5.752
 4082TIP3    H112189   5.133   5.915   5.747
 4082TIP3    H212190   4.999   5.875   5.805
 4083TIP3   OH212191   0.152   2.833   1.555
 4083TIP3    H112192   0.207   2.791   1.622
 4083TIP3    H212193   0.206   2.905   1.522
 4084TIP3   OH212194   2.854   1.556   1.505
 4084TIP3    H112195   2.773   1.568   1.556
 4084TIP3    H212196   2.866   1.462   1.501
 4085TIP3   OH212197   3.446   5.945   3.550
 4085TIP3    H112198   3.360   5.981   3.574
 4085TIP3    H212199   3.508   6.013   3.575
 4086TIP3   OH212200   4.078   3.636   4.256
 4086TIP3    H112201   4.008   3.696   4.229
 4086TIP3    H212202   4.064   3.558   4.203
 4087TIP3   OH212203   6.890   7.690   5.118
 4087TIP3    H112204   6.866   7.702   5.210
 4087TIP3    H212205   6.948   7.614   5.118
 4088TIP3   OH212206   3.704   3.042   3.125
 4088TIP3    H112207   3.708   3.036   3.221
 4088TIP3    H212208   3.640   2.975   3.100
 4089TIP3   OH212209   3.887   0.114   2.359
 4089TIP3    H112210   3.892   0.202   2.395
 4089TIP3    H212211   3.930   0.121   2.273
 4090TIP3   OH212212   2.217   3.155   0.028
 4090TIP3    H112213   2.212   3.243  -0.010
 4090TIP3    H212214   2.129   3.138   0.061
 4091TIP3   OH212215   6.108   7.123   6.531
 4091TIP3    H112216   6.013   7.127   6.541
 4091TIP3    H212217   6.141   7.119   6.621
 4092TIP3   OH212218   6.247   5.007   2.518
 4092TIP3    H112219   6.266   5.007   2.612
 4092TIP3    H212220   6.331   4.987   2.477
 4093TIP3   OH212221   7.082   6.046   1.045
 4093TIP3    H112222   7.010   6.020   1.103
 4093TIP3    H212223   7.061   6.136   1.019
 4094TIP3   OH212224   0.238   7.677   4.841
 4094TIP3    H112225   0.260   7.770   4.834
 4094TIP3    H212226   0.205   7.654   4.754
 4095TIP3   OH212227   7.169   7.050   4.297
 4095TIP3    H112228   7.202   7.137   4.273
 4095TIP3    H212229   7.236   7.015   4.357
 4096TIP3   OH212230   3.129   7.390   2.008
 4096TIP3    H112231   3.042   7.374   1.972
 4096TIP3    H212232   3.116   7.459   2.073
 4097TIP3   OH212233   0.165   0.038   3.774
 4097TIP3    H112234   0.119  -0.038   3.810
 4097TIP3    H212235   0.179   0.095   3.849
 4098TIP3   OH212236   1.448   7.787   3.168
 4098TIP3    H112237   1.405   7.750   3.090
 4098TIP3    H212238   1.542   7.775   3.151
 4099TIP3   OH212239   8.240   0.232   3.078
 4099TIP3    H112240   8.316   0.288   3.062
 4099TIP3    H212241   8.214   0.253   3.168
 4100TIP3   OH212242   4.178   7.620   0.130
 4100TIP3    H112243   4.200   7.562   0.057
 4100TIP3    H212244   4.262   7.643   0.169
 4101TIP3   OH212245   3.921   4.473   0.856
 4101TIP3    H112246   3.898   4.564   0.841
 4101TIP3    H212247   4.003   4.476   0.906
 4102TIP3   OH212248   7.718   4.138   4.303
 4102TIP3    H112249   7.693   4.126   4.211
 4102TIP3    H212250   7.670   4.216   4.331
 4103TIP3   OH212251   5.817   3.102   1.257
 4103TIP3    H112252   5.890   3.041   1.265
 4103TIP3    H212253   5.795   3.126   1.347
 4104TIP3   OH212254   6.920   6.031   0.634
 4104TIP3    H112255   6.886   5.958   0.685
 4104TIP3    H212256   6.859   6.103   0.651
 4105TIP3   OH212257   6.588   5.890   0.651
 4105TIP3    H112258   6.658   5.931   0.702
 4105TIP3    H212259   6.572   5.806   0.695
 4106TIP3   OH212260   4.562   4.285   4.263
 4106TIP3    H112261   4.521   4.372   4.258
 4106TIP3    H212262   4.655   4.303   4.278
 4107TIP3   OH212263   1.998   1.167   6.360
 4107TIP3    H112264   1.932   1.138   6.298
 4107TIP3    H212265   2.074   1.113   6.342
 4108TIP3   OH212266   7.899   3.438   3.936
 4108TIP3    H112267   7.893   3.501   4.007
 4108TIP3    H212268   7.953   3.367   3.971
 4109TIP3   OH212269   8.272   0.699   6.110
 4109TIP3    H112270   8.219   0.652   6.174
 4109TIP3    H212271   8.208   0.736   6.049
 4110TIP3   OH212272   0.095   5.115   2.895
 4110TIP3    H112273   0.065   5.079   2.978
 4110TIP3    H212274   0.083   5.210   2.903
 4111TIP3   OH212275   0.909   3.975   6.533
 4111TIP3    H112276   0.847   4.026   6.482
 4111TIP3    H212277   0.913   4.020   6.618
 4112TIP3   OH212278   4.567   5.028   5.532
 4112TIP3    H112279   4.530   4.959   5.477
 4112TIP3    H212280   4.530   5.109   5.497
 4113TIP3   OH212281   0.128   1.673   6.621
 4113TIP3    H112282   0.135   1.580   6.643
 4113TIP3    H212283   0.074   1.711   6.690
 4114TIP3   OH212284   2.134   5.403   2.814
 4114TIP3    H112285   2.112   5.442   2.730
 4114TIP3    H212286   2.185   5.470   2.860
 4115TIP3   OH212287   1.284   1.399   1.376
 4115TIP3    H112288   1.240   1.314   1.369
 4115TIP3    H212289   1.239   1.443   1.449
 4116TIP3   OH212290   5.260   3.653   2.990
 4116TIP3    H112291   5.334   3.709   3.017
 4116TIP3    H212292   5.187   3.714   2.980
 4117TIP3   OH212293   1.690   2.062   5.084
 4117TIP3    H112294   1.752   2.111   5.029
 4117TIP3    H212295   1.660   2.126   5.148
 4118TIP3   OH212296   6.142   3.143   5.105
 4118TIP3    H112297   6.064   3.089   5.112
 4118TIP3    H212298   6.109   3.232   5.092
 4119TIP3   OH212299   4.265   6.847   6.419
 4119TIP3    H112300   4.311   6.893   6.489
 4119TIP3    H212301   4.289   6.895   6.339
 4120TIP3   OH212302   3.490   6.394   4.438
 4120TIP3    H112303   3.479   6.428   4.349
 4120TIP3    H212304   3.409   6.346   4.456
 4121TIP3   OH212305   4.738   0.861   6.468
 4121TIP3    H112306   4.724   0.830   6.557
 4121TIP3    H212307   4.829   0.841   6.449
 4122TIP3   OH212308   2.230   6.255   4.461
 4122TIP3    H112309   2.221   6.188   4.529
 4122TIP3    H212310   2.283   6.324   4.503
 4123TIP3   OH212311   6.642   6.814   3.673
 4123TIP3    H112312   6.588   6.783   3.600
 4123TIP3    H212313   6.702   6.742   3.691
 4124TIP3   OH212314   6.426   4.779   6.131
 4124TIP3    H112315   6.352   4.832   6.100
 4124TIP3    H212316   6.386   4.698   6.163
 4125TIP3   OH212317   6.627   6.536   0.771
 4125TIP3    H112318   6.533   6.539   0.791
 4125TIP3    H212319   6.649   6.626   0.747
 4126TIP3   OH212320   0.169   5.189   2.593
 4126TIP3    H112321   0.210   5.178   2.679
 4126TIP3    H212322   0.076   5.206   2.613
 4127TIP3   OH212323   8.134   7.359   2.245
 4127TIP3    H112324   8.096   7.280   2.282
 4127TIP3    H212325   8.069   7.388   2.181
 4128TIP3   OH212326   3.015   0.167   1.565
 4128TIP3    H112327   2.961   0.185   1.488
 4128TIP3    H212328   3.081   0.236   1.565
 4129TIP3   OH212329   4.237   5.227   5.776
 4129TIP3    H112330   4.263   5.147   5.730
 4129TIP3    H212331   4.161   5.201   5.828
 4130TIP3   OH212332   2.896   0.493   3.638
 4130TIP3    H112333   2.933   0.500   3.726
 4130TIP3    H212334   2.971   0.475   3.581
 4131TIP3   OH212335   1.958   2.550   2.737
 4131TIP3    H112336   2.019   2.508   2.677
 4131TIP3    H212337   1.902   2.479   2.769
 4132TIP3   OH212338   7.391   0.079   4.931
 4132TIP3    H112339   7.400   0.029   5.011
 4132TIP3    H212340   7.376   0.014   4.863
 4133TIP3   OH212341   3.216   2.964   6.494
 4133TIP3    H112342   3.172   2.964   6.579
 4133TIP3    H212343   3.144   2.967   6.430
 4134TIP3   OH212344   1.950   4.942   4.638
 4134TIP3    H112345   1.872   4.934   4.693
 4134TIP3    H212346   1.916   4.954   4.550
 4135TIP3   OH212347   5.450   7.172   0.838
 4135TIP3    H112348   5.531   7.126   0.816
 4135TIP3    H212349   5.421   7.131   0.920
 4136TIP3   OH212350   1.586   7.124   4.934
 4136TIP3    H112351   1.549   7.094   4.850
 4136TIP3    H212352   1.521   7.098   4.999
 4137TIP3   OH212353   4.819   1.773   3.955
 4137TIP3    H112354   4.886   1.831   3.919
 4137TIP3    H212355   4.826   1.693   3.904
 4138TIP3   OH212356   8.137   6.870   3.705
 4138TIP3    H112357   8.211   6.909   3.753
 4138TIP3    H212358   8.073   6.848   3.772
 4139TIP3   OH212359   3.049   7.722   4.635
 4139TIP3    H112360   3.045   7.738   4.729
 4139TIP3    H212361   2.958   7.728   4.606
 4140TIP3   OH212362   3.500   2.720   1.023
 4140TIP3    H112363   3.585   2.723   1.068
 4140TIP3    H212364   3.442   2.676   1.085
 4141TIP3   OH212365   5.756   3.940   6.609
 4141TIP3    H112366   5.696   3.958   6.682
 4141TIP3    H212367   5.780   4.027   6.576
 4142TIP3   OH212368   7.076   6.332   0.926
 4142TIP3    H112369   6.992   6.349   0.885
 4142TIP3    H212370   7.122   6.275   0.864
 4143TIP3   OH212371   2.738   3.703   3.244
 4143TIP3    H112372   2.742   3.626   3.301
 4143TIP3    H212373   2.826   3.739   3.246
 4144TIP3   OH212374   1.942   6.319   5.823
 4144TIP3    H112375   2.005   6.260   5.782
 4144TIP3    H212376   1.909   6.270   5.898
 4145TIP3   OH212377   4.192   5.735   5.106
 4145TIP3    H112378   4.121   5.787   5.069
 4145TIP3    H212379   4.191   5.756   5.199
 4146TIP3   OH212380   2.058   3.159   0.826
 4146TIP3    H112381   2.109   3.171   0.746
 4146TIP3    H212382   2.030   3.248   0.851
 4147TIP3   OH212383   5.643   4.569   2.503
 4147TIP3    H112384   5.715   4.505   2.506
 4147TIP3    H212385   5.567   4.519   2.474
 4148TIP3   OH212386   5.938   4.049   5.728
 4148TIP3    H112387   5.852   4.091   5.715
 4148TIP3    H212388   5.926   3.993   5.804
 4149TIP3   OH212389   1.015   1.443   1.014
 4149TIP3    H112390   0.995   1.421   0.923
 4149TIP3    H212391   1.096   1.396   1.033
 4150TIP3   OH212392   1.864   0.590   5.660
 4150TIP3    H112393   1.831   0.642   5.734
 4150TIP3    H212394   1.866   0.500   5.694
 4151TIP3   OH212395   6.599   5.235   6.542
 4151TIP3    H112396   6.686   5.207   6.515
 4151TIP3    H212397   6.546   5.229   6.463
 4152TIP3   OH212398   3.525   0.249   5.712
 4152TIP3    H112399   3.434   0.235   5.737
 4152TIP3    H212400   3.568   0.275   5.794
 4153TIP3   OH212401   5.464   4.413   4.419
 4153TIP3    H112402   5.542   4.463   4.393
 4153TIP3    H212403   5.403   4.480   4.450
 4154TIP3   OH212404   1.506   6.822   2.601
 4154TIP3    H112405   1.597   6.804   2.580
 4154TIP3    H212406   1.488   6.770   2.680
 4155TIP3   OH212407   1.863   5.642   5.962
 4155TIP3    H112408   1.941   5.645   6.018
 4155TIP3    H212409   1.873   5.562   5.911
 4156TIP3   OH212410   6.221   0.914   4.500
 4156TIP3    H112411   6.307   0.873   4.490
 4156TIP3    H212412   6.163   0.861   4.446
 4157TIP3   OH212413   6.413   3.446   6.565
 4157TIP3    H112414   6.388   3.426   6.475
 4157TIP3    H212415   6.506   3.469   6.560
 4158TIP3   OH212416   4.360   0.961   5.812
 4158TIP3    H112417   4.369   0.947   5.906
 4158TIP3    H212418   4.269   0.936   5.793
 4159TIP3   OH212419   2.495   1.014   4.801
 4159TIP3    H112420   2.431   0.963   4.850
 4159TIP3    H212421   2.561   1.038   4.866
 4160TIP3   OH212422   7.649   3.298   5.146
 4160TIP3    H112423   7.609   3.330   5.065
 4160TIP3    H212424   7.657   3.203   5.133
 4161TIP3   OH212425   4.703   2.674   4.134
 4161TIP3    H112426   4.709   2.623   4.215
 4161TIP3    H212427   4.632   2.737   4.150
 4162TIP3   OH212428   7.162   4.681   4.441
 4162TIP3    H112429   7.138   4.731   4.363
 4162TIP3    H212430   7.230   4.733   4.483
 4163TIP3   OH212431   0.937   5.466   2.777
 4163TIP3    H112432   0.992   5.408   2.831
 4163TIP3    H212433   0.983   5.550   2.778
 4164TIP3   OH212434   2.356   0.103   5.643
 4164TIP3    H112435   2.385   0.159   5.570
 4164TIP3    H212436   2.377   0.153   5.721
 4165TIP3   OH212437   7.424   0.924   5.452
 4165TIP3    H112438   7.429   0.832   5.476
 4165TIP3    H212439   7.444   0.926   5.358
 4166TIP3   OH212440   4.843   0.475   2.178
 4166TIP3    H112441   4.792   0.397   2.157
 4166TIP3    H212442   4.813   0.542   2.117
 4167TIP3   OH212443   8.242   3.256   2.257
 4167TIP3    H112444   8.329   3.295   2.273
 4167TIP3    H212445   8.234   3.187   2.323
 4168TIP3   OH212446   2.042   0.602   3.484
 4168TIP3    H112447   2.134   0.625   3.498
 4168TIP3    H212448   2.043   0.535   3.416
 4169TIP3   OH212449   7.593   4.588   1.746
 4169TIP3    H112450   7.534   4.656   1.777
 4169TIP3    H212451   7.540   4.509   1.744
 4170TIP3   OH212452   4.499   3.976   0.142
 4170TIP3    H112453   4.583   3.974   0.097
 4170TIP3    H212454   4.486   4.068   0.164
 4171TIP3   OH212455   5.688   3.463   2.019
 4171TIP3    H112456   5.775   3.497   2.000
 4171TIP3    H212457   5.650   3.442   1.934
 4172TIP3   OH212458   6.980   6.963   3.847
 4172TIP3    H112459   6.991   6.929   3.758
 4172TIP3    H212460   6.965   7.057   3.835
 4173TIP3   OH212461   0.146   1.296   0.329
 4173TIP3    H112462   0.120   1.316   0.239
 4173TIP3    H212463   0.101   1.213   0.348
 4174TIP3   OH212464   2.907   0.650   3.921
 4174TIP3    H112465   2.840   0.610   3.977
 4174TIP3    H212466   2.890   0.744   3.927
 4175TIP3   OH212467   1.452   4.986   4.027
 4175TIP3    H112468   1.462   4.949   4.115
 4175TIP3    H212469   1.359   4.976   4.007
 4176TIP3   OH212470   6.720   7.813   2.193
 4176TIP3    H112471   6.669   7.749   2.144
 4176TIP3    H212472   6.780   7.851   2.129
 4177TIP3   OH212473   6.868   6.061   6.234
 4177TIP3    H112474   6.837   6.145   6.266
 4177TIP3    H212475   6.957   6.078   6.202
 4178TIP3   OH212476   1.471   7.367   0.321
 4178TIP3    H112477   1.452   7.364   0.228
 4178TIP3    H212478   1.435   7.285   0.356
 4179TIP3   OH212479   0.332   4.480   1.261
 4179TIP3    H112480   0.299   4.405   1.310
 4179TIP3    H212481   0.343   4.549   1.327
 4180TIP3   OH212482   3.095   4.387   1.154
 4180TIP3    H112483   3.160   4.335   1.202
 4180TIP3    H212484   3.012   4.343   1.171
 4181TIP3   OH212485   4.687   3.661   2.287
 4181TIP3    H112486   4.717   3.570   2.287
 4181TIP3    H212487   4.594   3.656   2.308
 4182TIP3   OH212488   6.249   5.761   2.702
 4182TIP3    H112489   6.338   5.726   2.694
 4182TIP3    H212490   6.231   5.799   2.616
 4183TIP3   OH212491   1.191   6.476   5.945
 4183TIP3    H112492   1.134   6.552   5.929
 4183TIP3    H212493   1.201   6.474   6.040
 4184TIP3   OH212494   2.290   1.458   0.298
 4184TIP3    H112495   2.296   1.432   0.206
 4184TIP3    H212496   2.276   1.376   0.345
 4185TIP3   OH212497   5.990   2.798   2.951
 4185TIP3    H112498   6.073   2.825   2.989
 4185TIP3    H212499   6.005   2.708   2.921
 4186TIP3   OH212500   2.390   5.688   3.173
 4186TIP3    H112501   2.354   5.648   3.094
 4186TIP3    H212502   2.402   5.780   3.150
 4187TIP3   OH212503   2.568   4.223   5.780
 4187TIP3    H112504   2.504   4.153   5.795
 4187TIP3    H212505   2.635   4.183   5.725
 4188TIP3   OH212506   3.348   6.796   0.361
 4188TIP3    H112507   3.371   6.717   0.312
 4188TIP3    H212508   3.255   6.809   0.342
 4189TIP3   OH212509   3.859   5.927   5.232
 4189TIP3    H112510   3.845   6.021   5.238
 4189TIP3    H212511   3.903   5.915   5.148
 4190TIP3   OH212512   7.736   3.293   6.350
 4190TIP3    H112513   7.831   3.299   6.344
 4190TIP3    H212514   7.705   3.376   6.314
 4191TIP3   OH212515   7.516   1.496   5.810
 4191TIP3    H112516   7.522   1.400   5.813
 4191TIP3    H212517   7.422   1.514   5.816
 4192TIP3   OH212518   7.019   5.901   2.894
 4192TIP3    H112519   7.042   5.986   2.933
 4192TIP3    H212520   6.973   5.923   2.814
 4193TIP3   OH212521   1.556   4.144   1.694
 4193TIP3    H112522   1.580   4.225   1.649
 4193TIP3    H212523   1.590   4.075   1.638
 4194TIP3   OH212524   7.525   5.870   2.074
 4194TIP3    H112525   7.439   5.890   2.039
 4194TIP3    H212526   7.532   5.774   2.066
 4195TIP3   OH212527   3.200   7.660   0.193
 4195TIP3    H112528   3.267   7.703   0.247
 4195TIP3    H212529   3.198   7.711   0.112
 4196TIP3   OH212530   6.950   0.755   6.543
 4196TIP3    H112531   6.986   0.820   6.603
 4196TIP3    H212532   6.956   0.796   6.457
 4197TIP3   OH212533   3.926   5.125   1.616
 4197TIP3    H112534   3.830   5.129   1.618
 4197TIP3    H212535   3.950   5.096   1.704
 4198TIP3   OH212536   5.151   4.673   5.700
 4198TIP3    H112537   5.238   4.691   5.666
 4198TIP3    H212538   5.092   4.723   5.644
 4199TIP3   OH212539   2.747   1.883   6.184
 4199TIP3    H112540   2.767   1.971   6.215
 4199TIP3    H212541   2.727   1.833   6.263
 4200TIP3   OH212542   2.258   7.662   4.588
 4200TIP3    H112543   2.334   7.606   4.572
 4200TIP3    H212544   2.184   7.613   4.553
 4201TIP3   OH212545   0.135   4.646   3.673
 4201TIP3    H112546   0.194   4.685   3.608
 4201TIP3    H212547   0.137   4.552   3.655
 4202TIP3   OH212548   6.430   7.016   3.834
 4202TIP3    H112549   6.478   7.076   3.777
 4202TIP3    H212550   6.469   6.930   3.817
 4203TIP3   OH212551   7.197   0.938   4.653
 4203TIP3    H112552   7.154   0.930   4.738
 4203TIP3    H212553   7.209   1.032   4.640
 4204TIP3   OH212554   7.794   1.550   3.687
 4204TIP3    H112555   7.867   1.527   3.745
 4204TIP3    H212556   7.735   1.602   3.743
 4205TIP3   OH212557   0.431   2.968   0.254
 4205TIP3    H112558   0.417   2.966   0.159
 4205TIP3    H212559   0.524   2.991   0.264
 4206TIP3   OH212560   3.020   6.997   4.198
 4206TIP3    H112561   3.058   7.072   4.153
 4206TIP3    H212562   3.015   7.025   4.290
 4207TIP3   OH212563   0.908   6.984   0.111
 4207TIP3    H112564   1.001   6.986   0.134
 4207TIP3    H212565   0.907   6.972   0.016
 4208TIP3   OH212566   5.976   7.013   3.659
 4208TIP3    H112567   6.044   7.053   3.712
 4208TIP3    H212568   5.958   7.079   3.591
 4209TIP3   OH212569   7.210   6.337   6.448
 4209TIP3    H112570   7.282   6.275   6.462
 4209TIP3    H212571   7.248   6.406   6.394
 4210TIP3   OH212572   3.449   5.965   4.333
 4210TIP3    H112573   3.386   6.009   4.389
 4210TIP3    H212574   3.418   5.982   4.244
 4211TIP3   OH212575   0.324   5.556   2.139
 4211TIP3    H112576   0.337   5.584   2.230
 4211TIP3    H212577   0.232   5.577   2.120
 4212TIP3   OH212578   4.763   0.960   2.855
 4212TIP3    H112579   4.846   0.956   2.902
 4212TIP3    H212580   4.785   0.992   2.768
 4213TIP3   OH212581   6.857   4.458   3.547
 4213TIP3    H112582   6.923   4.416   3.493
 4213TIP3    H212583   6.854   4.548   3.517
 4214TIP3   OH212584   1.881   1.666   0.506
 4214TIP3    H112585   1.903   1.759   0.508
 4214TIP3    H212586   1.798   1.662   0.458
 4215TIP3   OH212587   4.340   0.929   4.743
 4215TIP3    H112588   4.347   0.994   4.812
 4215TIP3    H212589   4.296   0.974   4.671
 4216TIP3   OH212590   0.488   1.277   5.779
 4216TIP3    H112591   0.428   1.348   5.804
 4216TIP3    H212592   0.462   1.204   5.835
 4217TIP3   OH212593   4.242   1.204   3.976
 4217TIP3    H112594   4.330   1.172   3.997
 4217TIP3    H212595   4.225   1.271   4.043
 4218TIP3   OH212596   1.133   1.775   6.277
 4218TIP3    H112597   1.209   1.756   6.332
 4218TIP3    H212598   1.077   1.698   6.287
 4219TIP3   OH212599   7.107   5.673   5.088
 4219TIP3    H112600   7.059   5.622   5.023
 4219TIP3    H212601   7.199   5.654   5.070
 4220TIP3   OH212602   1.917   5.571  -0.032
 4220TIP3    H112603   1.835   5.597  -0.074
 4220TIP3    H212604   1.970   5.650  -0.033
 4221TIP3   OH212605   1.287   2.629   6.453
 4221TIP3    H112606   1.307   2.631   6.359
 4221TIP3    H212607   1.367   2.597   6.494
 4222TIP3   OH212608   3.041   5.641   0.895
 4222TIP3    H112609   3.025   5.595   0.977
 4222TIP3    H212610   2.972   5.611   0.836
 4223TIP3   OH212611   5.637   2.801   5.558
 4223TIP3    H112612   5.655   2.793   5.651
 4223TIP3    H212613   5.717   2.839   5.522
 4224TIP3   OH212614   6.528   7.169   4.218
 4224TIP3    H112615   6.460   7.237   4.210
 4224TIP3    H212616   6.564   7.181   4.306
 4225TIP3   OH212617   5.154   3.044   0.496
 4225TIP3    H112618   5.126   2.966   0.544
 4225TIP3    H212619   5.224   3.013   0.439
 4226TIP3   OH212620   5.664   0.968   3.829
 4226TIP3    H112621   5.633   1.044   3.877
 4226TIP3    H212622   5.650   0.894   3.888
 4227TIP3   OH212623   6.929   3.489   4.504
 4227TIP3    H112624   6.927   3.402   4.465
 4227TIP3    H212625   6.922   3.549   4.430
 4228TIP3   OH212626   5.947   3.580   0.223
 4228TIP3    H112627   5.899   3.627   0.292
 4228TIP3    H212628   5.891   3.506   0.201
 4229TIP3   OH212629   2.759   5.793   0.498
 4229TIP3    H112630   2.712   5.874   0.515
 4229TIP3    H212631   2.850   5.812   0.520
 4230TIP3   OH212632   1.817   7.446   0.356
 4230TIP3    H112633   1.738   7.493   0.381
 4230TIP3    H212634   1.880   7.468   0.425
 4231TIP3   OH212635   1.794   2.961   5.845
 4231TIP3    H112636   1.813   2.875   5.884
 4231TIP3    H212637   1.721   2.995   5.897
 4232TIP3   OH212638   4.308   5.716   1.939
 4232TIP3    H112639   4.275   5.653   1.874
 4232TIP3    H212640   4.332   5.663   2.014
 4233TIP3   OH212641   5.109   0.781   4.545
 4233TIP3    H112642   5.176   0.799   4.479
 4233TIP3    H212643   5.051   0.857   4.542
 4234TIP3   OH212644   7.834   2.192   0.674
 4234TIP3    H112645   7.758   2.251   0.675
 4234TIP3    H212646   7.798   2.105   0.690
 4235TIP3   OH212647   1.945   1.939   6.656
 4235TIP3    H112648   1.997   1.961   6.733
 4235TIP3    H212649   1.917   2.023   6.621
 4236TIP3   OH212650   5.425   5.090   1.290
 4236TIP3    H112651   5.472   5.082   1.207
 4236TIP3    H212652   5.446   5.010   1.337
 4237TIP3   OH212653   0.722   6.329   4.145
 4237TIP3    H112654   0.746   6.397   4.083
 4237TIP3    H212655   0.687   6.258   4.090
 4238TIP3   OH212656   0.546   6.330   2.051
 4238TIP3    H112657   0.512   6.259   1.997
 4238TIP3    H212658   0.624   6.359   2.004
 4239TIP3   OH212659   6.490   6.742   5.959
 4239TIP3    H112660   6.575   6.785   5.972
 4239TIP3    H212661   6.511   6.660   5.913
 4240TIP3   OH212662   2.254   7.367   6.404
 4240TIP3    H112663   2.242   7.287   6.353
 4240TIP3    H212664   2.174   7.418   6.388
 4241TIP3   OH212665   1.316   7.596   1.563
 4241TIP3    H112666   1.368   7.622   1.639
 4241TIP3    H212667   1.225   7.616   1.588
 4242TIP3   OH212668   6.406   1.231   0.719
 4242TIP3    H112669   6.348   1.280   0.777
 4242TIP3    H212670   6.481   1.209   0.774
 4243TIP3   OH212671   4.923   0.321   3.427
 4243TIP3    H112672   4.869   0.242   3.425
 4243TIP3    H212673   5.013   0.288   3.419
 4244TIP3   OH212674   5.359   6.204   5.265
 4244TIP3    H112675   5.419   6.237   5.331
 4244TIP3    H212676   5.414   6.148   5.209
 4245TIP3   OH212677   8.044   7.042   4.361
 4245TIP3    H112678   8.020   6.983   4.433
 4245TIP3    H212679   8.056   7.127   4.404
 4246TIP3   OH212680   3.454   0.807   5.998
 4246TIP3    H112681   3.447   0.796   6.093
 4246TIP3    H212682   3.366   0.830   5.970
 4247TIP3   OH212683   2.720   6.918   0.422
 4247TIP3    H112684   2.653   6.979   0.391
 4247TIP3    H212685   2.704   6.838   0.372
 4248TIP3   OH212686   5.588   3.542   6.162
 4248TIP3    H112687   5.650   3.609   6.191
 4248TIP3    H212688   5.502   3.585   6.168
 4249TIP3   OH212689   7.393   2.162   0.608
 4249TIP3    H112690   7.359   2.145   0.520
 4249TIP3    H212691   7.411   2.076   0.644
 4250TIP3   OH212692   0.780   7.020   5.265
 4250TIP3    H112693   0.689   7.010   5.237
 4250TIP3    H212694   0.832   6.991   5.190
 4251TIP3   OH212695   5.115   3.271   5.899
 4251TIP3    H112696   5.065   3.191   5.912
 4251TIP3    H212697   5.206   3.244   5.911
 4252TIP3   OH212698   1.386   1.524   2.485
 4252TIP3    H112699   1.454   1.487   2.541
 4252TIP3    H212700   1.380   1.616   2.513
 4253TIP3   OH212701   0.424   0.446   4.335
 4253TIP3    H112702   0.386   0.386   4.271
 4253TIP3    H212703   0.497   0.488   4.290
 4254TIP3   OH212704   5.620   4.874   1.279
 4254TIP3    H112705   5.652   4.851   1.366
 4254TIP3    H212706   5.694   4.914   1.234
 4255TIP3   OH212707   5.115   2.413   1.440
 4255TIP3    H112708   5.147   2.325   1.459
 4255TIP3    H212709   5.020   2.408   1.454
 4256TIP3   OH212710   1.605   5.574   0.349
 4256TIP3    H112711   1.513   5.556   0.328
 4256TIP3    H212712   1.620   5.664   0.317
 4257TIP3   OH212713   3.161   2.905   2.643
 4257TIP3    H112714   3.177   2.818   2.679
 4257TIP3    H212715   3.212   2.964   2.699
 4258TIP3   OH212716   2.051   1.009   6.685
 4258TIP3    H112717   2.016   0.922   6.704
 4258TIP3    H212718   2.049   1.053   6.770
 4259TIP3   OH212719   0.766   0.036   1.450
 4259TIP3    H112720   0.860   0.024   1.458
 4259TIP3    H212721   0.747   0.013   1.359
 4260TIP3   OH212722   2.883   6.220   4.715
 4260TIP3    H112723   2.929   6.140   4.740
 4260TIP3    H212724   2.827   6.240   4.790
 4261TIP3   OH212725   7.744   0.566   4.051
 4261TIP3    H112726   7.684   0.632   4.086
 4261TIP3    H212727   7.686   0.499   4.015
 4262TIP3   OH212728   2.798   1.425   4.747
 4262TIP3    H112729   2.722   1.429   4.689
 4262TIP3    H212730   2.864   1.379   4.696
 4263TIP3   OH212731   0.311   0.030   0.250
 4263TIP3    H112732   0.293   0.023   0.156
 4263TIP3    H212733   0.380   0.096   0.256
 4264TIP3   OH212734   4.589   0.580   1.351
 4264TIP3    H112735   4.505   0.601   1.393
 4264TIP3    H212736   4.570   0.505   1.295
 4265TIP3   OH212737   5.027   3.604   1.513
 4265TIP3    H112738   4.975   3.583   1.435
 4265TIP3    H212739   5.036   3.699   1.512
 4266TIP3   OH212740   3.727   7.370   5.770
 4266TIP3    H112741   3.785   7.442   5.793
 4266TIP3    H212742   3.786   7.296   5.753
 4267TIP3   OH212743   3.870   0.753   1.377
 4267TIP3    H112744   3.905   0.799   1.301
 4267TIP3    H212745   3.875   0.661   1.353
 4268TIP3   OH212746   2.696   0.823   3.706
 4268TIP3    H112747   2.697   0.853   3.797
 4268TIP3    H212748   2.658   0.735   3.710
 4269TIP3   OH212749   4.192   1.515   3.364
 4269TIP3    H112750   4.102   1.486   3.344
 4269TIP3    H212751   4.240   1.499   3.283
 4270TIP3   OH212752   4.492   4.744   0.069
 4270TIP3    H112753   4.523   4.823   0.115
 4270TIP3    H212754   4.429   4.777   0.004
 4271TIP3   OH212755   0.105   7.411   0.342
 4271TIP3    H112756   0.057   7.380   0.265
 4271TIP3    H212757   0.196   7.417   0.313
 4272TIP3   OH212758   4.913   2.515   4.697
 4272TIP3    H112759   4.962   2.501   4.778
 4272TIP3    H212760   4.824   2.534   4.725
 4273TIP3   OH212761   6.475   2.861   3.958
 4273TIP3    H112762   6.421   2.907   3.894
 4273TIP3    H212763   6.561   2.854   3.916
 4274TIP3   OH212764   3.018   1.232   2.926
 4274TIP3    H112765   2.967   1.278   2.859
 4274TIP3    H212766   2.967   1.242   3.006
 4275TIP3   OH212767   0.603   3.338   5.535
 4275TIP3    H112768   0.629   3.256   5.492
 4275TIP3    H212769   0.643   3.406   5.482
 4276TIP3   OH212770   1.169   5.375   5.407
 4276TIP3    H112771   1.099   5.393   5.345
 4276TIP3    H212772   1.125   5.358   5.490
 4277TIP3   OH212773   6.381   6.785   2.889
 4277TIP3    H112774   6.362   6.757   2.800
 4277TIP3    H212775   6.325   6.729   2.944
 4278TIP3   OH212776   7.412   5.659   5.123
 4278TIP3    H112777   7.435   5.609   5.201
 4278TIP3    H212778   7.470   5.735   5.125
 4279TIP3   OH212779   1.002   7.089   4.758
 4279TIP3    H112780   1.041   7.002   4.765
 4279TIP3    H212781   0.941   7.083   4.684
 4280TIP3   OH212782   7.329   2.703   3.679
 4280TIP3    H112783   7.319   2.711   3.773
 4280TIP3    H212784   7.260   2.644   3.651
 4281TIP3   OH212785   4.717   4.738   4.316
 4281TIP3    H112786   4.750   4.661   4.362
 4281TIP3    H212787   4.666   4.786   4.382
 4282TIP3   OH212788   0.847   1.409   0.495
 4282TIP3    H112789   0.807   1.468   0.430
 4282TIP3    H212790   0.941   1.424   0.486
 4283TIP3   OH212791   4.287   7.533   5.995
 4283TIP3    H112792   4.327   7.504   5.913
 4283TIP3    H212793   4.308   7.627   6.000
 4284TIP3   OH212794   2.521   0.779   1.090
 4284TIP3    H112795   2.575   0.773   1.168
 4284TIP3    H212796   2.559   0.717   1.029
 4285TIP3   OH212797   4.822   2.822   4.758
 4285TIP3    H112798   4.850   2.804   4.668
 4285TIP3    H212799   4.784   2.740   4.788
 4286TIP3   OH212800   5.374   6.672   0.145
 4286TIP3    H112801   5.345   6.763   0.143
 4286TIP3    H212802   5.456   6.672   0.094
 4287TIP3   OH212803   0.161   3.976   4.955
 4287TIP3    H112804   0.077   3.986   5.001
 4287TIP3    H212805   0.220   3.941   5.021
 4288TIP3   OH212806   6.252   5.954   0.736
 4288TIP3    H112807   6.280   5.992   0.819
 4288TIP3    H212808   6.330   5.913   0.700
 4289TIP3   OH212809   3.087   3.821   2.653
 4289TIP3    H112810   3.180   3.843   2.662
 4289TIP3    H212811   3.062   3.787   2.739
 4290TIP3   OH212812   2.443   4.216   1.722
 4290TIP3    H112813   2.528   4.249   1.693
 4290TIP3    H212814   2.462   4.165   1.801
 4291TIP3   OH212815   2.661   1.643   3.656
 4291TIP3    H112816   2.666   1.689   3.740
 4291TIP3    H212817   2.733   1.580   3.659
 4292TIP3   OH212818   1.431   6.714   0.815
 4292TIP3    H112819   1.344   6.677   0.830
 4292TIP3    H212820   1.474   6.651   0.757
 4293TIP3   OH212821   5.299   2.156   5.615
 4293TIP3    H112822   5.252   2.216   5.673
 4293TIP3    H212823   5.313   2.078   5.668
 4294TIP3   OH212824   1.802   3.712   2.624
 4294TIP3    H112825   1.812   3.807   2.611
 4294TIP3    H212826   1.728   3.704   2.684
 4295TIP3   OH212827   4.720   2.482   6.225
 4295TIP3    H112828   4.797   2.427   6.212
 4295TIP3    H212829   4.730   2.552   6.160
 4296TIP3   OH212830   0.831   0.956   5.925
 4296TIP3    H112831   0.888   0.918   5.992
 4296TIP3    H212832   0.797   1.036   5.965
 4297TIP3   OH212833   1.981   7.281   2.735
 4297TIP3    H112834   1.940   7.249   2.816
 4297TIP3    H212835   1.907   7.303   2.678
 4298TIP3   OH212836   6.797   1.138   0.440
 4298TIP3    H112837   6.705   1.165   0.437
 4298TIP3    H212838   6.834   1.189   0.512
 4299TIP3   OH212839   5.254   5.489   4.877
 4299TIP3    H112840   5.297   5.435   4.810
 4299TIP3    H212841   5.304   5.571   4.878
 4300TIP3   OH212842   2.148   4.682   3.118
 4300TIP3    H112843   2.100   4.707   3.039
 4300TIP3    H212844   2.169   4.765   3.161
 4301TIP3   OH212845   6.382   5.740   4.837
 4301TIP3    H112846   6.461   5.734   4.783
 4301TIP3    H212847   6.366   5.650   4.865
 4302TIP3   OH212848   0.458   2.764   6.386
 4302TIP3    H112849   0.379   2.792   6.339
 4302TIP3    H212850   0.530   2.784   6.326
 4303TIP3   OH212851   4.868   6.284   0.423
 4303TIP3    H112852   4.855   6.287   0.517
 4303TIP3    H212853   4.962   6.276   0.411
 4304TIP3   OH212854   3.124   6.362   4.253
 4304TIP3    H112855   3.133   6.267   4.256
 4304TIP3    H212856   3.116   6.388   4.345
 4305TIP3   OH212857   3.061   2.106   5.381
 4305TIP3    H112858   3.045   2.036   5.446
 4305TIP3    H212859   3.066   2.186   5.433
 4306TIP3   OH212860   5.248   1.040   3.564
 4306TIP3    H112861   5.333   1.001   3.582
 4306TIP3    H212862   5.242   1.043   3.468
 4307TIP3   OH212863   1.996   3.877   4.181
 4307TIP3    H112864   1.951   3.961   4.169
 4307TIP3    H212865   2.070   3.881   4.121
 4308TIP3   OH212866   7.742   6.995   2.731
 4308TIP3    H112867   7.825   6.950   2.713
 4308TIP3    H212868   7.724   6.976   2.823
 4309TIP3   OH212869   5.657   2.362   6.033
 4309TIP3    H112870   5.716   2.422   6.079
 4309TIP3    H212871   5.609   2.419   5.972
 4310TIP3   OH212872   8.053   6.231   0.561
 4310TIP3    H112873   8.136   6.238   0.608
 4310TIP3    H212874   8.074   6.178   0.483
 4311TIP3   OH212875   7.283   6.695   0.349
 4311TIP3    H112876   7.285   6.673   0.442
 4311TIP3    H212877   7.282   6.790   0.346
 4312TIP3   OH212878   7.341   3.299   3.888
 4312TIP3    H112879   7.260   3.255   3.862
 4312TIP3    H212880   7.402   3.228   3.908
 4313TIP3   OH212881   4.959   1.055   0.508
 4313TIP3    H112882   4.933   0.971   0.470
 4313TIP3    H212883   5.051   1.065   0.483
 4314TIP3   OH212884   7.470   7.147   0.223
 4314TIP3    H112885   7.378   7.163   0.241
 4314TIP3    H212886   7.485   7.184   0.136
 4315TIP3   OH212887   4.720   3.533   6.191
 4315TIP3    H112888   4.771   3.606   6.157
 4315TIP3    H212889   4.752   3.457   6.143
 4316TIP3   OH212890   4.060   7.698   3.426
 4316TIP3    H112891   4.126   7.649   3.476
 4316TIP3    H212892   4.064   7.659   3.338
 4317TIP3   OH212893   7.367   7.662   4.841
 4317TIP3    H112894   7.461   7.649   4.826
 4317TIP3    H212895   7.343   7.736   4.786
 4318TIP3   OH212896   3.161   1.276   5.054
 4318TIP3    H112897   3.179   1.228   5.135
 4318TIP3    H212898   3.139   1.208   4.991
 4319TIP3   OH212899   6.091   4.284   4.973
 4319TIP3    H112900   6.006   4.240   4.980
 4319TIP3    H212901   6.069   4.377   4.963
 4320TIP3   OH212902   5.554   2.251   5.487
 4320TIP3    H112903   5.462   2.227   5.503
 4320TIP3    H212904   5.600   2.167   5.483
 4321TIP3   OH212905   3.970   0.496   4.759
 4321TIP3    H112906   3.999   0.543   4.681
 4321TIP3    H212907   3.875   0.501   4.756
 4322TIP3   OH212908   0.775   4.481   0.280
 4322TIP3    H112909   0.864   4.517   0.286
 4322TIP3    H212910   0.730   4.539   0.219
 4323TIP3   OH212911   3.025   7.296   5.664
 4323TIP3    H112912   3.106   7.262   5.625
 4323TIP3    H212913   3.027   7.390   5.645
 4324TIP3   OH212914   1.662   0.402   1.210
 4324TIP3    H112915   1.674   0.308   1.196
 4324TIP3    H212916   1.622   0.433   1.128
 4325TIP3   OH212917   4.586   6.905   0.303
 4325TIP3    H112918   4.574   6.878   0.212
 4325TIP3    H212919   4.680   6.893   0.319
 4326TIP3   OH212920   3.392   5.965   1.453
 4326TIP3    H112921   3.314   6.016   1.431
 4326TIP3    H212922   3.361   5.875   1.457
 4327TIP3   OH212923   4.307   0.394   4.235
 4327TIP3    H112924   4.292   0.437   4.319
 4327TIP3    H212925   4.219   0.373   4.203
 4328TIP3   OH212926   1.529   6.997   4.699
 4328TIP3    H112927   1.480   7.038   4.628
 4328TIP3    H212928   1.514   6.903   4.687
 4329TIP3   OH212929   0.898   1.535   1.258
 4329TIP3    H112930   0.923   1.536   1.166
 4329TIP3    H212931   0.861   1.622   1.274
 4330TIP3   OH212932   0.232   7.245   3.697
 4330TIP3    H112933   0.221   7.236   3.792
 4330TIP3    H212934   0.266   7.333   3.685
 4331TIP3   OH212935   2.903   1.070   5.183
 4331TIP3    H112936   2.948   1.032   5.108
 4331TIP3    H212937   2.905   1.164   5.167
 4332TIP3   OH212938   1.294   7.599   1.034
 4332TIP3    H112939   1.309   7.688   1.004
 4332TIP3    H212940   1.222   7.606   1.097
 4333TIP3   OH212941   6.995   0.324   3.127
 4333TIP3    H112942   7.019   0.255   3.189
 4333TIP3    H212943   6.994   0.404   3.180
 4334TIP3   OH212944   0.472   6.864   4.533
 4334TIP3    H112945   0.549   6.823   4.494
 4334TIP3    H212946   0.432   6.796   4.586
 4335TIP3   OH212947   6.951   5.049   5.661
 4335TIP3    H112948   6.916   5.108   5.594
 4335TIP3    H212949   7.045   5.043   5.642
 4336TIP3   OH212950   2.614   0.120   6.237
 4336TIP3    H112951   2.690   0.169   6.270
 4336TIP3    H212952   2.643   0.084   6.154
 4337TIP3   OH212953   3.002   6.150   1.029
 4337TIP3    H112954   2.969   6.217   1.089
 4337TIP3    H212955   2.976   6.067   1.068
 4338TIP3   OH212956   6.339   3.481   6.249
 4338TIP3    H112957   6.273   3.549   6.257
 4338TIP3    H212958   6.423   3.527   6.256
 4339TIP3   OH212959   5.742   3.631   3.956
 4339TIP3    H112960   5.729   3.539   3.981
 4339TIP3    H212961   5.679   3.679   4.009
 4340TIP3   OH212962   1.347   5.622   2.264
 4340TIP3    H112963   1.397   5.557   2.215
 4340TIP3    H212964   1.290   5.570   2.321
 4341TIP3   OH212965   5.727   1.256   1.672
 4341TIP3    H112966   5.780   1.198   1.726
 4341TIP3    H212967   5.787   1.327   1.647
 4342TIP3   OH212968   2.288   4.133   2.237
 4342TIP3    H112969   2.322   4.222   2.234
 4342TIP3    H212970   2.355   4.084   2.285
 4343TIP3   OH212971   7.125   3.908   4.329
 4343TIP3    H112972   7.169   3.879   4.409
 4343TIP3    H212973   7.076   3.985   4.355
 4344TIP3   OH212974   0.741   4.439   1.457
 4344TIP3    H112975   0.714   4.477   1.541
 4344TIP3    H212976   0.731   4.345   1.469
 4345TIP3   OH212977   4.148   1.534   2.908
 4345TIP3    H112978   4.109   1.488   2.833
 4345TIP3    H212979   4.074   1.555   2.965
 4346TIP3   OH212980   2.289   5.061   1.912
 4346TIP3    H112981   2.199   5.028   1.908
 4346TIP3    H212982   2.290   5.135   1.851
 4347TIP3   OH212983   6.400   3.053   6.602
 4347TIP3    H112984   6.374   3.132   6.556
 4347TIP3    H212985   6.478   3.022   6.555
 4348TIP3   OH212986   7.285   4.871   3.861
 4348TIP3    H112987   7.307   4.843   3.772
 4348TIP3    H212988   7.300   4.793   3.915
 4349TIP3   OH212989   4.042   4.661   0.368
 4349TIP3    H112990   3.983   4.672   0.293
 4349TIP3    H212991   4.125   4.700   0.339
 4350TIP3   OH212992   2.898   5.470   1.957
 4350TIP3    H112993   2.876   5.558   1.924
 4350TIP3    H212994   2.869   5.471   2.048
 4351TIP3   OH212995   5.384   0.325   2.324
 4351TIP3    H112996   5.421   0.261   2.385
 4351TIP3    H212997   5.384   0.280   2.240
 4352TIP3   OH212998   3.030   2.539   5.611
 4352TIP3    H112999   2.971   2.507   5.679
 4352TIP3    H213000   2.971   2.562   5.538
 4353TIP3   OH213001   7.227   2.893   1.936
 4353TIP3    H113002   7.290   2.904   2.007
 4353TIP3    H213003   7.150   2.942   1.965
 4354TIP3   OH213004   3.982   4.142   3.889
 4354TIP3    H113005   3.933   4.097   3.957
 4354TIP3    H213006   4.023   4.071   3.839
 4355TIP3   OH213007   3.789   4.405   1.703
 4355TIP3    H113008   3.861   4.380   1.761
 4355TIP3    H213009   3.793   4.341   1.632
 4356TIP3   OH213010   4.395   6.591   3.591
 4356TIP3    H113011   4.454   6.627   3.525
 4356TIP3    H213012   4.359   6.512   3.551
 4357TIP3   OH213013   2.215   1.033   3.015
 4357TIP3    H113014   2.238   0.941   3.002
 4357TIP3    H213015   2.245   1.077   2.935
 4358TIP3   OH213016   0.004   6.045   4.240
 4358TIP3    H113017   0.006   6.137   4.217
 4358TIP3    H213018   0.074   6.035   4.305
 4359TIP3   OH213019   4.832   4.701   2.515
 4359TIP3    H113020   4.892   4.643   2.469
 4359TIP3    H213021   4.883   4.735   2.589
 4360TIP3   OH213022   0.561   0.027   5.202
 4360TIP3    H113023   0.581   0.070   5.285
 4360TIP3    H213024   0.626   0.062   5.141
 4361TIP3   OH213025   6.192   1.060   2.188
 4361TIP3    H113026   6.193   1.000   2.262
 4361TIP3    H213027   6.130   1.020   2.126
 4362TIP3   OH213028   7.306   0.857   2.385
 4362TIP3    H113029   7.379   0.917   2.401
 4362TIP3    H213030   7.250   0.904   2.323
 4363TIP3   OH213031   0.823   0.090   5.613
 4363TIP3    H113032   0.822   0.016   5.552
 4363TIP3    H213033   0.742   0.082   5.661
 4364TIP3   OH213034   5.397   6.855   4.733
 4364TIP3    H113035   5.415   6.869   4.826
 4364TIP3    H213036   5.474   6.809   4.700
 4365TIP3   OH213037   1.974   1.959   4.629
 4365TIP3    H113038   1.956   1.983   4.720
 4365TIP3    H213039   1.905   1.896   4.607
 4366TIP3   OH213040   2.869   4.821   5.381
 4366TIP3    H113041   2.841   4.901   5.425
 4366TIP3    H213042   2.964   4.820   5.391
 4367TIP3   OH213043   4.199   3.731   6.075
 4367TIP3    H113044   4.206   3.794   6.003
 4367TIP3    H213045   4.285   3.689   6.078
 4368TIP3   OH213046   1.875   6.502   5.449
 4368TIP3    H113047   1.871   6.568   5.519
 4368TIP3    H213048   1.785   6.470   5.441
 4369TIP3   OH213049   0.628   6.411   3.323
 4369TIP3    H113050   0.703   6.402   3.266
 4369TIP3    H213051   0.639   6.496   3.365
 4370TIP3   OH213052   6.206   2.690   5.779
 4370TIP3    H113053   6.171   2.758   5.836
 4370TIP3    H213054   6.299   2.687   5.799
 4371TIP3   OH213055   7.557   2.414   4.090
 4371TIP3    H113056   7.582   2.475   4.020
 4371TIP3    H213057   7.512   2.343   4.045
 4372TIP3   OH213058   2.473   3.231   5.290
 4372TIP3    H113059   2.535   3.205   5.357
 4372TIP3    H213060   2.457   3.324   5.306
 4373TIP3   OH213061   7.676   6.249   6.517
 4373TIP3    H113062   7.730   6.200   6.579
 4373TIP3    H213063   7.737   6.306   6.472
 4374TIP3   OH213064   7.136   4.330   5.194
 4374TIP3    H113065   7.154   4.249   5.146
 4374TIP3    H213066   7.061   4.308   5.249
 4375TIP3   OH213067   6.175   2.815   6.198
 4375TIP3    H113068   6.137   2.850   6.278
 4375TIP3    H213069   6.150   2.877   6.130
 4376TIP3   OH213070   4.943   6.250   3.290
 4376TIP3    H113071   4.991   6.170   3.271
 4376TIP3    H213072   4.999   6.296   3.353
 4377TIP3   OH213073   6.913   2.397   1.536
 4377TIP3    H113074   6.908   2.441   1.451
 4377TIP3    H213075   6.836   2.428   1.584
 4378TIP3   OH213076   7.976   3.608   1.939
 4378TIP3    H113077   7.999   3.525   1.979
 4378TIP3    H213078   8.004   3.599   1.847
 4379TIP3   OH213079   0.805   2.317   5.227
 4379TIP3    H113080   0.758   2.292   5.148
 4379TIP3    H213081   0.736   2.351   5.285
 4380TIP3   OH213082   0.829   3.572   0.039
 4380TIP3    H113083   0.744   3.578  -0.003
 4380TIP3    H213084   0.836   3.481   0.068
 4381TIP3   OH213085   3.028   5.189   3.870
 4381TIP3    H113086   3.063   5.266   3.916
 4381TIP3    H213087   3.032   5.213   3.777
 4382TIP3   OH213088   7.555   3.986   5.802
 4382TIP3    H113089   7.490   3.939   5.750
 4382TIP3    H213090   7.504   4.024   5.874
 4383TIP3   OH213091   2.915   3.688   0.713
 4383TIP3    H113092   2.957   3.760   0.762
 4383TIP3    H213093   2.987   3.647   0.664
 4384TIP3   OH213094   3.276   5.813   1.154
 4384TIP3    H113095   3.271   5.776   1.066
 4384TIP3    H213096   3.209   5.765   1.204
 4385TIP3   OH213097   0.080   2.663   4.392
 4385TIP3    H113098   0.114   2.726   4.329
 4385TIP3    H213099   0.153   2.604   4.409
 4386TIP3   OH213100   1.315   3.998   5.235
 4386TIP3    H113101   1.399   3.970   5.199
 4386TIP3    H213102   1.250   3.942   5.191
 4387TIP3   OH213103   5.601   2.153   0.072
 4387TIP3    H113104   5.654   2.189   0.143
 4387TIP3    H213105   5.547   2.226   0.042
 4388TIP3   OH213106   0.607   1.631   1.910
 4388TIP3    H113107   0.534   1.682   1.944
 4388TIP3    H213108   0.593   1.629   1.816
 4389TIP3   OH213109   5.825   3.915   3.797
 4389TIP3    H113110   5.736   3.942   3.817
 4389TIP3    H213111   5.815   3.847   3.731
 4390TIP3   OH213112   5.989   7.739   5.852
 4390TIP3    H113113   5.983   7.833   5.869
 4390TIP3    H213114   5.960   7.698   5.933
 4391TIP3   OH213115   4.283   0.175   1.718
 4391TIP3    H113116   4.307   0.090   1.681
 4391TIP3    H213117   4.345   0.237   1.679
 4392TIP3   OH213118   7.569   4.106   6.379
 4392TIP3    H113119   7.647   4.134   6.427
 4392TIP3    H213120   7.547   4.021   6.416
 4393TIP3   OH213121   3.696   6.723   4.066
 4393TIP3    H113122   3.740   6.668   4.131
 4393TIP3    H213123   3.660   6.662   4.003
 4394TIP3   OH213124   1.706   0.748   6.144
 4394TIP3    H113125   1.748   0.677   6.192
 4394TIP3    H213126   1.716   0.824   6.201
 4395TIP3   OH213127   4.383   3.627   4.226
 4395TIP3    H113128   4.295   3.639   4.262
 4395TIP3    H213129   4.442   3.651   4.297
 4396TIP3   OH213130   1.919   5.383   1.485
 4396TIP3    H113131   1.963   5.463   1.457
 4396TIP3    H213132   1.902   5.396   1.578
 4397TIP3   OH213133   4.257   0.355   0.015
 4397TIP3    H113134   4.224   0.270   0.046
 4397TIP3    H213135   4.272   0.342  -0.079
 4398TIP3   OH213136   0.669   1.588   2.925
 4398TIP3    H113137   0.651   1.675   2.889
 4398TIP3    H213138   0.692   1.605   3.017
 4399TIP3   OH213139   4.239   1.256   2.953
 4399TIP3    H113140   4.210   1.340   2.918
 4399TIP3    H213141   4.200   1.191   2.895
 4400TIP3   OH213142   5.620   2.992   0.835
 4400TIP3    H113143   5.657   3.079   0.851
 4400TIP3    H213144   5.659   2.937   0.903
 4401TIP3   OH213145   2.917   1.225   1.185
 4401TIP3    H113146   2.906   1.317   1.163
 4401TIP3    H213147   2.830   1.187   1.173
 4402TIP3   OH213148   3.693   4.090   6.499
 4402TIP3    H113149   3.718   4.182   6.504
 4402TIP3    H213150   3.770   4.045   6.464
 4403TIP3   OH213151   7.262   6.340   4.060
 4403TIP3    H113152   7.177   6.371   4.094
 4403TIP3    H213153   7.288   6.407   3.997
 4404TIP3   OH213154   1.878   0.773   4.885
 4404TIP3    H113155   1.844   0.856   4.917
 4404TIP3    H213156   1.967   0.768   4.920
 4405TIP3   OH213157   6.473   6.001   1.848
 4405TIP3    H113158   6.441   5.913   1.828
 4405TIP3    H213159   6.514   6.031   1.767
 4406TIP3   OH213160   0.388   3.318   3.169
 4406TIP3    H113161   0.350   3.231   3.152
 4406TIP3    H213162   0.334   3.378   3.118
 4407TIP3   OH213163   8.147   1.543   4.070
 4407TIP3    H113164   8.176   1.468   4.123
 4407TIP3    H213165   8.053   1.549   4.085
 4408TIP3   OH213166   3.611   2.528   4.217
 4408TIP3    H113167   3.678   2.498   4.156
 4408TIP3    H213168   3.529   2.526   4.167
 4409TIP3   OH213169   8.168   1.802   5.029
 4409TIP3    H113170   8.192   1.749   5.105
 4409TIP3    H213171   8.171   1.892   5.060
 4410TIP3   OH213172   4.583   0.702   0.542
 4410TIP3    H113173   4.652   0.640   0.518
 4410TIP3    H213174   4.614   0.742   0.623
 4411TIP3   OH213175   0.934   4.909   1.608
 4411TIP3    H113176   0.997   4.842   1.636
 4411TIP3    H213177   0.982   4.963   1.545
 4412TIP3   OH213178   5.453   4.908   6.005
 4412TIP3    H113179   5.491   4.976   5.950
 4412TIP3    H213180   5.387   4.953   6.058
 4413TIP3   OH213181   7.737   1.024   6.072
 4413TIP3    H113182   7.813   1.066   6.032
 4413TIP3    H213183   7.719   0.949   6.015
 4414TIP3   OH213184   5.861   7.431   5.921
 4414TIP3    H113185   5.794   7.495   5.947
 4414TIP3    H213186   5.937   7.454   5.974
 4415TIP3   OH213187   1.108   1.062   5.044
 4415TIP3    H113188   1.047   1.136   5.056
 4415TIP3    H213189   1.165   1.066   5.121
 4416TIP3   OH213190   8.263   6.682   1.903
 4416TIP3    H113191   8.242   6.684   1.996
 4416TIP3    H213192   8.347   6.636   1.897
 4417TIP3   OH213193   0.499   3.997   0.055
 4417TIP3    H113194   0.495   3.951   0.139
 4417TIP3    H213195   0.470   4.086   0.076
 4418TIP3   OH213196   2.078   3.503   4.547
 4418TIP3    H113197   2.131   3.502   4.626
 4418TIP3    H213198   2.098   3.587   4.505
 4419TIP3   OH213199   6.426   2.509   6.330
 4419TIP3    H113200   6.515   2.536   6.304
 4419TIP3    H213201   6.374   2.518   6.250
 4420TIP3   OH213202   1.621   0.178   0.804
 4420TIP3    H113203   1.668   0.096   0.789
 4420TIP3    H213204   1.641   0.231   0.727
 4421TIP3   OH213205   4.294   4.164   1.830
 4421TIP3    H113206   4.333   4.241   1.871
 4421TIP3    H213207   4.226   4.136   1.890
 4422TIP3   OH213208   4.457   7.148   1.086
 4422TIP3    H113209   4.407   7.201   1.023
 4422TIP3    H213210   4.413   7.063   1.084
 4423TIP3   OH213211   5.866   5.170   6.056
 4423TIP3    H113212   5.918   5.091   6.063
 4423TIP3    H213213   5.784   5.150   6.101
 4424TIP3   OH213214   8.230   2.396   5.200
 4424TIP3    H113215   8.265   2.331   5.262
 4424TIP3    H213216   8.289   2.471   5.209
 4425TIP3   OH213217   4.898   4.154   2.283
 4425TIP3    H113218   4.876   4.086   2.218
 4425TIP3    H213219   4.835   4.224   2.267
 4426TIP3   OH213220   5.794   7.237   0.181
 4426TIP3    H113221   5.825   7.151   0.155
 4426TIP3    H213222   5.866   7.274   0.232
 4427TIP3   OH213223   8.098   2.306   4.110
 4427TIP3    H113224   8.016   2.277   4.071
 4427TIP3    H213225   8.165   2.281   4.047
 4428TIP3   OH213226   4.336   6.301   1.564
 4428TIP3    H113227   4.342   6.388   1.605
 4428TIP3    H213228   4.413   6.255   1.597
 4429TIP3   OH213229   5.268   7.043   4.550
 4429TIP3    H113230   5.307   6.991   4.621
 4429TIP3    H213231   5.342   7.070   4.496
 4430TIP3   OH213232   0.779   0.456   1.623
 4430TIP3    H113233   0.833   0.377   1.623
 4430TIP3    H213234   0.766   0.476   1.716
 4431TIP3   OH213235   4.677   1.391   5.057
 4431TIP3    H113236   4.739   1.390   4.984
 4431TIP3    H213237   4.640   1.302   5.059
 4432TIP3   OH213238   1.330   3.321   3.894
 4432TIP3    H113239   1.274   3.260   3.944
 4432TIP3    H213240   1.413   3.320   3.941
 4433TIP3   OH213241   4.398   4.073   4.363
 4433TIP3    H113242   4.457   4.142   4.331
 4433TIP3    H213243   4.396   4.009   4.292
 4434TIP3   OH213244   7.147   0.931   5.838
 4434TIP3    H113245   7.161   0.837   5.827
 4434TIP3    H213246   7.227   0.972   5.803
 4435TIP3   OH213247   2.865   6.849   6.420
 4435TIP3    H113248   2.886   6.772   6.367
 4435TIP3    H213249   2.838   6.916   6.357
 4436TIP3   OH213250   0.556   3.337   1.604
 4436TIP3    H113251   0.551   3.433   1.596
 4436TIP3    H213252   0.478   3.313   1.654
 4437TIP3   OH213253   7.237   6.352   2.576
 4437TIP3    H113254   7.326   6.336   2.545
 4437TIP3    H213255   7.248   6.388   2.664
 4438TIP3   OH213256   7.254   0.505   4.516
 4438TIP3    H113257   7.248   0.589   4.472
 4438TIP3    H213258   7.187   0.451   4.474
 4439TIP3   OH213259   5.529   3.513   0.523
 4439TIP3    H113260   5.501   3.473   0.605
 4439TIP3    H213261   5.547   3.439   0.465
 4440TIP3   OH213262   4.740   2.991   0.550
 4440TIP3    H113263   4.792   3.067   0.576
 4440TIP3    H213264   4.802   2.918   0.553
 4441TIP3   OH213265   2.669   4.569   5.576
 4441TIP3    H113266   2.627   4.645   5.535
 4441TIP3    H213267   2.695   4.514   5.502
 4442TIP3   OH213268   2.594   2.704   3.238
 4442TIP3    H113269   2.505   2.669   3.232
 4442TIP3    H213270   2.641   2.640   3.292
 4443TIP3   OH213271   5.216   3.761   3.357
 4443TIP3    H113272   5.186   3.831   3.299
 4443TIP3    H213273   5.307   3.746   3.331
 4444TIP3   OH213274   0.210   1.030   2.370
 4444TIP3    H113275   0.290   1.079   2.390
 4444TIP3    H213276   0.143   1.071   2.424
 4445TIP3   OH213277   3.782   5.845   0.255
 4445TIP3    H113278   3.809   5.833   0.347
 4445TIP3    H213279   3.844   5.791   0.205
 4446TIP3   OH213280   5.237   2.868   6.136
 4446TIP3    H113281   5.259   2.794   6.193
 4446TIP3    H213282   5.299   2.937   6.160
 4447TIP3   OH213283   5.044   7.493   2.594
 4447TIP3    H113284   5.008   7.546   2.523
 4447TIP3    H213285   5.068   7.556   2.662
 4448TIP3   OH213286   7.346   0.216   5.454
 4448TIP3    H113287   7.268   0.164   5.469
 4448TIP3    H213288   7.322   0.277   5.384
 4449TIP3   OH213289   6.139   4.401   0.448
 4449TIP3    H113290   6.155   4.328   0.508
 4449TIP3    H213291   6.166   4.367   0.362
 4450TIP3   OH213292   7.081   0.508   6.646
 4450TIP3    H113293   7.036   0.442   6.593
 4450TIP3    H213294   7.054   0.591   6.608
 4451TIP3   OH213295   3.341   2.660   4.811
 4451TIP3    H113296   3.389   2.610   4.745
 4451TIP3    H213297   3.289   2.723   4.761
 4452TIP3   OH213298   6.667   0.802   1.119
 4452TIP3    H113299   6.576   0.774   1.127
 4452TIP3    H213300   6.707   0.735   1.064
 4453TIP3   OH213301   7.295   0.061   1.197
 4453TIP3    H113302   7.323   0.134   1.142
 4453TIP3    H213303   7.199   0.059   1.188
 4454TIP3   OH213304   2.620   5.583   2.895
 4454TIP3    H113305   2.682   5.616   2.959
 4454TIP3    H213306   2.659   5.502   2.864
 4455TIP3   OH213307   0.717   3.411   4.319
 4455TIP3    H113308   0.806   3.446   4.314
 4455TIP3    H213309   0.663   3.474   4.273
 4456TIP3   OH213310   3.514   7.277   3.341
 4456TIP3    H113311   3.494   7.220   3.415
 4456TIP3    H213312   3.574   7.226   3.286
 4457TIP3   OH213313   0.491   2.081   6.322
 4457TIP3    H113314   0.511   2.014   6.388
 4457TIP3    H213315   0.411   2.050   6.280
 4458TIP3   OH213316   6.478   1.558   5.007
 4458TIP3    H113317   6.431   1.596   4.933
 4458TIP3    H213318   6.435   1.475   5.023
 4459TIP3   OH213319   5.836   5.242   4.454
 4459TIP3    H113320   5.851   5.165   4.398
 4459TIP3    H213321   5.801   5.205   4.535
 4460TIP3   OH213322   1.512   1.273   0.036
 4460TIP3    H113323   1.550   1.288  -0.051
 4460TIP3    H213324   1.572   1.211   0.077
 4461TIP3   OH213325   5.173   3.763   2.190
 4461TIP3    H113326   5.161   3.752   2.096
 4461TIP3    H213327   5.220   3.846   2.199
 4462TIP3   OH213328   4.197   3.517   2.771
 4462TIP3    H113329   4.133   3.449   2.791
 4462TIP3    H213330   4.266   3.472   2.723
 4463TIP3   OH213331   0.335   4.193   6.423
 4463TIP3    H113332   0.389   4.258   6.467
 4463TIP3    H213333   0.398   4.137   6.377
 4464TIP3   OH213334   1.011   4.617   1.376
 4464TIP3    H113335   1.009   4.538   1.430
 4464TIP3    H213336   1.007   4.689   1.439
 4465TIP3   OH213337   2.258   3.427   0.528
 4465TIP3    H113338   2.199   3.491   0.569
 4465TIP3    H213339   2.264   3.455   0.436
 4466TIP3   OH213340   2.546   0.263   0.837
 4466TIP3    H113341   2.505   0.350   0.838
 4466TIP3    H213342   2.638   0.280   0.819
 4467TIP3   OH213343   3.987   2.276   1.040
 4467TIP3    H113344   3.997   2.256   1.133
 4467TIP3    H213345   4.068   2.322   1.017
 4468TIP3   OH213346   3.458   7.261   5.062
 4468TIP3    H113347   3.416   7.183   5.099
 4468TIP3    H213348   3.548   7.257   5.092
 4469TIP3   OH213349   3.628   3.813   1.510
 4469TIP3    H113350   3.610   3.901   1.542
 4469TIP3    H213351   3.688   3.776   1.574
 4470TIP3   OH213352   2.982   4.557   0.200
 4470TIP3    H113353   2.932   4.638   0.215
 4470TIP3    H213354   3.072   4.580   0.223
 4471TIP3   OH213355   7.323   7.768   6.249
 4471TIP3    H113356   7.356   7.683   6.220
 4471TIP3    H213357   7.395   7.805   6.300
 4472TIP3   OH213358   7.098   3.523   1.819
 4472TIP3    H113359   7.081   3.617   1.821
 4472TIP3    H213360   7.109   3.498   1.911
 4473TIP3   OH213361   4.538   6.421   5.672
 4473TIP3    H113362   4.523   6.484   5.601
 4473TIP3    H213363   4.456   6.419   5.721
 4474TIP3   OH213364   5.041   7.632   4.587
 4474TIP3    H113365   5.104   7.703   4.575
 4474TIP3    H213366   4.986   7.661   4.660
 4475TIP3   OH213367   7.251   4.858   2.114
 4475TIP3    H113368   7.205   4.802   2.051
 4475TIP3    H213369   7.191   4.864   2.189
 4476TIP3   OH213370   0.556   2.135   2.804
 4476TIP3    H113371   0.629   2.183   2.845
 4476TIP3    H213372   0.478   2.185   2.827
 4477TIP3   OH213373   1.331   2.093   2.970
 4477TIP3    H113374   1.359   2.008   2.934
 4477TIP3    H213375   1.303   2.143   2.894
 4478TIP3   OH213376   6.382   6.648   0.555
 4478TIP3    H113377   6.319   6.651   0.483
 4478TIP3    H213378   6.401   6.555   0.566
 4479TIP3   OH213379   5.873   7.150   5.835
 4479TIP3    H113380   5.884   7.105   5.919
 4479TIP3    H213381   5.858   7.241   5.858
 4480TIP3   OH213382   3.216   2.763   3.334
 4480TIP3    H113383   3.282   2.822   3.296
 4480TIP3    H213384   3.133   2.806   3.317
 4481TIP3   OH213385   4.559   3.526   1.732
 4481TIP3    H113386   4.642   3.478   1.732
 4481TIP3    H213387   4.574   3.598   1.795
 4482TIP3   OH213388   2.208   4.943   4.694
 4482TIP3    H113389   2.123   4.946   4.650
 4482TIP3    H213390   2.247   5.028   4.677
 4483TIP3   OH213391   4.111   3.163   1.184
 4483TIP3    H113392   4.059   3.233   1.224
 4483TIP3    H213393   4.200   3.199   1.178
 4484TIP3   OH213394   8.250   0.842   4.687
 4484TIP3    H113395   8.275   0.928   4.654
 4484TIP3    H213396   8.316   0.782   4.652
 4485TIP3   OH213397   7.252   1.174  -0.002
 4485TIP3    H113398   7.274   1.226   0.076
 4485TIP3    H213399   7.330   1.180  -0.057
 4486TIP3   OH213400   3.138   1.702   5.315
 4486TIP3    H113401   3.233   1.706   5.318
 4486TIP3    H213402   3.110   1.739   5.399
 4487TIP3   OH213403   2.400   0.604   5.573
 4487TIP3    H113404   2.489   0.571   5.572
 4487TIP3    H213405   2.401   0.678   5.512
 4488TIP3   OH213406   2.757   5.102   6.723
 4488TIP3    H113407   2.766   5.134   6.633
 4488TIP3    H213408   2.848   5.087   6.752
 4489TIP3   OH213409   2.275   5.746   1.993
 4489TIP3    H113410   2.323   5.745   1.910
 4489TIP3    H213411   2.260   5.654   2.013
 4490TIP3   OH213412   7.097   3.050   5.726
 4490TIP3    H113413   7.051   3.089   5.651
 4490TIP3    H213414   7.063   2.961   5.732
 4491TIP3   OH213415   0.089   1.168   3.253
 4491TIP3    H113416   0.079   1.261   3.235
 4491TIP3    H213417   0.103   1.163   3.348
 4492TIP3   OH213418   2.300   2.782   5.162
 4492TIP3    H113419   2.276   2.767   5.253
 4492TIP3    H213420   2.371   2.719   5.145
 4493TIP3   OH213421   7.675   1.297   4.683
 4493TIP3    H113422   7.616   1.358   4.638
 4493TIP3    H213423   7.753   1.350   4.703
 4494TIP3   OH213424   3.095   7.108   2.533
 4494TIP3    H113425   3.128   7.198   2.531
 4494TIP3    H213426   3.033   7.104   2.461
 4495TIP3   OH213427   1.505   6.577   1.705
 4495TIP3    H113428   1.454   6.498   1.726
 4495TIP3    H213429   1.499   6.585   1.610
 4496TIP3   OH213430   6.031   5.519   3.186
 4496TIP3    H113431   6.065   5.508   3.098
 4496TIP3    H213432   5.951   5.570   3.175
 4497TIP3   OH213433   7.501   4.611   5.631
 4497TIP3    H113434   7.428   4.622   5.692
 4497TIP3    H213435   7.566   4.562   5.681
 4498TIP3   OH213436   1.767   0.992   2.262
 4498TIP3    H113437   1.760   1.055   2.190
 4498TIP3    H213438   1.706   0.922   2.238
 4499TIP3   OH213439   1.878   1.988   6.214
 4499TIP3    H113440   1.808   1.927   6.192
 4499TIP3    H213441   1.930   1.994   6.134
 4500TIP3   OH213442   6.393   4.799   1.310
 4500TIP3    H113443   6.474   4.849   1.302
 4500TIP3    H213444   6.396   4.763   1.399
 4501TIP3   OH213445   5.912   2.299   0.689
 4501TIP3    H113446   5.885   2.306   0.598
 4501TIP3    H213447   5.917   2.204   0.706
 4502TIP3   OH213448   6.875   6.753   5.512
 4502TIP3    H113449   6.816   6.700   5.459
 4502TIP3    H213450   6.941   6.786   5.450
 4503TIP3   OH213451   3.594   3.026   4.236
 4503TIP3    H113452   3.610   3.087   4.164
 4503TIP3    H213453   3.499   3.022   4.243
 4504TIP3   OH213454   6.646   1.617   3.330
 4504TIP3    H113455   6.587   1.680   3.370
 4504TIP3    H213456   6.654   1.547   3.395
 4505TIP3   OH213457   0.178   2.227   4.048
 4505TIP3    H113458   0.181   2.176   3.968
 4505TIP3    H213459   0.190   2.163   4.119
 4506TIP3   OH213460   6.904   5.013   4.853
 4506TIP3    H113461   6.935   4.954   4.922
 4506TIP3    H213462   6.821   5.047   4.887
 4507TIP3   OH213463   0.224   6.425   0.673
 4507TIP3    H113464   0.215   6.407   0.767
 4507TIP3    H213465   0.317   6.443   0.660
 4508TIP3   OH213466   5.382   7.042   4.956
 4508TIP3    H113467   5.446   7.046   5.027
 4508TIP3    H213468   5.413   7.106   4.892
 4509TIP3   OH213469   6.682   4.252   3.667
 4509TIP3    H113470   6.755   4.278   3.610
 4509TIP3    H213471   6.607   4.247   3.608
 4510TIP3   OH213472   5.172   2.218   5.388
 4510TIP3    H113473   5.185   2.243   5.296
 4510TIP3    H213474   5.255   2.178   5.414
 4511TIP3   OH213475   4.888   7.430   3.301
 4511TIP3    H113476   4.837   7.375   3.360
 4511TIP3    H213477   4.878   7.389   3.215
 4512TIP3   OH213478   3.950   1.035   0.902
 4512TIP3    H113479   3.899   1.044   0.983
 4512TIP3    H213480   3.885   1.044   0.832
 4513TIP3   OH213481   4.610   0.792   1.791
 4513TIP3    H113482   4.584   0.881   1.817
 4513TIP3    H213483   4.660   0.805   1.710
 4514TIP3   OH213484   0.265   1.752   3.268
 4514TIP3    H113485   0.218   1.737   3.350
 4514TIP3    H213486   0.341   1.804   3.293
 4515TIP3   OH213487   3.700   4.987   5.545
 4515TIP3    H113488   3.722   5.002   5.637
 4515TIP3    H213489   3.605   4.973   5.546
 4516TIP3   OH213490   4.705   1.156   4.378
 4516TIP3    H113491   4.661   1.220   4.322
 4516TIP3    H213492   4.739   1.090   4.318
 4517TIP3   OH213493   0.796   1.051   3.141
 4517TIP3    H113494   0.706   1.069   3.170
 4517TIP3    H213495   0.786   0.984   3.073
 4518TIP3   OH213496   2.329   4.915   0.616
 4518TIP3    H113497   2.277   4.858   0.673
 4518TIP3    H213498   2.347   4.862   0.539
 4519TIP3   OH213499   8.082   4.666   4.972
 4519TIP3    H113500   8.115   4.623   4.893
 4519TIP3    H213501   7.986   4.661   4.963
 4520TIP3   OH213502   2.550   0.975   5.352
 4520TIP3    H113503   2.597   1.058   5.338
 4520TIP3    H213504   2.588   0.940   5.433
 4521TIP3   OH213505   6.766   4.850   5.615
 4521TIP3    H113506   6.818   4.924   5.646
 4521TIP3    H213507   6.718   4.821   5.693
 4522TIP3   OH213508   1.576   7.516   3.336
 4522TIP3    H113509   1.647   7.475   3.385
 4522TIP3    H213510   1.603   7.510   3.245
 4523TIP3   OH213511   5.734   1.535   1.407
 4523TIP3    H113512   5.784   1.458   1.435
 4523TIP3    H213513   5.793   1.608   1.421
 4524TIP3   OH213514   2.433   0.500   2.430
 4524TIP3    H113515   2.403   0.491   2.520
 4524TIP3    H213516   2.491   0.425   2.417
 4525TIP3   OH213517   3.678   0.700   5.902
 4525TIP3    H113518   3.748   0.692   5.967
 4525TIP3    H213519   3.610   0.751   5.945
 4526TIP3   OH213520   3.374   7.351   2.239
 4526TIP3    H113521   3.341   7.269   2.202
 4526TIP3    H213522   3.295   7.404   2.253
 4527TIP3   OH213523   0.466   6.797   2.417
 4527TIP3    H113524   0.538   6.735   2.427
 4527TIP3    H213525   0.389   6.742   2.401
 4528TIP3   OH213526   5.957   1.025   2.785
 4528TIP3    H113527   5.900   1.014   2.861
 4528TIP3    H213528   6.034   1.070   2.818
 4529TIP3   OH213529   2.515   5.569   2.185
 4529TIP3    H113530   2.570   5.522   2.122
 4529TIP3    H213531   2.426   5.539   2.165
 4530TIP3   OH213532   4.491   4.727   2.327
 4530TIP3    H113533   4.582   4.708   2.347
 4530TIP3    H213534   4.481   4.821   2.343
 4531TIP3   OH213535   3.704   6.773   3.529
 4531TIP3    H113536   3.762   6.788   3.604
 4531TIP3    H213537   3.712   6.679   3.512
 4532TIP3   OH213538   6.421   5.186   1.899
 4532TIP3    H113539   6.335   5.186   1.941
 4532TIP3    H213540   6.409   5.240   1.821
 4533TIP3   OH213541   7.784   0.060   4.884
 4533TIP3    H113542   7.866   0.033   4.843
 4533TIP3    H213543   7.775   0.153   4.862
 4534TIP3   OH213544   5.334   2.211   5.937
 4534TIP3    H113545   5.264   2.153   5.968
 4534TIP3    H213546   5.415   2.171   5.971
 4535TIP3   OH213547   4.759   1.133   0.666
 4535TIP3    H113548   4.687   1.090   0.621
 4535TIP3    H213549   4.834   1.122   0.608
 4536TIP3   OH213550   0.359   0.197   4.186
 4536TIP3    H113551   0.385   0.143   4.261
 4536TIP3    H213552   0.420   0.173   4.117
 4537TIP3   OH213553   5.547   5.943   4.941
 4537TIP3    H113554   5.552   5.929   4.846
 4537TIP3    H213555   5.552   6.038   4.952
 4538TIP3   OH213556   8.297   0.133   0.779
 4538TIP3    H113557   8.213   0.156   0.740
 4538TIP3    H213558   8.277   0.062   0.840
 4539TIP3   OH213559   4.456   5.552   3.428
 4539TIP3    H113560   4.376   5.540   3.478
 4539TIP3    H213561   4.434   5.525   3.339
 4540TIP3   OH213562   4.462   6.739   1.629
 4540TIP3    H113563   4.530   6.675   1.606
 4540TIP3    H213564   4.393   6.686   1.669
 4541TIP3   OH213565   3.455   0.751   1.164
 4541TIP3    H113566   3.453   0.685   1.233
 4541TIP3    H213567   3.363   0.768   1.144
 4542TIP3   OH213568   3.949   0.194   4.696
 4542TIP3    H113569   3.885   0.250   4.742
 4542TIP3    H213570   4.007   0.162   4.766
 4543TIP3   OH213571   7.150   2.190   5.504
 4543TIP3    H113572   7.127   2.146   5.586
 4543TIP3    H213573   7.095   2.268   5.502
 4544TIP3   OH213574   8.194   6.131   0.996
 4544TIP3    H113575   8.168   6.195   0.930
 4544TIP3    H213576   8.184   6.177   1.079
 4545TIP3   OH213577   2.827   5.621   3.064
 4545TIP3    H113578   2.903   5.667   3.030
 4545TIP3    H213579   2.826   5.640   3.157
 4546TIP3   OH213580   1.497   0.765   5.380
 4546TIP3    H113581   1.505   0.676   5.414
 4546TIP3    H213582   1.411   0.795   5.410
 4547TIP3   OH213583   5.784   7.648   0.479
 4547TIP3    H113584   5.802   7.741   0.494
 4547TIP3    H213585   5.824   7.604   0.554
 4548TIP3   OH213586   2.767   3.225   2.417
 4548TIP3    H113587   2.750   3.316   2.393
 4548TIP3    H213588   2.698   3.175   2.375
 4549TIP3   OH213589   4.472   3.383   4.353
 4549TIP3    H113590   4.420   3.436   4.414
 4549TIP3    H213591   4.489   3.302   4.401
 4550TIP3   OH213592   0.202   3.850   6.455
 4550TIP3    H113593   0.126   3.816   6.501
 4550TIP3    H213594   0.167   3.883   6.372
 4551TIP3   OH213595   7.982   6.499   4.099
 4551TIP3    H113596   8.042   6.454   4.159
 4551TIP3    H213597   8.032   6.508   4.017
 4552TIP3   OH213598   4.057   2.712   5.356
 4552TIP3    H113599   4.029   2.758   5.435
 4552TIP3    H213600   4.018   2.625   5.363
 4553TIP3   OH213601   7.866   6.519   2.254
 4553TIP3    H113602   7.873   6.433   2.214
 4553TIP3    H213603   7.876   6.580   2.180
 4554TIP3   OH213604   1.649   5.281   5.627
 4554TIP3    H113605   1.673   5.216   5.561
 4554TIP3    H213606   1.724   5.285   5.685
 4555TIP3   OH213607   1.306   4.095   3.141
 4555TIP3    H113608   1.282   4.186   3.123
 4555TIP3    H213609   1.398   4.100   3.168
 4556TIP3   OH213610   3.684   2.371   1.240
 4556TIP3    H113611   3.661   2.285   1.274
 4556TIP3    H213612   3.616   2.429   1.274
 4557TIP3   OH213613   2.101   3.164   2.646
 4557TIP3    H113614   2.071   3.248   2.610
 4557TIP3    H213615   2.168   3.134   2.584
 4558TIP3   OH213616   4.850   3.366   6.751
 4558TIP3    H113617   4.941   3.386   6.730
 4558TIP3    H213618   4.817   3.319   6.674
 4559TIP3   OH213619   2.376   3.425   0.781
 4559TIP3    H113620   2.450   3.368   0.761
 4559TIP3    H213621   2.329   3.433   0.698
 4560TIP3   OH213622   2.006   1.016   3.859
 4560TIP3    H113623   1.978   0.943   3.804
 4560TIP3    H213624   1.995   1.094   3.803
 4561TIP3   OH213625   4.510   0.891   4.139
 4561TIP3    H113626   4.480   0.854   4.222
 4561TIP3    H213627   4.494   0.822   4.075
 4562TIP3   OH213628   4.789   3.088   0.296
 4562TIP3    H113629   4.719   3.126   0.350
 4562TIP3    H213630   4.838   3.033   0.356
 4563TIP3   OH213631   7.818   4.913   6.195
 4563TIP3    H113632   7.850   4.901   6.105
 4563TIP3    H213633   7.726   4.938   6.184
 4564TIP3   OH213634   3.664   0.832   4.920
 4564TIP3    H113635   3.749   0.863   4.951
 4564TIP3    H213636   3.606   0.843   4.996
 4565TIP3   OH213637   6.129   3.215   3.729
 4565TIP3    H113638   6.167   3.267   3.659
 4565TIP3    H213639   6.183   3.235   3.806
 4566TIP3   OH213640   3.103   1.761   3.638
 4566TIP3    H113641   3.150   1.698   3.692
 4566TIP3    H213642   3.033   1.794   3.696
 4567TIP3   OH213643   1.426   1.852   3.493
 4567TIP3    H113644   1.380   1.935   3.476
 4567TIP3    H213645   1.518   1.877   3.503
 4568TIP3   OH213646   8.087   0.964   4.040
 4568TIP3    H113647   8.148   0.917   4.098
 4568TIP3    H213648   8.024   0.897   4.012
 4569TIP3   OH213649   1.242   0.422   0.992
 4569TIP3    H113650   1.175   0.359   1.019
 4569TIP3    H213651   1.284   0.381   0.917
 4570TIP3   OH213652   3.849   2.183   4.093
 4570TIP3    H113653   3.798   2.217   4.020
 4570TIP3    H213654   3.872   2.261   4.144
 4571TIP3   OH213655   3.065   2.530   5.305
 4571TIP3    H113656   3.081   2.624   5.305
 4571TIP3    H213657   3.135   2.493   5.251
 4572TIP3   OH213658   1.555   5.634   2.499
 4572TIP3    H113659   1.512   5.714   2.527
 4572TIP3    H213660   1.572   5.646   2.406
 4573TIP3   OH213661   4.184   4.722   6.332
 4573TIP3    H113662   4.104   4.772   6.343
 4573TIP3    H213663   4.154   4.632   6.313
 4574TIP3   OH213664   7.593   7.544   6.134
 4574TIP3    H113665   7.627   7.609   6.073
 4574TIP3    H213666   7.633   7.567   6.218
 4575TIP3   OH213667   0.192   5.242   2.315
 4575TIP3    H113668   0.205   5.235   2.410
 4575TIP3    H213669   0.125   5.177   2.295
 4576TIP3   OH213670   4.524   0.644   2.663
 4576TIP3    H113671   4.520   0.684   2.749
 4576TIP3    H213672   4.449   0.584   2.661
 4577TIP3   OH213673   2.700   6.011   6.352
 4577TIP3    H113674   2.728   5.977   6.267
 4577TIP3    H213675   2.622   5.960   6.374
 4578TIP3   OH213676   1.038   2.547   5.265
 4578TIP3    H113677   1.005   2.475   5.318
 4578TIP3    H213678   1.117   2.576   5.310
 4579TIP3   OH213679   3.478   2.719   2.795
 4579TIP3    H113680   3.534   2.657   2.841
 4579TIP3    H213681   3.480   2.690   2.704
 4580TIP3   OH213682   6.284   6.365   0.709
 4580TIP3    H113683   6.203   6.315   0.705
 4580TIP3    H213684   6.348   6.310   0.664
 4581TIP3   OH213685   0.656   7.283   2.409
 4581TIP3    H113686   0.675   7.211   2.350
 4581TIP3    H213687   0.562   7.299   2.399
 4582TIP3   OH213688   6.982   5.428   6.310
 4582TIP3    H113689   7.031   5.392   6.236
 4582TIP3    H213690   7.035   5.502   6.339
 4583TIP3   OH213691   1.158   4.706   6.037
 4583TIP3    H113692   1.188   4.748   5.956
 4583TIP3    H213693   1.196   4.618   6.033
 4584TIP3   OH213694   7.311   7.266   1.838
 4584TIP3    H113695   7.333   7.253   1.746
 4584TIP3    H213696   7.297   7.178   1.872
 4585TIP3   OH213697   3.553   2.588   1.616
 4585TIP3    H113698   3.542   2.537   1.697
 4585TIP3    H213699   3.507   2.670   1.633
 4586TIP3   OH213700   6.838   3.088   0.200
 4586TIP3    H113701   6.872   3.052   0.118
 4586TIP3    H213702   6.760   3.037   0.218
 4587TIP3   OH213703   3.498   0.307   2.235
 4587TIP3    H113704   3.515   0.398   2.209
 4587TIP3    H213705   3.414   0.310   2.280
 4588TIP3   OH213706   6.922   7.075   0.882
 4588TIP3    H113707   6.883   6.988   0.873
 4588TIP3    H213708   6.950   7.097   0.794
 4589TIP3   OH213709   6.529   6.652   3.917
 4589TIP3    H113710   6.583   6.709   3.863
 4589TIP3    H213711   6.440   6.665   3.884
 4590TIP3   OH213712   6.407   1.086   1.129
 4590TIP3    H113713   6.478   1.139   1.164
 4590TIP3    H213714   6.447   1.001   1.110
 4591TIP3   OH213715   6.138   0.341   3.933
 4591TIP3    H113716   6.215   0.382   3.970
 4591TIP3    H213717   6.097   0.410   3.880
 4592TIP3   OH213718   5.982   1.660   4.967
 4592TIP3    H113719   6.042   1.718   4.919
 4592TIP3    H213720   5.947   1.715   5.037
 4593TIP3   OH213721   2.633   6.878   1.066
 4593TIP3    H113722   2.639   6.894   0.972
 4593TIP3    H213723   2.592   6.791   1.074
 4594TIP3   OH213724   5.282   0.995   0.412
 4594TIP3    H113725   5.321   0.908   0.401
 4594TIP3    H213726   5.204   0.994   0.357
 4595TIP3   OH213727   1.651   1.303   1.474
 4595TIP3    H113728   1.595   1.375   1.446
 4595TIP3    H213729   1.722   1.302   1.409
 4596TIP3   OH213730   6.146   0.560   4.862
 4596TIP3    H113731   6.094   0.640   4.867
 4596TIP3    H213732   6.125   0.511   4.941
 4597TIP3   OH213733   1.063   0.768   2.284
 4597TIP3    H113734   1.096   0.850   2.320
 4597TIP3    H213735   0.968   0.776   2.287
 4598TIP3   OH213736   0.813   3.906   0.785
 4598TIP3    H113737   0.893   3.853   0.791
 4598TIP3    H213738   0.758   3.874   0.855
 4599TIP3   OH213739   3.266   3.353   3.415
 4599TIP3    H113740   3.212   3.407   3.473
 4599TIP3    H213741   3.240   3.380   3.327
 4600TIP3   OH213742   6.261   2.459   4.576
 4600TIP3    H113743   6.252   2.372   4.615
 4600TIP3    H213744   6.324   2.504   4.632
 4601TIP3   OH213745   1.717   1.702   6.220
 4601TIP3    H113746   1.726   1.648   6.299
 4601TIP3    H213747   1.790   1.675   6.164
 4602TIP3   OH213748   4.223   7.534   5.019
 4602TIP3    H113749   4.155   7.521   4.953
 4602TIP3    H213750   4.216   7.626   5.044
 4603TIP3   OH213751   7.484   2.491   0.116
 4603TIP3    H113752   7.452   2.566   0.167
 4603TIP3    H213753   7.543   2.445   0.176
 4604TIP3   OH213754   5.260   1.604   6.112
 4604TIP3    H113755   5.262   1.509   6.119
 4604TIP3    H213756   5.168   1.628   6.123
 4605TIP3   OH213757   2.042   7.026   6.621
 4605TIP3    H113758   2.021   7.118   6.603
 4605TIP3    H213759   2.104   7.001   6.554
 4606TIP3   OH213760   5.629   2.505   2.138
 4606TIP3    H113761   5.534   2.504   2.131
 4606TIP3    H213762   5.653   2.414   2.152
 4607TIP3   OH213763   4.077   1.209   3.246
 4607TIP3    H113764   4.071   1.149   3.321
 4607TIP3    H213765   4.169   1.208   3.223
 4608TIP3   OH213766   4.289   4.396   5.200
 4608TIP3    H113767   4.361   4.384   5.138
 4608TIP3    H213768   4.253   4.482   5.178
 4609TIP3   OH213769   4.258   0.203   5.763
 4609TIP3    H113770   4.222   0.290   5.778
 4609TIP3    H213771   4.347   0.208   5.800
 4610TIP3   OH213772   7.398   4.494   4.253
 4610TIP3    H113773   7.379   4.583   4.284
 4610TIP3    H213774   7.317   4.445   4.268
 4611TIP3   OH213775   5.040   1.358   5.298
 4611TIP3    H113776   5.051   1.315   5.213
 4611TIP3    H213777   5.112   1.421   5.302
 4612TIP3   OH213778   0.574   7.749   2.366
 4612TIP3    H113779   0.558   7.655   2.375
 4612TIP3    H213780   0.662   7.755   2.327
 4613TIP3   OH213781   4.115   1.917   2.265
 4613TIP3    H113782   4.045   1.895   2.327
 4613TIP3    H213783   4.185   1.953   2.320
 4614TIP3   OH213784   1.829   6.706   1.083
 4614TIP3    H113785   1.762   6.754   1.034
 4614TIP3    H213786   1.900   6.694   1.021
 4615TIP3   OH213787   0.920   0.511   2.413
 4615TIP3    H113788   0.939   0.419   2.392
 4615TIP3    H213789   0.867   0.542   2.340
 4616TIP3   OH213790   3.194   3.303   2.627
 4616TIP3    H113791   3.289   3.301   2.629
 4616TIP3    H213792   3.167   3.242   2.696
 4617TIP3   OH213793   0.300   3.552   4.705
 4617TIP3    H113794   0.279   3.569   4.797
 4617TIP3    H213795   0.366   3.482   4.709
 4618TIP3   OH213796   5.282   2.374   1.129
 4618TIP3    H113797   5.340   2.342   1.199
 4618TIP3    H213798   5.326   2.348   1.048
 4619TIP3   OH213799   7.686   5.649   5.784
 4619TIP3    H113800   7.679   5.554   5.787
 4619TIP3    H213801   7.668   5.678   5.873
 4620TIP3   OH213802   4.050   1.047   4.652
 4620TIP3    H113803   3.990   1.103   4.701
 4620TIP3    H213804   4.041   1.075   4.561
 4621TIP3   OH213805   6.328   2.413   4.957
 4621TIP3    H113806   6.385   2.339   4.976
 4621TIP3    H213807   6.359   2.446   4.872
 4622TIP3   OH213808   7.492   3.840   5.042
 4622TIP3    H113809   7.568   3.801   4.998
 4622TIP3    H213810   7.416   3.804   4.996
 4623TIP3   OH213811   5.420   4.228   4.809
 4623TIP3    H113812   5.430   4.308   4.759
 4623TIP3    H213813   5.446   4.251   4.898
 4624TIP3   OH213814   8.032   0.644   2.052
 4624TIP3    H113815   7.989   0.575   2.103
 4624TIP3    H213816   8.117   0.607   2.029
 4625TIP3   OH213817   5.013   6.061   2.852
 4625TIP3    H113818   4.941   6.039   2.911
 4625TIP3    H213819   4.974   6.065   2.765
 4626TIP3   OH213820   5.368   7.527   6.696
 4626TIP3    H113821   5.344   7.509   6.786
 4626TIP3    H213822   5.452   7.573   6.701
 4627TIP3   OH213823   0.963   7.114   3.339
 4627TIP3    H113824   0.914   7.129   3.420
 4627TIP3    H213825   0.929   7.031   3.305
 4628TIP3   OH213826   0.638   0.941   5.561
 4628TIP3    H113827   0.613   0.850   5.573
 4628TIP3    H213828   0.646   0.952   5.467
 4629TIP3   OH213829   2.280   7.690   5.755
 4629TIP3    H113830   2.238   7.625   5.699
 4629TIP3    H213831   2.214   7.710   5.821
 4630TIP3   OH213832   2.744   0.115   0.510
 4630TIP3    H113833   2.753   0.192   0.566
 4630TIP3    H213834   2.707   0.047   0.567
 4631TIP3   OH213835   1.040   3.413   1.624
 4631TIP3    H113836   0.996   3.445   1.545
 4631TIP3    H213837   1.081   3.331   1.597
 4632TIP3   OH213838   7.387   0.648   5.135
 4632TIP3    H113839   7.389   0.649   5.231
 4632TIP3    H213840   7.448   0.579   5.110
 4633TIP3   OH213841   2.513   2.982   6.760
 4633TIP3    H113842   2.445   2.977   6.693
 4633TIP3    H213843   2.573   3.050   6.729
 4634TIP3   OH213844   3.812   0.704   5.206
 4634TIP3    H113845   3.748   0.687   5.137
 4634TIP3    H213846   3.774   0.665   5.285
 4635TIP3   OH213847   1.109   2.911   1.754
 4635TIP3    H113848   1.044   2.877   1.692
 4635TIP3    H213849   1.090   3.004   1.760
 4636TIP3   OH213850   6.948   2.185   4.058
 4636TIP3    H113851   6.868   2.187   4.109
 4636TIP3    H213852   6.932   2.247   3.986
 4637TIP3   OH213853   1.698   7.800   3.888
 4637TIP3    H113854   1.756   7.749   3.944
 4637TIP3    H213855   1.748   7.878   3.865
 4638TIP3   OH213856   5.202   3.676   3.793
 4638TIP3    H113857   5.156   3.748   3.836
 4638TIP3    H213858   5.294   3.703   3.795
 4639TIP3   OH213859   1.317   5.547   6.503
 4639TIP3    H113860   1.241   5.492   6.521
 4639TIP3    H213861   1.391   5.487   6.500
 4640TIP3   OH213862   5.328   1.380   2.119
 4640TIP3    H113863   5.368   1.396   2.204
 4640TIP3    H213864   5.234   1.385   2.136
 4641TIP3   OH213865   3.786   7.434   2.385
 4641TIP3    H113866   3.752   7.364   2.441
 4641TIP3    H213867   3.733   7.511   2.408
 4642TIP3   OH213868   5.431   1.423   4.440
 4642TIP3    H113869   5.511   1.476   4.446
 4642TIP3    H213870   5.401   1.415   4.530
 4643TIP3   OH213871   4.071   2.659   2.567
 4643TIP3    H113872   4.157   2.621   2.587
 4643TIP3    H213873   4.050   2.713   2.643
 4644TIP3   OH213874   0.272   5.688   5.721
 4644TIP3    H113875   0.351   5.639   5.745
 4644TIP3    H213876   0.206   5.657   5.784
 4645TIP3   OH213877   7.958   1.283   6.561
 4645TIP3    H113878   7.911   1.237   6.491
 4645TIP3    H213879   7.934   1.237   6.641
 4646TIP3   OH213880   0.518   4.996   5.833
 4646TIP3    H113881   0.554   5.025   5.749
 4646TIP3    H213882   0.438   4.950   5.810
 4647TIP3   OH213883   1.758   1.174   6.702
 4647TIP3    H113884   1.790   1.245   6.645
 4647TIP3    H213885   1.744   1.100   6.643
 4648TIP3   OH213886   6.796   6.562   0.499
 4648TIP3    H113887   6.873   6.510   0.474
 4648TIP3    H213888   6.723   6.522   0.452
 4649TIP3   OH213889   5.729   7.421   3.943
 4649TIP3    H113890   5.804   7.433   4.001
 4649TIP3    H213891   5.682   7.347   3.979
 4650TIP3   OH213892   4.494   0.815   3.672
 4650TIP3    H113893   4.408   0.854   3.687
 4650TIP3    H213894   4.481   0.722   3.687
 4651TIP3   OH213895   6.638   5.099   0.850
 4651TIP3    H113896   6.564   5.079   0.907
 4651TIP3    H213897   6.715   5.088   0.905
 4652TIP3   OH213898   6.309   6.517   5.737
 4652TIP3    H113899   6.308   6.606   5.702
 4652TIP3    H213900   6.278   6.526   5.827
 4653TIP3   OH213901   7.007   7.290   0.037
 4653TIP3    H113902   6.957   7.244  -0.030
 4653TIP3    H213903   6.974   7.256   0.120
 4654TIP3   OH213904   3.152   0.871   1.462
 4654TIP3    H113905   3.093   0.945   1.445
 4654TIP3    H213906   3.213   0.872   1.388
 4655TIP3   OH213907   4.813   4.800   2.182
 4655TIP3    H113908   4.888   4.773   2.129
 4655TIP3    H213909   4.763   4.859   2.125
 4656TIP3   OH213910   7.831   1.075   1.824
 4656TIP3    H113911   7.917   1.074   1.783
 4656TIP3    H213912   7.820   1.165   1.855
 4657TIP3   OH213913   1.624   5.638   1.360
 4657TIP3    H113914   1.546   5.673   1.403
 4657TIP3    H213915   1.696   5.661   1.419
 4658TIP3   OH213916   1.379   3.633   5.468
 4658TIP3    H113917   1.459   3.686   5.466
 4658TIP3    H213918   1.364   3.614   5.561
 4659TIP3   OH213919   8.026   0.668   3.725
 4659TIP3    H113920   8.025   0.573   3.708
 4659TIP3    H213921   8.003   0.676   3.817
 4660TIP3   OH213922   2.515   4.644   4.526
 4660TIP3    H113923   2.491   4.700   4.452
 4660TIP3    H213924   2.607   4.664   4.543
 4661TIP3   OH213925   4.439   3.376   0.167
 4661TIP3    H113926   4.504   3.320   0.209
 4661TIP3    H213927   4.424   3.447   0.229
 4662TIP3   OH213928   7.084   2.023   4.459
 4662TIP3    H113929   7.146   1.966   4.414
 4662TIP3    H213930   7.003   1.973   4.463
 4663TIP3   OH213931   7.653   3.830   5.533
 4663TIP3    H113932   7.711   3.804   5.461
 4663TIP3    H213933   7.644   3.925   5.524
 4664TIP3   OH213934   8.256   7.452   5.242
 4664TIP3    H113935   8.272   7.462   5.148
 4664TIP3    H213936   8.195   7.523   5.263
 4665TIP3   OH213937   2.542   0.237   2.404
 4665TIP3    H113938   2.469   0.189   2.443
 4665TIP3    H213939   2.580   0.176   2.342
 4666TIP3   OH213940   5.160   1.436   0.187
 4666TIP3    H113941   5.107   1.432   0.107
 4666TIP3    H213942   5.250   1.428   0.156
 4667TIP3   OH213943   5.871   6.833   4.439
 4667TIP3    H113944   5.929   6.778   4.492
 4667TIP3    H213945   5.855   6.910   4.493
 4668TIP3   OH213946   5.807   2.335   3.720
 4668TIP3    H113947   5.756   2.320   3.800
 4668TIP3    H213948   5.818   2.248   3.683
 4669TIP3   OH213949   6.181   6.044   2.710
 4669TIP3    H113950   6.178   5.963   2.760
 4669TIP3    H213951   6.252   6.095   2.750
 4670TIP3   OH213952   3.213   7.412   1.455
 4670TIP3    H113953   3.177   7.371   1.376
 4670TIP3    H213954   3.209   7.506   1.437
 4671TIP3   OH213955   7.216   0.251   2.266
 4671TIP3    H113956   7.231   0.302   2.186
 4671TIP3    H213957   7.152   0.302   2.315
 4672TIP3   OH213958   1.970   6.652   4.951
 4672TIP3    H113959   1.902   6.667   4.885
 4672TIP3    H213960   1.923   6.653   5.034
 4673TIP3   OH213961   0.840   1.800   3.689
 4673TIP3    H113962   0.874   1.710   3.697
 4673TIP3    H213963   0.894   1.851   3.749
 4674TIP3   OH213964   3.934   7.532   4.780
 4674TIP3    H113965   3.907   7.449   4.818
 4674TIP3    H213966   3.878   7.543   4.703
 4675TIP3   OH213967   1.202   7.043   6.360
 4675TIP3    H113968   1.189   7.133   6.389
 4675TIP3    H213969   1.278   7.012   6.409
 4676TIP3   OH213970   8.244   2.834   0.264
 4676TIP3    H113971   8.306   2.903   0.242
 4676TIP3    H213972   8.287   2.785   0.335
 4677TIP3   OH213973   2.430   1.269   2.937
 4677TIP3    H113974   2.496   1.334   2.913
 4677TIP3    H213975   2.475   1.185   2.928
 4678TIP3   OH213976   7.838   5.186   0.117
 4678TIP3    H113977   7.890   5.217   0.043
 4678TIP3    H213978   7.858   5.247   0.188
 4679TIP3   OH213979   5.817   7.102   2.700
 4679TIP3    H113980   5.831   7.158   2.624
 4679TIP3    H213981   5.729   7.066   2.688
 4680TIP3   OH213982   1.392   5.995   3.127
 4680TIP3    H113983   1.456   5.925   3.113
 4680TIP3    H213984   1.357   5.978   3.214
 4681TIP3   OH213985   3.738   3.481   0.583
 4681TIP3    H113986   3.651   3.485   0.623
 4681TIP3    H213987   3.770   3.571   0.586
 4682TIP3   OH213988   3.801   1.402   3.466
 4682TIP3    H113989   3.858   1.476   3.484
 4682TIP3    H213990   3.728   1.413   3.527
 4683TIP3   OH213991   0.610   5.973   5.789
 4683TIP3    H113992   0.696   5.944   5.819
 4683TIP3    H213993   0.590   5.915   5.715
 4684TIP3   OH213994   4.750   6.000   6.263
 4684TIP3    H113995   4.671   5.946   6.267
 4684TIP3    H213996   4.803   5.970   6.337
 4685TIP3   OH213997   4.271   6.705   5.055
 4685TIP3    H113998   4.340   6.651   5.016
 4685TIP3    H213999   4.318   6.778   5.096
 4686TIP3   OH214000   2.895   0.904   5.915
 4686TIP3    H114001   2.880   0.997   5.902
 4686TIP3    H214002   2.909   0.895   6.010
 4687TIP3   OH214003   3.978   2.582   0.305
 4687TIP3    H114004   4.059   2.623   0.275
 4687TIP3    H214005   4.001   2.540   0.388
 4688TIP3   OH214006   5.699   4.851   1.855
 4688TIP3    H114007   5.663   4.896   1.779
 4688TIP3    H214008   5.668   4.902   1.930
 4689TIP3   OH214009   7.071   4.958   2.278
 4689TIP3    H114010   7.085   5.051   2.296
 4689TIP3    H214011   6.976   4.948   2.272
 4690TIP3   OH214012   6.670   5.012   0.210
 4690TIP3    H114013   6.657   5.042   0.301
 4690TIP3    H214014   6.603   5.059   0.160
 4691TIP3   OH214015   4.911   4.540   5.286
 4691TIP3    H114016   4.977   4.591   5.239
 4691TIP3    H214017   4.879   4.601   5.354
 4692TIP3   OH214018   7.862   4.589   2.558
 4692TIP3    H114019   7.909   4.544   2.488
 4692TIP3    H214020   7.869   4.682   2.535
 4693TIP3   OH214021   1.258   3.329   1.841
 4693TIP3    H114022   1.321   3.353   1.908
 4693TIP3    H214023   1.177   3.372   1.866
 4694TIP3   OH214024   5.759   2.092   5.512
 4694TIP3    H114025   5.814   2.083   5.590
 4694TIP3    H214026   5.704   2.013   5.513
 4695TIP3   OH214027   7.681   3.865   0.221
 4695TIP3    H114028   7.701   3.958   0.231
 4695TIP3    H214029   7.630   3.859   0.140
 4696TIP3   OH214030   5.618   2.507   0.929
 4696TIP3    H114031   5.712   2.490   0.922
 4696TIP3    H214032   5.607   2.545   1.016
 4697TIP3   OH214033   3.861   5.562   2.481
 4697TIP3    H114034   3.786   5.513   2.513
 4697TIP3    H214035   3.894   5.610   2.557
 4698TIP3   OH214036   1.693   6.720   3.229
 4698TIP3    H114037   1.717   6.631   3.201
 4698TIP3    H214038   1.625   6.706   3.296
 4699TIP3   OH214039   5.588   2.654   4.286
 4699TIP3    H114040   5.508   2.621   4.244
 4699TIP3    H214041   5.647   2.672   4.212
 4700TIP3   OH214042   3.607   3.382   4.155
 4700TIP3    H114043   3.530   3.419   4.199
 4700TIP3    H214044   3.576   3.300   4.118
 4701TIP3   OH214045   5.728   1.043   4.702
 4701TIP3    H114046   5.704   1.133   4.678
 4701TIP3    H214047   5.747   1.048   4.796
 4702TIP3   OH214048   4.254   6.876   3.443
 4702TIP3    H114049   4.247   6.930   3.364
 4702TIP3    H214050   4.164   6.855   3.465
 4703TIP3   OH214051   3.434   1.461   2.670
 4703TIP3    H114052   3.361   1.519   2.647
 4703TIP3    H214053   3.511   1.503   2.633
 4704TIP3   OH214054   4.231   0.932   4.360
 4704TIP3    H114055   4.297   1.000   4.358
 4704TIP3    H214056   4.279   0.851   4.379
 4705TIP3   OH214057   6.551   2.776   3.544
 4705TIP3    H114058   6.548   2.838   3.471
 4705TIP3    H214059   6.558   2.690   3.501
 4706TIP3   OH214060   7.626   1.885   3.527
 4706TIP3    H114061   7.623   1.793   3.555
 4706TIP3    H214062   7.711   1.916   3.557
 4707TIP3   OH214063   0.368   5.430   5.574
 4707TIP3    H114064   0.424   5.356   5.550
 4707TIP3    H214065   0.389   5.446   5.666
 4708TIP3   OH214066   2.993   6.589   5.721
 4708TIP3    H114067   2.971   6.508   5.766
 4708TIP3    H214068   3.051   6.563   5.650
 4709TIP3   OH214069   2.275   3.675   1.159
 4709TIP3    H114070   2.325   3.672   1.078
 4709TIP3    H214071   2.203   3.614   1.145
 4710TIP3   OH214072   0.056   7.562   3.871
 4710TIP3    H114073   0.066   7.603   3.957
 4710TIP3    H214074   0.145   7.558   3.836
 4711TIP3   OH214075   7.210   5.774   3.409
 4711TIP3    H114076   7.137   5.715   3.389
 4711TIP3    H214077   7.278   5.752   3.346
 4712TIP3   OH214078   3.719   6.366   4.123
 4712TIP3    H114079   3.652   6.432   4.141
 4712TIP3    H214080   3.720   6.312   4.201
 4713TIP3   OH214081   5.996   0.795   4.877
 4713TIP3    H114082   5.919   0.767   4.926
 4713TIP3    H214083   5.973   0.781   4.785
 4714TIP3   OH214084   3.788   6.274   1.913
 4714TIP3    H114085   3.794   6.352   1.856
 4714TIP3    H214086   3.801   6.201   1.853
 4715TIP3   OH214087   7.922   7.059   1.338
 4715TIP3    H114088   7.898   6.979   1.384
 4715TIP3    H214089   7.879   7.052   1.253
 4716TIP3   OH214090   1.080   0.781   5.100
 4716TIP3    H114091   1.078   0.849   5.033
 4716TIP3    H214092   1.172   0.778   5.127
 4717TIP3   OH214093   4.822   2.526   0.689
 4717TIP3    H114094   4.734   2.488   0.682
 4717TIP3    H214095   4.814   2.612   0.648
 4718TIP3   OH214096   7.572   7.469   5.743
 4718TIP3    H114097   7.523   7.394   5.777
 4718TIP3    H214098   7.516   7.504   5.673
 4719TIP3   OH214099   8.195   2.931   2.312
 4719TIP3    H114100   8.125   2.905   2.252
 4719TIP3    H214101   8.228   2.848   2.348
 4720TIP3   OH214102   7.420   6.024   1.774
 4720TIP3    H114103   7.382   6.103   1.812
 4720TIP3    H214104   7.402   6.031   1.680
 4721TIP3   OH214105   1.021   1.290   4.427
 4721TIP3    H114106   0.944   1.252   4.469
 4721TIP3    H214107   1.082   1.217   4.416
 4722TIP3   OH214108   3.995   3.884   1.096
 4722TIP3    H114109   3.955   3.841   1.172
 4722TIP3    H214110   4.036   3.813   1.048
 4723TIP3   OH214111   5.473   1.010   5.889
 4723TIP3    H114112   5.407   0.973   5.948
 4723TIP3    H214113   5.546   0.948   5.893
 4724TIP3   OH214114   6.771   2.142   3.838
 4724TIP3    H114115   6.842   2.079   3.847
 4724TIP3    H214116   6.781   2.178   3.750
 4725TIP3   OH214117   7.168   1.627   4.137
 4725TIP3    H114118   7.227   1.625   4.061
 4725TIP3    H214119   7.110   1.552   4.124
 4726TIP3   OH214120   1.477   2.139   2.273
 4726TIP3    H114121   1.498   2.228   2.303
 4726TIP3    H214122   1.534   2.082   2.325
 4727TIP3   OH214123   2.278   0.393   1.059
 4727TIP3    H114124   2.295   0.386   1.153
 4727TIP3    H214125   2.185   0.375   1.049
 4728TIP3   OH214126   1.789   2.503   4.328
 4728TIP3    H114127   1.729   2.431   4.346
 4728TIP3    H214128   1.756   2.542   4.247
 4729TIP3   OH214129   3.393   2.121   1.512
 4729TIP3    H114130   3.456   2.106   1.441
 4729TIP3    H214131   3.308   2.099   1.473
 4730TIP3   OH214132   2.638   4.964   0.670
 4730TIP3    H114133   2.564   5.004   0.625
 4730TIP3    H214134   2.599   4.902   0.732
 4731TIP3   OH214135   2.551   6.401   3.081
 4731TIP3    H114136   2.481   6.340   3.106
 4731TIP3    H214137   2.632   6.355   3.106
 4732TIP3   OH214138   7.231   2.057   1.250
 4732TIP3    H114139   7.287   2.069   1.326
 4732TIP3    H214140   7.143   2.077   1.282
 4733TIP3   OH214141   2.383   2.117   4.150
 4733TIP3    H114142   2.407   2.188   4.090
 4733TIP3    H214143   2.296   2.141   4.182
 4734TIP3   OH214144   0.397   5.160   4.676
 4734TIP3    H114145   0.378   5.226   4.609
 4734TIP3    H214146   0.403   5.078   4.628
 4735TIP3   OH214147   3.626   1.441   4.206
 4735TIP3    H114148   3.704   1.495   4.212
 4735TIP3    H214149   3.616   1.402   4.292
 4736TIP3   OH214150   4.505   3.013   6.681
 4736TIP3    H114151   4.460   3.072   6.742
 4736TIP3    H214152   4.496   2.927   6.721
 4737TIP3   OH214153   1.784   4.137   3.752
 4737TIP3    H114154   1.786   4.220   3.799
 4737TIP3    H214155   1.771   4.071   3.820
 4738TIP3   OH214156   0.745   5.464   5.130
 4738TIP3    H114157   0.753   5.376   5.168
 4738TIP3    H214158   0.679   5.454   5.061
 4739TIP3   OH214159   5.668   3.257   6.500
 4739TIP3    H114160   5.709   3.247   6.414
 4739TIP3    H214161   5.734   3.304   6.552
 4740TIP3   OH214162   8.208   4.326   6.395
 4740TIP3    H114163   8.155   4.390   6.441
 4740TIP3    H214164   8.171   4.241   6.421
 4741TIP3   OH214165   5.758   7.303   0.580
 4741TIP3    H114166   5.845   7.343   0.582
 4741TIP3    H214167   5.697   7.377   0.580
 4742TIP3   OH214168   4.920   5.249   3.023
 4742TIP3    H114169   4.981   5.212   3.087
 4742TIP3    H214170   4.970   5.318   2.980
 4743TIP3   OH214171   7.429   5.272   6.795
 4743TIP3    H114172   7.470   5.321   6.723
 4743TIP3    H214173   7.386   5.198   6.751
 4744TIP3   OH214174   5.333   4.559   1.467
 4744TIP3    H114175   5.420   4.548   1.505
 4744TIP3    H214176   5.349   4.597   1.381
 4745TIP3   OH214177   3.313   6.997   6.180
 4745TIP3    H114178   3.365   6.917   6.168
 4745TIP3    H214179   3.275   6.988   6.267
 4746TIP3   OH214180   6.844   7.367   5.039
 4746TIP3    H114181   6.852   7.272   5.038
 4746TIP3    H214182   6.784   7.386   5.111
 4747TIP3   OH214183   2.242   5.419   4.045
 4747TIP3    H114184   2.328   5.397   4.009
 4747TIP3    H214185   2.259   5.441   4.137
 4748TIP3   OH214186   6.243   5.843   4.643
 4748TIP3    H114187   6.277   5.778   4.704
 4748TIP3    H214188   6.151   5.855   4.669
 4749TIP3   OH214189   0.662   5.283   1.621
 4749TIP3    H114190   0.657   5.251   1.531
 4749TIP3    H214191   0.712   5.215   1.668
 4750TIP3   OH214192   7.979   7.122   6.631
 4750TIP3    H114193   8.029   7.133   6.550
 4750TIP3    H214194   7.994   7.031   6.655
 4751TIP3   OH214195   6.079   6.188   0.671
 4751TIP3    H114196   6.014   6.147   0.729
 4751TIP3    H214197   6.144   6.119   0.655
 4752TIP3   OH214198   5.957   4.198   1.972
 4752TIP3    H114199   5.863   4.218   1.980
 4752TIP3    H214200   5.999   4.282   1.956
 4753TIP3   OH214201   5.657   2.751   2.477
 4753TIP3    H114202   5.670   2.846   2.478
 4753TIP3    H214203   5.659   2.726   2.569
 4754TIP3   OH214204   2.219   4.561  -0.001
 4754TIP3    H114205   2.134   4.553   0.043
 4754TIP3    H214206   2.283   4.553   0.069
 4755TIP3   OH214207   3.575   5.104   4.200
 4755TIP3    H114208   3.669   5.093   4.215
 4755TIP3    H214209   3.569   5.158   4.122
 4756TIP3   OH214210   7.751   1.146   0.509
 4756TIP3    H114211   7.785   1.230   0.479
 4756TIP3    H214212   7.828   1.091   0.520
 4757TIP3   OH214213   5.397   5.685   3.563
 4757TIP3    H114214   5.408   5.612   3.624
 4757TIP3    H214215   5.414   5.763   3.615
 4758TIP3   OH214216   1.113   0.007   3.777
 4758TIP3    H114217   1.040   0.064   3.754
 4758TIP3    H214218   1.161  -0.005   3.695
 4759TIP3   OH214219   6.526   2.198   0.915
 4759TIP3    H114220   6.443   2.153   0.899
 4759TIP3    H214221   6.527   2.214   1.009
 4760TIP3   OH214222   4.659   1.035   4.662
 4760TIP3    H114223   4.693   1.095   4.596
 4760TIP3    H214224   4.705   0.952   4.645
 4761TIP3   OH214225   0.966   4.041   5.153
 4761TIP3    H114226   1.032   4.080   5.096
 4761TIP3    H214227   0.883   4.069   5.116
 4762TIP3   OH214228   1.471   2.515   2.069
 4762TIP3    H114229   1.563   2.490   2.078
 4762TIP3    H214230   1.474   2.609   2.052
 4763TIP3   OH214231   4.002   4.246   0.683
 4763TIP3    H114232   3.976   4.316   0.743
 4763TIP3    H214233   3.944   4.173   0.704
 4764TIP3   OH214234   3.649   6.064   4.704
 4764TIP3    H114235   3.726   6.055   4.648
 4764TIP3    H214236   3.598   6.135   4.665
 4765TIP3   OH214237   6.953   5.981   3.312
 4765TIP3    H114238   6.947   5.946   3.223
 4765TIP3    H214239   7.030   6.037   3.310
 4766TIP3   OH214240   4.240   5.725   2.436
 4766TIP3    H114241   4.165   5.714   2.378
 4766TIP3    H214242   4.296   5.788   2.391
 4767TIP3   OH214243   3.551   5.244   4.503
 4767TIP3    H114244   3.587   5.332   4.493
 4767TIP3    H214245   3.494   5.233   4.427
 4768TIP3   OH214246   0.176   7.506   6.075
 4768TIP3    H114247   0.233   7.578   6.100
 4768TIP3    H214248   0.094   7.548   6.050
 4769TIP3   OH214249   1.020   0.945   6.520
 4769TIP3    H114250   1.093   0.908   6.470
 4769TIP3    H214251   1.063   0.997   6.589
 4770TIP3   OH214252   5.602   4.711   6.119
 4770TIP3    H114253   5.550   4.761   6.056
 4770TIP3    H214254   5.677   4.679   6.068
 4771TIP3   OH214255  -0.005   6.735   6.073
 4771TIP3    H114256  -0.064   6.780   6.133
 4771TIP3    H214257   0.076   6.724   6.123
 4772TIP3   OH214258   4.260   3.244   3.825
 4772TIP3    H114259   4.229   3.192   3.900
 4772TIP3    H214260   4.332   3.295   3.861
 4773TIP3   OH214261   7.928   4.830   5.925
 4773TIP3    H114262   7.841   4.842   5.888
 4773TIP3    H214263   7.986   4.883   5.869
 4774TIP3   OH214264   3.772   6.813   6.609
 4774TIP3    H114265   3.722   6.882   6.653
 4774TIP3    H214266   3.752   6.824   6.516
 4775TIP3   OH214267   1.622   2.057   5.919
 4775TIP3    H114268   1.570   2.021   5.847
 4775TIP3    H214269   1.593   2.008   5.996
 4776TIP3   OH214270   2.610   1.382   1.898
 4776TIP3    H114271   2.549   1.455   1.891
 4776TIP3    H214272   2.599   1.350   1.988
 4777TIP3   OH214273   7.563   0.125   5.304
 4777TIP3    H114274   7.531   0.155   5.218
 4777TIP3    H214275   7.491   0.146   5.364
 4778TIP3   OH214276   6.535   0.146   5.288
 4778TIP3    H114277   6.485   0.217   5.247
 4778TIP3    H214278   6.468   0.083   5.315
 4779TIP3   OH214279   8.201   5.030   4.147
 4779TIP3    H114280   8.147   5.054   4.223
 4779TIP3    H214281   8.202   5.108   4.093
 4780TIP3   OH214282   7.887   5.097   3.414
 4780TIP3    H114283   7.823   5.120   3.482
 4780TIP3    H214284   7.933   5.179   3.396
 4781TIP3   OH214285   6.608   3.347   6.084
 4781TIP3    H114286   6.520   3.328   6.116
 4781TIP3    H214287   6.637   3.422   6.137
 4782TIP3   OH214288   3.433   4.074   6.371
 4782TIP3    H114289   3.516   4.087   6.417
 4782TIP3    H214290   3.375   4.140   6.408
 4783TIP3   OH214291   1.032   6.924   3.588
 4783TIP3    H114292   1.096   6.860   3.620
 4783TIP3    H214293   0.975   6.874   3.530
 4784TIP3   OH214294   4.763   6.999   3.896
 4784TIP3    H114295   4.855   7.021   3.913
 4784TIP3    H214296   4.714   7.060   3.952
 4785TIP3   OH214297   2.644   2.081   1.625
 4785TIP3    H114298   2.648   2.142   1.698
 4785TIP3    H214299   2.565   2.028   1.642
 4786TIP3   OH214300   1.805   5.750   1.530
 4786TIP3    H114301   1.757   5.825   1.565
 4786TIP3    H214302   1.850   5.713   1.606
 4787TIP3   OH214303   3.946   6.370   1.153
 4787TIP3    H114304   3.933   6.439   1.087
 4787TIP3    H214305   4.040   6.370   1.170
 4788TIP3   OH214306   0.764   2.008   1.120
 4788TIP3    H114307   0.690   2.037   1.173
 4788TIP3    H214308   0.730   2.008   1.030
 4789TIP3   OH214309   4.355   5.494   2.200
 4789TIP3    H114310   4.408   5.419   2.174
 4789TIP3    H214311   4.344   5.485   2.295
 4790TIP3   OH214312   8.212   5.992   6.099
 4790TIP3    H114313   8.299   6.027   6.120
 4790TIP3    H214314   8.216   5.901   6.127
 4791TIP3   OH214315   7.347   7.343   0.068
 4791TIP3    H114316   7.259   7.328   0.032
 4791TIP3    H214317   7.403   7.347  -0.009
 4792TIP3   OH214318   3.825   2.786   0.198
 4792TIP3    H114319   3.890   2.716   0.208
 4792TIP3    H214320   3.754   2.746   0.147
 4793TIP3   OH214321   0.349   4.182   4.911
 4793TIP3    H114322   0.334   4.223   4.996
 4793TIP3    H214323   0.301   4.099   4.917
 4794TIP3   OH214324   3.037   2.640   4.074
 4794TIP3    H114325   2.991   2.579   4.016
 4794TIP3    H214326   3.109   2.588   4.110
 4795TIP3   OH214327   0.885   6.794   2.098
 4795TIP3    H114328   0.845   6.873   2.061
 4795TIP3    H214329   0.936   6.826   2.172
 4796TIP3   OH214330   2.567   6.741   5.064
 4796TIP3    H114331   2.546   6.709   4.976
 4796TIP3    H214332   2.661   6.757   5.062
 4797TIP3   OH214333   1.376   3.859   2.598
 4797TIP3    H114334   1.346   3.845   2.688
 4797TIP3    H214335   1.321   3.802   2.545
 4798TIP3   OH214336   4.490   4.451   5.730
 4798TIP3    H114337   4.551   4.413   5.793
 4798TIP3    H214338   4.405   4.415   5.753
 4799TIP3   OH214339   7.673   6.365   0.935
 4799TIP3    H114340   7.604   6.428   0.955
 4799TIP3    H214341   7.635   6.280   0.955
 4800TIP3   OH214342   7.687   5.693   3.681
 4800TIP3    H114343   7.718   5.610   3.645
 4800TIP3    H214344   7.611   5.669   3.734
 4801TIP3   OH214345   7.878   3.278   5.353
 4801TIP3    H114346   7.849   3.279   5.261
 4801TIP3    H214347   7.904   3.369   5.370
 4802TIP3   OH214348   1.561   2.520   1.768
 4802TIP3    H114349   1.651   2.499   1.743
 4802TIP3    H214350   1.507   2.475   1.704
 4803TIP3   OH214351   2.485   3.768   4.464
 4803TIP3    H114352   2.446   3.719   4.537
 4803TIP3    H214353   2.505   3.854   4.500
 4804TIP3   OH214354   4.377   6.155   2.343
 4804TIP3    H114355   4.360   6.065   2.370
 4804TIP3    H214356   4.308   6.175   2.279
 4805TIP3   OH214357   5.553   4.083   3.554
 4805TIP3    H114358   5.519   4.004   3.596
 4805TIP3    H214359   5.644   4.061   3.532
 4806TIP3   OH214360   3.486   4.013   2.023
 4806TIP3    H114361   3.418   4.046   1.964
 4806TIP3    H214362   3.439   3.977   2.097
 4807TIP3   OH214363   2.827   6.531   4.041
 4807TIP3    H114364   2.739   6.567   4.057
 4807TIP3    H214365   2.885   6.607   4.047
 4808TIP3   OH214366   0.221   6.562   3.369
 4808TIP3    H114367   0.203   6.596   3.456
 4808TIP3    H214368   0.300   6.609   3.341
 4809TIP3   OH214369   1.691   4.190   0.324
 4809TIP3    H114370   1.660   4.219   0.239
 4809TIP3    H214371   1.680   4.266   0.381
 4810TIP3   OH214372   1.074   1.480   3.969
 4810TIP3    H114373   1.159   1.523   3.959
 4810TIP3    H214374   1.059   1.478   4.064
 4811TIP3   OH214375   5.444   2.981   4.851
 4811TIP3    H114376   5.429   2.888   4.871
 4811TIP3    H214377   5.507   2.980   4.779
 4812TIP3   OH214378   0.743   4.469   5.827
 4812TIP3    H114379   0.780   4.421   5.901
 4812TIP3    H214380   0.648   4.466   5.842
 4813TIP3   OH214381   7.489   5.465   5.542
 4813TIP3    H114382   7.545   5.532   5.503
 4813TIP3    H214383   7.531   5.382   5.519
 4814TIP3   OH214384   4.826   7.695   3.291
 4814TIP3    H114385   4.840   7.709   3.384
 4814TIP3    H214386   4.862   7.608   3.274
 4815TIP3   OH214387   0.084   1.800   4.698
 4815TIP3    H114388   0.134   1.802   4.779
 4815TIP3    H214389   0.042   1.714   4.698
 4816TIP3   OH214390   1.680   4.491   6.544
 4816TIP3    H114391   1.677   4.571   6.597
 4816TIP3    H214392   1.769   4.490   6.508
 4817TIP3   OH214393   7.284   3.780   5.963
 4817TIP3    H114394   7.362   3.724   5.957
 4817TIP3    H214395   7.318   3.869   5.950
 4818TIP3   OH214396   2.437   0.208   0.200
 4818TIP3    H114397   2.381   0.253   0.263
 4818TIP3    H214398   2.497   0.157   0.253
 4819TIP3   OH214399   6.384   1.303   3.225
 4819TIP3    H114400   6.295   1.311   3.260
 4819TIP3    H214401   6.388   1.370   3.156
 4820TIP3   OH214402   8.002   0.318   0.239
 4820TIP3    H114403   7.929   0.356   0.189
 4820TIP3    H214404   8.007   0.371   0.318
 4821TIP3   OH214405   0.092   1.577   4.431
 4821TIP3    H114406   0.049   1.536   4.506
 4821TIP3    H214407   0.183   1.548   4.437
 4822TIP3   OH214408   1.190   6.077   1.467
 4822TIP3    H114409   1.124   6.063   1.399
 4822TIP3    H214410   1.198   6.172   1.473
 4823TIP3   OH214411   3.436   0.369   6.204
 4823TIP3    H114412   3.398   0.282   6.194
 4823TIP3    H214413   3.379   0.413   6.267
 4824TIP3   OH214414   2.962   0.470   2.507
 4824TIP3    H114415   2.997   0.465   2.596
 4824TIP3    H214416   2.902   0.396   2.500
 4825TIP3   OH214417   4.601   3.448   6.521
 4825TIP3    H114418   4.632   3.358   6.530
 4825TIP3    H214419   4.641   3.479   6.441
 4826TIP3   OH214420   8.189   5.215   5.899
 4826TIP3    H114421   8.235   5.199   5.981
 4826TIP3    H214422   8.249   5.271   5.848
 4827TIP3   OH214423   2.279   2.597   5.888
 4827TIP3    H114424   2.305   2.545   5.812
 4827TIP3    H214425   2.337   2.567   5.958
 4828TIP3   OH214426   7.644   2.644   3.176
 4828TIP3    H114427   7.554   2.676   3.184
 4828TIP3    H214428   7.660   2.642   3.082
 4829TIP3   OH214429   6.913   6.932   1.384
 4829TIP3    H114430   6.993   6.884   1.365
 4829TIP3    H214431   6.862   6.926   1.303
 4830TIP3   OH214432   4.410   5.416   1.857
 4830TIP3    H114433   4.370   5.331   1.835
 4830TIP3    H214434   4.360   5.480   1.806
 4831TIP3   OH214435   5.166   6.204   1.924
 4831TIP3    H114436   5.090   6.183   1.978
 4831TIP3    H214437   5.209   6.119   1.909
 4832TIP3   OH214438   0.755   2.086   6.424
 4832TIP3    H114439   0.769   1.994   6.402
 4832TIP3    H214440   0.842   2.120   6.447
 4833TIP3   OH214441   2.118   2.493   1.731
 4833TIP3    H114442   2.022   2.489   1.725
 4833TIP3    H214443   2.136   2.572   1.782
 4834TIP3   OH214444   4.639   2.891   1.997
 4834TIP3    H114445   4.556   2.937   1.982
 4834TIP3    H214446   4.627   2.807   1.953
 4835TIP3   OH214447   3.451   0.476   6.568
 4835TIP3    H114448   3.379   0.426   6.605
 4835TIP3    H214449   3.504   0.411   6.521
 4836TIP3   OH214450   1.089   7.733   0.164
 4836TIP3    H114451   1.133   7.803   0.117
 4836TIP3    H214452   1.153   7.703   0.229
 4837TIP3   OH214453   3.117   0.368   6.078
 4837TIP3    H114454   3.176   0.301   6.113
 4837TIP3    H214455   3.174   0.443   6.060
 4838TIP3   OH214456   0.765   1.390   3.348
 4838TIP3    H114457   0.690   1.447   3.330
 4838TIP3    H214458   0.727   1.305   3.369
 4839TIP3   OH214459   2.960   0.310   2.066
 4839TIP3    H114460   2.928   0.287   1.979
 4839TIP3    H214461   3.013   0.389   2.051
 4840TIP3   OH214462   6.550   4.287   2.224
 4840TIP3    H114463   6.531   4.193   2.227
 4840TIP3    H214464   6.585   4.300   2.135
 4841TIP3   OH214465   0.932   0.295   4.313
 4841TIP3    H114466   0.987   0.240   4.369
 4841TIP3    H214467   0.848   0.298   4.358
 4842TIP3   OH214468   3.429   7.770   0.302
 4842TIP3    H114469   3.459   7.779   0.393
 4842TIP3    H214470   3.466   7.687   0.273
 4843TIP3   OH214471   3.251   2.858   1.832
 4843TIP3    H114472   3.191   2.786   1.812
 4843TIP3    H214473   3.329   2.840   1.778
 4844TIP3   OH214474   2.634   1.695   6.342
 4844TIP3    H114475   2.578   1.619   6.357
 4844TIP3    H214476   2.707   1.684   6.403
 4845TIP3   OH214477   5.831   6.346   1.564
 4845TIP3    H114478   5.745   6.306   1.550
 4845TIP3    H214479   5.864   6.304   1.644
 4846TIP3   OH214480   0.495   7.830   6.693
 4846TIP3    H114481   0.539   7.759   6.738
 4846TIP3    H214482   0.406   7.798   6.678
 4847TIP3   OH214483   3.416   0.152   6.490
 4847TIP3    H114484   3.500   0.126   6.526
 4847TIP3    H214485   3.352   0.101   6.540
 4848TIP3   OH214486   0.779   6.101   2.156
 4848TIP3    H114487   0.702   6.051   2.129
 4848TIP3    H214488   0.835   6.037   2.201
 4849TIP3   OH214489   1.629   3.881   4.761
 4849TIP3    H114490   1.544   3.867   4.803
 4849TIP3    H214491   1.652   3.795   4.725
 4850TIP3   OH214492   5.561   6.198   5.019
 4850TIP3    H114493   5.646   6.232   4.990
 4850TIP3    H214494   5.514   6.276   5.049
 4851TIP3   OH214495   7.949   3.560   4.688
 4851TIP3    H114496   7.912   3.612   4.760
 4851TIP3    H214497   8.024   3.515   4.727
 4852TIP3   OH214498   4.117   2.959   0.255
 4852TIP3    H114499   4.108   2.877   0.206
 4852TIP3    H214500   4.057   2.950   0.328
 4853TIP3   OH214501   3.270   3.007   5.151
 4853TIP3    H114502   3.350   2.996   5.099
 4853TIP3    H214503   3.264   3.102   5.166
 4854TIP3   OH214504   6.428   0.532   0.461
 4854TIP3    H114505   6.465   0.545   0.374
 4854TIP3    H214506   6.444   0.614   0.507
 4855TIP3   OH214507   0.130   2.455   0.097
 4855TIP3    H114508   0.041   2.443   0.128
 4855TIP3    H214509   0.185   2.442   0.175
 4856TIP3   OH214510   6.754   7.149   2.800
 4856TIP3    H114511   6.708   7.231   2.818
 4856TIP3    H214512   6.791   7.124   2.885
 4857TIP3   OH214513   1.115   4.914   5.174
 4857TIP3    H114514   1.122   4.818   5.170
 4857TIP3    H214515   1.077   4.931   5.261
 4858TIP3   OH214516   2.369   4.677   1.941
 4858TIP3    H114517   2.299   4.682   2.006
 4858TIP3    H214518   2.439   4.733   1.976
 4859TIP3   OH214519   6.719   7.087   5.171
 4859TIP3    H114520   6.672   7.170   5.160
 4859TIP3    H214521   6.698   7.061   5.261
 4860TIP3   OH214522   2.925   2.254   3.133
 4860TIP3    H114523   2.981   2.181   3.158
 4860TIP3    H214524   2.972   2.297   3.062
 4861TIP3   OH214525   6.350   6.092   1.276
 4861TIP3    H114526   6.360   6.164   1.338
 4861TIP3    H214527   6.439   6.063   1.257
 4862TIP3   OH214528   7.047   3.786   1.628
 4862TIP3    H114529   7.017   3.813   1.715
 4862TIP3    H214530   6.975   3.735   1.592
 4863TIP3   OH214531   3.815   0.070   3.877
 4863TIP3    H114532   3.891   0.037   3.829
 4863TIP3    H214533   3.762   0.113   3.811
 4864TIP3   OH214534   6.632   4.618   4.129
 4864TIP3    H114535   6.559   4.563   4.101
 4864TIP3    H214536   6.634   4.689   4.065
 4865TIP3   OH214537   4.579   4.353   6.484
 4865TIP3    H114538   4.590   4.334   6.390
 4865TIP3    H214539   4.578   4.267   6.525
 4866TIP3   OH214540   7.810   4.507   4.941
 4866TIP3    H114541   7.815   4.461   5.025
 4866TIP3    H214542   7.863   4.453   4.882
 4867TIP3   OH214543   4.631   3.824   0.383
 4867TIP3    H114544   4.677   3.774   0.451
 4867TIP3    H214545   4.701   3.862   0.329
 4868TIP3   OH214546   5.951   1.223   4.079
 4868TIP3    H114547   5.971   1.138   4.040
 4868TIP3    H214548   5.858   1.217   4.102
 4869TIP3   OH214549   2.332   0.479   3.799
 4869TIP3    H114550   2.368   0.390   3.804
 4869TIP3    H214551   2.407   0.534   3.778
 4870TIP3   OH214552   6.983   5.177   4.077
 4870TIP3    H114553   6.893   5.208   4.063
 4870TIP3    H214554   7.029   5.252   4.115
 4871TIP3   OH214555   3.946   4.822   2.546
 4871TIP3    H114556   4.008   4.760   2.506
 4871TIP3    H214557   3.918   4.778   2.627
 4872TIP3   OH214558   6.014   3.071   6.169
 4872TIP3    H114559   6.084   3.134   6.151
 4872TIP3    H214560   6.002   3.075   6.264
 4873TIP3   OH214561   7.377   5.611   5.782
 4873TIP3    H114562   7.416   5.582   5.699
 4873TIP3    H214563   7.451   5.643   5.833
 4874TIP3   OH214564   4.704   2.874   3.245
 4874TIP3    H114565   4.670   2.866   3.334
 4874TIP3    H214566   4.689   2.965   3.221
 4875TIP3   OH214567   4.253   5.148   1.190
 4875TIP3    H114568   4.208   5.132   1.273
 4875TIP3    H214569   4.190   5.198   1.138
 4876TIP3   OH214570   6.830   0.814   1.433
 4876TIP3    H114571   6.752   0.869   1.424
 4876TIP3    H214572   6.875   0.822   1.349
 4877TIP3   OH214573   4.943   6.318   5.030
 4877TIP3    H114574   5.024   6.271   5.051
 4877TIP3    H214575   4.882   6.250   5.002
 4878TIP3   OH214576   6.214   0.933   4.784
 4878TIP3    H114577   6.151   0.866   4.811
 4878TIP3    H214578   6.207   0.936   4.689
 4879TIP3   OH214579   5.965   6.896   5.479
 4879TIP3    H114580   5.905   6.944   5.535
 4879TIP3    H214581   6.049   6.941   5.489
 4880TIP3   OH214582   1.884   4.033   2.030
 4880TIP3    H114583   1.831   3.983   2.093
 4880TIP3    H214584   1.922   3.966   1.972
 4881TIP3   OH214585   6.253   3.028   4.877
 4881TIP3    H114586   6.168   3.007   4.837
 4881TIP3    H214587   6.230   3.077   4.956
 4882TIP3   OH214588   1.240   2.105   0.042
 4882TIP3    H114589   1.270   2.166  -0.026
 4882TIP3    H214590   1.166   2.060   0.002
 4883TIP3   OH214591   4.597   3.246   4.915
 4883TIP3    H114592   4.617   3.189   4.841
 4883TIP3    H214593   4.519   3.295   4.888
 4884TIP3   OH214594   4.239   5.053   0.261
 4884TIP3    H114595   4.326   5.065   0.299
 4884TIP3    H214596   4.182   5.111   0.312
 4885TIP3   OH214597   7.744   3.381   2.244
 4885TIP3    H114598   7.786   3.467   2.236
 4885TIP3    H214599   7.662   3.391   2.196
 4886TIP3   OH214600   7.425   5.426   4.082
 4886TIP3    H114601   7.456   5.410   3.993
 4886TIP3    H214602   7.446   5.346   4.130
 4887TIP3   OH214603   2.412   7.117   6.723
 4887TIP3    H114604   2.413   7.065   6.804
 4887TIP3    H214605   2.408   7.053   6.653
 4888TIP3   OH214606   2.295   1.002   6.558
 4888TIP3    H114607   2.272   1.018   6.467
 4888TIP3    H214608   2.211   0.999   6.604
 4889TIP3   OH214609   0.345   5.069   1.301
 4889TIP3    H114610   0.263   5.054   1.252
 4889TIP3    H214611   0.383   4.982   1.311
 4890TIP3   OH214612   4.689   2.540   0.274
 4890TIP3    H114613   4.679   2.467   0.213
 4890TIP3    H214614   4.780   2.568   0.262
 4891TIP3   OH214615   0.469   4.730   3.898
 4891TIP3    H114616   0.405   4.795   3.870
 4891TIP3    H214617   0.554   4.772   3.881
 4892TIP3   OH214618   3.108   3.486   3.889
 4892TIP3    H114619   3.016   3.494   3.915
 4892TIP3    H214620   3.105   3.475   3.794
 4893TIP3   OH214621   0.929   2.938   1.511
 4893TIP3    H114622   0.848   2.979   1.481
 4893TIP3    H214623   0.957   2.884   1.437
 4894TIP3   OH214624   5.257   3.472   1.464
 4894TIP3    H114625   5.177   3.525   1.463
 4894TIP3    H214626   5.251   3.421   1.545
 4895TIP3   OH214627   7.093   5.866   6.431
 4895TIP3    H114628   7.115   5.855   6.339
 4895TIP3    H214629   7.044   5.787   6.454
 4896TIP3   OH214630   3.917   4.308   2.341
 4896TIP3    H114631   3.926   4.217   2.372
 4896TIP3    H214632   4.006   4.342   2.342
 4897TIP3   OH214633   0.946   7.694   5.074
 4897TIP3    H114634   0.990   7.666   4.994
 4897TIP3    H214635   0.984   7.638   5.142
 4898TIP3   OH214636   5.292   2.256   4.794
 4898TIP3    H114637   5.327   2.208   4.719
 4898TIP3    H214638   5.197   2.249   4.786
 4899TIP3   OH214639   6.895   5.738   5.284
 4899TIP3    H114640   6.947   5.740   5.204
 4899TIP3    H214641   6.806   5.757   5.255
 4900TIP3   OH214642   0.755   1.339   0.167
 4900TIP3    H114643   0.792   1.355   0.080
 4900TIP3    H214644   0.789   1.410   0.221
 4901TIP3   OH214645   7.116   5.309   6.109
 4901TIP3    H114646   7.144   5.386   6.060
 4901TIP3    H214647   7.095   5.244   6.043
 4902TIP3   OH214648   2.277   4.016   1.473
 4902TIP3    H114649   2.350   4.068   1.505
 4902TIP3    H214650   2.203   4.043   1.526
 4903TIP3   OH214651   1.933   6.582   0.817
 4903TIP3    H114652   1.841   6.562   0.804
 4903TIP3    H214653   1.946   6.664   0.770
 4904TIP3   OH214654   7.601   6.410   1.210
 4904TIP3    H114655   7.599   6.314   1.208
 4904TIP3    H214656   7.690   6.433   1.182
 4905TIP3   OH214657   7.773   6.244   4.158
 4905TIP3    H114658   7.869   6.242   4.165
 4905TIP3    H214659   7.743   6.257   4.248
 4906TIP3   OH214660   0.866   0.472   0.565
 4906TIP3    H114661   0.816   0.540   0.611
 4906TIP3    H214662   0.955   0.481   0.598
 4907TIP3   OH214663   0.269   4.488   6.656
 4907TIP3    H114664   0.347   4.465   6.605
 4907TIP3    H214665   0.196   4.467   6.599
 4908TIP3   OH214666   5.583   0.623   3.651
 4908TIP3    H114667   5.543   0.551   3.602
 4908TIP3    H214668   5.648   0.659   3.591
 4909TIP3   OH214669   2.277   6.230   1.590
 4909TIP3    H114670   2.266   6.274   1.675
 4909TIP3    H214671   2.346   6.165   1.606
 4910TIP3   OH214672   6.322   4.421   4.546
 4910TIP3    H114673   6.310   4.494   4.606
 4910TIP3    H214674   6.245   4.366   4.559
 4911TIP3   OH214675   8.118   3.983   2.686
 4911TIP3    H114676   8.074   4.068   2.695
 4911TIP3    H214677   8.104   3.959   2.594
 4912TIP3   OH214678   1.050  -0.012   1.521
 4912TIP3    H114679   1.017  -0.100   1.538
 4912TIP3    H214680   1.135  -0.009   1.564
 4913TIP3   OH214681   4.358   1.846   6.264
 4913TIP3    H114682   4.294   1.912   6.238
 4913TIP3    H214683   4.352   1.778   6.197
 4914TIP3   OH214684   4.390   3.692   5.449
 4914TIP3    H114685   4.410   3.751   5.376
 4914TIP3    H214686   4.392   3.605   5.410
 4915TIP3   OH214687   1.455   4.044   3.746
 4915TIP3    H114688   1.384   3.981   3.761
 4915TIP3    H214689   1.520   4.023   3.814
 4916TIP3   OH214690   4.067   1.892   6.601
 4916TIP3    H114691   4.152   1.848   6.603
 4916TIP3    H214692   4.065   1.936   6.516
 4917TIP3   OH214693   4.295   5.736   4.207
 4917TIP3    H114694   4.335   5.758   4.123
 4917TIP3    H214695   4.259   5.648   4.193
 4918TIP3   OH214696   0.130   0.031   1.160
 4918TIP3    H114697   0.062  -0.008   1.106
 4918TIP3    H214698   0.083   0.066   1.236
 4919TIP3   OH214699   0.424   1.150   6.436
 4919TIP3    H114700   0.446   1.131   6.528
 4919TIP3    H214701   0.334   1.180   6.439
 4920TIP3   OH214702   1.691   5.820   5.862
 4920TIP3    H114703   1.726   5.744   5.908
 4920TIP3    H214704   1.711   5.804   5.770
 4921TIP3   OH214705   1.317   4.236   1.194
 4921TIP3    H114706   1.282   4.220   1.106
 4921TIP3    H214707   1.329   4.331   1.198
 4922TIP3   OH214708   7.271   6.221   1.916
 4922TIP3    H114709   7.337   6.215   1.986
 4922TIP3    H214710   7.197   6.170   1.949
 4923TIP3   OH214711   5.076   7.777   0.859
 4923TIP3    H114712   5.145   7.738   0.806
 4923TIP3    H214713   5.122   7.820   0.931
 4924TIP3   OH214714   6.812   3.208   4.728
 4924TIP3    H114715   6.782   3.291   4.692
 4924TIP3    H214716   6.895   3.229   4.770
 4925TIP3   OH214717   6.577   7.215   6.193
 4925TIP3    H114718   6.565   7.179   6.281
 4925TIP3    H214719   6.498   7.188   6.146
 4926TIP3   OH214720   4.240   3.597   1.320
 4926TIP3    H114721   4.331   3.624   1.334
 4926TIP3    H214722   4.192   3.678   1.305
 4927TIP3   OH214723   3.469   5.467   2.019
 4927TIP3    H114724   3.533   5.528   1.982
 4927TIP3    H214725   3.462   5.398   1.953
 4928TIP3   OH214726   5.621   2.430   6.765
 4928TIP3    H114727   5.659   2.374   6.833
 4928TIP3    H214728   5.683   2.426   6.693
 4929TIP3   OH214729   5.565   1.304   1.889
 4929TIP3    H114730   5.608   1.266   1.812
 4929TIP3    H214731   5.602   1.256   1.963
 4930TIP3   OH214732   1.926   6.188   1.944
 4930TIP3    H114733   1.876   6.251   1.892
 4930TIP3    H214734   1.922   6.223   2.033
 4931TIP3   OH214735   5.502   3.626   4.786
 4931TIP3    H114736   5.561   3.654   4.715
 4931TIP3    H214737   5.464   3.544   4.755
 4932TIP3   OH214738   7.238   6.149   2.348
 4932TIP3    H114739   7.164   6.088   2.343
 4932TIP3    H214740   7.205   6.222   2.400
 4933TIP3   OH214741   0.162   5.316   6.303
 4933TIP3    H114742   0.127   5.268   6.379
 4933TIP3    H214743   0.251   5.280   6.292
 4934TIP3   OH214744   1.951   3.076   2.281
 4934TIP3    H114745   2.027   3.030   2.247
 4934TIP3    H214746   1.879   3.014   2.274
 4935TIP3   OH214747   1.996   1.442   4.061
 4935TIP3    H114748   2.043   1.459   3.980
 4935TIP3    H214749   2.065   1.420   4.124
 4936TIP3   OH214750   0.122   4.550   5.744
 4936TIP3    H114751   0.038   4.578   5.708
 4936TIP3    H214752   0.184   4.616   5.714
 4937TIP3   OH214753   6.372   1.213   3.986
 4937TIP3    H114754   6.339   1.142   4.041
 4937TIP3    H214755   6.445   1.174   3.937
 4938TIP3   OH214756   4.205   7.082   2.747
 4938TIP3    H114757   4.194   6.987   2.751
 4938TIP3    H214758   4.298   7.094   2.726
 4939TIP3   OH214759   3.898   2.385   0.785
 4939TIP3    H114760   3.833   2.415   0.848
 4939TIP3    H214761   3.978   2.376   0.836
 4940TIP3   OH214762   6.141   3.259   0.172
 4940TIP3    H114763   6.185   3.243   0.255
 4940TIP3    H214764   6.139   3.355   0.164
 4941TIP3   OH214765   7.553   0.809   4.824
 4941TIP3    H114766   7.547   0.882   4.763
 4941TIP3    H214767   7.568   0.732   4.769
 4942TIP3   OH214768   4.310   0.722   0.914
 4942TIP3    H114769   4.315   0.794   0.851
 4942TIP3    H214770   4.323   0.765   0.999
 4943TIP3   OH214771   1.818   5.526   3.039
 4943TIP3    H114772   1.729   5.556   3.058
 4943TIP3    H214773   1.807   5.464   2.966
 4944TIP3   OH214774   4.199   4.029   5.639
 4944TIP3    H114775   4.187   4.101   5.577
 4944TIP3    H214776   4.178   3.950   5.589
 4945TIP3   OH214777   4.726   3.286   1.949
 4945TIP3    H114778   4.741   3.375   1.981
 4945TIP3    H214779   4.788   3.277   1.876
 4946TIP3   OH214780   0.027   5.564   4.991
 4946TIP3    H114781   0.092   5.621   5.030
 4946TIP3    H214782   0.011   5.601   4.904
 4947TIP3   OH214783   2.342   3.821   6.664
 4947TIP3    H114784   2.374   3.909   6.680
 4947TIP3    H214785   2.379   3.768   6.734
 4948TIP3   OH214786   4.720   7.075   6.554
 4948TIP3    H114787   4.739   7.089   6.646
 4948TIP3    H214788   4.760   6.991   6.534
 4949TIP3   OH214789   6.480   5.115   5.144
 4949TIP3    H114790   6.576   5.118   5.154
 4949TIP3    H214791   6.455   5.030   5.178
 4950TIP3   OH214792   0.613   0.145   0.833
 4950TIP3    H114793   0.707   0.151   0.815
 4950TIP3    H214794   0.606   0.163   0.927
 4951TIP3   OH214795   6.601   2.409   5.232
 4951TIP3    H114796   6.663   2.481   5.220
 4951TIP3    H214797   6.544   2.438   5.303
 4952TIP3   OH214798   1.840   4.652   1.393
 4952TIP3    H114799   1.794   4.578   1.354
 4952TIP3    H214800   1.848   4.715   1.321
 4953TIP3   OH214801   4.492   3.705   4.463
 4953TIP3    H114802   4.513   3.732   4.553
 4953TIP3    H214803   4.570   3.727   4.412
 4954TIP3   OH214804   1.850   7.343   2.371
 4954TIP3    H114805   1.841   7.424   2.321
 4954TIP3    H214806   1.808   7.361   2.455
 4955TIP3   OH214807   4.473   3.595   5.101
 4955TIP3    H114808   4.417   3.523   5.072
 4955TIP3    H214809   4.502   3.636   5.020
 4956TIP3   OH214810   2.614   5.938   2.970
 4956TIP3    H114811   2.670   5.997   2.920
 4956TIP3    H214812   2.672   5.899   3.035
 4957TIP3   OH214813   6.579   3.970   3.463
 4957TIP3    H114814   6.491   3.937   3.482
 4957TIP3    H214815   6.572   4.065   3.475
 4958TIP3   OH214816   3.090   6.918   6.000
 4958TIP3    H114817   3.166   6.945   6.051
 4958TIP3    H214818   3.055   6.999   5.964
 4959TIP3   OH214819   4.486   0.091   5.895
 4959TIP3    H114820   4.495   0.018   5.833
 4959TIP3    H214821   4.422   0.059   5.959
 4960TIP3   OH214822   1.556   0.569   3.377
 4960TIP3    H114823   1.611   0.586   3.453
 4960TIP3    H214824   1.528   0.655   3.347
 4961TIP3   OH214825   2.460   2.908   0.913
 4961TIP3    H114826   2.423   2.820   0.919
 4961TIP3    H214827   2.439   2.937   0.824
 4962TIP3   OH214828   4.827   6.939   3.370
 4962TIP3    H114829   4.800   7.024   3.402
 4962TIP3    H214830   4.757   6.911   3.311
 4963TIP3   OH214831   7.947   0.086   3.248
 4963TIP3    H114832   8.024   0.121   3.203
 4963TIP3    H214833   7.878   0.149   3.231
 4964TIP3   OH214834   2.880   6.047   5.442
 4964TIP3    H114835   2.861   6.112   5.375
 4964TIP3    H214836   2.802   5.990   5.443
 4965TIP3   OH214837   6.428   4.842   4.668
 4965TIP3    H114838   6.409   4.762   4.716
 4965TIP3    H214839   6.522   4.857   4.681
 4966TIP3   OH214840   2.911   2.454   3.397
 4966TIP3    H114841   2.824   2.493   3.407
 4966TIP3    H214842   2.895   2.365   3.367
 4967TIP3   OH214843   2.642   5.621   1.919
 4967TIP3    H114844   2.571   5.659   1.869
 4967TIP3    H214845   2.659   5.684   1.989
 4968TIP3   OH214846   1.099   4.298   2.607
 4968TIP3    H114847   1.082   4.291   2.701
 4968TIP3    H214848   1.060   4.219   2.570
 4969TIP3   OH214849   7.955   3.757   3.586
 4969TIP3    H114850   8.004   3.715   3.657
 4969TIP3    H214851   7.918   3.836   3.625
 4970TIP3   OH214852   6.939   5.340   2.948
 4970TIP3    H114853   7.010   5.322   3.009
 4970TIP3    H214854   6.872   5.385   3.000
 4971TIP3   OH214855   7.713   3.528   0.949
 4971TIP3    H114856   7.618   3.525   0.956
 4971TIP3    H214857   7.744   3.517   1.039
 4972TIP3   OH214858   6.201   7.070   2.373
 4972TIP3    H114859   6.162   7.046   2.289
 4972TIP3    H214860   6.162   7.154   2.395
 4973TIP3   OH214861   4.323   7.120   1.915
 4973TIP3    H114862   4.340   7.028   1.895
 4973TIP3    H214863   4.306   7.161   1.830
 4974TIP3   OH214864   5.425   3.800   1.726
 4974TIP3    H114865   5.354   3.841   1.678
 4974TIP3    H214866   5.456   3.869   1.785
 4975TIP3   OH214867   6.902   5.612   5.820
 4975TIP3    H114868   6.892   5.707   5.815
 4975TIP3    H214869   6.828   5.577   5.769
 4976TIP3   OH214870   3.760   4.067   0.734
 4976TIP3    H114871   3.708   4.029   0.663
 4976TIP3    H214872   3.711   4.145   0.760
 4977TIP3   OH214873   1.527   1.916   6.145
 4977TIP3    H114874   1.554   1.831   6.182
 4977TIP3    H214875   1.494   1.965   6.221
 4978TIP3   OH214876   4.506   0.242   0.354
 4978TIP3    H114877   4.544   0.160   0.323
 4978TIP3    H214878   4.473   0.285   0.276
 4979TIP3   OH214879   6.759   7.848   0.980
 4979TIP3    H114880   6.689   7.885   1.034
 4979TIP3    H214881   6.754   7.754   0.995
 4980TIP3   OH214882   0.667   2.654   3.506
 4980TIP3    H114883   0.683   2.680   3.415
 4980TIP3    H214884   0.638   2.563   3.499
 4981TIP3   OH214885   2.427   6.091   2.599
 4981TIP3    H114886   2.428   6.187   2.596
 4981TIP3    H214887   2.336   6.069   2.618
 4982TIP3   OH214888   6.957   2.954   3.299
 4982TIP3    H114889   7.033   2.998   3.262
 4982TIP3    H214890   6.883   3.010   3.274
 4983TIP3   OH214891   3.816   6.951   1.230
 4983TIP3    H114892   3.734   7.000   1.234
 4983TIP3    H214893   3.880   7.009   1.272
 4984TIP3   OH214894   1.967   7.415   6.351
 4984TIP3    H114895   1.975   7.365   6.433
 4984TIP3    H214896   1.895   7.475   6.367
 4985TIP3   OH214897   6.331   2.890   1.907
 4985TIP3    H114898   6.299   2.833   1.837
 4985TIP3    H214899   6.373   2.963   1.861
 4986TIP3   OH214900   5.164   1.966   1.360
 4986TIP3    H114901   5.253   1.942   1.333
 4986TIP3    H214902   5.174   2.052   1.402
 4987TIP3   OH214903   5.907   3.478   5.714
 4987TIP3    H114904   6.000   3.495   5.698
 4987TIP3    H214905   5.899   3.383   5.704
 4988TIP3   OH214906   3.585   2.021   0.309
 4988TIP3    H114907   3.636   2.102   0.305
 4988TIP3    H214908   3.498   2.046   0.279
 4989TIP3   OH214909   7.813   0.094   6.652
 4989TIP3    H114910   7.790   0.183   6.626
 4989TIP3    H214911   7.879   0.066   6.589
 4990TIP3   OH214912   3.300   7.055   5.203
 4990TIP3    H114913   3.264   6.988   5.144
 4990TIP3    H214914   3.291   7.017   5.290
 4991TIP3   OH214915   4.499   2.850   4.588
 4991TIP3    H114916   4.506   2.827   4.495
 4991TIP3    H214917   4.460   2.772   4.629
 4992TIP3   OH214918   4.959   4.834   5.900
 4992TIP3    H114919   4.885   4.853   5.842
 4992TIP3    H214920   5.023   4.790   5.843
 4993TIP3   OH214921   5.663   3.191   3.762
 4993TIP3    H114922   5.656   3.111   3.815
 4993TIP3    H214923   5.578   3.234   3.774
 4994TIP3   OH214924   1.050   2.706   6.581
 4994TIP3    H114925   1.052   2.645   6.655
 4994TIP3    H214926   1.142   2.721   6.559
 4995TIP3   OH214927   4.312   7.479   2.978
 4995TIP3    H114928   4.310   7.561   2.928
 4995TIP3    H214929   4.251   7.493   3.051
 4996TIP3   OH214930   2.371   0.452   2.705
 4996TIP3    H114931   2.446   0.446   2.765
 4996TIP3    H214932   2.296   0.423   2.757
 4997TIP3   OH214933   7.708   7.316   1.550
 4997TIP3    H114934   7.800   7.314   1.576
 4997TIP3    H214935   7.695   7.234   1.502
 4998TIP3   OH214936   3.719   5.639   3.828
 4998TIP3    H114937   3.746   5.548   3.843
 4998TIP3    H214938   3.684   5.639   3.739
 4999TIP3   OH214939   3.345   7.542   5.909
 4999TIP3    H114940   3.270   7.536   5.968
 4999TIP3    H214941   3.353   7.635   5.887
 5000TIP3   OH214942   4.841   2.780   0.292
 5000TIP3    H114943   4.751   2.806   0.269
 5000TIP3    H214944   4.894   2.809   0.218
 5001TIP3   OH214945   5.819   1.887   6.117
 5001TIP3    H114946   5.844   1.828   6.045
 5001TIP3    H214947   5.791   1.967   6.072
 5002TIP3   OH214948   7.287   0.563   4.837
 5002TIP3    H114949   7.235   0.519   4.904
 5002TIP3    H214950   7.298   0.652   4.869
 5003TIP3   OH214951   3.379   3.028   0.300
 5003TIP3    H114952   3.416   2.940   0.286
 5003TIP3    H214953   3.304   3.032   0.241
 5004TIP3   OH214954   1.847   5.828   3.399
 5004TIP3    H114955   1.926   5.793   3.358
 5004TIP3    H214956   1.872   5.844   3.490
 5005TIP3   OH214957   4.832   1.242   2.985
 5005TIP3    H114958   4.844   1.197   3.068
 5005TIP3    H214959   4.831   1.335   3.009
 5006TIP3   OH214960   1.260   1.914   4.504
 5006TIP3    H114961   1.225   1.886   4.589
 5006TIP3    H214962   1.277   1.832   4.457
 5007TIP3   OH214963   5.476   0.164   0.078
 5007TIP3    H114964   5.466   0.250   0.037
 5007TIP3    H214965   5.562   0.134   0.047
 5008TIP3   OH214966   2.252   1.289   0.570
 5008TIP3    H114967   2.273   1.199   0.545
 5008TIP3    H214968   2.304   1.306   0.648
 5009TIP3   OH214969   7.205   7.108   3.466
 5009TIP3    H114970   7.262   7.159   3.408
 5009TIP3    H214971   7.202   7.158   3.547
 5010TIP3   OH214972   3.732   6.877   5.108
 5010TIP3    H114973   3.801   6.826   5.066
 5010TIP3    H214974   3.760   6.886   5.199
 5011TIP3   OH214975   0.335   4.637   5.271
 5011TIP3    H114976   0.329   4.565   5.334
 5011TIP3    H214977   0.250   4.681   5.277
 5012TIP3   OH214978   5.758   0.653   2.591
 5012TIP3    H114979   5.851   0.630   2.583
 5012TIP3    H214980   5.711   0.576   2.561
 5013TIP3   OH214981   1.961   3.266   2.888
 5013TIP3    H114982   2.031   3.243   2.827
 5013TIP3    H214983   1.883   3.271   2.833
 5014TIP3   OH214984   0.669   3.257   5.804
 5014TIP3    H114985   0.635   3.308   5.878
 5014TIP3    H214986   0.655   3.312   5.728
 5015TIP3   OH214987   0.630   0.651   5.489
 5015TIP3    H114988   0.538   0.631   5.471
 5015TIP3    H214989   0.668   0.669   5.403
 5016TIP3   OH214990   3.187   1.717   4.185
 5016TIP3    H114991   3.269   1.679   4.153
 5016TIP3    H214992   3.184   1.804   4.145
 5017TIP3   OH214993   6.555   5.853   3.411
 5017TIP3    H114994   6.593   5.930   3.453
 5017TIP3    H214995   6.471   5.884   3.375
 5018TIP3   OH214996   2.055   3.803   6.368
 5018TIP3    H114997   1.989   3.734   6.361
 5018TIP3    H214998   2.023   3.873   6.311
 5019TIP3   OH214999   3.732   7.693   1.365
 5019TIP3    H115000   3.731   7.619   1.305
 5019TIP3    H215001   3.772   7.660   1.445
 5020TIP3   OH215002   3.373   4.320   4.002
 5020TIP3    H115003   3.366   4.406   3.959
 5020TIP3    H215004   3.284   4.286   4.000
 5021TIP3   OH215005   5.799   3.352   0.201
 5021TIP3    H115006   5.732   3.347   0.269
 5021TIP3    H215007   5.861   3.283   0.223
 5022TIP3   OH215008   3.229   0.317   0.094
 5022TIP3    H115009   3.323   0.310   0.109
 5022TIP3    H215010   3.191   0.322   0.181
 5023TIP3   OH215011   0.670   6.325   0.973
 5023TIP3    H115012   0.616   6.337   0.895
 5023TIP3    H215013   0.731   6.399   0.972
 5024TIP3   OH215014   0.709   4.181   1.572
 5024TIP3    H115015   0.737   4.111   1.513
 5024TIP3    H215016   0.773   4.179   1.643
 5025TIP3   OH215017   5.109   5.115   3.241
 5025TIP3    H115018   5.160   5.102   3.161
 5025TIP3    H215019   5.107   5.028   3.282
 5026TIP3   OH215020   2.174   6.563   3.565
 5026TIP3    H115021   2.098   6.571   3.622
 5026TIP3    H215022   2.225   6.492   3.602
 5027TIP3   OH215023   3.589   0.254   1.823
 5027TIP3    H115024   3.536   0.194   1.876
 5027TIP3    H215025   3.559   0.238   1.733
 5028TIP3   OH215026   1.792   4.412   3.571
 5028TIP3    H115027   1.812   4.481   3.634
 5028TIP3    H215028   1.863   4.417   3.507
 5029TIP3   OH215029   2.880   7.710   3.342
 5029TIP3    H115030   2.948   7.644   3.324
 5029TIP3    H215031   2.807   7.660   3.379
 5030TIP3   OH215032   0.153   0.877   1.535
 5030TIP3    H115033   0.203   0.859   1.455
 5030TIP3    H215034   0.074   0.824   1.527
 5031TIP3   OH215035   8.092   3.875   3.150
 5031TIP3    H115036   8.001   3.895   3.129
 5031TIP3    H215037   8.092   3.857   3.244
 5032TIP3   OH215038   1.703   4.242   5.702
 5032TIP3    H115039   1.611   4.234   5.726
 5032TIP3    H215040   1.721   4.336   5.707
 5033TIP3   OH215041   3.928   1.918   4.375
 5033TIP3    H115042   3.893   1.978   4.441
 5033TIP3    H215043   3.947   1.838   4.423
 5034TIP3   OH215044   4.697   3.447   3.108
 5034TIP3    H115045   4.791   3.455   3.124
 5034TIP3    H215046   4.657   3.460   3.193
 5035TIP3   OH215047   2.554   1.464   4.227
 5035TIP3    H115048   2.473   1.492   4.270
 5035TIP3    H215049   2.610   1.541   4.229
 5036TIP3   OH215050   1.832   7.335   0.086
 5036TIP3    H115051   1.787   7.408   0.044
 5036TIP3    H215052   1.812   7.345   0.180
 5037TIP3   OH215053   4.421   1.866   0.676
 5037TIP3    H115054   4.385   1.786   0.716
 5037TIP3    H215055   4.494   1.834   0.622
 5038TIP3   OH215056   0.108   2.051   6.304
 5038TIP3    H115057   0.169   1.987   6.266
 5038TIP3    H215058   0.082   2.106   6.230
 5039TIP3   OH215059   3.683   5.045   3.381
 5039TIP3    H115060   3.722   5.128   3.355
 5039TIP3    H215061   3.758   4.991   3.407
 5040TIP3   OH215062   3.092   3.880   6.734
 5040TIP3    H115063   3.187   3.876   6.725
 5040TIP3    H215064   3.063   3.932   6.659
 5041TIP3   OH215065   6.125   1.979   2.732
 5041TIP3    H115066   6.213   1.973   2.695
 5041TIP3    H215067   6.105   1.890   2.761
 5042TIP3   OH215068   1.367   1.874   1.610
 5042TIP3    H115069   1.278   1.861   1.579
 5042TIP3    H215070   1.392   1.789   1.647
 5043TIP3   OH215071   2.267   5.133   5.834
 5043TIP3    H115072   2.251   5.227   5.840
 5043TIP3    H215073   2.345   5.119   5.888
 5044TIP3   OH215074  -0.001   3.037   4.770
 5044TIP3    H115075   0.044   3.121   4.763
 5044TIP3    H215076  -0.023   3.030   4.863
 5045TIP3   OH215077   5.177   7.163   0.449
 5045TIP3    H115078   5.254   7.215   0.425
 5045TIP3    H215079   5.125   7.159   0.369
 5046TIP3   OH215080   7.411   4.052   4.849
 5046TIP3    H115081   7.359   4.001   4.912
 5046TIP3    H215082   7.452   4.120   4.901
 5047TIP3   OH215083   5.964   4.491   1.911
 5047TIP3    H115084   5.959   4.480   2.006
 5047TIP3    H215085   6.056   4.507   1.892
 5048TIP3   OH215086   6.523   2.167   4.932
 5048TIP3    H115087   6.508   2.131   4.844
 5048TIP3    H215088   6.618   2.169   4.942
 5049TIP3   OH215089   0.470   6.513   3.005
 5049TIP3    H115090   0.513   6.461   2.938
 5049TIP3    H215091   0.377   6.491   2.997
 5050TIP3   OH215092   6.955   5.269   5.072
 5050TIP3    H115093   6.920   5.284   4.984
 5050TIP3    H215094   7.043   5.306   5.070
 5051TIP3   OH215095   7.577   4.918   1.166
 5051TIP3    H115096   7.625   4.841   1.198
 5051TIP3    H215097   7.630   4.992   1.196
 5052TIP3   OH215098   0.342   2.046   5.409
 5052TIP3    H115099   0.414   2.075   5.353
 5052TIP3    H215100   0.320   2.123   5.462
 5053TIP3   OH215101   7.557   6.156   1.114
 5053TIP3    H115102   7.489   6.091   1.098
 5053TIP3    H215103   7.599   6.126   1.195
 5054TIP3   OH215104   5.533   4.034   0.885
 5054TIP3    H115105   5.464   4.098   0.864
 5054TIP3    H215106   5.504   3.953   0.844
 5055TIP3   OH215107   7.273   2.019   1.947
 5055TIP3    H115108   7.308   2.090   1.893
 5055TIP3    H215109   7.282   1.940   1.894
 5056TIP3   OH215110   7.268   3.246   5.446
 5056TIP3    H115111   7.348   3.197   5.428
 5056TIP3    H215112   7.291   3.303   5.519
 5057TIP3   OH215113   1.808   3.404   0.623
 5057TIP3    H115114   1.775   3.488   0.591
 5057TIP3    H215115   1.830   3.420   0.714
 5058TIP3   OH215116   1.418   7.123   0.083
 5058TIP3    H115117   1.456   7.211   0.087
 5058TIP3    H215118   1.444   7.089  -0.003
 5059TIP3   OH215119   7.484   6.646   5.355
 5059TIP3    H115120   7.428   6.579   5.315
 5059TIP3    H215121   7.545   6.597   5.410
 5060TIP3   OH215122   4.433   3.230   3.242
 5060TIP3    H115123   4.521   3.200   3.219
 5060TIP3    H215124   4.415   3.302   3.182
 5061TIP3   OH215125   3.180   7.309   6.730
 5061TIP3    H115126   3.248   7.373   6.708
 5061TIP3    H215127   3.161   7.265   6.647
 5062TIP3   OH215128   6.390   0.582   5.668
 5062TIP3    H115129   6.383   0.581   5.764
 5062TIP3    H215130   6.313   0.534   5.637
 5063TIP3   OH215131   1.358   2.591   6.157
 5063TIP3    H115132   1.360   2.500   6.188
 5063TIP3    H215133   1.438   2.601   6.105
 5064TIP3   OH215134   1.389   2.606   4.480
 5064TIP3    H115135   1.344   2.602   4.564
 5064TIP3    H215136   1.358   2.686   4.439
 5065TIP3   OH215137   0.069   7.250   1.098
 5065TIP3    H115138   0.034   7.331   1.062
 5065TIP3    H215139   0.146   7.277   1.149
 5066TIP3   OH215140   2.042   4.830   4.370
 5066TIP3    H115141   2.064   4.796   4.457
 5066TIP3    H215142   2.062   4.924   4.375
 5067TIP3   OH215143   6.852   7.819   6.115
 5067TIP3    H115144   6.916   7.835   6.045
 5067TIP3    H215145   6.799   7.746   6.084
 5068TIP3   OH215146   2.249   1.048   5.914
 5068TIP3    H115147   2.233   1.142   5.912
 5068TIP3    H215148   2.181   1.011   5.858
 5069TIP3   OH215149   5.490   3.788   0.610
 5069TIP3    H115150   5.500   3.723   0.540
 5069TIP3    H215151   5.403   3.825   0.596
 5070TIP3   OH215152   6.172   3.226   3.343
 5070TIP3    H115153   6.106   3.178   3.393
 5070TIP3    H215154   6.233   3.260   3.409
 5071TIP3   OH215155   7.094   5.695   1.061
 5071TIP3    H115156   7.180   5.738   1.063
 5071TIP3    H215157   7.059   5.708   1.149
 5072TIP3   OH215158   4.767   1.336   5.298
 5072TIP3    H115159   4.745   1.356   5.207
 5072TIP3    H215160   4.857   1.301   5.293
 5073TIP3   OH215161   6.214   6.511   6.015
 5073TIP3    H115162   6.145   6.445   6.009
 5073TIP3    H215163   6.279   6.472   6.075
 5074TIP3   OH215164   5.912   3.293   0.452
 5074TIP3    H115165   5.879   3.382   0.468
 5074TIP3    H215166   6.005   3.298   0.473
 5075TIP3   OH215167   2.875   3.511   0.481
 5075TIP3    H115168   2.852   3.541   0.569
 5075TIP3    H215169   2.840   3.578   0.423
 5076TIP3   OH215170   4.526   4.048   2.108
 5076TIP3    H115171   4.516   4.141   2.088
 5076TIP3    H215172   4.468   4.004   2.046
 5077TIP3   OH215173   6.017   2.927   6.423
 5077TIP3    H115174   6.053   2.952   6.508
 5077TIP3    H215175   5.942   2.871   6.444
 5078TIP3   OH215176   5.857   6.246   5.438
 5078TIP3    H115177   5.881   6.237   5.345
 5078TIP3    H215178   5.898   6.171   5.480
 5079TIP3   OH215179   5.652   5.558   1.639
 5079TIP3    H115180   5.701   5.553   1.721
 5079TIP3    H215181   5.581   5.619   1.657
 5080TIP3   OH215182   7.840   6.291   3.885
 5080TIP3    H115183   7.928   6.328   3.892
 5080TIP3    H215184   7.789   6.334   3.954
 5081TIP3   OH215185   6.736   5.091   1.793
 5081TIP3    H115186   6.668   5.044   1.745
 5081TIP3    H215187   6.762   5.163   1.736
 5082TIP3   OH215188   2.244   2.966   6.077
 5082TIP3    H115189   2.318   3.011   6.035
 5082TIP3    H215190   2.177   2.963   6.009
 5083TIP3   OH215191   0.261   4.255   2.317
 5083TIP3    H115192   0.212   4.185   2.274
 5083TIP3    H215193   0.222   4.261   2.404
 5084TIP3   OH215194   1.035   1.119   0.519
 5084TIP3    H115195   0.993   1.149   0.600
 5084TIP3    H215196   1.057   1.199   0.472
 5085TIP3   OH215197   7.528   2.827   2.137
 5085TIP3    H115198   7.586   2.776   2.194
 5085TIP3    H215199   7.582   2.847   2.061
 5086TIP3   OH215200   6.881   2.683   4.039
 5086TIP3    H115201   6.832   2.609   4.075
 5086TIP3    H215202   6.815   2.734   3.991
 5087TIP3   OH215203   3.468   1.532   2.964
 5087TIP3    H115204   3.427   1.588   2.899
 5087TIP3    H215205   3.402   1.466   2.984
 5088TIP3   OH215206   3.516   0.758   2.629
 5088TIP3    H115207   3.553   0.684   2.677
 5088TIP3    H215208   3.459   0.718   2.564
 5089TIP3   OH215209   3.861   7.258   4.808
 5089TIP3    H115210   3.856   7.164   4.826
 5089TIP3    H215211   3.914   7.264   4.729
 5090TIP3   OH215212   6.420   1.066   6.406
 5090TIP3    H115213   6.414   1.109   6.492
 5090TIP3    H215214   6.502   1.099   6.369
 5091TIP3   OH215215   4.047   0.665   1.014
 5091TIP3    H115216   4.122   0.663   0.954
 5091TIP3    H215217   4.069   0.601   1.082
 5092TIP3   OH215218   7.664   6.477   4.630
 5092TIP3    H115219   7.733   6.536   4.600
 5092TIP3    H215220   7.668   6.482   4.726
 5093TIP3   OH215221   2.400   6.001   3.129
 5093TIP3    H115222   2.325   6.043   3.089
 5093TIP3    H215223   2.466   5.998   3.061
 5094TIP3   OH215224   2.961   0.863   6.172
 5094TIP3    H115225   2.959   0.769   6.190
 5094TIP3    H215226   2.886   0.898   6.220
 5095TIP3   OH215227   2.682   3.706   1.054
 5095TIP3    H115228   2.617   3.640   1.078
 5095TIP3    H215229   2.633   3.773   1.008
 5096TIP3   OH215230   3.217   4.908   3.369
 5096TIP3    H115231   3.290   4.859   3.331
 5096TIP3    H215232   3.258   4.988   3.404
 5097TIP3   OH215233   1.023   3.217   4.399
 5097TIP3    H115234   1.016   3.267   4.480
 5097TIP3    H215235   1.117   3.210   4.382
 5098TIP3   OH215236   3.202   0.938   6.046
 5098TIP3    H115237   3.124   0.909   6.094
 5098TIP3    H215238   3.240   1.007   6.101
 5099TIP3   OH215239   0.146   1.090   1.995
 5099TIP3    H115240   0.222   1.033   2.006
 5099TIP3    H215241   0.127   1.086   1.901
 5100TIP3   OH215242   1.943   4.359   2.851
 5100TIP3    H115243   2.030   4.389   2.824
 5100TIP3    H215244   1.956   4.269   2.879
 5101TIP3   OH215245   6.367   6.566   0.864
 5101TIP3    H115246   6.347   6.655   0.835
 5101TIP3    H215247   6.304   6.511   0.816
 5102TIP3   OH215248   1.599   0.010   5.878
 5102TIP3    H115249   1.631  -0.011   5.791
 5102TIP3    H215250   1.525   0.070   5.862
 5103TIP3   OH215251   0.196   2.966   5.681
 5103TIP3    H115252   0.274   2.991   5.632
 5103TIP3    H215253   0.137   3.041   5.674
 5104TIP3   OH215254   3.782   3.403   2.610
 5104TIP3    H115255   3.823   3.421   2.526
 5104TIP3    H215256   3.781   3.307   2.615
 5105TIP3   OH215257   3.317   4.283   0.046
 5105TIP3    H115258   3.234   4.286   0.094
 5105TIP3    H215259   3.311   4.206  -0.010
 5106TIP3   OH215260   6.502   2.779   2.814
 5106TIP3    H115261   6.555   2.710   2.774
 5106TIP3    H215262   6.514   2.855   2.757
 5107TIP3   OH215263   4.383   1.303   6.128
 5107TIP3    H115264   4.343   1.323   6.043
 5107TIP3    H215265   4.423   1.218   6.116
 5108TIP3   OH215266   1.962   0.456   4.884
 5108TIP3    H115267   1.933   0.471   4.794
 5108TIP3    H215268   1.984   0.363   4.886
 5109TIP3   OH215269   5.414   1.877   1.284
 5109TIP3    H115270   5.495   1.827   1.289
 5109TIP3    H215271   5.406   1.902   1.192
 5110TIP3   OH215272   6.961   3.664   3.856
 5110TIP3    H115273   6.890   3.721   3.886
 5110TIP3    H215274   7.024   3.664   3.928
 5111TIP3   OH215275   1.308   5.958   2.855
 5111TIP3    H115276   1.341   5.962   2.945
 5111TIP3    H215277   1.224   6.004   2.858
 5112TIP3   OH215278   7.498   4.539   1.450
 5112TIP3    H115279   7.562   4.529   1.520
 5112TIP3    H215280   7.460   4.452   1.439
 5113TIP3   OH215281   3.981   2.849   6.057
 5113TIP3    H115282   3.888   2.829   6.045
 5113TIP3    H215283   4.027   2.774   6.020
 5114TIP3   OH215284   4.332   0.564   6.557
 5114TIP3    H115285   4.396   0.626   6.521
 5114TIP3    H215286   4.369   0.538   6.642
 5115TIP3   OH215287   1.165   7.599   2.086
 5115TIP3    H115288   1.211   7.602   2.170
 5115TIP3    H215289   1.107   7.523   2.093
 5116TIP3   OH215290   2.537   2.988   4.536
 5116TIP3    H115291   2.475   3.059   4.519
 5116TIP3    H215292   2.484   2.910   4.545
 5117TIP3   OH215293   4.468   7.555   2.294
 5117TIP3    H115294   4.453   7.547   2.388
 5117TIP3    H215295   4.436   7.642   2.272
 5118TIP3   OH215296   3.703   5.134   5.843
 5118TIP3    H115297   3.691   5.226   5.818
 5118TIP3    H215298   3.624   5.113   5.893
 5119TIP3   OH215299   5.082   5.927   6.690
 5119TIP3    H115300   5.114   5.929   6.780
 5119TIP3    H215301   5.021   6.001   6.685
 5120TIP3   OH215302   4.111   0.557   1.263
 5120TIP3    H115303   4.047   0.488   1.280
 5120TIP3    H215304   4.196   0.512   1.264
 5121TIP3   OH215305   7.282   4.998   5.953
 5121TIP3    H115306   7.193   5.021   5.926
 5121TIP3    H215307   7.338   5.039   5.887
 5122TIP3   OH215308   7.079   1.742   3.556
 5122TIP3    H115309   7.068   1.797   3.633
 5122TIP3    H215310   7.038   1.791   3.485
 5123TIP3   OH215311   1.490   2.726   0.648
 5123TIP3    H115312   1.465   2.770   0.729
 5123TIP3    H215313   1.493   2.796   0.583
 5124TIP3   OH215314   0.724   5.539   1.190
 5124TIP3    H115315   0.792   5.605   1.176
 5124TIP3    H215316   0.700   5.548   1.282
 5125TIP3   OH215317   1.875   3.833   0.732
 5125TIP3    H115318   1.858   3.864   0.821
 5125TIP3    H215319   1.804   3.870   0.679
 5126TIP3   OH215320   1.133   1.363   3.002
 5126TIP3    H115321   1.073   1.330   3.068
 5126TIP3    H215322   1.207   1.302   3.005
 5127TIP3   OH215323   1.219   5.824   5.424
 5127TIP3    H115324   1.281   5.785   5.486
 5127TIP3    H215325   1.141   5.840   5.476
 5128TIP3   OH215326   7.153   0.391   2.685
 5128TIP3    H115327   7.204   0.310   2.687
 5128TIP3    H215328   7.096   0.385   2.762
 5129TIP3   OH215329   1.462   7.322   2.737
 5129TIP3    H115330   1.432   7.237   2.704
 5129TIP3    H215331   1.437   7.321   2.829
 5130TIP3   OH215332   2.300   7.115   1.193
 5130TIP3    H115333   2.211   7.137   1.222
 5130TIP3    H215334   2.287   7.064   1.113
 5131TIP3   OH215335   7.192   6.793   6.624
 5131TIP3    H115336   7.265   6.805   6.562
 5131TIP3    H215337   7.217   6.842   6.701
 5132TIP3   OH215338   2.525   4.953   2.046
 5132TIP3    H115339   2.469   5.016   2.002
 5132TIP3    H215340   2.602   5.003   2.072
 5133TIP3   OH215341   5.247   7.220   6.322
 5133TIP3    H115342   5.229   7.126   6.322
 5133TIP3    H215343   5.341   7.227   6.339
 5134TIP3   OH215344   1.354   2.621   2.491
 5134TIP3    H115345   1.259   2.620   2.502
 5134TIP3    H215346   1.385   2.679   2.562
 5135TIP3   OH215347   5.328   6.250   6.360
 5135TIP3    H115348   5.329   6.250   6.264
 5135TIP3    H215349   5.339   6.158   6.385
 5136TIP3   OH215350   7.304   6.962   2.857
 5136TIP3    H115351   7.374   6.910   2.818
 5136TIP3    H215352   7.254   6.996   2.783
 5137TIP3   OH215353   1.706   4.154   4.719
 5137TIP3    H115354   1.637   4.209   4.756
 5137TIP3    H215355   1.686   4.066   4.750
 5138TIP3   OH215356   6.430   1.930   5.783
 5138TIP3    H115357   6.437   1.845   5.825
 5138TIP3    H215358   6.517   1.948   5.748
 5139TIP3   OH215359   6.176   6.661   2.996
 5139TIP3    H115360   6.117   6.728   2.963
 5139TIP3    H215361   6.120   6.586   3.015
 5140TIP3   OH215362   2.243   6.021   1.836
 5140TIP3    H115363   2.206   5.939   1.868
 5140TIP3    H215364   2.337   6.012   1.849
 5141TIP3   OH215365   2.410   2.071   0.178
 5141TIP3    H115366   2.488   2.077   0.233
 5141TIP3    H215367   2.343   2.120   0.226
 5142TIP3   OH215368   1.303   0.078   3.961
 5142TIP3    H115369   1.315  -0.012   3.991
 5142TIP3    H215370   1.241   0.072   3.889
 5143TIP3   OH215371   3.778   4.544   4.653
 5143TIP3    H115372   3.844   4.477   4.635
 5143TIP3    H215373   3.764   4.586   4.568
 5144TIP3   OH215374   4.420   3.007   4.811
 5144TIP3    H115375   4.490   2.952   4.846
 5144TIP3    H215376   4.343   2.951   4.810
 5145TIP3   OH215377   3.102   5.986   1.887
 5145TIP3    H115378   3.136   5.907   1.845
 5145TIP3    H215379   3.165   6.005   1.957
 5146TIP3   OH215380   4.163   1.767   5.693
 5146TIP3    H115381   4.180   1.846   5.743
 5146TIP3    H215382   4.164   1.795   5.601
 5147TIP3   OH215383   4.430   7.398   4.004
 5147TIP3    H115384   4.394   7.371   3.919
 5147TIP3    H215385   4.506   7.453   3.981
 5148TIP3   OH215386   3.143   5.523   5.215
 5148TIP3    H115387   3.175   5.560   5.297
 5148TIP3    H215388   3.146   5.428   5.229
 5149TIP3   OH215389   3.950   2.072   3.456
 5149TIP3    H115390   4.002   1.992   3.446
 5149TIP3    H215391   4.011   2.143   3.435
 5150TIP3   OH215392   4.326   4.404   6.165
 5150TIP3    H115393   4.357   4.489   6.135
 5150TIP3    H215394   4.263   4.423   6.234
 5151TIP3   OH215395   4.545   5.942   5.439
 5151TIP3    H115396   4.567   6.009   5.374
 5151TIP3    H215397   4.543   5.861   5.389
 5152TIP3   OH215398   4.104   7.051   5.368
 5152TIP3    H115399   4.117   7.075   5.277
 5152TIP3    H215400   4.012   7.071   5.385
 5153TIP3   OH215401   5.208   6.646   1.424
 5153TIP3    H115402   5.232   6.569   1.475
 5153TIP3    H215403   5.264   6.716   1.458
 5154TIP3   OH215404   7.155   3.321   6.414
 5154TIP3    H115405   7.109   3.323   6.330
 5154TIP3    H215406   7.221   3.252   6.404
 5155TIP3   OH215407   3.782   7.030   2.453
 5155TIP3    H115408   3.729   6.954   2.428
 5155TIP3    H215409   3.727   7.105   2.434
 5156TIP3   OH215410   0.163   6.805   1.287
 5156TIP3    H115411   0.132   6.865   1.218
 5156TIP3    H215412   0.240   6.848   1.323
 5157TIP3   OH215413   8.158   5.962   4.005
 5157TIP3    H115414   8.189   6.010   3.929
 5157TIP3    H215415   8.226   5.973   4.071
 5158TIP3   OH215416   2.082   2.253   1.915
 5158TIP3    H115417   2.033   2.335   1.928
 5158TIP3    H215418   2.017   2.184   1.926
 5159TIP3   OH215419   2.564   2.547   5.831
 5159TIP3    H115420   2.566   2.563   5.925
 5159TIP3    H215421   2.588   2.631   5.792
 5160TIP3   OH215422   5.958   1.984   4.856
 5160TIP3    H115423   5.971   2.078   4.849
 5160TIP3    H215424   6.043   1.949   4.880
 5161TIP3   OH215425   6.160   3.240   1.534
 5161TIP3    H115426   6.189   3.149   1.535
 5161TIP3    H215427   6.151   3.260   1.441
 5162TIP3   OH215428   3.261   1.135   6.480
 5162TIP3    H115429   3.219   1.214   6.514
 5162TIP3    H215430   3.257   1.073   6.553
 5163TIP3   OH215431   7.978   6.782   3.898
 5163TIP3    H115432   7.958   6.706   3.952
 5163TIP3    H215433   7.964   6.857   3.956
 5164TIP3   OH215434   3.847   3.449   1.821
 5164TIP3    H115435   3.852   3.363   1.781
 5164TIP3    H215436   3.818   3.433   1.911
 5165TIP3   OH215437   5.028   6.419   4.468
 5165TIP3    H115438   5.053   6.389   4.555
 5165TIP3    H215439   5.053   6.348   4.410
 5166TIP3   OH215440   6.283   6.066   2.415
 5166TIP3    H115441   6.275   6.065   2.510
 5166TIP3    H215442   6.202   6.107   2.385
 5167TIP3   OH215443   1.096   4.248   2.192
 5167TIP3    H115444   1.035   4.178   2.217
 5167TIP3    H215445   1.051   4.328   2.218
 5168TIP3   OH215446   3.534   1.777   2.721
 5168TIP3    H115447   3.624   1.764   2.691
 5168TIP3    H215448   3.510   1.863   2.686
 5169TIP3   OH215449   5.600   2.489   5.167
 5169TIP3    H115450   5.561   2.550   5.229
 5169TIP3    H215451   5.611   2.408   5.218
 5170TIP3   OH215452   2.516   2.229   4.878
 5170TIP3    H115453   2.556   2.234   4.966
 5170TIP3    H215454   2.424   2.209   4.895
 5171TIP3   OH215455   6.917   2.851   6.100
 5171TIP3    H115456   6.945   2.854   6.008
 5171TIP3    H215457   6.998   2.851   6.150
 5172TIP3   OH215458   7.023   7.646   0.687
 5172TIP3    H115459   7.023   7.597   0.604
 5172TIP3    H215460   7.104   7.697   0.684
 5173TIP3   OH215461   1.139   4.012   4.901
 5173TIP3    H115462   1.206   3.949   4.871
 5173TIP3    H215463   1.154   4.089   4.846
 5174TIP3   OH215464   2.681   5.000   4.339
 5174TIP3    H115465   2.750   4.965   4.282
 5174TIP3    H215466   2.728   5.033   4.416
 5175TIP3   OH215467   5.394   6.516   0.371
 5175TIP3    H115468   5.473   6.463   0.358
 5175TIP3    H215469   5.390   6.572   0.293
 5176TIP3   OH215470   7.317   4.279   3.843
 5176TIP3    H115471   7.364   4.329   3.776
 5176TIP3    H215472   7.347   4.317   3.926
 5177TIP3   OH215473   1.393   5.813   0.076
 5177TIP3    H115474   1.419   5.748   0.011
 5177TIP3    H215475   1.470   5.823   0.133
 5178TIP3   OH215476   4.994   1.915   3.492
 5178TIP3    H115477   4.991   2.011   3.487
 5178TIP3    H215478   4.943   1.894   3.570
 5179TIP3   OH215479   7.398   1.021   5.764
 5179TIP3    H115480   7.398   1.001   5.670
 5179TIP3    H215481   7.483   1.062   5.779
 5180TIP3   OH215482   6.909   7.666   6.497
 5180TIP3    H115483   6.920   7.759   6.476
 5180TIP3    H215484   6.915   7.622   6.412
 5181TIP3   OH215485   1.980   2.819   6.110
 5181TIP3    H115486   2.010   2.794   6.198
 5181TIP3    H215487   2.052   2.870   6.074
 5182TIP3   OH215488   6.520   7.197   2.496
 5182TIP3    H115489   6.451   7.132   2.510
 5182TIP3    H215490   6.601   7.147   2.490
 5183TIP3   OH215491   1.139   5.702   3.365
 5183TIP3    H115492   1.078   5.640   3.405
 5183TIP3    H215493   1.162   5.662   3.281
 5184TIP3   OH215494   8.202   1.286   4.143
 5184TIP3    H115495   8.284   1.280   4.095
 5184TIP3    H215496   8.214   1.227   4.218
 5185TIP3   OH215497   3.068   3.667   6.037
 5185TIP3    H115498   3.037   3.754   6.010
 5185TIP3    H215499   3.162   3.677   6.046
 5186TIP3   OH215500   0.946   0.606   0.951
 5186TIP3    H115501   0.972   0.555   0.874
 5186TIP3    H215502   1.016   0.670   0.962
 5187TIP3   OH215503   4.757   7.529   5.217
 5187TIP3    H115504   4.680   7.474   5.236
 5187TIP3    H215505   4.792   7.493   5.135
 5188TIP3   OH215506   7.958   2.979   0.127
 5188TIP3    H115507   7.986   2.933   0.207
 5188TIP3    H215508   7.915   2.912   0.075
 5189TIP3   OH215509   0.925   6.381   3.419
 5189TIP3    H115510   1.013   6.406   3.447
 5189TIP3    H215511   0.927   6.387   3.324
 5190TIP3   OH215512   6.172   2.474   3.923
 5190TIP3    H115513   6.201   2.389   3.893
 5190TIP3    H215514   6.098   2.496   3.866
 5191TIP3   OH215515   1.874   0.946   1.025
 5191TIP3    H115516   1.874   0.881   0.955
 5191TIP3    H215517   1.953   0.928   1.076
 5192TIP3   OH215518   0.984   0.093   4.479
 5192TIP3    H115519   0.971   0.000   4.498
 5192TIP3    H215520   1.061   0.095   4.423
 5193TIP3   OH215521   2.141   2.469   0.192
 5193TIP3    H115522   2.222   2.498   0.151
 5193TIP3    H215523   2.164   2.388   0.238
 5194TIP3   OH215524   4.890   0.813   1.345
 5194TIP3    H115525   4.816   0.873   1.341
 5194TIP3    H215526   4.883   0.761   1.265
 5195TIP3   OH215527   4.486   4.796   1.060
 5195TIP3    H115528   4.480   4.885   1.096
 5195TIP3    H215529   4.580   4.780   1.052
 5196TIP3   OH215530   0.798   2.479   4.439
 5196TIP3    H115531   0.788   2.573   4.458
 5196TIP3    H215532   0.881   2.472   4.393
 5197TIP3   OH215533   5.693   4.134   5.633
 5197TIP3    H115534   5.647   4.129   5.717
 5197TIP3    H215535   5.656   4.062   5.581
 5198TIP3   OH215536   8.012   5.005   2.303
 5198TIP3    H115537   8.032   5.078   2.361
 5198TIP3    H215538   8.005   5.045   2.216
 5199TIP3   OH215539   6.036   4.887   1.804
 5199TIP3    H115540   5.991   4.956   1.756
 5199TIP3    H215541   5.967   4.843   1.853
 5200TIP3   OH215542   0.575   3.957   1.953
 5200TIP3    H115543   0.537   4.041   1.978
 5200TIP3    H215544   0.669   3.967   1.969
 5201TIP3   OH215545   1.806   6.309   6.678
 5201TIP3    H115546   1.874   6.349   6.734
 5201TIP3    H215547   1.750   6.383   6.654
 5202TIP3   OH215548   1.734   5.326   0.280
 5202TIP3    H115549   1.680   5.257   0.317
 5202TIP3    H215550   1.704   5.406   0.323
 5203TIP3   OH215551   2.847   1.826   2.427
 5203TIP3    H115552   2.807   1.765   2.366
 5203TIP3    H215553   2.799   1.813   2.509
 5204TIP3   OH215554   5.382   7.212   2.931
 5204TIP3    H115555   5.343   7.182   3.013
 5204TIP3    H215556   5.310   7.257   2.885
 5205TIP3   OH215557   3.949   2.628   4.252
 5205TIP3    H115558   3.902   2.545   4.244
 5205TIP3    H215559   4.003   2.633   4.173
 5206TIP3   OH215560   6.055   3.610   5.105
 5206TIP3    H115561   5.970   3.598   5.062
 5206TIP3    H215562   6.104   3.666   5.045
 5207TIP3   OH215563   7.340   4.212   5.393
 5207TIP3    H115564   7.373   4.153   5.325
 5207TIP3    H215565   7.275   4.267   5.348
 5208TIP3   OH215566   6.635   5.815   5.200
 5208TIP3    H115567   6.553   5.807   5.250
 5208TIP3    H215568   6.664   5.905   5.217
 5209TIP3   OH215569   3.546   6.325   1.411
 5209TIP3    H115570   3.457   6.359   1.418
 5209TIP3    H215571   3.597   6.376   1.473
 5210TIP3   OH215572   5.866   6.267   0.344
 5210TIP3    H115573   5.951   6.310   0.353
 5210TIP3    H215574   5.884   6.175   0.364
 5211TIP3   OH215575   2.095   2.872   6.527
 5211TIP3    H115576   2.187   2.898   6.537
 5211TIP3    H215577   2.095   2.814   6.451
 5212TIP3   OH215578   0.586   0.858   3.485
 5212TIP3    H115579   0.662   0.803   3.464
 5212TIP3    H215580   0.583   0.922   3.414
 5213TIP3   OH215581   1.253   4.327   2.888
 5213TIP3    H115582   1.304   4.380   2.949
 5213TIP3    H215583   1.308   4.249   2.873
 5214TIP3   OH215584   7.464   6.000   3.405
 5214TIP3    H115585   7.454   6.019   3.312
 5214TIP3    H215586   7.529   5.930   3.408
 5215TIP3   OH215587   0.187   0.609   0.837
 5215TIP3    H115588   0.203   0.541   0.771
 5215TIP3    H215589   0.263   0.666   0.831
 5216TIP3   OH215590   8.262   3.817   5.592
 5216TIP3    H115591   8.296   3.890   5.644
 5216TIP3    H215592   8.189   3.783   5.643
 5217TIP3   OH215593   0.293   3.007   6.329
 5217TIP3    H115594   0.226   2.999   6.396
 5217TIP3    H215595   0.284   3.097   6.297
 5218TIP3   OH215596   3.259   2.030   0.683
 5218TIP3    H115597   3.191   2.081   0.639
 5218TIP3    H215598   3.293   1.972   0.614
 5219TIP3   OH215599   2.834   3.716   1.826
 5219TIP3    H115600   2.880   3.707   1.743
 5219TIP3    H215601   2.882   3.786   1.872
 5220TIP3   OH215602   0.229   4.122   3.750
 5220TIP3    H115603   0.276   4.192   3.795
 5220TIP3    H215604   0.201   4.062   3.819
 5221TIP3   OH215605   0.139   5.413   2.761
 5221TIP3    H115606   0.130   5.506   2.782
 5221TIP3    H215607   0.228   5.406   2.726
 5222TIP3   OH215608   4.568   5.080   3.637
 5222TIP3    H115609   4.562   5.158   3.582
 5222TIP3    H215610   4.490   5.030   3.615
 5223TIP3   OH215611   3.595   2.787   4.657
 5223TIP3    H115612   3.558   2.730   4.589
 5223TIP3    H215613   3.608   2.871   4.615
 5224TIP3   OH215614   0.540   4.189   3.152
 5224TIP3    H115615   0.571   4.193   3.242
 5224TIP3    H215616   0.576   4.268   3.111
 5225TIP3   OH215617   2.420   5.706   1.760
 5225TIP3    H115618   2.434   5.616   1.728
 5225TIP3    H215619   2.434   5.761   1.683
 5226TIP3   OH215620   2.107   6.720   3.355
 5226TIP3    H115621   2.141   6.656   3.417
 5226TIP3    H215622   2.178   6.733   3.292
 5227TIP3   OH215623   3.240   7.507   1.720
 5227TIP3    H115624   3.213   7.485   1.630
 5227TIP3    H215625   3.199   7.439   1.774
 5228TIP3   OH215626   0.102   5.770   4.740
 5228TIP3    H115627   0.082   5.763   4.647
 5228TIP3    H215628   0.106   5.865   4.756
 5229TIP3   OH215629   8.109   6.191   2.459
 5229TIP3    H115630   8.040   6.252   2.484
 5229TIP3    H215631   8.141   6.223   2.375
 5230TIP3   OH215632   6.872   0.593   3.682
 5230TIP3    H115633   6.786   0.635   3.691
 5230TIP3    H215634   6.926   0.660   3.640
 5231TIP3   OH215635   1.264   2.822   4.343
 5231TIP3    H115636   1.285   2.893   4.404
 5231TIP3    H215637   1.273   2.861   4.256
 5232TIP3   OH215638   3.346   4.647   3.456
 5232TIP3    H115639   3.268   4.649   3.401
 5232TIP3    H215640   3.416   4.681   3.399
 5233TIP3   OH215641   0.293   7.403   5.206
 5233TIP3    H115642   0.277   7.497   5.215
 5233TIP3    H215643   0.269   7.366   5.291
 5234TIP3   OH215644   5.928   2.841   1.504
 5234TIP3    H115645   5.844   2.886   1.495
 5234TIP3    H215646   5.961   2.833   1.414
 5235TIP3   OH215647   4.651   6.852   0.990
 5235TIP3    H115648   4.575   6.796   0.975
 5235TIP3    H215649   4.706   6.801   1.050
 5236TIP3   OH215650   5.065   0.707   5.755
 5236TIP3    H115651   5.099   0.761   5.684
 5236TIP3    H215652   5.143   0.683   5.806
 5237TIP3   OH215653   3.396   5.795   0.623
 5237TIP3    H115654   3.437   5.829   0.703
 5237TIP3    H215655   3.380   5.703   0.641
 5238TIP3   OH215656   3.510   0.452   2.518
 5238TIP3    H115657   3.416   0.469   2.529
 5238TIP3    H215658   3.514   0.362   2.486
 5239TIP3   OH215659   7.650   5.926   2.557
 5239TIP3    H115660   7.580   5.867   2.531
 5239TIP3    H215661   7.614   6.014   2.543
 5240TIP3   OH215662   7.813   0.804   1.959
 5240TIP3    H115663   7.873   0.731   1.975
 5240TIP3    H215664   7.864   0.865   1.905
 5241TIP3   OH215665   7.001   7.595   2.126
 5241TIP3    H115666   6.966   7.545   2.200
 5241TIP3    H215667   6.925   7.643   2.092
 5242TIP3   OH215668   7.985   6.009   5.241
 5242TIP3    H115669   8.002   6.025   5.148
 5242TIP3    H215670   8.003   5.915   5.252
 5243TIP3   OH215671   3.640   3.842   0.069
 5243TIP3    H115672   3.705   3.913   0.066
 5243TIP3    H215673   3.637   3.809  -0.020
 5244TIP3   OH215674   0.336   3.066   1.647
 5244TIP3    H115675   0.420   3.060   1.693
 5244TIP3    H215676   0.358   3.048   1.555
 5245TIP3   OH215677   0.932   5.257   4.728
 5245TIP3    H115678   0.884   5.183   4.693
 5245TIP3    H215679   1.003   5.272   4.665
 5246TIP3   OH215680   6.230   3.729   3.771
 5246TIP3    H115681   6.226   3.693   3.682
 5246TIP3    H215682   6.323   3.746   3.785
 5247TIP3   OH215683   3.293   3.885   5.061
 5247TIP3    H115684   3.384   3.887   5.092
 5247TIP3    H215685   3.282   3.795   5.029
 5248TIP3   OH215686   4.502   5.305   2.718
 5248TIP3    H115687   4.583   5.268   2.682
 5248TIP3    H215688   4.524   5.397   2.735
 5249TIP3   OH215689   0.744   4.622   4.389
 5249TIP3    H115690   0.797   4.562   4.336
 5249TIP3    H215691   0.776   4.610   4.478
 5250TIP3   OH215692   7.489   7.346   3.813
 5250TIP3    H115693   7.504   7.435   3.782
 5250TIP3    H215694   7.571   7.301   3.795
 5251TIP3   OH215695   6.789   4.420   1.564
 5251TIP3    H115696   6.836   4.498   1.591
 5251TIP3    H215697   6.735   4.449   1.490
 5252TIP3   OH215698   1.144   7.286   0.160
 5252TIP3    H115699   1.153   7.196   0.129
 5252TIP3    H215700   1.126   7.277   0.254
 5253TIP3   OH215701   0.717   0.163   6.133
 5253TIP3    H115702   0.631   0.170   6.173
 5253TIP3    H215703   0.756   0.250   6.146
 5254TIP3   OH215704   0.428   1.005   0.268
 5254TIP3    H115705   0.381   0.930   0.305
 5254TIP3    H215706   0.478   0.967   0.195
 5255TIP3   OH215707   6.205   3.644   4.055
 5255TIP3    H115708   6.184   3.630   3.963
 5255TIP3    H215709   6.128   3.613   4.103
 5256TIP3   OH215710   1.204   5.247   0.741
 5256TIP3    H115711   1.212   5.283   0.829
 5256TIP3    H215712   1.268   5.295   0.689
 5257TIP3   OH215713   1.358   2.521   0.231
 5257TIP3    H115714   1.297   2.544   0.162
 5257TIP3    H215715   1.415   2.598   0.240
 5258TIP3   OH215716   4.093  -0.005   5.856
 5258TIP3    H115717   4.152   0.061   5.818
 5258TIP3    H215718   4.137  -0.088   5.840
 5259TIP3   OH215719   5.306   7.623   0.269
 5259TIP3    H115720   5.335   7.540   0.305
 5259TIP3    H215721   5.370   7.687   0.300
 5260TIP3   OH215722   4.087   3.323   3.106
 5260TIP3    H115723   4.169   3.297   3.065
 5260TIP3    H215724   4.077   3.263   3.180
 5261TIP3   OH215725   5.279   4.607   6.007
 5261TIP3    H115726   5.335   4.673   5.967
 5261TIP3    H215727   5.190   4.637   5.992
 5262TIP3   OH215728   0.136   2.261   1.256
 5262TIP3    H115729   0.196   2.267   1.182
 5262TIP3    H215730   0.058   2.309   1.228
 5263TIP3   OH215731   6.104   1.726   2.851
 5263TIP3    H115732   6.022   1.687   2.820
 5263TIP3    H215733   6.081   1.772   2.931
 5264TIP3   OH215734   3.045   6.836   5.581
 5264TIP3    H115735   2.996   6.847   5.500
 5264TIP3    H215736   3.002   6.764   5.627
 5265TIP3   OH215737   5.458   3.084   3.918
 5265TIP3    H115738   5.410   3.008   3.885
 5265TIP3    H215739   5.405   3.115   3.992
 5266TIP3   OH215740   8.012   6.570   2.706
 5266TIP3    H115741   8.017   6.567   2.802
 5266TIP3    H215742   8.014   6.664   2.686
 5267TIP3   OH215743   1.956   0.880   6.438
 5267TIP3    H115744   1.948   0.805   6.498
 5267TIP3    H215745   1.970   0.955   6.495
 5268TIP3   OH215746   1.196   2.865   3.144
 5268TIP3    H115747   1.207   2.958   3.164
 5268TIP3    H215748   1.186   2.823   3.230
 5269TIP3   OH215749   2.862   5.539   0.701
 5269TIP3    H115750   2.907   5.529   0.617
 5269TIP3    H215751   2.774   5.567   0.677
 5270TIP3   OH215752   3.638   4.187   1.895
 5270TIP3    H115753   3.593   4.110   1.930
 5270TIP3    H215754   3.673   4.231   1.972
 5271TIP3   OH215755   2.778   2.764   1.802
 5271TIP3    H115756   2.825   2.827   1.856
 5271TIP3    H215757   2.841   2.737   1.736
 5272TIP3   OH215758   6.511   3.143   4.179
 5272TIP3    H115759   6.491   3.052   4.198
 5272TIP3    H215760   6.519   3.185   4.265
 5273TIP3   OH215761   5.650   3.603   1.344
 5273TIP3    H115762   5.574   3.604   1.403
 5273TIP3    H215763   5.616   3.635   1.261
 5274TIP3   OH215764   3.654   5.996   2.818
 5274TIP3    H115765   3.737   5.964   2.785
 5274TIP3    H215766   3.665   6.091   2.823
 5275TIP3   OH215767   4.496   0.276   0.849
 5275TIP3    H115768   4.476   0.217   0.776
 5275TIP3    H215769   4.568   0.330   0.818
 5276TIP3   OH215770   0.867   4.288   6.279
 5276TIP3    H115771   0.918   4.338   6.215
 5276TIP3    H215772   0.886   4.197   6.260
 5277TIP3   OH215773   5.756   4.271   6.233
 5277TIP3    H115774   5.669   4.309   6.225
 5277TIP3    H215775   5.757   4.228   6.318
 5278TIP3   OH215776   8.133   5.084   5.136
 5278TIP3    H115777   8.213   5.120   5.174
 5278TIP3    H215778   8.097   5.155   5.083
 5279TIP3   OH215779   6.669   2.470   1.654
 5279TIP3    H115780   6.673   2.560   1.623
 5279TIP3    H215781   6.576   2.456   1.674
 5280TIP3   OH215782   6.234   5.253   6.153
 5280TIP3    H115783   6.239   5.297   6.068
 5280TIP3    H215784   6.166   5.300   6.201
 5281TIP3   OH215785   0.710   7.318   4.178
 5281TIP3    H115786   0.692   7.361   4.262
 5281TIP3    H215787   0.647   7.357   4.117
 5282TIP3   OH215788   5.351   0.158   6.327
 5282TIP3    H115789   5.299   0.127   6.253
 5282TIP3    H215790   5.316   0.111   6.403
 5283TIP3   OH215791   3.675   6.682   1.258
 5283TIP3    H115792   3.723   6.606   1.225
 5283TIP3    H215793   3.680   6.746   1.187
 5284TIP3   OH215794   4.239   3.761   2.882
 5284TIP3    H115795   4.220   3.674   2.848
 5284TIP3    H215796   4.329   3.779   2.852
 5285TIP3   OH215797   3.540   0.780   6.751
 5285TIP3    H115798   3.634   0.775   6.768
 5285TIP3    H215799   3.532   0.758   6.658
 5286TIP3   OH215800   0.200   7.856   2.644
 5286TIP3    H115801   0.267   7.797   2.677
 5286TIP3    H215802   0.165   7.812   2.566
 5287TIP3   OH215803   7.635   2.102   2.400
 5287TIP3    H115804   7.588   2.181   2.427
 5287TIP3    H215805   7.727   2.122   2.418
 5288TIP3   OH215806   4.528   4.326   5.488
 5288TIP3    H115807   4.451   4.297   5.438
 5288TIP3    H215808   4.493   4.358   5.571
 5289TIP3   OH215809   1.427   6.904   1.664
 5289TIP3    H115810   1.496   6.889   1.598
 5289TIP3    H215811   1.346   6.899   1.614
 5290TIP3   OH215812   0.213   0.726   2.442
 5290TIP3    H115813   0.208   0.631   2.450
 5290TIP3    H215814   0.279   0.752   2.507
 5291TIP3   OH215815   1.103   1.455   0.532
 5291TIP3    H115816   1.110   1.505   0.613
 5291TIP3    H215817   1.194   1.444   0.503
 5292TIP3   OH215818   4.274   3.828   5.159
 5292TIP3    H115819   4.267   3.794   5.069
 5292TIP3    H215820   4.199   3.888   5.167
 5293TIP3   OH215821   6.145   3.739   0.099
 5293TIP3    H115822   6.207   3.784   0.156
 5293TIP3    H215823   6.082   3.699   0.159
 5294TIP3   OH215824   2.032   1.967   0.507
 5294TIP3    H115825   2.045   2.049   0.555
 5294TIP3    H215826   1.955   1.984   0.452
 5295TIP3   OH215827   2.478   1.842   4.057
 5295TIP3    H115828   2.451   1.820   4.146
 5295TIP3    H215829   2.474   1.937   4.054
 5296TIP3   OH215830   2.931   2.337   1.545
 5296TIP3    H115831   2.972   2.342   1.631
 5296TIP3    H215832   2.892   2.250   1.541
 5297TIP3   OH215833   5.791   0.161   2.816
 5297TIP3    H115834   5.696   0.155   2.821
 5297TIP3    H215835   5.820   0.072   2.798
 5298TIP3   OH215836   5.093   4.563   4.460
 5298TIP3    H115837   5.036   4.611   4.521
 5298TIP3    H215838   5.181   4.576   4.495
 5299TIP3   OH215839   6.035   3.718   6.634
 5299TIP3    H115840   6.032   3.676   6.548
 5299TIP3    H215841   6.015   3.647   6.696
 5300TIP3   OH215842   7.736   3.722   2.035
 5300TIP3    H115843   7.800   3.686   1.974
 5300TIP3    H215844   7.652   3.689   2.004
 5301TIP3   OH215845   0.856   6.152   6.406
 5301TIP3    H115846   0.760   6.159   6.403
 5301TIP3    H215847   0.881   6.124   6.318
 5302TIP3   OH215848   1.795   5.585   5.243
 5302TIP3    H115849   1.884   5.570   5.276
 5302TIP3    H215850   1.754   5.499   5.246
 5303TIP3   OH215851   7.742   1.998   4.310
 5303TIP3    H115852   7.718   2.068   4.370
 5303TIP3    H215853   7.833   1.979   4.331
 5304TIP3   OH215854   1.117   6.255   3.258
 5304TIP3    H115855   1.177   6.214   3.320
 5304TIP3    H215856   1.051   6.188   3.240
 5305TIP3   OH215857   3.129   2.401   3.609
 5305TIP3    H115858   3.093   2.374   3.525
 5305TIP3    H215859   3.175   2.324   3.642
 5306TIP3   OH215860   6.542   5.938   2.994
 5306TIP3    H115861   6.453   5.937   2.959
 5306TIP3    H215862   6.544   5.865   3.056
 5307TIP3   OH215863   3.653   3.440   3.849
 5307TIP3    H115864   3.592   3.403   3.785
 5307TIP3    H215865   3.641   3.386   3.927
 5308TIP3   OH215866   0.399   2.773   1.064
 5308TIP3    H115867   0.438   2.739   0.984
 5308TIP3    H215868   0.342   2.844   1.035
 5309TIP3   OH215869   1.552   6.931   6.143
 5309TIP3    H115870   1.496   6.903   6.070
 5309TIP3    H215871   1.572   6.851   6.190
 5310TIP3   OH215872   0.098   3.006   2.777
 5310TIP3    H115873   0.164   3.041   2.718
 5310TIP3    H215874   0.147   2.953   2.839
 5311TIP3   OH215875   3.130   7.538   3.615
 5311TIP3    H115876   3.197   7.607   3.620
 5311TIP3    H215877   3.050   7.581   3.644
 5312TIP3   OH215878   3.892   4.832   3.436
 5312TIP3    H115879   3.834   4.757   3.420
 5312TIP3    H215880   3.967   4.817   3.380
 5313TIP3   OH215881   1.645   1.540   1.160
 5313TIP3    H115882   1.735   1.572   1.148
 5313TIP3    H215883   1.600   1.563   1.080
 5314TIP3   OH215884   3.388   1.274   0.790
 5314TIP3    H115885   3.324   1.246   0.725
 5314TIP3    H215886   3.407   1.365   0.768
 5315TIP3   OH215887   3.109   2.108   1.443
 5315TIP3    H115888   3.142   2.145   1.361
 5315TIP3    H215889   3.015   2.096   1.428
 5316TIP3   OH215890   1.829   0.540   5.152
 5316TIP3    H115891   1.846   0.562   5.060
 5316TIP3    H215892   1.909   0.499   5.183
 5317TIP3   OH215893   3.749   1.535   2.944
 5317TIP3    H115894   3.654   1.534   2.957
 5317TIP3    H215895   3.773   1.442   2.938
 5318TIP3   OH215896   4.663   0.461   5.804
 5318TIP3    H115897   4.569   0.473   5.816
 5318TIP3    H215898   4.694   0.545   5.770
 5319TIP3   OH215899   7.092   7.715   3.774
 5319TIP3    H115900   7.128   7.699   3.861
 5319TIP3    H215901   7.062   7.629   3.744
 5320TIP3   OH215902   0.642   3.394   2.279
 5320TIP3    H115903   0.710   3.435   2.331
 5320TIP3    H215904   0.656   3.300   2.290
 5321TIP3   OH215905   4.503   6.556   6.180
 5321TIP3    H115906   4.513   6.628   6.242
 5321TIP3    H215907   4.534   6.479   6.227
 5322TIP3   OH215908   5.967   0.518   4.243
 5322TIP3    H115909   5.901   0.473   4.190
 5322TIP3    H215910   6.028   0.449   4.269
 5323TIP3   OH215911   3.495   7.331   3.669
 5323TIP3    H115912   3.438   7.394   3.713
 5323TIP3    H215913   3.444   7.250   3.665
 5324TIP3   OH215914   4.846   2.965   1.726
 5324TIP3    H115915   4.895   3.001   1.800
 5324TIP3    H215916   4.803   3.041   1.686
 5325TIP3   OH215917   2.241   3.912   4.562
 5325TIP3    H115918   2.184   3.947   4.631
 5325TIP3    H215919   2.190   3.842   4.521
 5326TIP3   OH215920   1.580   0.996   1.142
 5326TIP3    H115921   1.622   0.979   1.058
 5326TIP3    H215922   1.543   1.084   1.133
 5327TIP3   OH215923   2.494   4.739   5.896
 5327TIP3    H115924   2.514   4.654   5.858
 5327TIP3    H215925   2.444   4.719   5.975
 5328TIP3   OH215926   6.731   6.869   0.903
 5328TIP3    H115927   6.685   6.948   0.934
 5328TIP3    H215928   6.674   6.833   0.835
 5329TIP3   OH215929   7.462   1.879   2.383
 5329TIP3    H115930   7.521   1.951   2.408
 5329TIP3    H215931   7.405   1.917   2.317
 5330TIP3   OH215932   5.257   5.948   0.776
 5330TIP3    H115933   5.291   5.859   0.768
 5330TIP3    H215934   5.187   5.942   0.840
 5331TIP3   OH215935   6.415   4.088   0.021
 5331TIP3    H115936   6.347   4.156   0.012
 5331TIP3    H215937   6.404   4.057   0.111
 5332TIP3   OH215938   0.815   6.623   4.665
 5332TIP3    H115939   0.838   6.714   4.652
 5332TIP3    H215940   0.762   6.622   4.745
 5333TIP3   OH215941   1.378   2.241   0.498
 5333TIP3    H115942   1.390   2.334   0.512
 5333TIP3    H215943   1.466   2.204   0.502
 5334TIP3   OH215944   4.035   4.804   5.611
 5334TIP3    H115945   4.037   4.802   5.706
 5334TIP3    H215946   4.042   4.897   5.588
 5335TIP3   OH215947   1.017   0.261   4.716
 5335TIP3    H115948   0.997   0.240   4.624
 5335TIP3    H215949   1.080   0.194   4.742
 5336TIP3   OH215950   7.918   1.823   1.168
 5336TIP3    H115951   8.012   1.824   1.188
 5336TIP3    H215952   7.899   1.912   1.138
 5337TIP3   OH215953   3.530   7.663   0.571
 5337TIP3    H115954   3.584   7.585   0.587
 5337TIP3    H215955   3.583   7.718   0.513
 5338TIP3   OH215956   1.509   6.396   0.764
 5338TIP3    H115957   1.552   6.380   0.848
 5338TIP3    H215958   1.425   6.351   0.771
 5339TIP3   OH215959   0.206   2.859   4.242
 5339TIP3    H115960   0.225   2.793   4.175
 5339TIP3    H215961   0.286   2.911   4.248
 5340TIP3   OH215962   2.171   7.419   1.479
 5340TIP3    H115963   2.169   7.411   1.383
 5340TIP3    H215964   2.171   7.513   1.495
 5341TIP3   OH215965   4.159   2.277   4.419
 5341TIP3    H115966   4.100   2.253   4.348
 5341TIP3    H215967   4.121   2.237   4.497
 5342TIP3   OH215968   1.161   2.595   5.003
 5342TIP3    H115969   1.164   2.690   4.995
 5342TIP3    H215970   1.228   2.564   4.943
 5343TIP3   OH215971   0.584   5.922   2.047
 5343TIP3    H115972   0.532   5.922   2.127
 5343TIP3    H215973   0.565   5.839   2.005
 5344TIP3   OH215974   1.190   5.124   1.710
 5344TIP3    H115975   1.178   5.029   1.719
 5344TIP3    H215976   1.164   5.143   1.620
 5345TIP3   OH215977   3.657   7.540   4.090
 5345TIP3    H115978   3.696   7.600   4.154
 5345TIP3    H215979   3.684   7.575   4.005
 5346TIP3   OH215980   2.260   5.629   6.734
 5346TIP3    H115981   2.243   5.682   6.656
 5346TIP3    H215982   2.329   5.568   6.708
 5347TIP3   OH215983   0.848   7.046   1.978
 5347TIP3    H115984   0.844   7.089   1.893
 5347TIP3    H215985   0.940   7.054   2.005
 5348TIP3   OH215986   5.988   3.421   6.155
 5348TIP3    H115987   5.978   3.481   6.081
 5348TIP3    H215988   6.061   3.365   6.130
 5349TIP3   OH215989   5.579   1.427   4.217
 5349TIP3    H115990   5.536   1.397   4.137
 5349TIP3    H215991   5.518   1.403   4.287
 5350TIP3   OH215992   4.427   6.522   0.635
 5350TIP3    H115993   4.486   6.473   0.692
 5350TIP3    H215994   4.482   6.592   0.600
 5351TIP3   OH215995   7.315   3.567   3.317
 5351TIP3    H115996   7.375   3.632   3.354
 5351TIP3    H215997   7.372   3.507   3.268
 5352TIP3   OH215998   3.770   1.001   3.185
 5352TIP3    H115999   3.767   1.062   3.259
 5352TIP3    H216000   3.680   0.996   3.153
 5353TIP3   OH216001   7.857   4.084   0.194
 5353TIP3    H116002   7.897   4.118   0.114
 5353TIP3    H216003   7.905   4.003   0.211
 5354TIP3   OH216004   3.939   5.057   1.890
 5354TIP3    H116005   3.859   5.009   1.914
 5354TIP3    H216006   3.965   5.102   1.971
 5355TIP3   OH216007   3.279   5.054   0.723
 5355TIP3    H116008   3.360   5.050   0.773
 5355TIP3    H216009   3.225   5.119   0.768
 5356TIP3   OH216010   0.982   6.717   6.786
 5356TIP3    H116011   0.912   6.653   6.794
 5356TIP3    H216012   1.063   6.665   6.785
 5357TIP3   OH216013   1.958   4.576   0.917
 5357TIP3    H116014   1.927   4.489   0.939
 5357TIP3    H216015   2.040   4.585   0.966
 5358TIP3   OH216016   3.849   7.003   3.637
 5358TIP3    H116017   3.931   6.992   3.686
 5358TIP3    H216018   3.859   7.085   3.589
 5359TIP3   OH216019   8.216   5.468   3.879
 5359TIP3    H116020   8.253   5.380   3.878
 5359TIP3    H216021   8.123   5.455   3.896
 5360TIP3   OH216022   8.278   6.599   2.185
 5360TIP3    H116023   8.347   6.539   2.212
 5360TIP3    H216024   8.230   6.619   2.265
 5361TIP3   OH216025   1.966   2.523   1.263
 5361TIP3    H116026   1.922   2.603   1.234
 5361TIP3    H216027   1.897   2.471   1.304
 5362TIP3   OH216028   4.090   0.218   0.265
 5362TIP3    H116029   4.005   0.200   0.304
 5362TIP3    H216030   4.106   0.145   0.205
 5363TIP3   OH216031   6.198   2.767   0.836
 5363TIP3    H116032   6.171   2.686   0.793
 5363TIP3    H216033   6.225   2.824   0.763
 5364TIP3   OH216034   3.431   7.144   1.495
 5364TIP3    H116035   3.357   7.175   1.547
 5364TIP3    H216036   3.399   7.066   1.450
 5365TIP3   OH216037   6.468   7.688   5.419
 5365TIP3    H116038   6.473   7.748   5.344
 5365TIP3    H216039   6.412   7.617   5.390
 5366TIP3   OH216040   7.472   7.142   2.399
 5366TIP3    H116041   7.382   7.152   2.430
 5366TIP3    H216042   7.488   7.221   2.347
 5367TIP3   OH216043   7.335   0.599   6.473
 5367TIP3    H116044   7.425   0.618   6.449
 5367TIP3    H216045   7.319   0.510   6.442
 5368TIP3   OH216046   2.972   0.142   0.887
 5368TIP3    H116047   2.928   0.221   0.855
 5368TIP3    H216048   2.934   0.071   0.835
 5369TIP3   OH216049   6.654   1.447   0.813
 5369TIP3    H116050   6.699   1.524   0.778
 5369TIP3    H216051   6.573   1.482   0.849
 5370TIP3   OH216052   3.394   7.269   1.236
 5370TIP3    H116053   3.362   7.226   1.316
 5370TIP3    H216054   3.459   7.208   1.201
 5371TIP3   OH216055   5.796   2.316   4.795
 5371TIP3    H116056   5.739   2.382   4.755
 5371TIP3    H216057   5.882   2.332   4.755
 5372TIP3   OH216058   2.101   2.701   6.325
 5372TIP3    H116059   2.192   2.709   6.299
 5372TIP3    H216060   2.072   2.619   6.285
 5373TIP3   OH216061   0.703   0.332   4.028
 5373TIP3    H116062   0.796   0.314   4.012
 5373TIP3    H216063   0.698   0.427   4.039
 5374TIP3   OH216064   8.057   1.053   1.663
 5374TIP3    H116065   8.115   0.978   1.678
 5374TIP3    H216066   8.108   1.112   1.607
 5375TIP3   OH216067   6.362   1.698   5.938
 5375TIP3    H116068   6.348   1.693   6.032
 5375TIP3    H216069   6.429   1.632   5.920
 5376TIP3   OH216070   2.372   4.420   6.768
 5376TIP3    H116071   2.426   4.394   6.694
 5376TIP3    H216072   2.426   4.483   6.817
 5377TIP3   OH216073   2.908   2.271   2.581
 5377TIP3    H116074   2.858   2.351   2.564
 5377TIP3    H216075   2.998   2.300   2.593
 5378TIP3   OH216076   1.707   2.254   2.549
 5378TIP3    H116077   1.627   2.231   2.597
 5378TIP3    H216078   1.684   2.332   2.499
 5379TIP3   OH216079   1.502   6.724   5.341
 5379TIP3    H116080   1.471   6.781   5.270
 5379TIP3    H216081   1.542   6.783   5.404
 5380TIP3   OH216082   4.810   6.304   1.163
 5380TIP3    H116083   4.728   6.332   1.205
 5380TIP3    H216084   4.784   6.285   1.072
 5381TIP3   OH216085   6.811   0.038   1.891
 5381TIP3    H116086   6.827   0.065   1.801
 5381TIP3    H216087   6.791   0.119   1.938
 5382TIP3   OH216088   2.965   2.905   2.943
 5382TIP3    H116089   2.919   2.870   2.867
 5382TIP3    H216090   2.937   2.848   3.016
 5383TIP3   OH216091   6.156   1.359   2.469
 5383TIP3    H116092   6.068   1.381   2.501
 5383TIP3    H216093   6.184   1.437   2.421
 5384TIP3   OH216094   0.608   2.629   4.210
 5384TIP3    H116095   0.700   2.653   4.205
 5384TIP3    H216096   0.567   2.677   4.137
 5385TIP3   OH216097   6.444   1.901   1.618
 5385TIP3    H116098   6.442   1.951   1.700
 5385TIP3    H216099   6.472   1.813   1.645
 5386TIP3   OH216100   1.067   6.060   5.246
 5386TIP3    H116101   1.142   6.017   5.205
 5386TIP3    H216102   1.034   6.121   5.180
 5387TIP3   OH216103   1.082   7.445   1.742
 5387TIP3    H116104   1.048   7.530   1.770
 5387TIP3    H216105   1.040   7.429   1.657
 5388TIP3   OH216106   1.686   7.268   1.587
 5388TIP3    H116107   1.633   7.218   1.649
 5388TIP3    H216108   1.625   7.327   1.545
 5389TIP3   OH216109   7.810   0.275   2.006
 5389TIP3    H116110   7.850   0.190   1.986
 5389TIP3    H216111   7.814   0.323   1.923
 5390TIP3   OH216112   3.103   5.359   1.067
 5390TIP3    H116113   3.197   5.366   1.057
 5390TIP3    H216114   3.075   5.304   0.995
 5391TIP3   OH216115   7.887   7.079   6.170
 5391TIP3    H116116   7.951   7.113   6.233
 5391TIP3    H216117   7.866   6.992   6.202
 5392TIP3   OH216118   3.132   1.661   1.013
 5392TIP3    H116119   3.155   1.669   0.920
 5392TIP3    H216120   3.146   1.748   1.049
 5393TIP3   OH216121   3.354   3.517   3.012
 5393TIP3    H116122   3.376   3.608   3.036
 5393TIP3    H216123   3.438   3.479   2.987
 5394TIP3   OH216124   6.990   2.650   2.375
 5394TIP3    H116125   7.016   2.683   2.288
 5394TIP3    H216126   6.948   2.725   2.417
 5395TIP3   OH216127   0.229   3.100   3.201
 5395TIP3    H116128   0.162   3.167   3.217
 5395TIP3    H216129   0.219   3.039   3.275
 5396TIP3   OH216130   0.155   0.578   1.755
 5396TIP3    H116131   0.131   0.532   1.674
 5396TIP3    H216132   0.127   0.669   1.740
 5397TIP3   OH216133   0.767   1.930   2.630
 5397TIP3    H116134   0.810   1.972   2.556
 5397TIP3    H216135   0.709   1.865   2.591
 5398TIP3   OH216136   2.213   2.201   6.550
 5398TIP3    H116137   2.242   2.291   6.534
 5398TIP3    H216138   2.146   2.208   6.618
 5399TIP3   OH216139   2.634   4.165   6.675
 5399TIP3    H116140   2.693   4.179   6.749
 5399TIP3    H216141   2.626   4.250   6.633
 5400TIP3   OH216142   3.342   7.486   3.174
 5400TIP3    H116143   3.279   7.427   3.133
 5400TIP3    H216144   3.408   7.428   3.212
 5401TIP3   OH216145   4.107   1.716   4.218
 5401TIP3    H116146   4.189   1.704   4.169
 5401TIP3    H216147   4.134   1.720   4.310
 5402TIP3   OH216148   1.211   2.923   2.607
 5402TIP3    H116149   1.306   2.924   2.616
 5402TIP3    H216150   1.180   2.868   2.679
 5403TIP3   OH216151   3.536   0.367   3.754
 5403TIP3    H116152   3.528   0.450   3.707
 5403TIP3    H216153   3.489   0.304   3.700
 5404TIP3   OH216154   6.266   1.177   4.471
 5404TIP3    H116155   6.242   1.084   4.474
 5404TIP3    H216156   6.193   1.219   4.425
 5405TIP3   OH216157   2.265   1.615   0.666
 5405TIP3    H116158   2.241   1.644   0.578
 5405TIP3    H216159   2.353   1.579   0.656
 5406TIP3   OH216160   2.404   7.678   2.165
 5406TIP3    H116161   2.392   7.640   2.252
 5406TIP3    H216162   2.367   7.614   2.105
 5407TIP3   OH216163   3.410   6.581   1.078
 5407TIP3    H116164   3.440   6.610   1.164
 5407TIP3    H216165   3.328   6.628   1.064
 5408TIP3   OH216166   1.232   5.917   5.054
 5408TIP3    H116167   1.255   5.846   5.113
 5408TIP3    H216168   1.269   5.892   4.970
 5409TIP3   OH216169   5.814   0.511   5.806
 5409TIP3    H116170   5.780   0.440   5.861
 5409TIP3    H216171   5.831   0.583   5.867
 5410TIP3   OH216172   6.440   3.038   4.479
 5410TIP3    H116173   6.451   2.984   4.401
 5410TIP3    H216174   6.528   3.044   4.517
 5411TIP3   OH216175   1.186   5.586   2.663
 5411TIP3    H116176   1.183   5.494   2.637
 5411TIP3    H216177   1.172   5.634   2.582
 5412TIP3   OH216178   0.031   3.329   1.974
 5412TIP3    H116179   0.066   3.321   2.063
 5412TIP3    H216180   0.070   3.256   1.926
 5413TIP3   OH216181   7.497   3.425   2.102
 5413TIP3    H116182   7.450   3.348   2.069
 5413TIP3    H216183   7.451   3.499   2.064
 5414TIP3   OH216184   1.193   7.212   5.663
 5414TIP3    H116185   1.110   7.260   5.658
 5414TIP3    H216186   1.258   7.272   5.626
 5415TIP3   OH216187   7.882   6.049   0.333
 5415TIP3    H116188   7.824   6.036   0.408
 5415TIP3    H216189   7.862   6.137   0.302
 5416TIP3   OH216190   2.050   6.682   4.624
 5416TIP3    H116191   1.979   6.673   4.688
 5416TIP3    H216192   2.045   6.602   4.572
 5417TIP3   OH216193   7.858   1.018   3.884
 5417TIP3    H116194   7.909   0.975   3.815
 5417TIP3    H216195   7.906   0.998   3.965
 5418TIP3   OH216196   4.793   0.045   3.047
 5418TIP3    H116197   4.736   0.089   2.984
 5418TIP3    H216198   4.880   0.078   3.027
 5419TIP3   OH216199   1.850   2.980   2.854
 5419TIP3    H116200   1.836   2.891   2.824
 5419TIP3    H216201   1.783   3.032   2.809
 5420TIP3   OH216202   2.106   2.768   2.805
 5420TIP3    H116203   2.055   2.687   2.813
 5420TIP3    H216204   2.068   2.812   2.729
 5421TIP3   OH216205   7.012   2.426   3.879
 5421TIP3    H116206   6.941   2.485   3.906
 5421TIP3    H216207   7.068   2.418   3.956
 5422TIP3   OH216208   5.785   4.591   5.894
 5422TIP3    H116209   5.715   4.643   5.856
 5422TIP3    H216210   5.827   4.549   5.820
 5423TIP3   OH216211   5.903   7.033   4.677
 5423TIP3    H116212   5.897   6.958   4.737
 5423TIP3    H216213   5.969   7.090   4.717
 5424TIP3   OH216214   4.353   2.922   6.181
 5424TIP3    H116215   4.391   2.930   6.269
 5424TIP3    H216216   4.302   3.002   6.170
 5425TIP3   OH216217   2.919   5.505   4.536
 5425TIP3    H116218   2.926   5.443   4.464
 5425TIP3    H216219   2.836   5.486   4.578
 5426TIP3   OH216220   0.190   4.448   4.242
 5426TIP3    H116221   0.247   4.511   4.196
 5426TIP3    H216222   0.101   4.480   4.226
 5427TIP3   OH216223   7.830   0.716   1.209
 5427TIP3    H116224   7.816   0.631   1.167
 5427TIP3    H216225   7.785   0.709   1.293
 5428TIP3   OH216226   4.693   1.677   1.782
 5428TIP3    H116227   4.679   1.697   1.690
 5428TIP3    H216228   4.673   1.583   1.789
 5429TIP3   OH216229   3.809   6.911   3.303
 5429TIP3    H116230   3.808   6.827   3.256
 5429TIP3    H216231   3.753   6.895   3.379
 5430TIP3   OH216232   0.324   2.457   0.315
 5430TIP3    H116233   0.352   2.531   0.261
 5430TIP3    H216234   0.328   2.491   0.405
 5431TIP3   OH216235   2.810   6.230   3.182
 5431TIP3    H116236   2.859   6.280   3.248
 5431TIP3    H216237   2.797   6.144   3.221
 5432TIP3   OH216238   5.297   3.091   0.216
 5432TIP3    H116239   5.353   3.031   0.167
 5432TIP3    H216240   5.316   3.178   0.180
 5433TIP3   OH216241   1.074   1.556   2.491
 5433TIP3    H116242   1.122   1.633   2.461
 5433TIP3    H216243   1.089   1.554   2.586
 5434TIP3   OH216244   2.331   7.149   4.238
 5434TIP3    H116245   2.408   7.099   4.211
 5434TIP3    H216246   2.298   7.187   4.156
 5435TIP3   OH216247   2.499   4.070   4.309
 5435TIP3    H116248   2.495   4.146   4.367
 5435TIP3    H216249   2.586   4.033   4.324
 5436TIP3   OH216250   0.542   1.850   6.449
 5436TIP3    H116251   0.494   1.770   6.469
 5436TIP3    H216252   0.619   1.821   6.400
 5437TIP3   OH216253   7.496   1.962   5.444
 5437TIP3    H116254   7.471   1.968   5.352
 5437TIP3    H216255   7.446   1.888   5.478
 5438TIP3   OH216256   4.228   3.708   2.137
 5438TIP3    H116257   4.191   3.661   2.061
 5438TIP3    H216258   4.292   3.647   2.173
 5439TIP3   OH216259   6.273   4.682   2.014
 5439TIP3    H116260   6.184   4.706   2.038
 5439TIP3    H216261   6.269   4.587   1.997
 5440TIP3   OH216262   6.176   5.445   1.352
 5440TIP3    H116263   6.219   5.530   1.359
 5440TIP3    H216264   6.246   5.384   1.330
 5441TIP3   OH216265   2.005   1.447   3.434
 5441TIP3    H116266   1.929   1.389   3.430
 5441TIP3    H216267   2.080   1.388   3.441
 5442TIP3   OH216268   4.523   2.158   4.203
 5442TIP3    H116269   4.606   2.175   4.161
 5442TIP3    H216270   4.473   2.106   4.140
 5443TIP3   OH216271   2.321   4.754   3.378
 5443TIP3    H116272   2.276   4.803   3.446
 5443TIP3    H216273   2.347   4.672   3.421
 5444TIP3   OH216274   2.103   6.363   5.477
 5444TIP3    H116275   2.009   6.383   5.474
 5444TIP3    H216276   2.131   6.370   5.386
 5445TIP3   OH216277   0.977   4.094   3.129
 5445TIP3    H116278   0.977   4.190   3.129
 5445TIP3    H216279   1.069   4.070   3.138
 5446TIP3   OH216280   1.562   4.385   4.481
 5446TIP3    H116281   1.635   4.329   4.457
 5446TIP3    H216282   1.490   4.324   4.500
 5447TIP3   OH216283   4.427   3.339   1.941
 5447TIP3    H116284   4.496   3.281   1.975
 5447TIP3    H216285   4.465   3.376   1.862
 5448TIP3   OH216286   5.610   0.939   4.324
 5448TIP3    H116287   5.690   0.962   4.372
 5448TIP3    H216288   5.613   0.843   4.319
 5449TIP3   OH216289   7.861   6.746   4.462
 5449TIP3    H116290   7.888   6.838   4.459
 5449TIP3    H216291   7.773   6.746   4.424
 5450TIP3   OH216292   0.100   6.802   2.378
 5450TIP3    H116293   0.156   6.726   2.389
 5450TIP3    H216294   0.124   6.838   2.293
 5451TIP3   OH216295   5.006   7.566   4.324
 5451TIP3    H116296   4.999   7.659   4.305
 5451TIP3    H216297   5.020   7.562   4.419
 5452TIP3   OH216298   0.530   2.383   2.166
 5452TIP3    H116299   0.570   2.469   2.180
 5452TIP3    H216300   0.435   2.400   2.168
 5453TIP3   OH216301   6.849   1.576   2.911
 5453TIP3    H116302   6.862   1.488   2.948
 5453TIP3    H216303   6.933   1.596   2.869
 5454TIP3   OH216304   1.907   4.339   6.213
 5454TIP3    H116305   1.964   4.349   6.289
 5454TIP3    H216306   1.886   4.428   6.186
 5455TIP3   OH216307   4.812   2.028   4.390
 5455TIP3    H116308   4.775   1.956   4.339
 5455TIP3    H216309   4.811   2.103   4.330
 5456TIP3   OH216310   0.840   1.188   5.020
 5456TIP3    H116311   0.826   1.249   5.092
 5456TIP3    H216312   0.793   1.227   4.946
 5457TIP3   OH216313   5.953   5.406   0.502
 5457TIP3    H116314   5.994   5.438   0.583
 5457TIP3    H216315   6.023   5.357   0.458
 5458TIP3   OH216316   0.252   1.573   3.031
 5458TIP3    H116317   0.273   1.611   2.946
 5458TIP3    H216318   0.259   1.646   3.093
 5459TIP3   OH216319   4.767   7.097   1.032
 5459TIP3    H116320   4.692   7.130   1.081
 5459TIP3    H216321   4.740   7.009   1.004
 5460TIP3   OH216322   5.075   5.066   5.300
 5460TIP3    H116323   5.047   5.130   5.366
 5460TIP3    H216324   4.995   5.022   5.274
 5461TIP3   OH216325   1.837   2.193   3.733
 5461TIP3    H116326   1.906   2.201   3.799
 5461TIP3    H216327   1.769   2.140   3.776
 5462TIP3   OH216328   7.440   3.389   0.611
 5462TIP3    H116329   7.347   3.405   0.596
 5462TIP3    H216330   7.479   3.386   0.524
 5463TIP3   OH216331   6.844   5.992   4.488
 5463TIP3    H116332   6.914   5.926   4.487
 5463TIP3    H216333   6.860   6.043   4.568
 5464TIP3   OH216334   7.483   1.086   2.686
 5464TIP3    H116335   7.397   1.090   2.646
 5464TIP3    H216336   7.515   0.998   2.666
 5465TIP3   OH216337   5.590   6.705   4.569
 5465TIP3    H116338   5.654   6.745   4.510
 5465TIP3    H216339   5.610   6.612   4.567
 5466TIP3   OH216340   1.802   7.227   5.769
 5466TIP3    H116341   1.843   7.208   5.684
 5466TIP3    H216342   1.715   7.188   5.762
 5467TIP3   OH216343   6.856   7.013   3.380
 5467TIP3    H116344   6.942   7.033   3.345
 5467TIP3    H216345   6.812   6.964   3.311
 5468TIP3   OH216346   0.848   5.745   1.585
 5468TIP3    H116347   0.771   5.698   1.552
 5468TIP3    H216348   0.889   5.683   1.645
 5469TIP3   OH216349   6.241   2.614   2.697
 5469TIP3    H116350   6.318   2.557   2.701
 5469TIP3    H216351   6.246   2.667   2.777
 5470TIP3   OH216352   7.164   6.845   4.053
 5470TIP3    H116353   7.226   6.917   4.064
 5470TIP3    H216354   7.091   6.882   4.004
 5471TIP3   OH216355   4.689   2.727   2.762
 5471TIP3    H116356   4.603   2.716   2.722
 5471TIP3    H216357   4.679   2.688   2.849
 5472TIP3   OH216358   6.096   4.675   0.148
 5472TIP3    H116359   6.080   4.592   0.193
 5472TIP3    H216360   6.183   4.665   0.109
 5473TIP3   OH216361   2.061   7.692   2.654
 5473TIP3    H116362   2.112   7.725   2.728
 5473TIP3    H216363   1.974   7.676   2.690
 5474TIP3   OH216364   4.443   1.046   5.524
 5474TIP3    H116365   4.399   0.996   5.593
 5474TIP3    H216366   4.535   1.019   5.530
 5475TIP3   OH216367   7.593   0.936   4.409
 5475TIP3    H116368   7.601   0.967   4.499
 5475TIP3    H216369   7.515   0.981   4.375
 5476TIP3   OH216370   3.210   7.766   1.428
 5476TIP3    H116371   3.207   7.823   1.505
 5476TIP3    H216372   3.299   7.777   1.393
 5477TIP3   OH216373   1.690   2.940   4.359
 5477TIP3    H116374   1.640   2.968   4.282
 5477TIP3    H216375   1.683   3.013   4.420
 5478TIP3   OH216376   4.892   2.812   1.537
 5478TIP3    H116377   4.899   2.866   1.616
 5478TIP3    H216378   4.982   2.790   1.515
 5479TIP3   OH216379   2.786   0.663   2.380
 5479TIP3    H116380   2.765   0.578   2.340
 5479TIP3    H216381   2.868   0.648   2.427
 5480TIP3   OH216382   3.128   0.188   5.338
 5480TIP3    H116383   3.122   0.200   5.433
 5480TIP3    H216384   3.222   0.180   5.321
 5481TIP3   OH216385   6.668   3.103   3.734
 5481TIP3    H116386   6.685   3.181   3.787
 5481TIP3    H216387   6.734   3.107   3.665
 5482TIP3   OH216388   0.460   6.954   1.946
 5482TIP3    H116389   0.431   7.038   1.981
 5482TIP3    H216390   0.500   6.909   2.020
 5483TIP3   OH216391   5.876   6.129   6.236
 5483TIP3    H116392   5.910   6.050   6.278
 5483TIP3    H216393   5.852   6.186   6.309
 5484TIP3   OH216394   5.626   7.705   4.955
 5484TIP3    H116395   5.704   7.692   5.008
 5484TIP3    H216396   5.613   7.800   4.955
 5485TIP3   OH216397   7.625   5.643   5.372
 5485TIP3    H116398   7.633   5.704   5.298
 5485TIP3    H216399   7.696   5.669   5.431
 5486TIP3   OH216400   4.454   7.800   2.846
 5486TIP3    H116401   4.466   7.812   2.941
 5486TIP3    H216402   4.366   7.763   2.838
 5487TIP3   OH216403   0.258   5.657   0.074
 5487TIP3    H116404   0.344   5.697   0.086
 5487TIP3    H216405   0.250   5.596   0.147
 5488TIP3   OH216406   0.143   0.473   3.538
 5488TIP3    H116407   0.093   0.554   3.549
 5488TIP3    H216408   0.206   0.473   3.610
 5489TIP3   OH216409   4.776   1.070   2.589
 5489TIP3    H116410   4.807   1.159   2.604
 5489TIP3    H216411   4.708   1.079   2.522
 5490TIP3   OH216412   7.385   6.653   4.346
 5490TIP3    H116413   7.293   6.678   4.353
 5490TIP3    H216414   7.395   6.580   4.407
 5491TIP3   OH216415   1.928   5.658   1.789
 5491TIP3    H116416   1.957   5.747   1.810
 5491TIP3    H216417   1.964   5.604   1.858
 5492TIP3   OH216418   3.328   6.291   0.646
 5492TIP3    H116419   3.367   6.368   0.603
 5492TIP3    H216420   3.267   6.328   0.710
 5493TIP3   OH216421   5.716   2.765   2.096
 5493TIP3    H116422   5.670   2.681   2.089
 5493TIP3    H216423   5.647   2.831   2.087
 5494TIP3   OH216424   0.025   3.433   0.294
 5494TIP3    H116425   0.059   3.522   0.281
 5494TIP3    H216426   0.094   3.377   0.258
 5495TIP3   OH216427   5.646   1.924   5.781
 5495TIP3    H116428   5.579   1.956   5.721
 5495TIP3    H216429   5.689   1.854   5.733
 5496TIP3   OH216430   2.145   6.875   6.383
 5496TIP3    H116431   2.208   6.804   6.375
 5496TIP3    H216432   2.067   6.834   6.419
 5497TIP3   OH216433   7.122   4.098   5.004
 5497TIP3    H116434   7.110   4.041   5.079
 5497TIP3    H216435   7.037   4.099   4.960
 5498TIP3   OH216436   0.678   4.292   5.400
 5498TIP3    H116437   0.707   4.230   5.468
 5498TIP3    H216438   0.638   4.363   5.449
 5499TIP3   OH216439   3.847   2.239   0.526
 5499TIP3    H116440   3.934   2.228   0.486
 5499TIP3    H216441   3.864   2.236   0.620
 5500TIP3   OH216442   3.010   1.103   0.188
 5500TIP3    H116443   2.914   1.102   0.192
 5500TIP3    H216444   3.032   1.196   0.184
 5501TIP3   OH216445   3.990   0.446   6.571
 5501TIP3    H116446   3.929   0.519   6.562
 5501TIP3    H216447   3.980   0.396   6.490
 5502TIP3   OH216448   5.256   2.687   0.896
 5502TIP3    H116449   5.308   2.634   0.836
 5502TIP3    H216450   5.167   2.653   0.887
 5503TIP3   OH216451   4.019   0.779   0.272
 5503TIP3    H116452   4.027   0.690   0.238
 5503TIP3    H216453   3.958   0.822   0.211
 5504TIP3   OH216454   2.356   6.632   2.050
 5504TIP3    H116455   2.306   6.560   2.089
 5504TIP3    H216456   2.431   6.644   2.108
 5505TIP3   OH216457   7.223   5.358   0.623
 5505TIP3    H116458   7.275   5.282   0.653
 5505TIP3    H216459   7.177   5.388   0.701
 5506TIP3   OH216460   0.985   3.709   0.694
 5506TIP3    H116461   0.926   3.639   0.664
 5506TIP3    H216462   1.041   3.727   0.619
 5507TIP3   OH216463   3.135   0.485   3.504
 5507TIP3    H116464   3.143   0.580   3.506
 5507TIP3    H216465   3.219   0.454   3.471
 5508TIP3   OH216466   8.233   0.153   6.136
 5508TIP3    H116467   8.162   0.189   6.190
 5508TIP3    H216468   8.280   0.229   6.104
 5509TIP3   OH216469   1.731   0.683   0.208
 5509TIP3    H116470   1.748   0.776   0.191
 5509TIP3    H216471   1.764   0.638   0.130
 5510TIP3   OH216472   5.773   2.414   6.549
 5510TIP3    H116473   5.804   2.491   6.502
 5510TIP3    H216474   5.766   2.346   6.481
 5511TIP3   OH216475   0.644   0.738   3.076
 5511TIP3    H116476   0.583   0.791   3.127
 5511TIP3    H216477   0.587   0.679   3.026
 5512TIP3   OH216478   7.188   0.112   4.389
 5512TIP3    H116479   7.165   0.115   4.482
 5512TIP3    H216480   7.282   0.097   4.388
 5513TIP3   OH216481   0.767   1.397   5.190
 5513TIP3    H116482   0.708   1.472   5.181
 5513TIP3    H216483   0.854   1.435   5.195
 5514TIP3   OH216484   0.854   4.721   5.851
 5514TIP3    H116485   0.897   4.682   5.928
 5514TIP3    H216486   0.808   4.648   5.811
 5515TIP3   OH216487   5.453   1.387   5.107
 5515TIP3    H116488   5.502   1.334   5.169
 5515TIP3    H216489   5.393   1.439   5.160
 5516TIP3   OH216490   2.489   3.881   0.718
 5516TIP3    H116491   2.527   3.912   0.636
 5516TIP3    H216492   2.560   3.887   0.782
 5517TIP3   OH216493   0.323   0.289   6.135
 5517TIP3    H116494   0.405   0.272   6.181
 5517TIP3    H216495   0.303   0.380   6.153
 5518TIP3   OH216496   1.298   3.934   6.191
 5518TIP3    H116497   1.278   3.846   6.221
 5518TIP3    H216498   1.346   3.974   6.263
 5519TIP3   OH216499   0.476   5.799   4.623
 5519TIP3    H116500   0.507   5.842   4.543
 5519TIP3    H216501   0.392   5.840   4.641
 5520TIP3   OH216502   1.542   7.166   5.649
 5520TIP3    H116503   1.537   7.215   5.567
 5520TIP3    H216504   1.528   7.075   5.624
 5521TIP3   OH216505   6.289   1.672   5.352
 5521TIP3    H116506   6.216   1.618   5.383
 5521TIP3    H216507   6.267   1.695   5.262
 5522TIP3   OH216508   0.760   3.863   5.775
 5522TIP3    H116509   0.808   3.944   5.757
 5522TIP3    H216510   0.673   3.877   5.740
 5523TIP3   OH216511   1.070   7.358   4.863
 5523TIP3    H116512   1.069   7.269   4.899
 5523TIP3    H216513   1.153   7.364   4.816
 5524TIP3   OH216514   3.914   4.440   5.069
 5524TIP3    H116515   3.967   4.501   5.018
 5524TIP3    H216516   3.954   4.354   5.054
 5525TIP3   OH216517   0.570   5.623   6.690
 5525TIP3    H116518   0.642   5.571   6.724
 5525TIP3    H216519   0.612   5.691   6.637
 5526TIP3   OH216520   4.213   3.079   1.563
 5526TIP3    H116521   4.156   3.088   1.486
 5526TIP3    H216522   4.183   3.147   1.623
 5527TIP3   OH216523   4.381   0.961   2.759
 5527TIP3    H116524   4.323   0.906   2.811
 5527TIP3    H216525   4.466   0.954   2.802
 5528TIP3   OH216526   6.127   2.433   2.475
 5528TIP3    H116527   6.144   2.400   2.387
 5528TIP3    H216528   6.148   2.359   2.532
 5529TIP3   OH216529   6.273   7.380   4.650
 5529TIP3    H116530   6.224   7.458   4.678
 5529TIP3    H216531   6.352   7.382   4.705
 5530TIP3   OH216532   6.108   4.105   2.201
 5530TIP3    H116533   6.075   4.146   2.121
 5530TIP3    H216534   6.185   4.157   2.224
 5531TIP3   OH216535   3.898   4.463   5.322
 5531TIP3    H116536   3.910   4.483   5.229
 5531TIP3    H216537   3.848   4.537   5.357
 5532TIP3   OH216538   7.507   6.683   6.031
 5532TIP3    H116539   7.422   6.691   5.988
 5532TIP3    H216540   7.525   6.771   6.065
 5533TIP3   OH216541   3.165   1.057   4.292
 5533TIP3    H116542   3.242   1.098   4.253
 5533TIP3    H216543   3.147   1.108   4.371
 5534TIP3   OH216544   2.552   7.037   0.161
 5534TIP3    H116545   2.591   7.044   0.074
 5534TIP3    H216546   2.513   6.950   0.164
 5535TIP3   OH216547   0.625   5.298   6.729
 5535TIP3    H116548   0.607   5.229   6.793
 5535TIP3    H216549   0.538   5.329   6.702
 5536TIP3   OH216550   8.031   2.245   1.215
 5536TIP3    H116551   8.055   2.205   1.299
 5536TIP3    H216552   8.070   2.332   1.218
 5537TIP3   OH216553   2.717   0.596   4.384
 5537TIP3    H116554   2.718   0.688   4.356
 5537TIP3    H216555   2.670   0.596   4.467
 5538TIP3   OH216556   5.977   6.604   1.873
 5538TIP3    H116557   5.976   6.698   1.857
 5538TIP3    H216558   5.906   6.570   1.819
 5539TIP3   OH216559   5.018   0.844   2.942
 5539TIP3    H116560   4.956   0.798   2.885
 5539TIP3    H216561   4.971   0.855   3.025
 5540TIP3   OH216562   2.323  -0.018   2.099
 5540TIP3    H116563   2.281   0.050   2.046
 5540TIP3    H216564   2.411   0.018   2.116
 5541TIP3   OH216565   4.706   5.466   6.625
 5541TIP3    H116566   4.666   5.447   6.540
 5541TIP3    H216567   4.800   5.461   6.609
 5542TIP3   OH216568   6.593   2.949   6.389
 5542TIP3    H116569   6.596   2.867   6.340
 5542TIP3    H216570   6.555   3.012   6.328
 5543TIP3   OH216571   7.748   7.619   6.345
 5543TIP3    H116572   7.833   7.656   6.320
 5543TIP3    H216573   7.771   7.547   6.405
 5544TIP3   OH216574   7.296   4.658   1.306
 5544TIP3    H116575   7.288   4.589   1.240
 5544TIP3    H216576   7.371   4.632   1.359
 5545TIP3   OH216577   2.488   3.432   4.576
 5545TIP3    H116578   2.441   3.390   4.504
 5545TIP3    H216579   2.424   3.437   4.647
 5546TIP3   OH216580   2.565   1.404   4.597
 5546TIP3    H116581   2.555   1.476   4.536
 5546TIP3    H216582   2.477   1.366   4.604
 5547TIP3   OH216583   1.165   3.876   5.518
 5547TIP3    H116584   1.155   3.867   5.423
 5547TIP3    H216585   1.107   3.948   5.541
 5548TIP3   OH216586   1.236   3.943   6.568
 5548TIP3    H116587   1.180   3.873   6.532
 5548TIP3    H216588   1.199   4.023   6.531
 5549TIP3   OH216589   6.830   5.826   3.510
 5549TIP3    H116590   6.866   5.884   3.443
 5549TIP3    H216591   6.886   5.841   3.587
 5550TIP3   OH216592   0.342   7.547   3.404
 5550TIP3    H116593   0.434   7.556   3.378
 5550TIP3    H216594   0.323   7.626   3.454
 5551TIP3   OH216595   7.221   3.828   1.982
 5551TIP3    H116596   7.238   3.889   1.910
 5551TIP3    H216597   7.200   3.885   2.057
 5552TIP3   OH216598   5.084   0.528   5.010
 5552TIP3    H116599   5.107   0.568   4.926
 5552TIP3    H216600   4.999   0.487   4.995
 5553TIP3   OH216601   8.312   1.388   5.559
 5553TIP3    H116602   8.389   1.337   5.534
 5553TIP3    H216603   8.327   1.411   5.651
 5554TIP3   OH216604   3.258   5.384   0.404
 5554TIP3    H116605   3.297   5.471   0.412
 5554TIP3    H216606   3.167   5.400   0.378
 5555TIP3   OH216607   6.863   1.630   5.625
 5555TIP3    H116608   6.891   1.569   5.693
 5555TIP3    H216609   6.944   1.671   5.595
 5556TIP3   OH216610   5.781   1.952   1.480
 5556TIP3    H116611   5.820   2.018   1.422
 5556TIP3    H216612   5.711   1.913   1.428
 5557TIP3   OH216613   3.706   7.155   3.172
 5557TIP3    H116614   3.727   7.153   3.078
 5557TIP3    H216615   3.709   7.063   3.199
 5558TIP3   OH216616   4.617   7.112   2.434
 5558TIP3    H116617   4.655   7.028   2.411
 5558TIP3    H216618   4.689   7.175   2.425
 5559TIP3   OH216619   5.418   5.023   2.195
 5559TIP3    H116620   5.408   5.100   2.251
 5559TIP3    H216621   5.511   5.022   2.172
 5560TIP3   OH216622   5.769   7.601   1.875
 5560TIP3    H116623   5.802   7.569   1.959
 5560TIP3    H216624   5.837   7.580   1.812
 5561TIP3   OH216625   8.132   0.300   6.818
 5561TIP3    H116626   8.178   0.216   6.811
 5561TIP3    H216627   8.071   0.300   6.744
 5562TIP3   OH216628   6.501   4.646   3.169
 5562TIP3    H116629   6.457   4.668   3.251
 5562TIP3    H216630   6.528   4.555   3.179
 5563TIP3   OH216631   1.582   3.313   2.964
 5563TIP3    H116632   1.672   3.338   2.985
 5563TIP3    H216633   1.590   3.252   2.891
 5564TIP3   OH216634   1.208   1.348   2.351
 5564TIP3    H116635   1.229   1.424   2.405
 5564TIP3    H216636   1.257   1.276   2.390
 5565TIP3   OH216637   5.405   0.854   1.499
 5565TIP3    H116638   5.482   0.801   1.521
 5565TIP3    H216639   5.432   0.906   1.424
 5566TIP3   OH216640   6.857   5.335   2.136
 5566TIP3    H116641   6.812   5.252   2.123
 5566TIP3    H216642   6.794   5.401   2.107
 5567TIP3   OH216643   4.154   6.504   0.521
 5567TIP3    H116644   4.134   6.411   0.511
 5567TIP3    H216645   4.247   6.506   0.545
 5568TIP3   OH216646   7.513   5.012   5.229
 5568TIP3    H116647   7.480   5.014   5.318
 5568TIP3    H216648   7.608   5.004   5.239
 5569TIP3   OH216649   4.906   3.727   0.156
 5569TIP3    H116650   4.872   3.806   0.198
 5569TIP3    H216651   4.887   3.656   0.217
 5570TIP3   OH216652   6.572   3.830   2.478
 5570TIP3    H116653   6.644   3.789   2.430
 5570TIP3    H216654   6.613   3.867   2.556
 5571TIP3   OH216655   2.581   1.048   2.526
 5571TIP3    H116656   2.635   1.053   2.447
 5571TIP3    H216657   2.519   0.977   2.509
 5572TIP3   OH216658   4.404   0.342   1.496
 5572TIP3    H116659   4.447   0.397   1.562
 5572TIP3    H216660   4.472   0.327   1.430
 5573TIP3   OH216661   3.677   0.162   0.831
 5573TIP3    H116662   3.706   0.164   0.923
 5573TIP3    H216663   3.617   0.088   0.827
 5574TIP3   OH216664   4.806   0.670   1.963
 5574TIP3    H116665   4.869   0.635   1.900
 5574TIP3    H216666   4.743   0.719   1.911
 5575TIP3   OH216667   0.369   6.523   4.108
 5575TIP3    H116668   0.395   6.456   4.044
 5575TIP3    H216669   0.451   6.549   4.150
 5576TIP3   OH216670   6.178   6.060   5.123
 5576TIP3    H116671   6.097   6.058   5.175
 5576TIP3    H216672   6.217   5.974   5.136
 5577TIP3   OH216673   7.208   4.771   0.736
 5577TIP3    H116674   7.200   4.862   0.763
 5577TIP3    H216675   7.279   4.736   0.790
 5578TIP3   OH216676   7.730   3.052   0.545
 5578TIP3    H116677   7.808   3.039   0.599
 5578TIP3    H216678   7.705   3.143   0.561
 5579TIP3   OH216679   3.563   5.227   3.105
 5579TIP3    H116680   3.507   5.265   3.173
 5579TIP3    H216681   3.593   5.301   3.054
 5580TIP3   OH216682   1.102   1.579   2.758
 5580TIP3    H116683   1.073   1.667   2.734
 5580TIP3    H216684   1.159   1.592   2.834
 5581TIP3   OH216685   6.723   0.371   3.336
 5581TIP3    H116686   6.676   0.343   3.256
 5581TIP3    H216687   6.776   0.445   3.307
 5582TIP3   OH216688   4.557   2.351   5.767
 5582TIP3    H116689   4.545   2.318   5.856
 5582TIP3    H216690   4.650   2.341   5.750
 5583TIP3   OH216691   2.353   0.749   5.316
 5583TIP3    H116692   2.426   0.804   5.286
 5583TIP3    H216693   2.291   0.811   5.354
 5584TIP3   OH216694   1.830   2.197   1.596
 5584TIP3    H116695   1.760   2.162   1.651
 5584TIP3    H216696   1.904   2.137   1.609
 5585TIP3   OH216697   4.571   5.757   3.303
 5585TIP3    H116698   4.606   5.823   3.362
 5585TIP3    H216699   4.536   5.689   3.360
 5586TIP3   OH216700   6.950   0.563   5.587
 5586TIP3    H116701   7.016   0.571   5.518
 5586TIP3    H216702   6.867   0.583   5.544
 5587TIP3   OH216703   7.113   5.594   3.839
 5587TIP3    H116704   7.107   5.564   3.929
 5587TIP3    H216705   7.061   5.674   3.836
 5588TIP3   OH216706   1.571   1.086   5.111
 5588TIP3    H116707   1.537   1.036   5.037
 5588TIP3    H216708   1.498   1.142   5.137
 5589TIP3   OH216709   7.076   2.717   5.002
 5589TIP3    H116710   7.095   2.797   5.050
 5589TIP3    H216711   7.014   2.743   4.935
 5590TIP3   OH216712   5.095   4.180   3.557
 5590TIP3    H116713   5.009   4.192   3.517
 5590TIP3    H216714   5.105   4.085   3.563
 5591TIP3   OH216715   4.912   3.062   2.008
 5591TIP3    H116716   4.932   2.981   2.056
 5591TIP3    H216717   4.818   3.075   2.021
 5592TIP3   OH216718   8.238   5.690   2.647
 5592TIP3    H116719   8.294   5.666   2.574
 5592TIP3    H216720   8.226   5.785   2.638
 5593TIP3   OH216721   7.901   3.016   5.418
 5593TIP3    H116722   7.891   2.981   5.330
 5593TIP3    H216723   7.909   3.111   5.405
 5594TIP3   OH216724   0.192   3.358   2.712
 5594TIP3    H116725   0.242   3.317   2.642
 5594TIP3    H216726   0.217   3.310   2.791
 5595TIP3   OH216727   8.216   2.715   4.605
 5595TIP3    H116728   8.266   2.722   4.524
 5595TIP3    H216729   8.273   2.753   4.672
 5596TIP3   OH216730   5.698   1.711   4.307
 5596TIP3    H116731   5.738   1.645   4.251
 5596TIP3    H216732   5.613   1.729   4.266
 5597TIP3   OH216733   4.092  -0.089   6.230
 5597TIP3    H116734   4.117  -0.003   6.195
 5597TIP3    H216735   4.146  -0.098   6.309
 5598TIP3   OH216736   2.436   4.694   3.813
 5598TIP3    H116737   2.343   4.698   3.832
 5598TIP3    H216738   2.468   4.617   3.860
 5599TIP3   OH216739   3.358   5.693   3.661
 5599TIP3    H116740   3.376   5.776   3.617
 5599TIP3    H216741   3.335   5.719   3.751
 5600TIP3   OH216742   4.199   5.400   4.623
 5600TIP3    H116743   4.263   5.468   4.643
 5600TIP3    H216744   4.225   5.366   4.537
 5601TIP3   OH216745   1.808   6.017   4.991
 5601TIP3    H116746   1.811   5.922   4.980
 5601TIP3    H216747   1.835   6.032   5.082
 5602TIP3   OH216748   0.944   1.680   1.611
 5602TIP3    H116749   0.954   1.740   1.685
 5602TIP3    H216750   0.898   1.731   1.545
 5603TIP3   OH216751  -0.097   6.610   3.951
 5603TIP3    H116752  -0.140   6.694   3.936
 5603TIP3    H216753  -0.032   6.629   4.019
 5604TIP3   OH216754   3.998   7.664   1.264
 5604TIP3    H116755   3.937   7.703   1.327
 5604TIP3    H216756   3.971   7.572   1.259
 5605TIP3   OH216757   5.877   1.092   1.857
 5605TIP3    H116758   5.956   1.049   1.822
 5605TIP3    H216759   5.909   1.143   1.931
 5606TIP3   OH216760   4.377   3.056   2.284
 5606TIP3    H116761   4.371   3.035   2.191
 5606TIP3    H216762   4.311   3.000   2.325
 5607TIP3   OH216763   2.401   3.680   0.904
 5607TIP3    H116764   2.403   3.605   0.845
 5607TIP3    H216765   2.406   3.757   0.847
 5608TIP3   OH216766   2.976   1.529   0.688
 5608TIP3    H116767   3.058   1.543   0.737
 5608TIP3    H216768   2.944   1.445   0.718
 5609TIP3   OH216769   6.730   7.453   4.439
 5609TIP3    H116770   6.665   7.390   4.469
 5609TIP3    H216771   6.786   7.403   4.380
 5610TIP3   OH216772   4.214   5.812   1.176
 5610TIP3    H116773   4.260   5.768   1.248
 5610TIP3    H216774   4.225   5.754   1.101
 5611TIP3   OH216775   7.657   0.266   2.319
 5611TIP3    H116776   7.677   0.173   2.333
 5611TIP3    H216777   7.570   0.277   2.356
 5612TIP3   OH216778   4.128   5.984   6.111
 5612TIP3    H116779   4.178   5.993   6.030
 5612TIP3    H216780   4.128   5.889   6.128
 5613TIP3   OH216781   4.058   3.467   0.856
 5613TIP3    H116782   4.107   3.538   0.895
 5613TIP3    H216783   4.057   3.487   0.762
 5614TIP3   OH216784   7.139   0.138   1.950
 5614TIP3    H116785   7.133   0.179   2.036
 5614TIP3    H216786   7.106   0.205   1.889
 5615TIP3   OH216787   0.681   2.557   1.755
 5615TIP3    H116788   0.664   2.573   1.662
 5615TIP3    H216789   0.759   2.609   1.774
 5616TIP3   OH216790   2.740   5.360   5.815
 5616TIP3    H116791   2.772   5.345   5.726
 5616TIP3    H216792   2.648   5.337   5.812
 5617TIP3   OH216793   1.500   1.622   4.640
 5617TIP3    H116794   1.510   1.648   4.732
 5617TIP3    H216795   1.406   1.633   4.623
 5618TIP3   OH216796   6.872   6.612   0.950
 5618TIP3    H116797   6.824   6.692   0.929
 5618TIP3    H216798   6.964   6.636   0.942
 5619TIP3   OH216799   0.743   0.480   4.479
 5619TIP3    H116800   0.698   0.521   4.406
 5619TIP3    H216801   0.827   0.526   4.484
 5620TIP3   OH216802   3.687   6.318   3.312
 5620TIP3    H116803   3.735   6.358   3.240
 5620TIP3    H216804   3.750   6.260   3.354
 5621TIP3   OH216805   7.812   2.006   3.792
 5621TIP3    H116806   7.748   2.032   3.858
 5621TIP3    H216807   7.873   1.949   3.840
 5622TIP3   OH216808   0.285   2.236   0.513
 5622TIP3    H116809   0.285   2.321   0.469
 5622TIP3    H216810   0.287   2.257   0.607
 5623TIP3   OH216811   8.213   4.716   5.650
 5623TIP3    H116812   8.117   4.711   5.642
 5623TIP3    H216813   8.239   4.779   5.583
 5624TIP3   OH216814   5.388   5.133   1.629
 5624TIP3    H116815   5.376   5.194   1.556
 5624TIP3    H216816   5.350   5.178   1.704
 5625TIP3   OH216817   3.807   0.476   1.293
 5625TIP3    H116818   3.770   0.456   1.207
 5625TIP3    H216819   3.809   0.392   1.339
 5626TIP3   OH216820   3.723   2.921   2.334
 5626TIP3    H116821   3.669   2.901   2.257
 5626TIP3    H216822   3.765   2.838   2.356
 5627TIP3   OH216823   4.264   2.762   1.208
 5627TIP3    H116824   4.311   2.679   1.216
 5627TIP3    H216825   4.331   2.829   1.220
 5628TIP3   OH216826   5.945   2.888   2.034
 5628TIP3    H116827   5.962   2.867   1.942
 5628TIP3    H216828   5.864   2.842   2.055
 5629TIP3   OH216829   7.213   4.000   3.212
 5629TIP3    H116830   7.292   3.955   3.185
 5629TIP3    H216831   7.200   3.974   3.303
 5630TIP3   OH216832   7.851   5.407   3.190
 5630TIP3    H116833   7.866   5.331   3.135
 5630TIP3    H216834   7.886   5.481   3.140
 5631TIP3   OH216835   1.393   4.390   2.593
 5631TIP3    H116836   1.306   4.351   2.586
 5631TIP3    H216837   1.397   4.424   2.683
 5632TIP3   OH216838   0.085   5.344   3.094
 5632TIP3    H116839   0.064   5.422   3.043
 5632TIP3    H216840   0.022   5.343   3.166
 5633TIP3   OH216841   5.886   2.921   4.555
 5633TIP3    H116842   5.825   2.851   4.534
 5633TIP3    H216843   5.969   2.876   4.572
 5634TIP3   OH216844   1.817   3.771   0.101
 5634TIP3    H116845   1.744   3.831   0.117
 5634TIP3    H216846   1.813   3.708   0.173
 5635TIP3   OH216847   5.894   2.100   1.998
 5635TIP3    H116848   5.897   2.131   1.907
 5635TIP3    H216849   5.985   2.085   2.021
 5636TIP3   OH216850   2.842   1.671   4.479
 5636TIP3    H116851   2.793   1.701   4.402
 5636TIP3    H216852   2.777   1.667   4.549
 5637TIP3   OH216853   3.519   7.501   4.456
 5637TIP3    H116854   3.494   7.574   4.400
 5637TIP3    H216855   3.467   7.513   4.535
 5638TIP3   OH216856   6.503   5.148   6.782
 5638TIP3    H116857   6.429   5.099   6.748
 5638TIP3    H216858   6.549   5.179   6.705
 5639TIP3   OH216859   0.112   3.828   1.255
 5639TIP3    H116860   0.025   3.850   1.222
 5639TIP3    H216861   0.168   3.899   1.225
 5640TIP3   OH216862   2.505   4.855   0.872
 5640TIP3    H116863   2.453   4.899   0.940
 5640TIP3    H216864   2.457   4.774   0.855
 5641TIP3   OH216865   4.396   7.251   0.213
 5641TIP3    H116866   4.418   7.242   0.305
 5641TIP3    H216867   4.306   7.286   0.213
 5642TIP3   OH216868   2.774   1.172   5.863
 5642TIP3    H116869   2.840   1.240   5.872
 5642TIP3    H216870   2.697   1.206   5.909
 5643TIP3   OH216871   3.154   6.168   2.865
 5643TIP3    H116872   3.223   6.232   2.844
 5643TIP3    H216873   3.167   6.150   2.958
 5644TIP3   OH216874   6.588   4.807   5.832
 5644TIP3    H116875   6.571   4.740   5.897
 5644TIP3    H216876   6.543   4.777   5.753
 5645TIP3   OH216877   0.481   0.375   4.581
 5645TIP3    H116878   0.443   0.396   4.496
 5645TIP3    H216879   0.576   0.374   4.564
 5646TIP3   OH216880   5.092   3.138   5.076
 5646TIP3    H116881   5.055   3.126   4.988
 5646TIP3    H216882   5.148   3.215   5.069
 5647TIP3   OH216883   1.400   6.986   3.021
 5647TIP3    H116884   1.406   6.892   3.009
 5647TIP3    H216885   1.308   7.004   3.037
 5648TIP3   OH216886   7.562   4.432   6.416
 5648TIP3    H116887   7.570   4.337   6.407
 5648TIP3    H216888   7.471   4.445   6.445
 5649TIP3   OH216889   4.455   7.253   0.493
 5649TIP3    H116890   4.516   7.251   0.567
 5649TIP3    H216891   4.382   7.197   0.521
 5650TIP3   OH216892   2.836   0.766   4.952
 5650TIP3    H116893   2.907   0.828   4.931
 5650TIP3    H216894   2.763   0.822   4.977
 5651TIP3   OH216895   1.205   7.007   5.467
 5651TIP3    H116896   1.126   7.053   5.438
 5651TIP3    H216897   1.238   7.058   5.541
 5652TIP3   OH216898   2.419   7.270   4.776
 5652TIP3    H116899   2.499   7.218   4.773
 5652TIP3    H216900   2.428   7.322   4.856
 5653TIP3   OH216901   3.715   0.353   3.395
 5653TIP3    H116902   3.668   0.366   3.313
 5653TIP3    H216903   3.705   0.435   3.443
 5654TIP3   OH216904   2.050   4.936   0.810
 5654TIP3    H116905   2.123   4.977   0.857
 5654TIP3    H216906   2.075   4.844   0.801
 5655TIP3   OH216907   7.613   1.255   2.036
 5655TIP3    H116908   7.647   1.181   2.085
 5655TIP3    H216909   7.521   1.234   2.021
 5656TIP3   OH216910   6.129   4.434   2.795
 5656TIP3    H116911   6.051   4.430   2.850
 5656TIP3    H216912   6.101   4.480   2.716
 5657TIP3   OH216913   4.210   5.780   5.795
 5657TIP3    H116914   4.227   5.869   5.824
 5657TIP3    H216915   4.259   5.772   5.713
 5658TIP3   OH216916   0.577   0.206   1.534
 5658TIP3    H116917   0.658   0.155   1.533
 5658TIP3    H216918   0.513   0.149   1.493
 5659TIP3   OH216919   0.975   1.692   4.409
 5659TIP3    H116920   1.037   1.650   4.468
 5659TIP3    H216921   0.920   1.746   4.466
 5660TIP3   OH216922   0.031   5.314   4.857
 5660TIP3    H116923   0.020   5.399   4.899
 5660TIP3    H216924   0.100   5.272   4.907
 5661TIP3   OH216925   6.135   4.264   4.693
 5661TIP3    H116926   6.116   4.268   4.786
 5661TIP3    H216927   6.074   4.326   4.653
 5662TIP3   OH216928   3.819   0.837   6.790
 5662TIP3    H116929   3.842   0.824   6.697
 5662TIP3    H216930   3.900   0.870   6.830
 5663TIP3   OH216931   6.130   1.001   1.725
 5663TIP3    H116932   6.214   0.991   1.771
 5663TIP3    H216933   6.101   0.911   1.710
 5664TIP3   OH216934   1.749   4.574   4.438
 5664TIP3    H116935   1.688   4.501   4.452
 5664TIP3    H216936   1.812   4.566   4.510
 5665TIP3   OH216937   7.398   1.111   3.648
 5665TIP3    H116938   7.468   1.046   3.644
 5665TIP3    H216939   7.384   1.136   3.556
 5666TIP3   OH216940   3.780   0.505   1.006
 5666TIP3    H116941   3.847   0.474   0.946
 5666TIP3    H216942   3.811   0.591   1.035
 5667TIP3   OH216943   0.615   5.468   4.875
 5667TIP3    H116944   0.666   5.542   4.842
 5667TIP3    H216945   0.639   5.395   4.819
 5668TIP3   OH216946   7.140   5.281   1.725
 5668TIP3    H116947   7.171   5.192   1.741
 5668TIP3    H216948   7.113   5.312   1.812
 5669TIP3   OH216949   7.465   1.439   0.013
 5669TIP3    H116950   7.476   1.520   0.063
 5669TIP3    H216951   7.471   1.369   0.077
 5670TIP3   OH216952   6.238   4.628   2.316
 5670TIP3    H116953   6.181   4.630   2.393
 5670TIP3    H216954   6.251   4.720   2.293
 5671TIP3   OH216955   3.046   5.067   4.573
 5671TIP3    H116956   2.968   5.076   4.627
 5671TIP3    H216957   3.012   5.043   4.486
 5672TIP3   OH216958   6.551   5.363   5.268
 5672TIP3    H116959   6.513   5.384   5.353
 5672TIP3    H216960   6.514   5.277   5.245
 5673TIP3   OH216961   7.216   6.645   2.657
 5673TIP3    H116962   7.127   6.668   2.680
 5673TIP3    H216963   7.265   6.727   2.665
 5674TIP3   OH216964   2.572   3.714   1.899
 5674TIP3    H116965   2.527   3.686   1.819
 5674TIP3    H216966   2.663   3.724   1.873
 5675TIP3   OH216967   4.807   6.720   0.669
 5675TIP3    H116968   4.777   6.684   0.752
 5675TIP3    H216969   4.882   6.775   0.692
 5676TIP3   OH216970   7.833   5.440   4.230
 5676TIP3    H116971   7.759   5.495   4.205
 5676TIP3    H216972   7.796   5.353   4.241
 5677TIP3   OH216973   3.056   1.340   4.123
 5677TIP3    H116974   3.104   1.264   4.155
 5677TIP3    H216975   3.031   1.388   4.202
 5678TIP3   OH216976   3.572   0.846   1.786
 5678TIP3    H116977   3.519   0.843   1.706
 5678TIP3    H216978   3.627   0.768   1.781
 5679TIP3   OH216979   4.318   7.697   6.674
 5679TIP3    H116980   4.343   7.789   6.682
 5679TIP3    H216981   4.358   7.669   6.591
 5680TIP3   OH216982   2.937   3.391   6.340
 5680TIP3    H116983   2.995   3.347   6.278
 5680TIP3    H216984   2.905   3.468   6.294
 5681TIP3   OH216985   6.382   6.057   4.516
 5681TIP3    H116986   6.432   6.083   4.594
 5681TIP3    H216987   6.362   5.965   4.530
 5682TIP3   OH216988   8.106   1.471   1.284
 5682TIP3    H116989   8.040   1.487   1.352
 5682TIP3    H216990   8.073   1.396   1.235
 5683TIP3   OH216991   0.853   5.223   5.234
 5683TIP3    H116992   0.904   5.180   5.302
 5683TIP3    H216993   0.834   5.154   5.170
 5684TIP3   OH216994   2.916   2.560   6.051
 5684TIP3    H116995   2.996   2.572   6.101
 5684TIP3    H216996   2.921   2.626   5.982
 5685TIP3   OH216997   3.382   6.693   3.634
 5685TIP3    H116998   3.458   6.663   3.584
 5685TIP3    H216999   3.307   6.651   3.591
 5686TIP3   OH217000   7.094   3.555   5.619
 5686TIP3    H117001   7.108   3.646   5.595
 5686TIP3    H217002   7.114   3.506   5.539
 5687TIP3   OH217003   4.664   3.463   5.573
 5687TIP3    H117004   4.610   3.401   5.621
 5687TIP3    H217005   4.701   3.520   5.641
 5688TIP3   OH217006   7.970   6.492   0.442
 5688TIP3    H117007   7.998   6.424   0.504
 5688TIP3    H217008   8.012   6.467   0.359
 5689TIP3   OH217009   6.989   7.414   0.862
 5689TIP3    H117010   6.981   7.502   0.824
 5689TIP3    H217011   7.014   7.359   0.788
 5690TIP3   OH217012   0.589   1.780   3.792
 5690TIP3    H117013   0.678   1.776   3.757
 5690TIP3    H217014   0.590   1.857   3.850
 5691TIP3   OH217015   1.909   0.366   4.151
 5691TIP3    H117016   1.999   0.343   4.128
 5691TIP3    H217017   1.916   0.455   4.187
 5692TIP3   OH217018   4.318   3.162   4.201
 5692TIP3    H117019   4.325   3.128   4.290
 5692TIP3    H217020   4.346   3.253   4.207
 5693TIP3   OH217021   1.817   4.593   6.233
 5693TIP3    H117022   1.751   4.645   6.187
 5693TIP3    H217023   1.878   4.657   6.269
 5694TIP3   OH217024   4.872   0.334   0.225
 5694TIP3    H117025   4.827   0.274   0.165
 5694TIP3    H217026   4.919   0.394   0.169
 5695TIP3   OH217027   7.179   2.446   2.228
 5695TIP3    H117028   7.165   2.537   2.201
 5695TIP3    H217029   7.195   2.399   2.146
 5696TIP3   OH217030   1.395   4.019   3.453
 5696TIP3    H117031   1.434   4.056   3.373
 5696TIP3    H217032   1.424   4.078   3.523
 5697TIP3   OH217033   0.519   4.349   3.706
 5697TIP3    H117034   0.563   4.378   3.786
 5697TIP3    H217035   0.542   4.415   3.641
 5698TIP3   OH217036   5.160   4.353   6.242
 5698TIP3    H117037   5.236   4.410   6.255
 5698TIP3    H217038   5.084   4.410   6.253
 5699TIP3   OH217039   1.090   0.554   4.246
 5699TIP3    H117040   1.045   0.597   4.318
 5699TIP3    H217041   1.084   0.461   4.266
 5700TIP3   OH217042   3.533   1.486   3.293
 5700TIP3    H117043   3.495   1.573   3.295
 5700TIP3    H217044   3.537   1.464   3.200
 5701TIP3   OH217045   1.127   4.113   1.937
 5701TIP3    H117046   1.222   4.105   1.926
 5701TIP3    H217047   1.116   4.155   2.022
 5702TIP3   OH217048   6.978   4.363   1.299
 5702TIP3    H117049   6.888   4.340   1.274
 5702TIP3    H217050   7.000   4.301   1.368
 5703TIP3   OH217051   1.240   5.098   0.078
 5703TIP3    H117052   1.252   5.004   0.092
 5703TIP3    H217053   1.294   5.117   0.001
 5704TIP3   OH217054   3.669   0.519   6.730
 5704TIP3    H117055   3.611   0.579   6.684
 5704TIP3    H217056   3.688   0.449   6.667
 5705TIP3   OH217057   2.817   5.891   6.621
 5705TIP3    H117058   2.799   5.924   6.533
 5705TIP3    H217059   2.818   5.970   6.676
 5706TIP3   OH217060   6.425   4.783   0.376
 5706TIP3    H117061   6.451   4.695   0.350
 5706TIP3    H217062   6.495   4.812   0.434
 5707TIP3   OH217063   5.074   2.655   4.009
 5707TIP3    H117064   4.990   2.698   4.026
 5707TIP3    H217065   5.086   2.596   4.083
 5708TIP3   OH217066   3.784   5.353   5.005
 5708TIP3    H117067   3.751   5.422   4.948
 5708TIP3    H217068   3.709   5.296   5.019
 5709TIP3   OH217069   7.000   1.688   6.717
 5709TIP3    H117070   6.988   1.622   6.785
 5709TIP3    H217071   6.963   1.649   6.638
 5710TIP3   OH217072   0.355   3.951   0.295
 5710TIP3    H117073   0.335   4.044   0.292
 5710TIP3    H217074   0.270   3.908   0.279
 5711TIP3   OH217075   4.711   2.892   2.248
 5711TIP3    H117076   4.635   2.871   2.302
 5711TIP3    H217077   4.684   2.872   2.159
 5712TIP3   OH217078   3.116   1.349   0.882
 5712TIP3    H117079   3.116   1.372   0.975
 5712TIP3    H217080   3.208   1.352   0.856
 5713TIP3   OH217081   0.974   7.632   5.388
 5713TIP3    H117082   1.014   7.559   5.341
 5713TIP3    H217083   1.026   7.642   5.467
 5714TIP3   OH217084   7.027   6.322   6.798
 5714TIP3    H117085   6.937   6.291   6.797
 5714TIP3    H217086   7.034   6.378   6.720
 5715TIP3   OH217087   3.533   2.005   2.542
 5715TIP3    H117088   3.526   2.064   2.467
 5715TIP3    H217089   3.624   2.014   2.570
 5716TIP3   OH217090   4.084   0.484   6.206
 5716TIP3    H117091   4.164   0.503   6.157
 5716TIP3    H217092   4.113   0.476   6.297
 5717TIP3   OH217093   7.182   7.020   2.270
 5717TIP3    H117094   7.114   6.967   2.312
 5717TIP3    H217095   7.187   7.100   2.323
 5718TIP3   OH217096   0.035   3.538   4.584
 5718TIP3    H117097  -0.018   3.496   4.652
 5718TIP3    H217098   0.119   3.554   4.626
 5719TIP3   OH217099   0.479   2.430   1.366
 5719TIP3    H117100   0.491   2.338   1.391
 5719TIP3    H217101   0.536   2.478   1.426
 5720TIP3   OH217102   6.847   3.009   3.032
 5720TIP3    H117103   6.838   2.916   3.011
 5720TIP3    H217104   6.942   3.024   3.034
 5721TIP3   OH217105   6.160   3.846   0.540
 5721TIP3    H117106   6.200   3.933   0.538
 5721TIP3    H217107   6.216   3.796   0.599
 5722TIP3   OH217108   5.018   6.670   1.208
 5722TIP3    H117109   5.102   6.665   1.252
 5722TIP3    H217110   5.040   6.688   1.116
 5723TIP3   OH217111   7.742   6.139   1.313
 5723TIP3    H117112   7.834   6.160   1.333
 5723TIP3    H217113   7.704   6.119   1.398
 5724TIP3   OH217114   4.265   0.176   0.455
 5724TIP3    H117115   4.354   0.200   0.432
 5724TIP3    H217116   4.215   0.188   0.375
 5725TIP3   OH217117   7.243   0.398   5.245
 5725TIP3    H117118   7.288   0.379   5.163
 5725TIP3    H217119   7.210   0.487   5.234
 5726TIP3   OH217120   2.964   6.326   1.737
 5726TIP3    H117121   2.950   6.311   1.830
 5726TIP3    H217122   3.039   6.384   1.732
 5727TIP3   OH217123   8.075   1.682   0.675
 5727TIP3    H117124   8.028   1.692   0.758
 5727TIP3    H217125   8.010   1.707   0.609
 5728TIP3   OH217126   7.486   4.006   3.168
 5728TIP3    H117127   7.437   4.067   3.223
 5728TIP3    H217128   7.546   4.061   3.118
 5729TIP3   OH217129   1.194   2.325   2.524
 5729TIP3    H117130   1.197   2.417   2.500
 5729TIP3    H217131   1.191   2.278   2.441
 5730TIP3   OH217132   3.010   6.993   3.411
 5730TIP3    H117133   2.988   6.935   3.339
 5730TIP3    H217134   3.094   6.959   3.444
 5731TIP3   OH217135   8.305   0.383   6.013
 5731TIP3    H117136   8.266   0.414   5.931
 5731TIP3    H217137   8.400   0.387   5.997
 5732TIP3   OH217138   0.088   1.044   1.734
 5732TIP3    H117139   0.088   1.125   1.683
 5732TIP3    H217140   0.124   0.978   1.674
 5733TIP3   OH217141   8.053   2.986   5.635
 5733TIP3    H117142   7.991   2.996   5.562
 5733TIP3    H217143   8.045   2.894   5.661
 5734TIP3   OH217144   4.009   4.036   1.918
 5734TIP3    H117145   3.914   4.035   1.905
 5734TIP3    H217146   4.044   3.981   1.849
 5735TIP3   OH217147   0.961   2.745   5.990
 5735TIP3    H117148   0.906   2.744   6.068
 5735TIP3    H217149   0.906   2.708   5.921
 5736TIP3   OH217150   3.656   1.892   1.435
 5736TIP3    H117151   3.743   1.906   1.398
 5736TIP3    H217152   3.615   1.979   1.436
 5737TIP3   OH217153   4.277   6.592   0.038
 5737TIP3    H117154   4.352   6.590   0.097
 5737TIP3    H217155   4.204   6.618   0.094
 5738TIP3   OH217156   5.256   2.689   5.271
 5738TIP3    H117157   5.206   2.720   5.347
 5738TIP3    H217158   5.339   2.736   5.276
 5739TIP3   OH217159   4.309   4.600   2.813
 5739TIP3    H117160   4.290   4.514   2.851
 5739TIP3    H217161   4.316   4.659   2.888
 5740TIP3   OH217162   3.541   6.831   4.432
 5740TIP3    H117163   3.467   6.834   4.372
 5740TIP3    H217164   3.545   6.919   4.471
 5741TIP3   OH217165   7.065   2.192   3.740
 5741TIP3    H117166   7.027   2.192   3.652
 5741TIP3    H217167   7.053   2.282   3.770
 5742TIP3   OH217168   3.839   0.282   1.931
 5742TIP3    H117169   3.880   0.349   1.877
 5742TIP3    H217170   3.752   0.269   1.892
 5743TIP3   OH217171   0.059   5.212   5.241
 5743TIP3    H117172   0.133   5.178   5.291
 5743TIP3    H217173   0.036   5.294   5.286
 5744TIP3   OH217174   7.012   6.359   3.489
 5744TIP3    H117175   6.930   6.396   3.521
 5744TIP3    H217176   6.993   6.331   3.400
 5745TIP3   OH217177   2.296   3.736   6.213
 5745TIP3    H117178   2.218   3.762   6.262
 5745TIP3    H217179   2.362   3.802   6.236
 5746TIP3   OH217180   5.562   0.267   4.989
 5746TIP3    H117181   5.618   0.189   4.982
 5746TIP3    H217182   5.575   0.298   5.078
 5747TIP3   OH217183   6.517   7.662   4.588
 5747TIP3    H117184   6.611   7.652   4.607
 5747TIP3    H217185   6.492   7.577   4.551
 5748TIP3   OH217186   4.507   0.134   6.522
 5748TIP3    H117187   4.457   0.206   6.561
 5748TIP3    H217188   4.567   0.177   6.461
 5749TIP3   OH217189   0.814   6.473   6.050
 5749TIP3    H117190   0.847   6.403   5.993
 5749TIP3    H217191   0.890   6.529   6.066
 5750TIP3   OH217192   1.796   2.756   1.215
 5750TIP3    H117193   1.752   2.812   1.151
 5750TIP3    H217194   1.809   2.813   1.291
 5751TIP3   OH217195   0.948   1.583   6.340
 5751TIP3    H117196   0.984   1.497   6.363
 5751TIP3    H217197   0.868   1.564   6.292
 5752TIP3   OH217198   5.789   2.557   0.081
 5752TIP3    H117199   5.778   2.601  -0.003
 5752TIP3    H217200   5.701   2.532   0.107
 5753TIP3   OH217201   4.976   1.424  -0.022
 5753TIP3    H117202   4.932   1.339  -0.016
 5753TIP3    H217203   5.039   1.414  -0.093
 5754TIP3   OH217204   2.793   4.038   2.644
 5754TIP3    H117205   2.747   4.106   2.694
 5754TIP3    H217206   2.823   4.083   2.565
 5755TIP3   OH217207   4.462   3.025   0.073
 5755TIP3    H117208   4.403   3.060   0.139
 5755TIP3    H217209   4.526   2.974   0.122
 5756TIP3   OH217210   2.703   0.192   5.591
 5756TIP3    H117211   2.702   0.185   5.495
 5756TIP3    H217212   2.719   0.102   5.621
 5757TIP3   OH217213   6.467   1.998   2.347
 5757TIP3    H117214   6.437   2.036   2.265
 5757TIP3    H217215   6.563   2.009   2.345
 5758TIP3   OH217216   4.477   6.687   3.353
 5758TIP3    H117217   4.406   6.747   3.373
 5758TIP3    H217218   4.501   6.706   3.262
 5759TIP3   OH217219   3.003   2.947   6.693
 5759TIP3    H117220   3.014   2.887   6.766
 5759TIP3    H217221   2.918   2.924   6.656
 5760TIP3   OH217222   6.357   6.383   6.225
 5760TIP3    H117223   6.304   6.436   6.285
 5760TIP3    H217224   6.296   6.319   6.189
 5761TIP3   OH217225   8.182   6.925   3.123
 5761TIP3    H117226   8.203   6.864   3.194
 5761TIP3    H217227   8.206   7.011   3.158
 5762TIP3   OH217228   8.074   5.514   0.818
 5762TIP3    H117229   8.109   5.442   0.765
 5762TIP3    H217230   8.132   5.519   0.894
 5763TIP3   OH217231   7.549   1.876   4.657
 5763TIP3    H117232   7.626   1.861   4.712
 5763TIP3    H217233   7.559   1.967   4.628
 5764TIP3   OH217234   2.293   5.850   4.548
 5764TIP3    H117235   2.307   5.814   4.635
 5764TIP3    H217236   2.212   5.901   4.555
 5765TIP3   OH217237   0.704   7.355   2.898
 5765TIP3    H117238   0.725   7.268   2.932
 5765TIP3    H217239   0.721   7.349   2.804
 5766TIP3   OH217240   5.826   5.184   6.473
 5766TIP3    H117241   5.758   5.145   6.527
 5766TIP3    H217242   5.866   5.109   6.428
 5767TIP3   OH217243   8.278   1.141   0.559
 5767TIP3    H117244   8.235   1.124   0.475
 5767TIP3    H217245   8.233   1.218   0.594
 5768TIP3   OH217246   7.252   3.392   5.193
 5768TIP3    H117247   7.306   3.465   5.225
 5768TIP3    H217248   7.249   3.331   5.267
 5769TIP3   OH217249   4.454   6.169   3.224
 5769TIP3    H117250   4.544   6.141   3.243
 5769TIP3    H217251   4.448   6.257   3.262
 5770TIP3   OH217252   2.000   3.799   5.644
 5770TIP3    H117253   1.972   3.727   5.700
 5770TIP3    H217254   1.938   3.870   5.663
 5771TIP3   OH217255   3.250   0.263   2.655
 5771TIP3    H117256   3.248   0.257   2.560
 5771TIP3    H217257   3.183   0.327   2.676
 5772TIP3   OH217258   2.416   0.380   1.323
 5772TIP3    H117259   2.373   0.306   1.366
 5772TIP3    H217260   2.394   0.455   1.378
 5773TIP3   OH217261   5.821   4.270   2.540
 5773TIP3    H117262   5.878   4.347   2.542
 5773TIP3    H217263   5.844   4.222   2.620
 5774TIP3   OH217264   1.061   5.099   1.452
 5774TIP3    H117265   1.064   5.053   1.368
 5774TIP3    H217266   1.111   5.179   1.438
 5775TIP3   OH217267   6.386   2.504   5.394
 5775TIP3    H117268   6.311   2.491   5.336
 5775TIP3    H217269   6.365   2.452   5.472
 5776TIP3   OH217270   1.786   0.085   3.086
 5776TIP3    H117271   1.859   0.093   3.024
 5776TIP3    H217272   1.708   0.099   3.032
 5777TIP3   OH217273   4.923   3.304   5.667
 5777TIP3    H117274   4.859   3.255   5.719
 5777TIP3    H217275   5.008   3.276   5.701
 5778TIP3   OH217276   3.203   1.980   4.097
 5778TIP3    H117277   3.143   2.040   4.140
 5778TIP3    H217278   3.187   1.991   4.003
 5779TIP3   OH217279   7.606   5.863   5.179
 5779TIP3    H117280   7.605   5.955   5.203
 5779TIP3    H217281   7.687   5.852   5.129
 5780TIP3   OH217282   4.308   0.468   2.642
 5780TIP3    H117283   4.241   0.473   2.574
 5780TIP3    H217284   4.315   0.374   2.661
 5781TIP3   OH217285   4.751   6.621   3.451
 5781TIP3    H117286   4.688   6.668   3.398
 5781TIP3    H217287   4.766   6.677   3.527
 5782TIP3   OH217288   6.879   5.992   5.460
 5782TIP3    H117289   6.962   5.946   5.464
 5782TIP3    H217290   6.884   6.044   5.380
 5783TIP3   OH217291   0.116   0.448   4.052
 5783TIP3    H117292   0.096   0.389   3.979
 5783TIP3    H217293   0.211   0.455   4.053
 5784TIP3   OH217294   7.753   5.261   6.125
 5784TIP3    H117295   7.688   5.190   6.124
 5784TIP3    H217296   7.838   5.216   6.120
 5785TIP3   OH217297   4.328   7.056   3.825
 5785TIP3    H117298   4.306   7.139   3.784
 5785TIP3    H217299   4.250   7.002   3.814
 5786TIP3   OH217300   5.793   5.200   0.379
 5786TIP3    H117301   5.852   5.208   0.304
 5786TIP3    H217302   5.826   5.265   0.442
 5787TIP3   OH217303   6.014   6.547   1.047
 5787TIP3    H117304   5.937   6.537   1.102
 5787TIP3    H217305   5.983   6.528   0.958
 5788TIP3   OH217306   3.849   1.174   5.157
 5788TIP3    H117307   3.805   1.135   5.232
 5788TIP3    H217308   3.799   1.253   5.138
 5789TIP3   OH217309   6.579   6.131   1.607
 5789TIP3    H117310   6.501   6.178   1.636
 5789TIP3    H217311   6.633   6.198   1.565
 5790TIP3   OH217312   2.384   1.254   5.703
 5790TIP3    H117313   2.365   1.203   5.625
 5790TIP3    H217314   2.431   1.331   5.671
 5791TIP3   OH217315   7.018   2.193   3.467
 5791TIP3    H117316   7.040   2.283   3.443
 5791TIP3    H217317   7.075   2.140   3.412
 5792TIP3   OH217318   6.526   2.769   2.059
 5792TIP3    H117319   6.451   2.805   2.012
 5792TIP3    H217320   6.525   2.676   2.037
 5793TIP3   OH217321   4.022   3.997   4.335
 5793TIP3    H117322   3.933   3.991   4.300
 5793TIP3    H217323   4.069   4.052   4.272
 5794TIP3   OH217324   2.413   6.144   0.071
 5794TIP3    H117325   2.396   6.053   0.045
 5794TIP3    H217326   2.437   6.138   0.163
 5795TIP3   OH217327   4.987   1.128   3.419
 5795TIP3    H117328   5.053   1.076   3.374
 5795TIP3    H217329   4.983   1.091   3.507
 5796TIP3   OH217330   0.141   6.955   4.120
 5796TIP3    H117331   0.128   7.001   4.203
 5796TIP3    H217332   0.070   6.891   4.117
 5797TIP3   OH217333   4.145   3.053   2.576
 5797TIP3    H117334   4.117   3.023   2.489
 5797TIP3    H217335   4.065   3.050   2.629
 5798TIP3   OH217336   5.700   1.534   3.659
 5798TIP3    H117337   5.774   1.574   3.703
 5798TIP3    H217338   5.673   1.462   3.717
 5799TIP3   OH217339   0.973   0.270   4.023
 5799TIP3    H117340   0.964   0.312   4.109
 5799TIP3    H217341   1.009   0.338   3.967
 5800TIP3   OH217342   0.549   7.298   5.238
 5800TIP3    H117343   0.564   7.284   5.144
 5800TIP3    H217344   0.468   7.349   5.242
 5801TIP3   OH217345   0.384   6.418   2.258
 5801TIP3    H117346   0.435   6.348   2.299
 5801TIP3    H217347   0.436   6.443   2.181
 5802TIP3   OH217348   2.507   0.296   4.176
 5802TIP3    H117349   2.573   0.279   4.243
 5802TIP3    H217350   2.443   0.353   4.219
 5803TIP3   OH217351   4.724   4.078   1.271
 5803TIP3    H117352   4.819   4.080   1.258
 5803TIP3    H217353   4.690   4.034   1.193
 5804TIP3   OH217354   7.973   5.110   3.908
 5804TIP3    H117355   8.036   5.106   3.836
 5804TIP3    H217356   7.996   5.190   3.955
 5805TIP3   OH217357   0.490   3.357   4.738
 5805TIP3    H117358   0.481   3.263   4.749
 5805TIP3    H217359   0.576   3.368   4.698
 5806TIP3   OH217360   6.980   3.663   0.772
 5806TIP3    H117361   6.988   3.569   0.793
 5806TIP3    H217362   7.071   3.693   0.766
 5807TIP3   OH217363   4.603   1.900   5.222
 5807TIP3    H117364   4.597   1.806   5.238
 5807TIP3    H217365   4.683   1.911   5.170
 5808TIP3   OH217366   6.655   3.258   3.987
 5808TIP3    H117367   6.609   3.231   4.066
 5808TIP3    H217368   6.674   3.351   4.000
 5809TIP3   OH217369   1.607   3.333   3.251
 5809TIP3    H117370   1.550   3.336   3.173
 5809TIP3    H217371   1.547   3.319   3.324
 5810TIP3   OH217372   1.002   6.653   3.296
 5810TIP3    H117373   1.095   6.672   3.287
 5810TIP3    H217374   0.958   6.733   3.266
 5811TIP3   OH217375   7.761   6.879   1.671
 5811TIP3    H117376   7.817   6.942   1.717
 5811TIP3    H217377   7.683   6.929   1.647
 5812TIP3   OH217378   2.738   3.478   2.687
 5812TIP3    H117379   2.699   3.564   2.705
 5812TIP3    H217380   2.823   3.498   2.648
 5813TIP3   OH217381   2.961   2.398   3.941
 5813TIP3    H117382   2.883   2.365   3.985
 5813TIP3    H217383   2.996   2.322   3.894
 5814TIP3   OH217384   3.260   7.226   1.709
 5814TIP3    H117385   3.323   7.297   1.700
 5814TIP3    H217386   3.299   7.167   1.774
 5815TIP3   OH217387   0.584   6.523   6.590
 5815TIP3    H117388   0.600   6.607   6.633
 5815TIP3    H217389   0.493   6.527   6.562
 5816TIP3   OH217390   6.061   7.659   1.423
 5816TIP3    H117391   6.112   7.662   1.342
 5816TIP3    H217392   6.001   7.733   1.417
 5817TIP3   OH217393   6.630   5.680   4.775
 5817TIP3    H117394   6.655   5.669   4.866
 5817TIP3    H217395   6.706   5.649   4.725
 5818TIP3   OH217396   6.208   6.810   5.910
 5818TIP3    H117397   6.239   6.852   5.830
 5818TIP3    H217398   6.135   6.755   5.882
 5819TIP3   OH217399   2.654   6.049   4.073
 5819TIP3    H117400   2.723   6.052   4.007
 5819TIP3    H217401   2.637   5.955   4.085
 5820TIP3   OH217402  -0.011   6.800   4.798
 5820TIP3    H117403   0.055   6.832   4.860
 5820TIP3    H217404  -0.008   6.705   4.807
 5821TIP3   OH217405   3.993   2.036   2.034
 5821TIP3    H117406   4.071   2.032   1.979
 5821TIP3    H217407   4.023   2.010   2.121
 5822TIP3   OH217408   4.322   2.654   4.655
 5822TIP3    H117409   4.325   2.611   4.740
 5822TIP3    H217410   4.267   2.597   4.601
 5823TIP3   OH217411   2.717   1.066   0.871
 5823TIP3    H117412   2.800   1.077   0.825
 5823TIP3    H217413   2.652   1.056   0.802
 5824TIP3   OH217414   6.816   5.808   0.243
 5824TIP3    H117415   6.811   5.893   0.200
 5824TIP3    H217416   6.899   5.809   0.290
 5825TIP3   OH217417   3.898   5.830   0.508
 5825TIP3    H117418   3.976   5.853   0.457
 5825TIP3    H217419   3.876   5.911   0.554
 5826TIP3   OH217420   5.227   4.295   2.132
 5826TIP3    H117421   5.181   4.357   2.189
 5826TIP3    H217422   5.239   4.342   2.050
 5827TIP3   OH217423   7.392   5.146   1.463
 5827TIP3    H117424   7.453   5.126   1.533
 5827TIP3    H217425   7.354   5.062   1.438
 5828TIP3   OH217426   4.556   1.107   2.367
 5828TIP3    H117427   4.501   1.164   2.313
 5828TIP3    H217428   4.495   1.045   2.407
 5829TIP3   OH217429   7.889   3.128   1.019
 5829TIP3    H117430   7.959   3.063   1.029
 5829TIP3    H217431   7.934   3.212   1.009
 5830TIP3   OH217432   7.672   7.167   1.809
 5830TIP3    H117433   7.621   7.207   1.738
 5830TIP3    H217434   7.615   7.098   1.843
 5831TIP3   OH217435   4.460   2.680   4.332
 5831TIP3    H117436   4.385   2.620   4.340
 5831TIP3    H217437   4.434   2.742   4.264
 5832TIP3   OH217438   1.289   6.774   0.074
 5832TIP3    H117439   1.211   6.757   0.022
 5832TIP3    H217440   1.362   6.762   0.012
 5833TIP3   OH217441   2.585   2.246   5.130
 5833TIP3    H117442   2.668   2.289   5.153
 5833TIP3    H217443   2.585   2.166   5.183
 5834TIP3   OH217444   0.565   6.415   4.356
 5834TIP3    H117445   0.638   6.430   4.297
 5834TIP3    H217446   0.566   6.321   4.373
 5835TIP3   OH217447   5.644   6.903   6.394
 5835TIP3    H117448   5.565   6.948   6.424
 5835TIP3    H217449   5.638   6.906   6.298
 5836TIP3   OH217450   3.989   4.523   6.219
 5836TIP3    H117451   3.960   4.579   6.147
 5836TIP3    H217452   3.948   4.439   6.202
 5837TIP3   OH217453   8.124   1.355   2.976
 5837TIP3    H117454   8.216   1.338   2.958
 5837TIP3    H217455   8.125   1.432   3.034
 5838TIP3   OH217456   6.079   0.301   0.257
 5838TIP3    H117457   6.161   0.307   0.305
 5838TIP3    H217458   6.074   0.383   0.208
 5839TIP3   OH217459   4.169   7.630   3.151
 5839TIP3    H117460   4.260   7.657   3.158
 5839TIP3    H217461   4.129   7.696   3.094
 5840TIP3   OH217462   4.299   7.299   3.475
 5840TIP3    H117463   4.341   7.226   3.430
 5840TIP3    H217464   4.208   7.273   3.484
 5841TIP3   OH217465   5.960   3.572   4.146
 5841TIP3    H117466   5.937   3.575   4.239
 5841TIP3    H217467   5.906   3.501   4.111
 5842TIP3   OH217468   2.443   3.622   2.148
 5842TIP3    H117469   2.500   3.664   2.213
 5842TIP3    H217470   2.481   3.647   2.063
 5843TIP3   OH217471   8.073   3.337   1.237
 5843TIP3    H117472   8.096   3.301   1.322
 5843TIP3    H217473   8.140   3.303   1.178
 5844TIP3   OH217474   3.313   0.125   1.358
 5844TIP3    H117475   3.241   0.069   1.329
 5844TIP3    H217476   3.270   0.202   1.395
 5845TIP3   OH217477   7.669   0.855   5.062
 5845TIP3    H117478   7.606   0.827   4.996
 5845TIP3    H217479   7.647   0.803   5.140
 5846TIP3   OH217480   2.834   2.311   1.093
 5846TIP3    H117481   2.757   2.254   1.089
 5846TIP3    H217482   2.801   2.398   1.071
 5847TIP3   OH217483   7.681   0.523   1.409
 5847TIP3    H117484   7.626   0.584   1.459
 5847TIP3    H217485   7.631   0.442   1.407
 5848TIP3   OH217486   3.477   2.983   3.769
 5848TIP3    H117487   3.382   2.993   3.771
 5848TIP3    H217488   3.498   2.973   3.676
 5849TIP3   OH217489   2.366   5.093   0.030
 5849TIP3    H117490   2.370   5.127   0.120
 5849TIP3    H217491   2.284   5.043   0.028
 5850TIP3   OH217492   3.498   3.659   0.360
 5850TIP3    H117493   3.432   3.664   0.291
 5850TIP3    H217494   3.581   3.665   0.312
 5851TIP3   OH217495   1.491   3.985   6.686
 5851TIP3    H117496   1.541   3.922   6.633
 5851TIP3    H217497   1.401   3.955   6.679
 5852TIP3   OH217498   3.187   2.257   1.956
 5852TIP3    H117499   3.242   2.218   2.024
 5852TIP3    H217500   3.212   2.211   1.876
 5853TIP3   OH217501   1.770   3.056   5.307
 5853TIP3    H117502   1.805   3.142   5.329
 5853TIP3    H217503   1.795   3.043   5.216
 5854TIP3   OH217504   1.580   6.101   1.116
 5854TIP3    H117505   1.503   6.153   1.094
 5854TIP3    H217506   1.547   6.033   1.175
 5855TIP3   OH217507   0.584   7.024   1.177
 5855TIP3    H117508   0.555   6.987   1.260
 5855TIP3    H217509   0.505   7.028   1.124
 5856TIP3   OH217510   3.849   0.472   4.331
 5856TIP3    H117511   3.767   0.501   4.290
 5856TIP3    H217512   3.823   0.395   4.383
 5857TIP3   OH217513   6.635   4.126   0.314
 5857TIP3    H117514   6.626   4.175   0.233
 5857TIP3    H217515   6.659   4.192   0.380
 5858TIP3   OH217516   3.471   6.920   3.825
 5858TIP3    H117517   3.487   6.837   3.870
 5858TIP3    H217518   3.440   6.894   3.738
 5859TIP3   OH217519   8.286   0.742   4.408
 5859TIP3    H117520   8.361   0.689   4.434
 5859TIP3    H217521   8.280   0.730   4.313
 5860TIP3   OH217522   7.730   2.264   5.832
 5860TIP3    H117523   7.712   2.352   5.865
 5860TIP3    H217524   7.793   2.277   5.761
 5861TIP3   OH217525   0.381   2.414   4.120
 5861TIP3    H117526   0.330   2.336   4.141
 5861TIP3    H217527   0.464   2.380   4.086
 5862TIP3   OH217528   2.686   4.557   1.036
 5862TIP3    H117529   2.766   4.591   0.996
 5862TIP3    H217530   2.717   4.498   1.104
 5863TIP3   OH217531   5.448   4.063   5.271
 5863TIP3    H117532   5.543   4.072   5.282
 5863TIP3    H217533   5.417   4.034   5.357
 5864TIP3   OH217534   3.359   5.174   4.707
 5864TIP3    H117535   3.303   5.242   4.670
 5864TIP3    H217536   3.427   5.161   4.641
 5865TIP3   OH217537   4.298   2.258   2.775
 5865TIP3    H117538   4.345   2.190   2.727
 5865TIP3    H217539   4.355   2.279   2.849
 5866TIP3   OH217540   6.518   3.916   0.461
 5866TIP3    H117541   6.561   3.984   0.410
 5866TIP3    H217542   6.494   3.958   0.543
 5867TIP3   OH217543   7.703   6.845   2.935
 5867TIP3    H117544   7.715   6.878   3.024
 5867TIP3    H217545   7.735   6.755   2.937
 5868TIP3   OH217546   6.589   6.248   6.027
 5868TIP3    H117547   6.635   6.293   6.098
 5868TIP3    H217548   6.515   6.205   6.070
 5869TIP3   OH217549   4.528   7.134   5.656
 5869TIP3    H117550   4.582   7.090   5.722
 5869TIP3    H217551   4.439   7.130   5.690
 5870TIP3   OH217552   5.849   3.479   2.586
 5870TIP3    H117553   5.816   3.568   2.597
 5870TIP3    H217554   5.932   3.489   2.540
 5871TIP3   OH217555   7.753   0.589   3.681
 5871TIP3    H117556   7.819   0.657   3.694
 5871TIP3    H217557   7.769   0.526   3.752
 5872TIP3   OH217558   0.770   4.655   3.567
 5872TIP3    H117559   0.742   4.746   3.576
 5872TIP3    H217560   0.689   4.607   3.549
 5873TIP3   OH217561   5.423   4.661   1.850
 5873TIP3    H117562   5.442   4.737   1.794
 5873TIP3    H217563   5.498   4.604   1.838
 5874TIP3   OH217564   0.308   5.772   6.560
 5874TIP3    H117565   0.304   5.683   6.524
 5874TIP3    H217566   0.394   5.804   6.532
 5875TIP3   OH217567   5.437   6.226   4.700
 5875TIP3    H117568   5.524   6.198   4.727
 5875TIP3    H217569   5.425   6.311   4.741
 5876TIP3   OH217570   6.123   6.921   1.093
 5876TIP3    H117571   6.119   6.862   1.168
 5876TIP3    H217572   6.035   6.956   1.085
 5877TIP3   OH217573   7.501   7.050   6.543
 5877TIP3    H117574   7.427   7.105   6.517
 5877TIP3    H217575   7.572   7.076   6.484
 5878TIP3   OH217576   6.098   6.249   4.917
 5878TIP3    H117577   6.118   6.172   4.971
 5878TIP3    H217578   6.108   6.218   4.827
 5879TIP3   OH217579   1.819   4.572   3.028
 5879TIP3    H117580   1.879   4.509   2.989
 5879TIP3    H217581   1.781   4.527   3.103
 5880TIP3   OH217582   2.431   2.620   4.517
 5880TIP3    H117583   2.414   2.567   4.595
 5880TIP3    H217584   2.350   2.614   4.466
 5881TIP3   OH217585   2.251   6.387   0.116
 5881TIP3    H117586   2.289   6.475   0.120
 5881TIP3    H217587   2.307   6.340   0.053
 5882TIP3   OH217588   4.601   7.148   4.092
 5882TIP3    H117589   4.524   7.094   4.075
 5882TIP3    H217590   4.580   7.196   4.173
 5883TIP3   OH217591   3.484   6.537   4.964
 5883TIP3    H117592   3.410   6.579   4.920
 5883TIP3    H217593   3.518   6.605   5.022
 5884TIP3   OH217594   5.286   7.446   3.515
 5884TIP3    H117595   5.335   7.520   3.480
 5884TIP3    H217596   5.255   7.476   3.600
 5885TIP3   OH217597   3.205   1.847   2.164
 5885TIP3    H117598   3.295   1.814   2.162
 5885TIP3    H217599   3.213   1.940   2.146
 5886TIP3   OH217600   7.013   6.912   6.398
 5886TIP3    H117601   7.038   6.833   6.351
 5886TIP3    H217602   6.989   6.882   6.486
 5887TIP3   OH217603   2.077   6.078   3.930
 5887TIP3    H117604   2.079   6.036   3.844
 5887TIP3    H217605   2.006   6.035   3.977
 5888TIP3   OH217606   1.413   3.062   3.368
 5888TIP3    H117607   1.442   3.126   3.434
 5888TIP3    H217608   1.366   2.996   3.418
 5889TIP3   OH217609   2.252   1.492   3.095
 5889TIP3    H117610   2.342   1.512   3.120
 5889TIP3    H217611   2.238   1.402   3.126
 5890TIP3   OH217612   7.267   0.178   3.318
 5890TIP3    H117613   7.274   0.273   3.327
 5890TIP3    H217614   7.252   0.147   3.407
 5891TIP3   OH217615   6.027   0.588   0.071
 5891TIP3    H117616   5.935   0.605   0.049
 5891TIP3    H217617   6.035   0.617   0.162
 5892TIP3   OH217618   7.554   2.492   4.382
 5892TIP3    H117619   7.586   2.472   4.294
 5892TIP3    H217620   7.624   2.543   4.422
 5893TIP3   OH217621   1.603   6.912   3.856
 5893TIP3    H117622   1.581   6.969   3.782
 5893TIP3    H217623   1.626   6.972   3.927
 5894TIP3   OH217624   3.813   1.609   0.247
 5894TIP3    H117625   3.805   1.542   0.180
 5894TIP3    H217626   3.906   1.610   0.269
 5895TIP3   OH217627   1.563   3.404   1.559
 5895TIP3    H117628   1.483   3.360   1.528
 5895TIP3    H217629   1.564   3.388   1.653
 5896TIP3   OH217630   4.309   1.949   1.576
 5896TIP3    H117631   4.346   2.016   1.632
 5896TIP3    H217632   4.230   1.920   1.622
 5897TIP3   OH217633   1.764   2.223   4.076
 5897TIP3    H117634   1.724   2.259   4.155
 5897TIP3    H217635   1.845   2.182   4.106
 5898TIP3   OH217636   5.914   5.715   6.518
 5898TIP3    H117637   5.900   5.621   6.503
 5898TIP3    H217638   5.872   5.732   6.602
 5899TIP3   OH217639   1.281   4.679   6.570
 5899TIP3    H117640   1.341   4.666   6.643
 5899TIP3    H217641   1.224   4.751   6.598
 5900TIP3   OH217642   3.229   6.806   5.774
 5900TIP3    H117643   3.189   6.816   5.861
 5900TIP3    H217644   3.161   6.836   5.713
 5901TIP3   OH217645   6.953   2.683   0.149
 5901TIP3    H117646   6.964   2.776   0.170
 5901TIP3    H217647   6.989   2.673   0.061
 5902TIP3   OH217648   7.246   0.846   3.371
 5902TIP3    H117649   7.325   0.898   3.385
 5902TIP3    H217650   7.246   0.828   3.277
 5903TIP3   OH217651   4.053   0.259   5.123
 5903TIP3    H117652   4.140   0.270   5.160
 5903TIP3    H217653   4.044   0.331   5.060
 5904TIP3   OH217654   7.375   2.497   1.892
 5904TIP3    H117655   7.298   2.471   1.841
 5904TIP3    H217656   7.439   2.522   1.827
 5905TIP3   OH217657   4.203   2.014  -0.035
 5905TIP3    H117658   4.274   1.957  -0.007
 5905TIP3    H217659   4.125   1.975   0.005
 5906TIP3   OH217660   2.348   4.657   6.111
 5906TIP3    H117661   2.257   4.686   6.111
 5906TIP3    H217662   2.345   4.568   6.147
 5907TIP3   OH217663   5.060   2.275   2.119
 5907TIP3    H117664   5.117   2.336   2.165
 5907TIP3    H217665   5.114   2.198   2.104
 5908TIP3   OH217666   5.474   2.185   4.212
 5908TIP3    H117667   5.393   2.235   4.205
 5908TIP3    H217668   5.455   2.101   4.172
 5909TIP3   OH217669   4.906   6.194   6.175
 5909TIP3    H117670   4.888   6.282   6.209
 5909TIP3    H217671   4.855   6.136   6.231
 5910TIP3   OH217672   7.917   7.785   1.369
 5910TIP3    H117673   7.850   7.729   1.329
 5910TIP3    H217674   7.911   7.766   1.463
 5911TIP3   OH217675   1.469   5.432   5.425
 5911TIP3    H117676   1.392   5.377   5.415
 5911TIP3    H217677   1.517   5.394   5.499
 5912TIP3   OH217678   4.280   1.381   4.524
 5912TIP3    H117679   4.281   1.323   4.448
 5912TIP3    H217680   4.337   1.338   4.587
 5913TIP3   OH217681   5.343   2.941   2.669
 5913TIP3    H117682   5.269   2.995   2.694
 5913TIP3    H217683   5.305   2.857   2.646
 5914TIP3   OH217684   0.141   6.644   2.747
 5914TIP3    H117685   0.214   6.702   2.768
 5914TIP3    H217686   0.064   6.701   2.749
 5915TIP3   OH217687   4.372   6.951   1.473
 5915TIP3    H117688   4.426   7.031   1.476
 5915TIP3    H217689   4.435   6.881   1.490
 5916TIP3   OH217690   1.136   1.152   1.583
 5916TIP3    H117691   1.211   1.161   1.642
 5916TIP3    H217692   1.120   1.058   1.579
 5917TIP3   OH217693   5.063   5.934   3.982
 5917TIP3    H117694   5.128   5.897   4.042
 5917TIP3    H217695   5.107   5.938   3.897
 5918TIP3   OH217696   2.699   2.539   0.983
 5918TIP3    H117697   2.654   2.565   0.902
 5918TIP3    H217698   2.664   2.599   1.049
 5919TIP3   OH217699   2.249   6.783   0.752
 5919TIP3    H117700   2.326   6.742   0.712
 5919TIP3    H217701   2.174   6.740   0.712
 5920TIP3   OH217702   3.749   2.646   0.735
 5920TIP3    H117703   3.734   2.588   0.809
 5920TIP3    H217704   3.815   2.709   0.766
 5921TIP3   OH217705   0.213   6.014   4.475
 5921TIP3    H117706   0.199   6.038   4.567
 5921TIP3    H217707   0.300   6.048   4.454
 5922TIP3   OH217708   7.187   2.038   3.309
 5922TIP3    H117709   7.146   1.971   3.254
 5922TIP3    H217710   7.196   2.114   3.251
 5923TIP3   OH217711   5.038   6.886   0.733
 5923TIP3    H117712   5.091   6.899   0.655
 5923TIP3    H217713   5.039   6.970   0.777
 5924TIP3   OH217714   2.405   5.460   1.638
 5924TIP3    H117715   2.359   5.394   1.689
 5924TIP3    H217716   2.460   5.410   1.578
 5925TIP3   OH217717   4.384   2.521   1.223
 5925TIP3    H117718   4.310   2.470   1.188
 5925TIP3    H217719   4.417   2.469   1.296
 5926TIP3   OH217720   5.571   7.144   5.108
 5926TIP3    H117721   5.566   7.222   5.053
 5926TIP3    H217722   5.665   7.129   5.119
 5927TIP3   OH217723   6.913   3.254   1.969
 5927TIP3    H117724   6.823   3.268   1.943
 5927TIP3    H217725   6.921   3.300   2.052
 5928TIP3   OH217726   8.085   0.381   4.307
 5928TIP3    H117727   8.160   0.435   4.333
 5928TIP3    H217728   8.103   0.359   4.216
 5929TIP3   OH217729   1.381   0.349   6.337
 5929TIP3    H117730   1.336   0.429   6.365
 5929TIP3    H217731   1.440   0.329   6.410
 5930TIP3   OH217732   6.146   2.792   3.334
 5930TIP3    H117733   6.057   2.821   3.317
 5930TIP3    H217734   6.176   2.846   3.408
 5931TIP3   OH217735   5.352   5.573   6.730
 5931TIP3    H117736   5.347   5.653   6.678
 5931TIP3    H217737   5.285   5.516   6.693
 5932TIP3   OH217738   1.334   2.393   4.929
 5932TIP3    H117739   1.377   2.308   4.926
 5932TIP3    H217740   1.254   2.378   4.979
 5933TIP3   OH217741   3.334   3.455   4.641
 5933TIP3    H117742   3.255   3.509   4.648
 5933TIP3    H217743   3.313   3.375   4.690
 5934TIP3   OH217744   5.798   3.140   6.026
 5934TIP3    H117745   5.764   3.201   6.092
 5934TIP3    H217746   5.846   3.075   6.077
 5935TIP3   OH217747   1.206   0.554   5.176
 5935TIP3    H117748   1.180   0.517   5.091
 5935TIP3    H217749   1.157   0.637   5.181
 5936TIP3   OH217750   3.312   6.042   3.066
 5936TIP3    H117751   3.390   6.058   3.120
 5936TIP3    H217752   3.239   6.055   3.126
 5937TIP3   OH217753   0.477   0.464   1.456
 5937TIP3    H117754   0.514   0.530   1.515
 5937TIP3    H217755   0.536   0.389   1.463
 5938TIP3   OH217756   6.659   2.218   4.549
 5938TIP3    H117757   6.714   2.278   4.599
 5938TIP3    H217758   6.602   2.275   4.497
 5939TIP3   OH217759   3.384   0.454   3.383
 5939TIP3    H117760   3.360   0.457   3.291
 5939TIP3    H217761   3.456   0.516   3.392
 5940TIP3   OH217762   3.973   5.038   5.843
 5940TIP3    H117763   3.881   5.059   5.862
 5940TIP3    H217764   3.984   5.060   5.750
 5941TIP3   OH217765   7.899   7.536   2.124
 5941TIP3    H117766   7.899   7.494   2.038
 5941TIP3    H217767   7.885   7.629   2.105
 5942TIP3   OH217768   3.387   1.142   1.708
 5942TIP3    H117769   3.344   1.132   1.623
 5942TIP3    H217770   3.425   1.230   1.705
 5943TIP3   OH217771   4.233   2.739   5.120
 5943TIP3    H117772   4.200   2.822   5.084
 5943TIP3    H217773   4.191   2.733   5.206
 5944TIP3   OH217774   0.727   2.340   4.953
 5944TIP3    H117775   0.737   2.349   4.859
 5944TIP3    H217776   0.634   2.321   4.966
 5945TIP3   OH217777   0.073   2.455   2.827
 5945TIP3    H117778  -0.002   2.407   2.864
 5945TIP3    H217779   0.149   2.404   2.854
 5946TIP3   OH217780   1.902   2.601   0.276
 5946TIP3    H117781   1.992   2.582   0.251
 5946TIP3    H217782   1.909   2.676   0.335
 5947TIP3   OH217783   2.787   5.538   0.423
 5947TIP3    H117784   2.703   5.504   0.393
 5947TIP3    H217785   2.769   5.629   0.446
 5948TIP3   OH217786   3.987   4.131   0.978
 5948TIP3    H117787   4.008   4.042   1.007
 5948TIP3    H217788   4.071   4.176   0.978
 5949TIP3   OH217789   3.455   6.647   2.623
 5949TIP3    H117790   3.480   6.555   2.629
 5949TIP3    H217791   3.416   6.667   2.708
 5950TIP3   OH217792   7.532   5.493   3.126
 5950TIP3    H117793   7.624   5.490   3.153
 5950TIP3    H217794   7.497   5.406   3.147
 5951TIP3   OH217795   5.206   1.062   2.869
 5951TIP3    H117796   5.214   0.967   2.868
 5951TIP3    H217797   5.178   1.083   2.958
 5952TIP3   OH217798   4.092   5.505   3.308
 5952TIP3    H117799   4.150   5.451   3.360
 5952TIP3    H217800   4.083   5.458   3.225
 5953TIP3   OH217801   3.697   1.856   6.501
 5953TIP3    H117802   3.764   1.918   6.471
 5953TIP3    H217803   3.746   1.776   6.522
 5954TIP3   OH217804   4.040   6.574   1.776
 5954TIP3    H117805   3.996   6.640   1.829
 5954TIP3    H217806   4.009   6.591   1.687
 5955TIP3   OH217807   5.383   6.873   1.404
 5955TIP3    H117808   5.423   6.866   1.490
 5955TIP3    H217809   5.331   6.954   1.408
 5956TIP3   OH217810   4.233   5.566   1.720
 5956TIP3    H117811   4.158   5.625   1.721
 5956TIP3    H217812   4.223   5.515   1.640
 5957TIP3   OH217813   7.065   4.040   5.262
 5957TIP3    H117814   7.052   4.084   5.346
 5957TIP3    H217815   6.979   4.001   5.242
 5958TIP3   OH217816   0.127   2.940   3.781
 5958TIP3    H117817   0.169   2.855   3.792
 5958TIP3    H217818   0.068   2.928   3.707
 5959TIP3   OH217819   5.679   6.786   0.612
 5959TIP3    H117820   5.658   6.863   0.560
 5959TIP3    H217821   5.722   6.820   0.690
 5960TIP3   OH217822   2.627   6.939   2.899
 5960TIP3    H117823   2.702   6.966   2.952
 5960TIP3    H217824   2.551   6.969   2.949
 5961TIP3   OH217825   5.297   1.315   3.734
 5961TIP3    H117826   5.219   1.368   3.753
 5961TIP3    H217827   5.273   1.265   3.656
 5962TIP3   OH217828   3.725   4.679   1.022
 5962TIP3    H117829   3.788   4.623   1.068
 5962TIP3    H217830   3.780   4.743   0.976
 5963TIP3   OH217831   1.012   1.360   1.855
 5963TIP3    H117832   0.966   1.436   1.891
 5963TIP3    H217833   1.078   1.339   1.921
 5964TIP3   OH217834   2.525   1.662   5.092
 5964TIP3    H117835   2.607   1.671   5.044
 5964TIP3    H217836   2.459   1.701   5.035
 5965TIP3   OH217837   0.625   7.544   1.908
 5965TIP3    H117838   0.559   7.503   1.852
 5965TIP3    H217839   0.578   7.611   1.957
 5966TIP3   OH217840   3.155   6.092   1.364
 5966TIP3    H117841   3.190   6.167   1.316
 5966TIP3    H217842   3.116   6.037   1.296
 5967TIP3   OH217843   4.140   5.793   3.300
 5967TIP3    H117844   4.102   5.706   3.288
 5967TIP3    H217845   4.234   5.778   3.304
 5968TIP3   OH217846   5.587   6.226   1.549
 5968TIP3    H117847   5.511   6.252   1.602
 5968TIP3    H217848   5.569   6.262   1.463
 5969TIP3   OH217849   3.738   5.357   5.408
 5969TIP3    H117850   3.787   5.425   5.363
 5969TIP3    H217851   3.798   5.282   5.412
 5970TIP3   OH217852   1.028   4.958   2.964
 5970TIP3    H117853   1.119   4.954   2.991
 5970TIP3    H217854   0.985   5.014   3.029
 5971TIP3   OH217855   7.182   5.664   1.701
 5971TIP3    H117856   7.091   5.670   1.671
 5971TIP3    H217857   7.185   5.584   1.753
 5972TIP3   OH217858   2.063   1.818   4.392
 5972TIP3    H117859   1.970   1.803   4.373
 5972TIP3    H217860   2.063   1.890   4.456
 5973TIP3   OH217861   0.486   3.652   0.419
 5973TIP3    H117862   0.502   3.700   0.500
 5973TIP3    H217863   0.484   3.719   0.351
 5974TIP3   OH217864   3.984   2.893   2.129
 5974TIP3    H117865   3.948   2.814   2.090
 5974TIP3    H217866   3.966   2.962   2.065
 5975TIP3   OH217867   5.196   6.684   4.614
 5975TIP3    H117868   5.271   6.734   4.647
 5975TIP3    H217869   5.140   6.750   4.573
 5976TIP3   OH217870   0.982   5.936   3.264
 5976TIP3    H117871   1.047   5.883   3.309
 5976TIP3    H217872   0.913   5.951   3.328
 5977TIP3   OH217873   7.684   5.391   5.850
 5977TIP3    H117874   7.661   5.324   5.914
 5977TIP3    H217875   7.764   5.359   5.808
 5978TIP3   OH217876   6.713   4.368   0.428
 5978TIP3    H117877   6.636   4.411   0.464
 5978TIP3    H217878   6.775   4.365   0.502
 5979TIP3   OH217879   0.033   5.547   1.243
 5979TIP3    H117880   0.122   5.554   1.277
 5979TIP3    H217881  -0.001   5.636   1.243
 5980TIP3   OH217882   3.332   3.537   2.267
 5980TIP3    H117883   3.391   3.550   2.193
 5980TIP3    H217884   3.310   3.626   2.295
 5981TIP3   OH217885   3.234   1.936   4.926
 5981TIP3    H117886   3.262   1.928   5.017
 5981TIP3    H217887   3.214   2.029   4.915
 5982TIP3   OH217888   1.523   0.948   4.869
 5982TIP3    H117889   1.579   0.874   4.847
 5982TIP3    H217890   1.488   0.978   4.785
 5983TIP3   OH217891   2.360   2.783   4.154
 5983TIP3    H117892   2.403   2.820   4.077
 5983TIP3    H217893   2.286   2.734   4.120
 5984TIP3   OH217894   4.770   7.285   6.805
 5984TIP3    H117895   4.743   7.319   6.891
 5984TIP3    H217896   4.726   7.342   6.742
 5985TIP3   OH217897   0.474   4.424   6.500
 5985TIP3    H117898   0.458   4.451   6.409
 5985TIP3    H217899   0.565   4.447   6.516
 5986TIP3   OH217900   5.174   0.698   5.457
 5986TIP3    H117901   5.158   0.614   5.499
 5986TIP3    H217902   5.200   0.676   5.368
 5987TIP3   OH217903   4.474   7.005   6.141
 5987TIP3    H117904   4.562   6.968   6.134
 5987TIP3    H217905   4.484   7.096   6.112
 5988TIP3   OH217906   5.014   3.321   2.201
 5988TIP3    H117907   5.059   3.357   2.278
 5988TIP3    H217908   4.924   3.307   2.231
 5989TIP3   OH217909   0.665   0.143   2.661
 5989TIP3    H117910   0.748   0.168   2.701
 5989TIP3    H217911   0.606   0.128   2.734
 5990TIP3   OH217912   7.449   0.575   2.375
 5990TIP3    H117913   7.429   0.491   2.416
 5990TIP3    H217914   7.545   0.578   2.373
 5991TIP3   OH217915   6.469   5.715   0.068
 5991TIP3    H117916   6.485   5.697   0.161
 5991TIP3    H217917   6.520   5.649   0.021
 5992TIP3   OH217918   4.191   3.917   1.315
 5992TIP3    H117919   4.248   3.975   1.265
 5992TIP3    H217920   4.115   3.903   1.259
 5993TIP3   OH217921   7.225   2.083   0.981
 5993TIP3    H117922   7.236   2.174   0.953
 5993TIP3    H217923   7.221   2.088   1.077
 5994TIP3   OH217924   0.835   6.178   4.675
 5994TIP3    H117925   0.812   6.215   4.589
 5994TIP3    H217926   0.916   6.129   4.660
 5995TIP3   OH217927   2.765   2.317   4.374
 5995TIP3    H117928   2.740   2.262   4.448
 5995TIP3    H217929   2.688   2.371   4.358
 5996TIP3   OH217930   0.708   7.368   5.816
 5996TIP3    H117931   0.648   7.435   5.782
 5996TIP3    H217932   0.763   7.415   5.879
 5997TIP3   OH217933   2.040   2.786   3.089
 5997TIP3    H117934   2.061   2.822   3.004
 5997TIP3    H217935   2.074   2.696   3.087
 5998TIP3   OH217936   7.919   2.068   3.115
 5998TIP3    H117937   7.911   1.996   3.052
 5998TIP3    H217938   7.917   2.147   3.062
 5999TIP3   OH217939   6.264   5.026   5.639
 5999TIP3    H117940   6.279   5.107   5.687
 5999TIP3    H217941   6.352   4.993   5.619
 6000TIP3   OH217942   6.961   4.811   3.210
 6000TIP3    H117943   6.943   4.730   3.163
 6000TIP3    H217944   7.043   4.794   3.257
 6001TIP3   OH217945   3.477   1.383   5.365
 6001TIP3    H117946   3.420   1.330   5.420
 6001TIP3    H217947   3.558   1.333   5.359
 6002TIP3   OH217948   0.535   7.123   6.527
 6002TIP3    H117949   0.565   7.096   6.440
 6002TIP3    H217950   0.602   7.182   6.559
 6003TIP3   OH217951   3.102   4.518   0.798
 6003TIP3    H117952   3.181   4.474   0.828
 6003TIP3    H217953   3.123   4.611   0.804
 6004TIP3   OH217954   7.147   3.645   3.000
 6004TIP3    H117955   7.094   3.588   2.943
 6004TIP3    H217956   7.236   3.639   2.964
 6005TIP3   OH217957   0.932   4.844   3.321
 6005TIP3    H117958   0.983   4.795   3.256
 6005TIP3    H217959   0.916   4.781   3.392
 6006TIP3   OH217960   0.577   2.933   1.635
 6006TIP3    H117961   0.630   2.975   1.567
 6006TIP3    H217962   0.536   2.858   1.591
 6007TIP3   OH217963   3.791   2.475   5.892
 6007TIP3    H117964   3.857   2.449   5.828
 6007TIP3    H217965   3.729   2.401   5.893
 6008TIP3   OH217966   5.799   2.934   3.869
 6008TIP3    H117967   5.867   2.882   3.827
 6008TIP3    H217968   5.763   2.877   3.938
 6009TIP3   OH217969   5.962   0.119   3.170
 6009TIP3    H117970   5.940   0.036   3.213
 6009TIP3    H217971   5.906   0.123   3.093
 6010TIP3   OH217972   4.722   3.321   2.757
 6010TIP3    H117973   4.702   3.312   2.664
 6010TIP3    H217974   4.637   3.320   2.801
 6011TIP3   OH217975   2.236   3.979   2.002
 6011TIP3    H117976   2.328   3.999   1.984
 6011TIP3    H217977   2.222   4.011   2.092
 6012TIP3   OH217978   6.914   7.644   5.780
 6012TIP3    H117979   6.966   7.718   5.812
 6012TIP3    H217980   6.892   7.668   5.690
 6013TIP3   OH217981   2.149   6.430   0.724
 6013TIP3    H117982   2.076   6.465   0.775
 6013TIP3    H217983   2.187   6.362   0.780
 6014TIP3   OH217984   2.641   0.812   5.566
 6014TIP3    H117985   2.726   0.853   5.582
 6014TIP3    H217986   2.654   0.720   5.588
 6015TIP3   OH217987   6.403   1.748   3.074
 6015TIP3    H117988   6.497   1.734   3.086
 6015TIP3    H217989   6.397   1.813   3.004
 6016TIP3   OH217990   4.587   0.182   3.705
 6016TIP3    H117991   4.680   0.178   3.724
 6016TIP3    H217992   4.582   0.172   3.609
 6017TIP3   OH217993   3.696   7.591   1.031
 6017TIP3    H117994   3.733   7.668   0.987
 6017TIP3    H217995   3.610   7.579   0.989
 6018TIP3   OH217996   0.385   3.830   4.746
 6018TIP3    H117997   0.295   3.800   4.733
 6018TIP3    H217998   0.397   3.830   4.841
 6019TIP3   OH217999   4.912   1.413   4.186
 6019TIP3    H118000   4.943   1.325   4.206
 6019TIP3    H218001   4.818   1.402   4.169
 6020TIP3   OH218002   0.582   5.246   2.318
 6020TIP3    H118003   0.657   5.187   2.324
 6020TIP3    H218004   0.519   5.212   2.381
 6021TIP3   OH218005   4.456   4.362   4.774
 6021TIP3    H118006   4.388   4.304   4.808
 6021TIP3    H218007   4.468   4.427   4.843
 6022TIP3   OH218008   6.024   5.762   4.788
 6022TIP3    H118009   5.963   5.803   4.850
 6022TIP3    H218010   6.008   5.668   4.798
 6023TIP3   OH218011   6.680   5.534   2.538
 6023TIP3    H118012   6.706   5.452   2.496
 6023TIP3    H218013   6.744   5.545   2.609
 6024TIP3   OH218014   7.915   3.448   5.085
 6024TIP3    H118015   8.005   3.457   5.053
 6024TIP3    H218016   7.867   3.415   5.009
 6025TIP3   OH218017   1.541   4.889   2.853
 6025TIP3    H118018   1.568   4.974   2.819
 6025TIP3    H218019   1.459   4.870   2.807
 6026TIP3   OH218020   5.272   5.695   5.519
 6026TIP3    H118021   5.351   5.723   5.565
 6026TIP3    H218022   5.201   5.738   5.566
 6027TIP3   OH218023   2.820   7.225   4.017
 6027TIP3    H118024   2.895   7.259   4.065
 6027TIP3    H218025   2.801   7.292   3.950
 6028TIP3   OH218026   6.184   6.572   0.042
 6028TIP3    H118027   6.104   6.534   0.007
 6028TIP3    H218028   6.255   6.525  -0.003
 6029TIP3   OH218029   5.148   3.386   2.424
 6029TIP3    H118030   5.228   3.374   2.474
 6029TIP3    H218031   5.120   3.475   2.444
 6030TIP3   OH218032   3.839   4.832   6.694
 6030TIP3    H118033   3.882   4.884   6.762
 6030TIP3    H218034   3.783   4.895   6.648
 6031TIP3   OH218035   5.355   6.880   6.036
 6031TIP3    H118036   5.438   6.918   6.065
 6031TIP3    H218037   5.379   6.824   5.962
 6032TIP3   OH218038   6.481   0.786   0.552
 6032TIP3    H118039   6.574   0.797   0.531
 6032TIP3    H218040   6.443   0.873   0.539
 6033TIP3   OH218041   0.920   5.322   3.235
 6033TIP3    H118042   0.901   5.232   3.208
 6033TIP3    H218043   0.885   5.377   3.165
 6034TIP3   OH218044   2.825   5.172   0.705
 6034TIP3    H118045   2.812   5.237   0.635
 6034TIP3    H218046   2.743   5.122   0.707
 6035TIP3   OH218047   3.275   7.404   2.565
 6035TIP3    H118048   3.361   7.390   2.605
 6035TIP3    H218049   3.233   7.471   2.619
 6036TIP3   OH218050   5.368   1.639   0.699
 6036TIP3    H118051   5.424   1.631   0.621
 6036TIP3    H218052   5.341   1.731   0.699
 6037TIP3   OH218053   3.569   7.776   5.378
 6037TIP3    H118054   3.492   7.722   5.393
 6037TIP3    H218055   3.643   7.715   5.388
 6038TIP3   OH218056   5.276   7.031   5.625
 6038TIP3    H118057   5.349   7.059   5.570
 6038TIP3    H218058   5.205   7.092   5.604
 6039TIP3   OH218059   6.817   3.164   6.490
 6039TIP3    H118060   6.812   3.084   6.543
 6039TIP3    H218061   6.784   3.138   6.404
 6040TIP3   OH218062   7.260   1.014   4.051
 6040TIP3    H118063   7.314   0.961   3.993
 6040TIP3    H218064   7.214   1.075   3.992
 6041TIP3   OH218065   0.876   4.411   5.009
 6041TIP3    H118066   0.896   4.367   5.091
 6041TIP3    H218067   0.786   4.441   5.019
 6042TIP3   OH218068   4.832   5.169   6.768
 6042TIP3    H118069   4.760   5.226   6.793
 6042TIP3    H218070   4.793   5.107   6.707
 6043TIP3   OH218071   1.188   6.701   6.312
 6043TIP3    H118072   1.201   6.633   6.246
 6043TIP3    H218073   1.223   6.781   6.272
 6044TIP3   OH218074   6.004   4.838   6.685
 6044TIP3    H118075   5.911   4.860   6.692
 6044TIP3    H218076   6.033   4.829   6.775
 6045TIP3   OH218077   6.729   3.787   3.282
 6045TIP3    H118078   6.813   3.832   3.273
 6045TIP3    H218079   6.674   3.849   3.330
 6046TIP3   OH218080   6.520   1.761   3.566
 6046TIP3    H118081   6.598   1.735   3.614
 6046TIP3    H218082   6.457   1.690   3.581
 6047TIP3   OH218083   0.098   4.651   6.368
 6047TIP3    H118084   0.131   4.562   6.361
 6047TIP3    H218085   0.110   4.689   6.281
 6048TIP3   OH218086   7.617   3.629   4.606
 6048TIP3    H118087   7.674   3.645   4.681
 6048TIP3    H218088   7.663   3.666   4.531
 6049TIP3   OH218089   5.991   6.412   5.670
 6049TIP3    H118090   6.067   6.432   5.615
 6049TIP3    H218091   5.931   6.364   5.612
 6050TIP3   OH218092   7.908   3.054   6.055
 6050TIP3    H118093   7.982   2.995   6.038
 6050TIP3    H218094   7.833   3.010   6.016
 6051TIP3   OH218095   1.067   5.273   2.900
 6051TIP3    H118096   1.030   5.198   2.853
 6051TIP3    H218097   1.102   5.237   2.981
 6052TIP3   OH218098   5.852   1.068   0.258
 6052TIP3    H118099   5.919   1.106   0.200
 6052TIP3    H218100   5.769   1.100   0.223
 6053TIP3   OH218101   8.088   1.231   3.897
 6053TIP3    H118102   8.039   1.150   3.891
 6053TIP3    H218103   8.120   1.234   3.987
 6054TIP3   OH218104   1.358   7.120   0.769
 6054TIP3    H118105   1.312   7.036   0.770
 6054TIP3    H218106   1.436   7.104   0.716
 6055TIP3   OH218107   3.936   7.728   0.038
 6055TIP3    H118108   3.947   7.756  -0.053
 6055TIP3    H218109   4.017   7.681   0.058
 6056TIP3   OH218110   1.081   4.417   1.556
 6056TIP3    H118111   1.148   4.398   1.622
 6056TIP3    H218112   0.998   4.405   1.602
 6057TIP3   OH218113   8.065   1.098   5.213
 6057TIP3    H118114   8.114   1.019   5.231
 6057TIP3    H218115   8.086   1.157   5.286
 6058TIP3   OH218116   2.971   5.784   2.338
 6058TIP3    H118117   2.964   5.869   2.295
 6058TIP3    H218118   2.880   5.759   2.355
 6059TIP3   OH218119   0.230   7.767   1.934
 6059TIP3    H118120   0.198   7.838   1.879
 6059TIP3    H218121   0.326   7.770   1.925
 6060TIP3   OH218122   5.651   6.401   4.607
 6060TIP3    H118123   5.657   6.313   4.643
 6060TIP3    H218124   5.655   6.389   4.512
 6061TIP3   OH218125   1.485   3.496   6.718
 6061TIP3    H118126   1.470   3.403   6.735
 6061TIP3    H218127   1.572   3.513   6.754
 6062TIP3   OH218128   3.478   7.896   0.758
 6062TIP3    H118129   3.472   7.822   0.698
 6062TIP3    H218130   3.407   7.955   0.730
 6063TIP3   OH218131   6.842   1.015   0.750
 6063TIP3    H118132   6.905   1.019   0.822
 6063TIP3    H218133   6.774   1.079   0.774
 6064TIP3   OH218134   6.838   6.050   1.757
 6064TIP3    H118135   6.788   5.969   1.761
 6064TIP3    H218136   6.787   6.106   1.698
 6065TIP3   OH218137   1.412   3.203   2.026
 6065TIP3    H118138   1.420   3.240   2.114
 6065TIP3    H218139   1.325   3.162   2.026
 6066TIP3   OH218140   7.449   0.417   1.021
 6066TIP3    H118141   7.468   0.506   0.992
 6066TIP3    H218142   7.524   0.366   0.991
 6067TIP3   OH218143   6.991   1.576   4.913
 6067TIP3    H118144   7.020   1.615   4.995
 6067TIP3    H218145   6.900   1.551   4.929
 6068TIP3   OH218146   8.213   5.356   3.312
 6068TIP3    H118147   8.193   5.337   3.403
 6068TIP3    H218148   8.147   5.419   3.285
 6069TIP3   OH218149   8.272   0.691   4.134
 6069TIP3    H118150   8.334   0.621   4.117
 6069TIP3    H218151   8.309   0.768   4.091
 6070TIP3   OH218152   2.237   0.775   3.771
 6070TIP3    H118153   2.251   0.683   3.793
 6070TIP3    H218154   2.196   0.812   3.849
 6071TIP3   OH218155   7.756   0.104   0.650
 6071TIP3    H118156   7.679   0.065   0.608
 6071TIP3    H218157   7.765   0.055   0.732
 6072TIP3   OH218158   4.607   5.233   2.345
 6072TIP3    H118159   4.588   5.321   2.378
 6072TIP3    H218160   4.596   5.240   2.250
 6073TIP3   OH218161   7.116   3.582   1.280
 6073TIP3    H118162   7.143   3.503   1.235
 6073TIP3    H218163   7.020   3.577   1.281
 6074TIP3   OH218164   1.924   1.136   4.592
 6074TIP3    H118165   1.876   1.211   4.628
 6074TIP3    H218166   2.010   1.171   4.569
 6075TIP3   OH218167   7.225   1.824   4.337
 6075TIP3    H118168   7.311   1.864   4.322
 6075TIP3    H218169   7.215   1.760   4.267
 6076TIP3   OH218170   6.512   0.246   3.675
 6076TIP3    H118171   6.602   0.218   3.660
 6076TIP3    H218172   6.516   0.299   3.754
 6077TIP3   OH218173   5.767   1.853   1.991
 6077TIP3    H118174   5.780   1.808   2.074
 6077TIP3    H218175   5.801   1.941   2.006
 6078TIP3   OH218176   1.657   6.750   6.332
 6078TIP3    H118177   1.707   6.715   6.258
 6078TIP3    H218178   1.722   6.792   6.388
 6079TIP3   OH218179   6.616   1.757   4.642
 6079TIP3    H118180   6.554   1.686   4.659
 6079TIP3    H218181   6.640   1.789   4.729
 6080TIP3   OH218182   0.216   6.595   1.954
 6080TIP3    H118183   0.195   6.501   1.948
 6080TIP3    H218184   0.266   6.613   1.874
 6081TIP3   OH218185   4.139   3.906   3.784
 6081TIP3    H118186   4.214   3.918   3.725
 6081TIP3    H218187   4.074   3.861   3.731
 6082TIP3   OH218188   4.346   1.973   2.440
 6082TIP3    H118189   4.391   2.036   2.497
 6082TIP3    H218190   4.370   1.888   2.475
 6083TIP3   OH218191   1.196   0.919   3.135
 6083TIP3    H118192   1.282   0.879   3.132
 6083TIP3    H218193   1.210   1.009   3.103
 6084TIP3   OH218194   3.326   7.162   0.471
 6084TIP3    H118195   3.404   7.107   0.475
 6084TIP3    H218196   3.272   7.134   0.544
 6085TIP3   OH218197   4.118   0.489   0.220
 6085TIP3    H118198   4.167   0.473   0.140
 6085TIP3    H218199   4.108   0.402   0.259
 6086TIP3   OH218200   0.465   1.041   4.153
 6086TIP3    H118201   0.440   1.131   4.174
 6086TIP3    H218202   0.415   0.988   4.215
 6087TIP3   OH218203   5.706   6.111   2.260
 6087TIP3    H118204   5.778   6.159   2.301
 6087TIP3    H218205   5.628   6.137   2.310
 6088TIP3   OH218206   6.409   3.278   4.788
 6088TIP3    H118207   6.345   3.297   4.857
 6088TIP3    H218208   6.378   3.196   4.749
 6089TIP3   OH218209   6.647   4.626   0.248
 6089TIP3    H118210   6.572   4.649   0.193
 6089TIP3    H218211   6.632   4.535   0.274
 6090TIP3   OH218212   5.938   6.932   2.451
 6090TIP3    H118213   5.882   6.909   2.525
 6090TIP3    H218214   5.890   7.000   2.404
 6091TIP3   OH218215   1.483   3.067   0.196
 6091TIP3    H118216   1.542   3.100   0.264
 6091TIP3    H218217   1.434   2.997   0.239
 6092TIP3   OH218218   2.559   5.259   2.159
 6092TIP3    H118219   2.543   5.292   2.071
 6092TIP3    H218220   2.473   5.258   2.200
 6093TIP3   OH218221   5.401   0.712   4.968
 6093TIP3    H118222   5.408   0.788   4.910
 6093TIP3    H218223   5.486   0.669   4.962
 6094TIP3   OH218224   4.906   5.099   2.137
 6094TIP3    H118225   4.845   5.034   2.101
 6094TIP3    H218226   4.983   5.048   2.162
 6095TIP3   OH218227   1.172   2.086   2.332
 6095TIP3    H118228   1.266   2.101   2.329
 6095TIP3    H218229   1.145   2.085   2.240
 6096TIP3   OH218230   0.451   6.367   3.886
 6096TIP3    H118231   0.440   6.435   3.819
 6096TIP3    H218232   0.539   6.333   3.872
 6097TIP3   OH218233   2.739   0.961   6.303
 6097TIP3    H118234   2.755   0.969   6.397
 6097TIP3    H218235   2.662   0.904   6.297
 6098TIP3   OH218236   0.344   6.900   0.975
 6098TIP3    H118237   0.254   6.921   0.999
 6098TIP3    H218238   0.337   6.820   0.923
 6099TIP3   OH218239   7.826   7.318   6.732
 6099TIP3    H118240   7.893   7.249   6.725
 6099TIP3    H218241   7.759   7.281   6.788
 6100TIP3   OH218242   2.434   0.728   4.082
 6100TIP3    H118243   2.488   0.800   4.115
 6100TIP3    H218244   2.449   0.729   3.987
 6101TIP3   OH218245   4.164   6.106   0.828
 6101TIP3    H118246   4.236   6.111   0.892
 6101TIP3    H218247   4.098   6.051   0.871
 6102TIP3   OH218248   0.840   5.080   3.149
 6102TIP3    H118249   0.873   5.000   3.190
 6102TIP3    H218250   0.748   5.061   3.131
 6103TIP3   OH218251   2.135   7.101   5.143
 6103TIP3    H118252   2.168   7.031   5.087
 6103TIP3    H218253   2.061   7.137   5.095
 6104TIP3   OH218254   6.953   6.694   2.723
 6104TIP3    H118255   6.913   6.665   2.805
 6104TIP3    H218256   6.917   6.782   2.709
 6105TIP3   OH218257   5.835   1.289   1.397
 6105TIP3    H118258   5.889   1.217   1.428
 6105TIP3    H218259   5.795   1.256   1.317
 6106TIP3   OH218260   7.809   5.899   4.380
 6106TIP3    H118261   7.821   5.993   4.395
 6106TIP3    H218262   7.773   5.866   4.462
 6107TIP3   OH218263   0.533   7.464   3.995
 6107TIP3    H118264   0.612   7.467   3.939
 6107TIP3    H218265   0.501   7.554   3.996
 6108TIP3   OH218266   6.416   6.022   6.200
 6108TIP3    H118267   6.362   5.945   6.218
 6108TIP3    H218268   6.429   6.062   6.286
 6109TIP3   OH218269   0.326   7.337   4.635
 6109TIP3    H118270   0.364   7.257   4.599
 6109TIP3    H218271   0.242   7.308   4.673
 6110TIP3   OH218272   3.760   7.567   6.453
 6110TIP3    H118273   3.672   7.566   6.414
 6110TIP3    H218274   3.766   7.653   6.495
 6111TIP3   OH218275   5.219   6.489   1.912
 6111TIP3    H118276   5.171   6.413   1.879
 6111TIP3    H218277   5.164   6.523   1.983
 6112TIP3   OH218278   4.655   0.101   4.679
 6112TIP3    H118279   4.622   0.069   4.763
 6112TIP3    H218280   4.707   0.178   4.702
 6113TIP3   OH218281   2.414   7.007   3.070
 6113TIP3    H118282   2.375   7.090   3.046
 6113TIP3    H218283   2.468   7.027   3.147
 6114TIP3   OH218284   3.117   0.390   1.171
 6114TIP3    H118285   3.063   0.312   1.186
 6114TIP3    H218286   3.199   0.356   1.135
 6115TIP3   OH218287   5.603   0.847   1.703
 6115TIP3    H118288   5.673   0.858   1.639
 6115TIP3    H218289   5.620   0.915   1.769
 6116TIP3   OH218290   0.846   5.898   6.755
 6116TIP3    H118291   0.854   5.976   6.701
 6116TIP3    H218292   0.818   5.931   6.841
 6117TIP3   OH218293   7.328   6.523   4.787
 6117TIP3    H118294   7.243   6.489   4.759
 6117TIP3    H218295   7.377   6.535   4.706
 6118TIP3   OH218296   5.942   7.229   3.439
 6118TIP3    H118297   5.871   7.277   3.481
 6118TIP3    H218298   5.914   7.218   3.348
 6119TIP3   OH218299   7.544   1.090   6.301
 6119TIP3    H118300   7.468   1.033   6.285
 6119TIP3    H218301   7.611   1.057   6.240
 6120TIP3   OH218302   3.357   3.235   1.981
 6120TIP3    H118303   3.328   3.226   2.072
 6120TIP3    H218304   3.277   3.223   1.929
 6121TIP3   OH218305   7.338   1.506   0.760
 6121TIP3    H118306   7.294   1.572   0.813
 6121TIP3    H218307   7.365   1.439   0.822
 6122TIP3   OH218308   5.275   5.041   6.201
 6122TIP3    H118309   5.281   5.120   6.254
 6122TIP3    H218310   5.196   5.054   6.148
 6123TIP3   OH218311   2.187   5.430   4.876
 6123TIP3    H118312   2.169   5.470   4.961
 6123TIP3    H218313   2.116   5.368   4.862
 6124TIP3   OH218314   3.946   5.961   2.379
 6124TIP3    H118315   3.932   6.051   2.349
 6124TIP3    H218316   3.858   5.929   2.400
 6125TIP3   OH218317   6.399   3.153   1.870
 6125TIP3    H118318   6.431   3.205   1.796
 6125TIP3    H218319   6.340   3.212   1.917
 6126TIP3   OH218320   1.324   2.292   4.559
 6126TIP3    H118321   1.300   2.357   4.494
 6126TIP3    H218322   1.388   2.235   4.515
 6127TIP3   OH218323   6.429   6.462   3.151
 6127TIP3    H118324   6.464   6.484   3.065
 6127TIP3    H218325   6.427   6.366   3.152
 6128TIP3   OH218326   3.833   3.584   4.097
 6128TIP3    H118327   3.759   3.524   4.103
 6128TIP3    H218328   3.908   3.528   4.081
 6129TIP3   OH218329   2.134   1.707   2.932
 6129TIP3    H118330   2.208   1.733   2.877
 6129TIP3    H218331   2.162   1.625   2.972
 6130TIP3   OH218332   3.207   2.528   1.926
 6130TIP3    H118333   3.136   2.581   1.962
 6130TIP3    H218334   3.189   2.439   1.956
 6131TIP3   OH218335   5.177   2.939   3.823
 6131TIP3    H118336   5.127   2.864   3.791
 6131TIP3    H218337   5.184   2.998   3.748
 6132TIP3   OH218338   6.036   4.839   4.079
 6132TIP3    H118339   5.999   4.866   3.995
 6132TIP3    H218340   5.969   4.859   4.144
 6133TIP3   OH218341   5.523   4.323   0.455
 6133TIP3    H118342   5.536   4.240   0.500
 6133TIP3    H218343   5.584   4.320   0.381
 6134TIP3   OH218344   4.303   7.015   5.571
 6134TIP3    H118345   4.218   7.021   5.529
 6134TIP3    H218346   4.329   6.923   5.561
 6135TIP3   OH218347   1.819   7.225   1.361
 6135TIP3    H118348   1.742   7.207   1.307
 6135TIP3    H218349   1.783   7.244   1.448
 6136TIP3   OH218350   1.710   2.856   3.264
 6136TIP3    H118351   1.762   2.926   3.225
 6136TIP3    H218352   1.661   2.899   3.334
 6137TIP3   OH218353   3.275   4.062   2.988
 6137TIP3    H118354   3.209   4.129   2.969
 6137TIP3    H218355   3.343   4.108   3.036
 6138TIP3   OH218356   5.407   5.319   1.408
 6138TIP3    H118357   5.320   5.341   1.373
 6138TIP3    H218358   5.440   5.252   1.348
 6139TIP3   OH218359   5.872   3.177   5.756
 6139TIP3    H118360   5.861   3.188   5.850
 6139TIP3    H218361   5.910   3.090   5.745
 6140TIP3   OH218362   0.167   1.111   6.132
 6140TIP3    H118363   0.165   1.021   6.164
 6140TIP3    H218364   0.110   1.110   6.055
 6141TIP3   OH218365   1.482   7.330   5.867
 6141TIP3    H118366   1.524   7.282   5.796
 6141TIP3    H218367   1.490   7.422   5.843
 6142TIP3   OH218368   6.072   4.396   3.979
 6142TIP3    H118369   6.027   4.366   3.899
 6142TIP3    H218370   6.060   4.324   4.041
 6143TIP3   OH218371   0.381   7.409   4.333
 6143TIP3    H118372   0.366   7.324   4.375
 6143TIP3    H218373   0.305   7.462   4.358
 6144TIP3   OH218374   4.564   1.421   2.215
 6144TIP3    H118375   4.573   1.358   2.144
 6144TIP3    H218376   4.496   1.482   2.185
 6145TIP3   OH218377   4.091   2.694   0.071
 6145TIP3    H118378   4.177   2.656   0.052
 6145TIP3    H218379   4.029   2.626   0.042
 6146TIP3   OH218380   1.588   4.731   4.274
 6146TIP3    H118381   1.639   4.773   4.205
 6146TIP3    H218382   1.649   4.672   4.318
 6147TIP3   OH218383   6.082   1.868   5.503
 6147TIP3    H118384   6.142   1.819   5.560
 6147TIP3    H218385   6.104   1.960   5.518
 6148TIP3   OH218386   3.899   2.433   4.589
 6148TIP3    H118387   3.970   2.444   4.652
 6148TIP3    H218388   3.819   2.431   4.642
 6149TIP3   OH218389   2.429   4.712   6.569
 6149TIP3    H118390   2.390   4.650   6.507
 6149TIP3    H218391   2.514   4.734   6.531
 6150TIP3   OH218392   6.586   6.784   0.684
 6150TIP3    H118393   6.589   6.871   0.643
 6150TIP3    H218394   6.515   6.738   0.640
 6151TIP3   OH218395   0.781   5.949   3.455
 6151TIP3    H118396   0.835   6.004   3.512
 6151TIP3    H218397   0.700   5.998   3.444
 6152TIP3   OH218398   8.294   3.134   5.587
 6152TIP3    H118399   8.217   3.094   5.627
 6152TIP3    H218400   8.269   3.226   5.574
 6153TIP3   OH218401   3.833   4.901   0.443
 6153TIP3    H118402   3.752   4.860   0.471
 6153TIP3    H218403   3.882   4.831   0.400
 6154TIP3   OH218404   5.991   3.574   1.623
 6154TIP3    H118405   5.947   3.609   1.546
 6154TIP3    H218406   6.080   3.556   1.593
 6155TIP3   OH218407   4.172   4.682   3.908
 6155TIP3    H118408   4.087   4.661   3.947
 6155TIP3    H218409   4.231   4.614   3.941
 6156TIP3   OH218410   2.230   0.773   4.240
 6156TIP3    H118411   2.165   0.797   4.173
 6156TIP3    H218412   2.309   0.752   4.190
 6157TIP3   OH218413   7.135   4.338   4.220
 6157TIP3    H118414   7.062   4.394   4.194
 6157TIP3    H218415   7.154   4.285   4.142
 6158TIP3   OH218416   6.019   2.502   3.137
 6158TIP3    H118417   5.924   2.511   3.145
 6158TIP3    H218418   6.040   2.541   3.052
 6159TIP3   OH218419   1.983   6.732   5.585
 6159TIP3    H118420   2.022   6.718   5.671
 6159TIP3    H218421   2.055   6.761   5.529
 6160TIP3   OH218422   7.416   6.313   5.281
 6160TIP3    H118423   7.428   6.284   5.371
 6160TIP3    H218424   7.339   6.369   5.284
 6161TIP3   OH218425   6.758   6.215   2.153
 6161TIP3    H118426   6.779   6.288   2.095
 6161TIP3    H218427   6.719   6.150   2.094
 6162TIP3   OH218428   8.236   2.319   0.267
 6162TIP3    H118429   8.298   2.251   0.241
 6162TIP3    H218430   8.166   2.272   0.312
 6163TIP3   OH218431   0.702   3.567   6.267
 6163TIP3    H118432   0.762   3.633   6.302
 6163TIP3    H218433   0.614   3.602   6.284
 6164TIP3   OH218434   6.110   6.918   4.228
 6164TIP3    H118435   6.037   6.973   4.256
 6164TIP3    H218436   6.183   6.979   4.217
 6165TIP3   OH218437   6.401   1.893   2.614
 6165TIP3    H118438   6.449   1.865   2.691
 6165TIP3    H218439   6.469   1.917   2.551
 6166TIP3   OH218440   5.566   0.509   5.671
 6166TIP3    H118441   5.642   0.470   5.714
 6166TIP3    H218442   5.549   0.451   5.597
 6167TIP3   OH218443   0.123   3.532   0.866
 6167TIP3    H118444   0.109   3.551   0.958
 6167TIP3    H218445   0.036   3.538   0.826
 6168TIP3   OH218446   3.358   7.039   4.082
 6168TIP3    H118447   3.370   7.001   3.995
 6168TIP3    H218448   3.438   7.015   4.129
 6169TIP3   OH218449   8.033   1.337   6.285
 6169TIP3    H118450   8.010   1.423   6.320
 6169TIP3    H218451   8.072   1.290   6.359
 6170TIP3   OH218452   4.795   7.246   5.388
 6170TIP3    H118453   4.761   7.157   5.399
 6170TIP3    H218454   4.732   7.289   5.331
 6171TIP3   OH218455   1.616   1.338   6.306
 6171TIP3    H118456   1.601   1.249   6.338
 6171TIP3    H218457   1.700   1.364   6.345
 6172TIP3   OH218458   7.079   7.308   2.057
 6172TIP3    H118459   6.992   7.340   2.033
 6172TIP3    H218460   7.076   7.297   2.152
 6173TIP3   OH218461   4.116   6.288   5.835
 6173TIP3    H118462   4.043   6.233   5.806
 6173TIP3    H218463   4.075   6.363   5.878
 6174TIP3   OH218464   3.730   2.500   5.242
 6174TIP3    H118465   3.743   2.469   5.152
 6174TIP3    H218466   3.712   2.594   5.232
 6175TIP3   OH218467   2.292   0.692   2.638
 6175TIP3    H118468   2.311   0.599   2.637
 6175TIP3    H218469   2.298   0.717   2.730
 6176TIP3   OH218470   5.595   6.702   5.484
 6176TIP3    H118471   5.521   6.747   5.523
 6176TIP3    H218472   5.556   6.645   5.417
 6177TIP3   OH218473   7.672   6.109   5.949
 6177TIP3    H118474   7.583   6.142   5.965
 6177TIP3    H218475   7.662   6.050   5.874
 6178TIP3   OH218476   6.404   3.890   0.214
 6178TIP3    H118477   6.481   3.855   0.170
 6178TIP3    H218478   6.433   3.906   0.304
 6179TIP3   OH218479   3.293   6.095   3.938
 6179TIP3    H118480   3.388   6.084   3.934
 6179TIP3    H218481   3.261   6.055   3.857
 6180TIP3   OH218482   6.148   5.099   2.025
 6180TIP3    H118483   6.131   5.128   2.114
 6180TIP3    H218484   6.089   5.024   2.013
 6181TIP3   OH218485   6.631   1.222   6.421
 6181TIP3    H118486   6.613   1.262   6.506
 6181TIP3    H218487   6.724   1.203   6.423
 6182TIP3   OH218488   5.877   5.563   4.467
 6182TIP3    H118489   5.861   5.476   4.503
 6182TIP3    H218490   5.969   5.581   4.486
 6183TIP3   OH218491   7.136   7.786   1.379
 6183TIP3    H118492   7.202   7.843   1.338
 6183TIP3    H218493   7.154   7.700   1.342
 6184TIP3   OH218494   1.731   1.620   3.610
 6184TIP3    H118495   1.711   1.578   3.527
 6184TIP3    H218496   1.698   1.710   3.601
 6185TIP3   OH218497   7.822   1.839   0.194
 6185TIP3    H118498   7.818   1.814   0.101
 6185TIP3    H218499   7.752   1.789   0.235
 6186TIP3   OH218500   4.698   4.348   5.196
 6186TIP3    H118501   4.736   4.261   5.206
 6186TIP3    H218502   4.606   4.333   5.179
 6187TIP3   OH218503   3.038   5.260   1.839
 6187TIP3    H118504   3.019   5.325   1.907
 6187TIP3    H218505   3.031   5.308   1.757
 6188TIP3   OH218506   7.849   1.904   5.399
 6188TIP3    H118507   7.911   1.849   5.352
 6188TIP3    H218508   7.829   1.854   5.479
 6189TIP3   OH218509   5.377   5.473   2.759
 6189TIP3    H118510   5.373   5.552   2.812
 6189TIP3    H218511   5.468   5.468   2.730
 6190TIP3   OH218512   3.951   6.749   5.751
 6190TIP3    H118513   3.931   6.668   5.704
 6190TIP3    H218514   3.890   6.813   5.715
 6191TIP3   OH218515   5.594   0.477   4.412
 6191TIP3    H118516   5.520   0.495   4.470
 6191TIP3    H218517   5.563   0.405   4.357
 6192TIP3   OH218518   3.068   6.006   3.169
 6192TIP3    H118519   3.089   5.925   3.123
 6192TIP3    H218520   2.972   6.005   3.177
 6193TIP3   OH218521   0.236   2.984   1.047
 6193TIP3    H118522   0.286   3.058   1.080
 6193TIP3    H218523   0.176   2.962   1.118
 6194TIP3   OH218524   6.906   0.300   4.913
 6194TIP3    H118525   6.821   0.327   4.879
 6194TIP3    H218526   6.954   0.382   4.927
 6195TIP3   OH218527   1.084   3.256   4.680
 6195TIP3    H118528   1.047   3.298   4.757
 6195TIP3    H218529   1.126   3.177   4.713
 6196TIP3   OH218530   5.735   0.061   0.088
 6196TIP3    H118531   5.770   0.039   0.174
 6196TIP3    H218532   5.773   0.146   0.067
 6197TIP3   OH218533   3.948   1.102   1.817
 6197TIP3    H118534   3.960   1.039   1.746
 6197TIP3    H218535   3.862   1.082   1.854
 6198TIP3   OH218536   2.515   0.808   2.153
 6198TIP3    H118537   2.519   0.802   2.248
 6198TIP3    H218538   2.424   0.831   2.134
 6199TIP3   OH218539   0.523   0.823   0.060
 6199TIP3    H118540   0.503   0.750   0.119
 6199TIP3    H218541   0.613   0.807   0.032
 6200TIP3   OH218542   1.880   3.626   6.260
 6200TIP3    H118543   1.816   3.559   6.283
 6200TIP3    H218544   1.954   3.576   6.225
 6201TIP3   OH218545   3.582   4.699   0.265
 6201TIP3    H118546   3.570   4.711   0.359
 6201TIP3    H218547   3.599   4.606   0.254
 6202TIP3   OH218548   3.904   0.909   5.029
 6202TIP3    H118549   3.900   0.841   5.097
 6202TIP3    H218550   3.893   0.991   5.077
 6203TIP3   OH218551   6.089   1.027   3.859
 6203TIP3    H118552   6.182   1.015   3.841
 6203TIP3    H218553   6.057   0.939   3.879
 6204TIP3   OH218554   7.066   1.762   5.414
 6204TIP3    H118555   6.972   1.753   5.397
 6204TIP3    H218556   7.094   1.834   5.358
 6205TIP3   OH218557   4.308   3.819   4.799
 6205TIP3    H118558   4.217   3.840   4.777
 6205TIP3    H218559   4.360   3.870   4.738
 6206TIP3   OH218560   4.518   2.390   1.918
 6206TIP3    H118561   4.552   2.365   1.832
 6206TIP3    H218562   4.479   2.310   1.954
 6207TIP3   OH218563   2.868   7.516   2.281
 6207TIP3    H118564   2.807   7.531   2.353
 6207TIP3    H218565   2.817   7.533   2.202
 6208TIP3   OH218566   7.214   3.991   2.230
 6208TIP3    H118567   7.212   4.086   2.230
 6208TIP3    H218568   7.297   3.969   2.273
 6209TIP3   OH218569   8.002   0.272   3.577
 6209TIP3    H118570   8.056   0.252   3.500
 6209TIP3    H218571   7.946   0.195   3.588
 6210TIP3   OH218572   2.227   3.166   0.615
 6210TIP3    H118573   2.256   3.243   0.567
 6210TIP3    H218574   2.307   3.119   0.636
 6211TIP3   OH218575   5.818   6.032   3.684
 6211TIP3    H118576   5.734   6.055   3.722
 6211TIP3    H218577   5.873   6.109   3.697
 6212TIP3   OH218578   8.169   4.619   3.807
 6212TIP3    H118579   8.262   4.603   3.788
 6212TIP3    H218580   8.168   4.664   3.891
 6213TIP3   OH218581   7.186   3.677   0.355
 6213TIP3    H118582   7.137   3.728   0.290
 6213TIP3    H218583   7.278   3.696   0.335
 6214TIP3   OH218584   4.365   6.620   2.779
 6214TIP3    H118585   4.407   6.545   2.821
 6214TIP3    H218586   4.416   6.636   2.700
 6215TIP3   OH218587   0.512   4.785   0.534
 6215TIP3    H118588   0.589   4.834   0.504
 6215TIP3    H218589   0.509   4.801   0.628
 6216TIP3   OH218590   4.099   2.106   4.648
 6216TIP3    H118591   4.066   2.017   4.634
 6216TIP3    H218592   4.035   2.145   4.708
 6217TIP3   OH218593   0.023   2.673   6.816
 6217TIP3    H118594   0.099   2.711   6.861
 6217TIP3    H218595   0.032   2.702   6.725
 6218TIP3   OH218596   0.510   4.253   2.601
 6218TIP3    H118597   0.451   4.327   2.619
 6218TIP3    H218598   0.574   4.256   2.671
 6219TIP3   OH218599   1.076   5.425   6.020
 6219TIP3    H118600   1.118   5.456   5.940
 6219TIP3    H218601   1.122   5.343   6.041
 6220TIP3   OH218602   1.297   1.115   1.278
 6220TIP3    H118603   1.277   1.091   1.369
 6220TIP3    H218604   1.393   1.120   1.276
 6221TIP3   OH218605   4.880   3.421   3.595
 6221TIP3    H118606   4.797   3.447   3.634
 6221TIP3    H218607   4.926   3.503   3.578
 6222TIP3   OH218608   6.676   1.246   3.842
 6222TIP3    H118609   6.720   1.221   3.924
 6222TIP3    H218610   6.743   1.235   3.775
 6223TIP3   OH218611   2.090   5.889   0.234
 6223TIP3    H118612   2.136   5.822   0.286
 6223TIP3    H218613   2.001   5.889   0.268
 6224TIP3   OH218614   0.798   5.826   0.028
 6224TIP3    H118615   0.876   5.829  -0.027
 6224TIP3    H218616   0.756   5.743   0.006
 6225TIP3   OH218617   0.178   4.362   3.512
 6225TIP3    H118618   0.193   4.287   3.455
 6225TIP3    H218619   0.253   4.363   3.572
 6226TIP3   OH218620   3.283   4.290   6.471
 6226TIP3    H118621   3.249   4.267   6.558
 6226TIP3    H218622   3.352   4.354   6.488
 6227TIP3   OH218623   6.473   0.034   3.296
 6227TIP3    H118624   6.435   0.121   3.288
 6227TIP3    H218625   6.522   0.022   3.214
 6228TIP3   OH218626   5.401   2.208   6.310
 6228TIP3    H118627   5.396   2.163   6.225
 6228TIP3    H218628   5.473   2.165   6.356
 6229TIP3   OH218629   0.391   1.067   0.759
 6229TIP3    H118630   0.350   1.135   0.706
 6229TIP3    H218631   0.483   1.070   0.735
 6230TIP3   OH218632   1.252   6.365   3.695
 6230TIP3    H118633   1.196   6.409   3.632
 6230TIP3    H218634   1.327   6.423   3.706
 6231TIP3   OH218635   6.689   0.221   1.597
 6231TIP3    H118636   6.631   0.295   1.581
 6231TIP3    H218637   6.654   0.150   1.544
 6232TIP3   OH218638   3.968   4.416   6.661
 6232TIP3    H118639   3.998   4.338   6.706
 6232TIP3    H218640   4.008   4.489   6.710
 6233TIP3   OH218641   7.831   4.365   6.132
 6233TIP3    H118642   7.859   4.437   6.189
 6233TIP3    H218643   7.739   4.350   6.154
 6234TIP3   OH218644   7.338   2.820   5.363
 6234TIP3    H118645   7.246   2.801   5.344
 6234TIP3    H218646   7.347   2.915   5.350
 6235TIP3   OH218647   1.716  -0.045   4.224
 6235TIP3    H118648   1.670  -0.066   4.305
 6235TIP3    H218649   1.713   0.051   4.219
 6236TIP3   OH218650   8.118   3.733   2.152
 6236TIP3    H118651   8.081   3.673   2.087
 6236TIP3    H218652   8.193   3.685   2.187
 6237TIP3   OH218653   6.773   3.883   3.611
 6237TIP3    H118654   6.701   3.915   3.557
 6237TIP3    H218655   6.762   3.929   3.695
 6238TIP3   OH218656   6.312   5.811   1.082
 6238TIP3    H118657   6.274   5.771   1.004
 6238TIP3    H218658   6.363   5.885   1.048
 6239TIP3   OH218659   1.909   6.210   1.298
 6239TIP3    H118660   1.854   6.284   1.274
 6239TIP3    H218661   1.949   6.181   1.216
 6240TIP3   OH218662   1.588   3.927   1.519
 6240TIP3    H118663   1.663   3.893   1.568
 6240TIP3    H218664   1.581   3.869   1.443
 6241TIP3   OH218665   5.826   2.089   1.713
 6241TIP3    H118666   5.810   2.038   1.634
 6241TIP3    H218667   5.753   2.151   1.718
 6242TIP3   OH218668   7.328   6.600   0.602
 6242TIP3    H118669   7.256   6.539   0.619
 6242TIP3    H218670   7.384   6.593   0.679
 6243TIP3   OH218671   5.206   1.776   0.109
 6243TIP3    H118672   5.252   1.708   0.061
 6243TIP3    H218673   5.226   1.857   0.061
 6244TIP3   OH218674   7.193   7.604   4.004
 6244TIP3    H118675   7.287   7.583   4.010
 6244TIP3    H218676   7.178   7.667   4.075
 6245TIP3   OH218677   2.497   6.281   4.011
 6245TIP3    H118678   2.542   6.197   4.020
 6245TIP3    H218679   2.419   6.272   4.066
 6246TIP3   OH218680   0.404   4.917   1.651
 6246TIP3    H118681   0.402   5.012   1.647
 6246TIP3    H218682   0.480   4.892   1.599
 6247TIP3   OH218683   6.723   0.904   5.860
 6247TIP3    H118684   6.750   0.822   5.819
 6247TIP3    H218685   6.668   0.947   5.795
 6248TIP3   OH218686   0.504   5.451   0.845
 6248TIP3    H118687   0.561   5.450   0.922
 6248TIP3    H218688   0.536   5.380   0.791
 6249TIP3   OH218689   1.854   0.050   6.657
 6249TIP3    H118690   1.895   0.021   6.575
 6249TIP3    H218691   1.803  -0.026   6.685
 6250TIP3   OH218692   6.246   1.000   1.345
 6250TIP3    H118693   6.312   1.021   1.411
 6250TIP3    H218694   6.289   1.020   1.262
 6251TIP3   OH218695   0.941   4.086   4.046
 6251TIP3    H118696   0.945   4.094   4.141
 6251TIP3    H218697   0.950   4.176   4.014
 6252TIP3   OH218698   1.338   3.625   1.600
 6252TIP3    H118699   1.286   3.548   1.621
 6252TIP3    H218700   1.277   3.698   1.608
 6253TIP3   OH218701   2.315   1.722   4.884
 6253TIP3    H118702   2.261   1.794   4.851
 6253TIP3    H218703   2.280   1.644   4.842
 6254TIP3   OH218704   6.381   0.967   1.832
 6254TIP3    H118705   6.463   0.926   1.862
 6254TIP3    H218706   6.406   1.057   1.811
 6255TIP3   OH218707   3.308   4.215   3.566
 6255TIP3    H118708   3.305   4.290   3.626
 6255TIP3    H218709   3.306   4.254   3.479
 6256TIP3   OH218710   0.399   4.300   5.152
 6256TIP3    H118711   0.486   4.336   5.132
 6256TIP3    H218712   0.388   4.316   5.246
 6257TIP3   OH218713   0.260   5.231   3.940
 6257TIP3    H118714   0.295   5.297   3.880
 6257TIP3    H218715   0.297   5.255   4.025
 6258TIP3   OH218716   6.248   5.167   6.571
 6258TIP3    H118717   6.171   5.169   6.628
 6258TIP3    H218718   6.252   5.077   6.539
 6259TIP3   OH218719   6.250   7.083   2.754
 6259TIP3    H118720   6.186   7.139   2.711
 6259TIP3    H218721   6.203   7.045   2.828
 6260TIP3   OH218722   4.090   1.555   0.284
 6260TIP3    H118723   4.118   1.478   0.234
 6260TIP3    H218724   4.163   1.617   0.276
 6261TIP3   OH218725   1.171   3.697   4.662
 6261TIP3    H118726   1.170   3.675   4.755
 6261TIP3    H218727   1.261   3.725   4.645
 6262TIP3   OH218728   0.099   0.425   1.023
 6262TIP3    H118729   0.165   0.433   1.093
 6262TIP3    H218730   0.120   0.495   0.962
 6263TIP3   OH218731   5.959   2.907   5.693
 6263TIP3    H118732   5.926   2.826   5.731
 6263TIP3    H218733   5.937   2.901   5.600
 6264TIP3   OH218734   7.971   5.882   5.754
 6264TIP3    H118735   8.027   5.911   5.682
 6264TIP3    H218736   7.910   5.955   5.766
 6265TIP3   OH218737   3.569   3.924   5.674
 6265TIP3    H118738   3.551   3.945   5.765
 6265TIP3    H218739   3.664   3.925   5.667
 6266TIP3   OH218740   4.346   5.654   1.397
 6266TIP3    H118741   4.349   5.562   1.423
 6266TIP3    H218742   4.393   5.700   1.467
 6267TIP3   OH218743   2.042   1.766   1.848
 6267TIP3    H118744   2.057   1.841   1.906
 6267TIP3    H218745   2.023   1.694   1.908
 6268TIP3   OH218746   5.517   0.310   0.860
 6268TIP3    H118747   5.583   0.351   0.805
 6268TIP3    H218748   5.480   0.239   0.806
 6269TIP3   OH218749   2.390   1.343   1.422
 6269TIP3    H118750   2.371   1.429   1.385
 6269TIP3    H218751   2.475   1.318   1.385
 6270TIP3   OH218752   0.509   1.292   3.664
 6270TIP3    H118753   0.459   1.212   3.681
 6270TIP3    H218754   0.465   1.331   3.588
 6271TIP3   OH218755   0.471   6.045   4.847
 6271TIP3    H118756   0.539   6.046   4.914
 6271TIP3    H218757   0.499   6.110   4.782
 6272TIP3   OH218758   0.645   3.201   5.031
 6272TIP3    H118759   0.599   3.171   4.953
 6272TIP3    H218760   0.707   3.131   5.051
 6273TIP3   OH218761   7.312   5.842   6.068
 6273TIP3    H118762   7.243   5.782   6.094
 6273TIP3    H218763   7.287   5.926   6.107
 6274TIP3   OH218764   0.228   6.434   1.243
 6274TIP3    H118765   0.155   6.475   1.195
 6274TIP3    H218766   0.186   6.388   1.315
 6275TIP3   OH218767   1.756   2.089   0.774
 6275TIP3    H118768   1.745   2.169   0.826
 6275TIP3    H218769   1.813   2.034   0.827
 6276TIP3   OH218770   1.624   2.206   2.966
 6276TIP3    H118771   1.707   2.204   3.014
 6276TIP3    H218772   1.575   2.277   3.006
 6277TIP3   OH218773   1.170   0.755   1.020
 6277TIP3    H118774   1.219   0.838   1.019
 6277TIP3    H218775   1.224   0.696   1.073
 6278TIP3   OH218776   3.188   3.676   1.222
 6278TIP3    H118777   3.119   3.650   1.161
 6278TIP3    H218778   3.201   3.598   1.277
 6279TIP3   OH218779   1.897   3.527   1.534
 6279TIP3    H118780   1.992   3.517   1.532
 6279TIP3    H218781   1.872   3.506   1.623
 6280TIP3   OH218782   2.885   5.669   3.337
 6280TIP3    H118783   2.942   5.592   3.335
 6280TIP3    H218784   2.820   5.649   3.405
 6281TIP3   OH218785   5.249   4.036   2.220
 6281TIP3    H118786   5.237   4.055   2.313
 6281TIP3    H218787   5.211   4.112   2.175
 6282TIP3   OH218788   2.761   3.761   0.393
 6282TIP3    H118789   2.822   3.826   0.358
 6282TIP3    H218790   2.695   3.813   0.440
 6283TIP3   OH218791   3.720   0.798   1.046
 6283TIP3    H118792   3.643   0.781   1.099
 6283TIP3    H218793   3.747   0.886   1.071
 6284TIP3   OH218794   7.844   0.457   3.407
 6284TIP3    H118795   7.906   0.421   3.471
 6284TIP3    H218796   7.758   0.426   3.437
 6285TIP3   OH218797   5.222   1.907   4.885
 6285TIP3    H118798   5.269   1.872   4.809
 6285TIP3    H218799   5.210   1.831   4.942
 6286TIP3   OH218800   5.542   0.051   0.319
 6286TIP3    H118801   5.622   0.092   0.351
 6286TIP3    H218802   5.516   0.103   0.243
 6287TIP3   OH218803   6.855   2.862   5.372
 6287TIP3    H118804   6.905   2.842   5.451
 6287TIP3    H218805   6.769   2.890   5.405
 6288TIP3   OH218806   2.050   2.658   5.758
 6288TIP3    H118807   2.062   2.616   5.673
 6288TIP3    H218808   2.138   2.663   5.796
 6289TIP3   OH218809   5.514   1.993   2.241
 6289TIP3    H118810   5.536   2.086   2.232
 6289TIP3    H218811   5.543   1.971   2.329
 6290TIP3   OH218812   7.577   6.420   3.748
 6290TIP3    H118813   7.655   6.462   3.711
 6290TIP3    H218814   7.582   6.329   3.716
 6291TIP3   OH218815   4.396   6.495   5.406
 6291TIP3    H118816   4.304   6.470   5.396
 6291TIP3    H218817   4.444   6.413   5.402
 6292TIP3   OH218818   6.313   0.327   4.773
 6292TIP3    H118819   6.280   0.415   4.796
 6292TIP3    H218820   6.326   0.331   4.679
 6293TIP3   OH218821   2.268   1.678   4.227
 6293TIP3    H118822   2.242   1.586   4.219
 6293TIP3    H218823   2.191   1.722   4.264
 6294TIP3   OH218824   5.956   3.078   4.750
 6294TIP3    H118825   5.942   3.002   4.807
 6294TIP3    H218826   5.944   3.044   4.662
 6295TIP3   OH218827   1.875   6.275  -0.051
 6295TIP3    H118828   1.931   6.253   0.023
 6295TIP3    H218829   1.800   6.320  -0.012
 6296TIP3   OH218830   5.675   0.150   6.197
 6296TIP3    H118831   5.745   0.132   6.259
 6296TIP3    H218832   5.620   0.071   6.200
 6297TIP3   OH218833   3.879   1.731   1.305
 6297TIP3    H118834   3.882   1.667   1.376
 6297TIP3    H218835   3.842   1.682   1.231
 6298TIP3   OH218836   4.189   0.385   1.927
 6298TIP3    H118837   4.190   0.410   2.019
 6298TIP3    H218838   4.276   0.408   1.895
 6299TIP3   OH218839   2.501   7.474   6.199
 6299TIP3    H118840   2.487   7.379   6.204
 6299TIP3    H218841   2.413   7.510   6.188
 6300TIP3   OH218842   5.421   0.543   2.048
 6300TIP3    H118843   5.433   0.567   1.956
 6300TIP3    H218844   5.422   0.448   2.048
 6301TIP3   OH218845   0.059   0.459   6.412
 6301TIP3    H118846   0.130   0.523   6.419
 6301TIP3    H218847   0.062   0.410   6.494
 6302TIP3   OH218848   7.428   2.988   4.469
 6302TIP3    H118849   7.450   2.931   4.395
 6302TIP3    H218850   7.391   2.929   4.534
 6303TIP3   OH218851   8.049   7.621   5.029
 6303TIP3    H118852   7.991   7.576   5.089
 6303TIP3    H218853   7.991   7.678   4.978
 6304TIP3   OH218854   7.568   2.574   4.854
 6304TIP3    H118855   7.565   2.662   4.892
 6304TIP3    H218856   7.642   2.532   4.897
 6305TIP3   OH218857   0.816   1.819   6.357
 6305TIP3    H118858   0.806   1.816   6.262
 6305TIP3    H218859   0.860   1.737   6.380
 6306TIP3   OH218860   6.671   7.643   6.027
 6306TIP3    H118861   6.706   7.555   6.012
 6306TIP3    H218862   6.614   7.633   6.103
 6307TIP3   OH218863   6.000   2.865   0.114
 6307TIP3    H118864   6.037   2.865   0.025
 6307TIP3    H218865   5.966   2.954   0.126
 6308TIP3   OH218866   3.151   7.523   4.031
 6308TIP3    H118867   3.180   7.612   4.051
 6308TIP3    H218868   3.055   7.529   4.031
 6309TIP3   OH218869   1.937   0.820   5.509
 6309TIP3    H118870   1.874   0.817   5.437
 6309TIP3    H218871   1.925   0.736   5.554
 6310TIP3   OH218872   4.412   7.630   6.427
 6310TIP3    H118873   4.375   7.543   6.441
 6310TIP3    H218874   4.430   7.634   6.333
 6311TIP3   OH218875   4.112   5.422   5.601
 6311TIP3    H118876   4.029   5.469   5.605
 6311TIP3    H218877   4.125   5.390   5.690
 6312TIP3   OH218878   2.595   5.138   2.438
 6312TIP3    H118879   2.565   5.052   2.467
 6312TIP3    H218880   2.554   5.150   2.352
 6313TIP3   OH218881   4.149   5.660   3.013
 6313TIP3    H118882   4.226   5.688   3.063
 6313TIP3    H218883   4.153   5.709   2.931
 6314TIP3   OH218884   0.063   4.322   5.399
 6314TIP3    H118885   0.046   4.238   5.442
 6314TIP3    H218886  -0.024   4.354   5.374
 6315TIP3   OH218887   4.630   3.907   4.649
 6315TIP3    H118888   4.632   4.002   4.664
 6315TIP3    H218889   4.706   3.891   4.593
 6316TIP3   OH218890   3.142   1.984   2.881
 6316TIP3    H118891   3.052   2.018   2.876
 6316TIP3    H218892   3.194   2.050   2.835
 6317TIP3   OH218893   2.171   7.440   1.212
 6317TIP3    H118894   2.212   7.359   1.180
 6317TIP3    H218895   2.227   7.510   1.179
 6318TIP3   OH218896   6.638   6.278   1.286
 6318TIP3    H118897   6.547   6.289   1.314
 6318TIP3    H218898   6.648   6.338   1.213
 6319TIP3   OH218899   0.921   5.590   3.874
 6319TIP3    H118900   0.835   5.578   3.915
 6319TIP3    H218901   0.972   5.514   3.903
 6320TIP3   OH218902   5.254   4.877   4.660
 6320TIP3    H118903   5.331   4.825   4.635
 6320TIP3    H218904   5.203   4.885   4.580
 6321TIP3   OH218905   3.489   0.259   0.171
 6321TIP3    H118906   3.545   0.324   0.213
 6321TIP3    H218907   3.537   0.177   0.179
 6322TIP3   OH218908   7.853   5.338   5.215
 6322TIP3    H118909   7.903   5.347   5.296
 6322TIP3    H218910   7.919   5.344   5.145
 6323TIP3   OH218911   5.504   5.481   0.859
 6323TIP3    H118912   5.445   5.415   0.821
 6323TIP3    H218913   5.533   5.442   0.941
 6324TIP3   OH218914   4.293   3.349   5.123
 6324TIP3    H118915   4.297   3.351   5.028
 6324TIP3    H218916   4.202   3.330   5.143
 6325TIP3   OH218917   2.483   0.878   6.722
 6325TIP3    H118918   2.437   0.938   6.664
 6325TIP3    H218919   2.488   0.924   6.806
 6326TIP3   OH218920   1.460   6.965   3.514
 6326TIP3    H118921   1.531   7.023   3.542
 6326TIP3    H218922   1.423   7.008   3.437
 6327TIP3   OH218923   8.100   1.220   1.400
 6327TIP3    H118924   8.069   1.177   1.320
 6327TIP3    H218925   8.029   1.279   1.424
 6328TIP3   OH218926   2.523   2.238   2.623
 6328TIP3    H118927   2.485   2.279   2.702
 6328TIP3    H218928   2.563   2.311   2.576
 6329TIP3   OH218929   3.480   0.747   6.494
 6329TIP3    H118930   3.403   0.792   6.458
 6329TIP3    H218931   3.451   0.657   6.509
 6330TIP3   OH218932   2.000   6.464   4.494
 6330TIP3    H118933   1.909   6.459   4.521
 6330TIP3    H218934   2.000   6.436   4.402
 6331TIP3   OH218935   4.790   1.132   3.245
 6331TIP3    H118936   4.716   1.122   3.305
 6331TIP3    H218937   4.864   1.153   3.302
 6332TIP3   OH218938   2.697   7.110   1.535
 6332TIP3    H118939   2.757   7.153   1.473
 6332TIP3    H218940   2.615   7.101   1.487
 6333TIP3   OH218941   6.186   3.267   6.066
 6333TIP3    H118942   6.241   3.319   6.125
 6333TIP3    H218943   6.227   3.278   5.980
 6334TIP3   OH218944   1.228   1.180   3.899
 6334TIP3    H118945   1.260   1.161   3.810
 6334TIP3    H218946   1.160   1.246   3.886
 6335TIP3   OH218947   3.131   2.879   6.110
 6335TIP3    H118948   3.090   2.920   6.186
 6335TIP3    H218949   3.213   2.843   6.143
 6336TIP3   OH218950   7.519   3.632   5.888
 6336TIP3    H118951   7.508   3.539   5.909
 6336TIP3    H218952   7.606   3.638   5.849
 6337TIP3   OH218953   0.781   3.987   3.301
 6337TIP3    H118954   0.751   4.075   3.323
 6337TIP3    H218955   0.859   4.001   3.248
 6338TIP3   OH218956   3.946   7.105   4.290
 6338TIP3    H118957   3.930   7.120   4.197
 6338TIP3    H218958   3.913   7.184   4.333
 6339TIP3   OH218959   4.087   3.574   5.047
 6339TIP3    H118960   4.165   3.524   5.070
 6339TIP3    H218961   4.080   3.566   4.952
 6340TIP3   OH218962   6.702   1.472   4.629
 6340TIP3    H118963   6.763   1.419   4.578
 6340TIP3    H218964   6.618   1.459   4.585
 6341TIP3   OH218965   0.701   1.127   6.085
 6341TIP3    H118966   0.703   1.095   6.175
 6341TIP3    H218967   0.777   1.184   6.078
 6342TIP3   OH218968   7.749   1.881   4.821
 6342TIP3    H118969   7.795   1.815   4.874
 6342TIP3    H218970   7.753   1.961   4.875
 6343TIP3   OH218971   2.228   5.008   1.256
 6343TIP3    H118972   2.224   5.081   1.318
 6343TIP3    H218973   2.281   4.942   1.301
 6344TIP3   OH218974   0.183   6.055   1.934
 6344TIP3    H118975   0.094   6.068   1.968
 6344TIP3    H218976   0.185   5.963   1.906
 6345TIP3   OH218977   0.123   0.620   5.244
 6345TIP3    H118978   0.066   0.555   5.286
 6345TIP3    H218979   0.094   0.623   5.153
 6346TIP3   OH218980   0.960   1.517   3.725
 6346TIP3    H118981   1.047   1.516   3.684
 6346TIP3    H218982   0.978   1.499   3.818
 6347TIP3   OH218983   5.915   6.207   2.399
 6347TIP3    H118984   5.931   6.148   2.473
 6347TIP3    H218985   6.002   6.234   2.370
 6348TIP3   OH218986   6.810   7.701   4.603
 6348TIP3    H118987   6.879   7.648   4.564
 6348TIP3    H218988   6.841   7.721   4.691
 6349TIP3   OH218989   4.016   3.101   0.877
 6349TIP3    H118990   4.108   3.128   0.864
 6349TIP3    H218991   3.990   3.145   0.958
 6350TIP3   OH218992   4.338   4.412   0.161
 6350TIP3    H118993   4.279   4.457   0.221
 6350TIP3    H218994   4.290   4.333   0.136
 6351TIP3   OH218995   5.561   1.741   5.247
 6351TIP3    H118996   5.504   1.816   5.232
 6351TIP3    H218997   5.502   1.671   5.276
 6352TIP3   OH218998   6.221   5.045   4.209
 6352TIP3    H118999   6.298   5.095   4.183
 6352TIP3    H219000   6.192   5.003   4.128
 6353TIP3   OH219001   2.506   1.012   0.054
 6353TIP3    H119002   2.559   0.963  -0.009
 6353TIP3    H219003   2.460   0.945   0.105
 6354TIP3   OH219004   3.938   6.266   0.816
 6354TIP3    H119005   4.028   6.238   0.836
 6354TIP3    H219006   3.888   6.242   0.894
 6355TIP3   OH219007   1.140   7.474   5.139
 6355TIP3    H119008   1.110   7.384   5.154
 6355TIP3    H219009   1.138   7.484   5.044
 6356TIP3   OH219010   4.385   1.233   2.667
 6356TIP3    H119011   4.298   1.268   2.687
 6356TIP3    H219012   4.382   1.143   2.698
 6357TIP3   OH219013   7.299   0.000   2.159
 6357TIP3    H119014   7.343  -0.005   2.243
 6357TIP3    H219015   7.283   0.093   2.145
 6358TIP3   OH219016   4.460   7.091   3.394
 6358TIP3    H119017   4.467   7.019   3.456
 6358TIP3    H219018   4.538   7.144   3.409
 6359TIP3   OH219019   2.458   0.133   3.070
 6359TIP3    H119020   2.523   0.110   3.004
 6359TIP3    H219021   2.384   0.075   3.050
 6360TIP3   OH219022   7.895   1.012   5.823
 6360TIP3    H119023   7.898   1.048   5.734
 6360TIP3    H219024   7.986   1.005   5.849
 6361TIP3   OH219025   4.417   1.640   3.849
 6361TIP3    H119026   4.392   1.549   3.828
 6361TIP3    H219027   4.358   1.693   3.796
 6362TIP3   OH219028   5.916   3.175   3.172
 6362TIP3    H119029   5.852   3.117   3.130
 6362TIP3    H219030   5.873   3.203   3.253
 6363TIP3   OH219031   3.480   0.783   4.720
 6363TIP3    H119032   3.429   0.853   4.678
 6363TIP3    H219033   3.518   0.824   4.797
 6364TIP3   OH219034   1.267   7.809   4.091
 6364TIP3    H119035   1.202   7.739   4.095
 6364TIP3    H219036   1.229   7.881   4.141
 6365TIP3   OH219037   2.245   4.910   3.592
 6365TIP3    H119038   2.233   4.893   3.685
 6365TIP3    H219039   2.340   4.916   3.580
 6366TIP3   OH219040   2.908   4.805   5.739
 6366TIP3    H119041   2.818   4.818   5.709
 6366TIP3    H219042   2.932   4.719   5.705
 6367TIP3   OH219043   5.140   3.798   6.325
 6367TIP3    H119044   5.073   3.814   6.258
 6367TIP3    H219045   5.105   3.842   6.403
 6368TIP3   OH219046   5.297   0.794   2.923
 6368TIP3    H119047   5.312   0.735   2.997
 6368TIP3    H219048   5.206   0.779   2.898
 6369TIP3   OH219049   1.985   6.777   6.164
 6369TIP3    H119050   2.072   6.800   6.196
 6369TIP3    H219051   1.999   6.698   6.112
 6370TIP3   OH219052   5.322   6.757   2.506
 6370TIP3    H119053   5.402   6.721   2.469
 6370TIP3    H219054   5.339   6.762   2.600
 6371TIP3   OH219055   2.393   3.502   2.657
 6371TIP3    H119056   2.338   3.504   2.579
 6371TIP3    H219057   2.332   3.495   2.730
 6372TIP3   OH219058   6.766   7.806   2.614
 6372TIP3    H119059   6.797   7.719   2.588
 6372TIP3    H219060   6.798   7.817   2.703
 6373TIP3   OH219061   6.584   6.848   4.680
 6373TIP3    H119062   6.527   6.840   4.757
 6373TIP3    H219063   6.566   6.770   4.629
 6374TIP3   OH219064   8.006   0.777   5.055
 6374TIP3    H119065   7.924   0.810   5.091
 6374TIP3    H219066   7.980   0.731   4.975
 6375TIP3   OH219067   7.079   4.883   4.248
 6375TIP3    H119068   7.052   4.878   4.156
 6375TIP3    H219069   7.025   4.952   4.285
 6376TIP3   OH219070   8.181   6.105   1.899
 6376TIP3    H119071   8.178   6.009   1.900
 6376TIP3    H219072   8.093   6.131   1.875
 6377TIP3   OH219073   7.201   0.397   3.904
 6377TIP3    H119074   7.236   0.311   3.923
 6377TIP3    H219075   7.110   0.394   3.934
 6378TIP3   OH219076   6.483   1.312   2.748
 6378TIP3    H119077   6.424   1.385   2.725
 6378TIP3    H219078   6.486   1.257   2.670
 6379TIP3   OH219079   7.425   4.774   5.099
 6379TIP3    H119080   7.465   4.861   5.103
 6379TIP3    H219081   7.388   4.768   5.010
 6380TIP3   OH219082   5.614   3.877   5.552
 6380TIP3    H119083   5.525   3.903   5.576
 6380TIP3    H219084   5.605   3.790   5.514
 6381TIP3   OH219085   6.610   3.447   3.160
 6381TIP3    H119086   6.691   3.499   3.163
 6381TIP3    H219087   6.641   3.357   3.150
 6382TIP3   OH219088   4.643   1.796   3.682
 6382TIP3    H119089   4.592   1.734   3.734
 6382TIP3    H219090   4.734   1.771   3.697
 6383TIP3   OH219091   6.721   1.349   2.186
 6383TIP3    H119092   6.749   1.433   2.148
 6383TIP3    H219093   6.643   1.371   2.237
 6384TIP3   OH219094   2.912   1.542   1.064
 6384TIP3    H119095   2.888   1.600   1.136
 6384TIP3    H219096   2.992   1.579   1.028
 6385TIP3   OH219097   1.639   3.665   1.957
 6385TIP3    H119098   1.566   3.669   1.894
 6385TIP3    H219099   1.716   3.691   1.907
 6386TIP3   OH219100   8.239   4.022   1.808
 6386TIP3    H119101   8.299   3.952   1.784
 6386TIP3    H219102   8.217   4.005   1.899
 6387TIP3   OH219103   4.889   3.445   5.965
 6387TIP3    H119104   4.888   3.522   5.908
 6387TIP3    H219105   4.922   3.374   5.911
 6388TIP3   OH219106   0.371   1.479   3.866
 6388TIP3    H119107   0.423   1.440   3.796
 6388TIP3    H219108   0.433   1.490   3.938
 6389TIP3   OH219109   5.272   3.475   2.139
 6389TIP3    H119110   5.195   3.531   2.127
 6389TIP3    H219111   5.236   3.390   2.164
 6390TIP3   OH219112   2.396   5.280   2.642
 6390TIP3    H119113   2.343   5.209   2.606
 6390TIP3    H219114   2.419   5.334   2.567
 6391TIP3   OH219115   6.344   0.911   3.727
 6391TIP3    H119116   6.423   0.925   3.778
 6391TIP3    H219117   6.286   0.861   3.784
 6392TIP3   OH219118   5.338   6.730   5.141
 6392TIP3    H119119   5.246   6.757   5.139
 6392TIP3    H219120   5.380   6.794   5.198
 6393TIP3   OH219121   2.837   2.868   2.604
 6393TIP3    H119122   2.866   2.807   2.536
 6393TIP3    H219123   2.763   2.824   2.646
 6394TIP3   OH219124   0.900   1.105   1.753
 6394TIP3    H119125   0.957   1.043   1.706
 6394TIP3    H219126   0.945   1.189   1.744
 6395TIP3   OH219127   6.861   6.571   1.269
 6395TIP3    H119128   6.925   6.538   1.206
 6395TIP3    H219129   6.835   6.657   1.236
 6396TIP3   OH219130   8.257   4.691   0.812
 6396TIP3    H119131   8.200   4.749   0.762
 6396TIP3    H219132   8.198   4.646   0.872
 6397TIP3   OH219133   5.399   0.199   2.604
 6397TIP3    H119134   5.363   0.151   2.679
 6397TIP3    H219135   5.459   0.138   2.562
 6398TIP3   OH219136   7.960   2.454   6.151
 6398TIP3    H119137   7.967   2.479   6.243
 6398TIP3    H219138   7.893   2.511   6.116
 6399TIP3   OH219139   8.119   6.966   1.663
 6399TIP3    H119140   8.042   6.997   1.712
 6399TIP3    H219141   8.190   7.022   1.693
 6400TIP3   OH219142   0.455   4.231   1.691
 6400TIP3    H119143   0.486   4.275   1.770
 6400TIP3    H219144   0.534   4.218   1.639
 6401TIP3   OH219145   6.695   5.138   3.708
 6401TIP3    H119146   6.688   5.074   3.779
 6401TIP3    H219147   6.766   5.105   3.653
 6402TIP3   OH219148   1.507   4.841   3.330
 6402TIP3    H119149   1.538   4.931   3.341
 6402TIP3    H219150   1.539   4.815   3.244
 6403TIP3   OH219151   1.083   1.282   5.227
 6403TIP3    H119152   1.071   1.374   5.251
 6403TIP3    H219153   1.010   1.237   5.269
 6404TIP3   OH219154   5.311   1.715   2.192
 6404TIP3    H119155   5.229   1.681   2.227
 6404TIP3    H219156   5.297   1.809   2.186
 6405TIP3   OH219157   6.450   5.680   2.384
 6405TIP3    H119158   6.509   5.607   2.403
 6405TIP3    H219159   6.367   5.655   2.424
 6406TIP3   OH219160   7.126   4.418   4.489
 6406TIP3    H119161   7.134   4.374   4.404
 6406TIP3    H219162   7.121   4.511   4.466
 6407TIP3   OH219163   1.320   1.160   3.103
 6407TIP3    H119164   1.382   1.125   3.039
 6407TIP3    H219165   1.351   1.126   3.187
 6408TIP3   OH219166   4.297   3.047   0.978
 6408TIP3    H119167   4.328   2.982   1.040
 6408TIP3    H219168   4.302   3.130   1.026
 6409TIP3   OH219169   1.364   0.117   5.807
 6409TIP3    H119170   1.284   0.126   5.859
 6409TIP3    H219171   1.333   0.104   5.718
 6410TIP3   OH219172   7.365   4.646   6.278
 6410TIP3    H119173   7.330   4.585   6.214
 6410TIP3    H219174   7.290   4.699   6.306
 6411TIP3   OH219175   3.154   7.357   1.150
 6411TIP3    H119176   3.240   7.325   1.178
 6411TIP3    H219177   3.115   7.282   1.105
 6412TIP3   OH219178   7.997   3.008   3.485
 6412TIP3    H119179   7.928   2.947   3.459
 6412TIP3    H219180   7.960   3.054   3.561
 6413TIP3   OH219181   2.755   7.088   1.808
 6413TIP3    H119182   2.721   7.117   1.724
 6413TIP3    H219183   2.846   7.117   1.808
 6414TIP3   OH219184   7.772   0.323   4.773
 6414TIP3    H119185   7.722   0.402   4.752
 6414TIP3    H219186   7.863   0.347   4.756
 6415TIP3   OH219187   3.902   2.213   3.161
 6415TIP3    H119188   3.898   2.308   3.159
 6415TIP3    H219189   3.987   2.193   3.201
 6416TIP3   OH219190   0.745   5.080   1.160
 6416TIP3    H119191   0.790   4.996   1.165
 6416TIP3    H219192   0.772   5.117   1.075
 6417TIP3   OH219193   4.262   3.736   3.220
 6417TIP3    H119194   4.344   3.737   3.269
 6417TIP3    H219195   4.285   3.769   3.133
 6418TIP3   OH219196   5.904   3.820   0.784
 6418TIP3    H119197   5.914   3.849   0.874
 6418TIP3    H219198   5.958   3.741   0.778
 6419TIP3   OH219199   0.677   1.791   0.161
 6419TIP3    H119200   0.660   1.779   0.067
 6419TIP3    H219201   0.690   1.885   0.171
 6420TIP3   OH219202   7.292   6.070   2.781
 6420TIP3    H119203   7.350   6.069   2.858
 6420TIP3    H219204   7.325   6.141   2.727
 6421TIP3   OH219205   3.786   3.958   3.574
 6421TIP3    H119206   3.780   4.027   3.640
 6421TIP3    H219207   3.728   3.889   3.605
 6422TIP3   OH219208   3.818   4.529   2.516
 6422TIP3    H119209   3.893   4.586   2.534
 6422TIP3    H219210   3.856   4.449   2.480
 6423TIP3   OH219211   5.155   7.096   1.096
 6423TIP3    H119212   5.108   7.095   1.013
 6423TIP3    H219213   5.233   7.043   1.081
 6424TIP3   OH219214   5.262   3.388   3.853
 6424TIP3    H119215   5.223   3.324   3.794
 6424TIP3    H219216   5.275   3.466   3.798
 6425TIP3   OH219217   0.472   1.815   1.195
 6425TIP3    H119218   0.479   1.910   1.202
 6425TIP3    H219219   0.530   1.792   1.122
 6426TIP3   OH219220   6.651   5.329   2.350
 6426TIP3    H119221   6.661   5.390   2.277
 6426TIP3    H219222   6.566   5.288   2.335
 6427TIP3   OH219223   5.965   0.722   1.783
 6427TIP3    H119224   5.905   0.659   1.822
 6427TIP3    H219225   5.983   0.687   1.696
 6428TIP3   OH219226   1.818   1.385   6.502
 6428TIP3    H119227   1.865   1.458   6.542
 6428TIP3    H219228   1.887   1.326   6.471
 6429TIP3   OH219229   4.585   1.266   5.894
 6429TIP3    H119230   4.658   1.273   5.956
 6429TIP3    H219231   4.613   1.317   5.818
 6430TIP3   OH219232   2.864   5.308   5.267
 6430TIP3    H119233   2.955   5.296   5.243
 6430TIP3    H219234   2.824   5.349   5.190
 6431TIP3   OH219235   5.346   2.136   4.551
 6431TIP3    H119236   5.277   2.084   4.510
 6431TIP3    H219237   5.350   2.216   4.499
 6432TIP3   OH219238   4.498   2.210   4.481
 6432TIP3    H119239   4.532   2.188   4.394
 6432TIP3    H219240   4.411   2.245   4.465
 6433TIP3   OH219241   1.866   5.318   0.037
 6433TIP3    H119242   1.826   5.313   0.124
 6433TIP3    H219243   1.886   5.411   0.026
 6434TIP3   OH219244   4.053   2.375   2.909
 6434TIP3    H119245   3.985   2.310   2.889
 6434TIP3    H219246   4.128   2.348   2.856
 6435TIP3   OH219247   1.926   5.836   3.672
 6435TIP3    H119248   2.013   5.876   3.676
 6435TIP3    H219249   1.942   5.743   3.683
 6436TIP3   OH219250   7.052   6.554   3.732
 6436TIP3    H119251   7.133   6.571   3.781
 6436TIP3    H219252   7.082   6.522   3.647
 6437TIP3   OH219253   4.721   6.006   6.634
 6437TIP3    H119254   4.637   6.031   6.672
 6437TIP3    H219255   4.737   5.918   6.668
 6438TIP3   OH219256   5.911   6.978   3.927
 6438TIP3    H119257   5.948   6.973   3.839
 6438TIP3    H219258   5.986   6.994   3.984
 6439TIP3   OH219259   6.837   6.467   6.013
 6439TIP3    H119260   6.773   6.510   6.069
 6439TIP3    H219261   6.789   6.446   5.933
 6440TIP3   OH219262   4.645   7.310   1.226
 6440TIP3    H119263   4.597   7.390   1.208
 6440TIP3    H219264   4.595   7.241   1.182
 6441TIP3   OH219265   2.672   1.375   3.443
 6441TIP3    H119266   2.596   1.371   3.501
 6441TIP3    H219267   2.656   1.306   3.378
 6442TIP3   OH219268   7.227   0.420   0.582
 6442TIP3    H119269   7.264   0.339   0.617
 6442TIP3    H219270   7.133   0.406   0.584
 6443TIP3   OH219271   1.551   7.205   3.833
 6443TIP3    H119272   1.604   7.274   3.874
 6443TIP3    H219273   1.573   7.210   3.740
 6444TIP3   OH219274   8.286   3.193   3.360
 6444TIP3    H119275   8.250   3.112   3.325
 6444TIP3    H219276   8.221   3.260   3.338
 6445TIP3   OH219277   1.421   5.376   2.180
 6445TIP3    H119278   1.501   5.323   2.179
 6445TIP3    H219279   1.353   5.316   2.148
 6446TIP3   OH219280   3.346   3.619   4.981
 6446TIP3    H119281   3.439   3.630   5.000
 6446TIP3    H219282   3.343   3.560   4.906
 6447TIP3   OH219283   3.029   7.050   4.783
 6447TIP3    H119284   2.968   6.978   4.771
 6447TIP3    H219285   2.978   7.129   4.763
 6448TIP3   OH219286   0.591   3.311   0.223
 6448TIP3    H119287   0.553   3.291   0.137
 6448TIP3    H219288   0.520   3.293   0.285
 6449TIP3   OH219289   2.238   5.742   0.406
 6449TIP3    H119290   2.220   5.670   0.467
 6449TIP3    H219291   2.302   5.797   0.452
 6450TIP3   OH219292   1.483   3.700   1.077
 6450TIP3    H119293   1.562   3.662   1.038
 6450TIP3    H219294   1.490   3.680   1.170
 6451TIP3   OH219295   5.652   6.401   0.248
 6451TIP3    H119296   5.686   6.491   0.249
 6451TIP3    H219297   5.725   6.347   0.277
 6452TIP3   OH219298   0.266   4.676   3.203
 6452TIP3    H119299   0.221   4.591   3.203
 6452TIP3    H219300   0.281   4.695   3.296
 6453TIP3   OH219301   1.610   3.069   3.866
 6453TIP3    H119302   1.627   2.995   3.808
 6453TIP3    H219303   1.620   3.146   3.811
 6454TIP3   OH219304   6.445   4.643   0.782
 6454TIP3    H119305   6.354   4.621   0.762
 6454TIP3    H219306   6.475   4.692   0.706
 6455TIP3   OH219307   1.286   6.130   6.751
 6455TIP3    H119308   1.247   6.186   6.817
 6455TIP3    H219309   1.215   6.115   6.688
 6456TIP3   OH219310   1.731   6.782   2.916
 6456TIP3    H119311   1.748   6.788   3.010
 6456TIP3    H219312   1.808   6.821   2.875
 6457TIP3   OH219313   0.657   6.145   0.715
 6457TIP3    H119314   0.700   6.081   0.658
 6457TIP3    H219315   0.673   6.113   0.804
 6458TIP3   OH219316   2.021   1.122   3.197
 6458TIP3    H119317   2.094   1.104   3.138
 6458TIP3    H219318   2.015   1.044   3.252
 6459TIP3   OH219319   1.133   4.206   5.645
 6459TIP3    H119320   1.156   4.178   5.557
 6459TIP3    H219321   1.216   4.209   5.692
 6460TIP3   OH219322   4.796   0.256   4.395
 6460TIP3    H119323   4.847   0.331   4.365
 6460TIP3    H219324   4.774   0.278   4.486
 6461TIP3   OH219325   6.355   5.335   0.738
 6461TIP3    H119326   6.360   5.394   0.663
 6461TIP3    H219327   6.442   5.341   0.779
 6462TIP3   OH219328   2.152   3.402   6.464
 6462TIP3    H119329   2.058   3.417   6.453
 6462TIP3    H219330   2.190   3.490   6.467
 6463TIP3   OH219331   5.959   4.137   4.091
 6463TIP3    H119332   5.943   4.043   4.086
 6463TIP3    H219333   5.884   4.172   4.138
 6464TIP3   OH219334   5.550   7.346   2.762
 6464TIP3    H119335   5.494   7.278   2.800
 6464TIP3    H219336   5.492   7.421   2.749
 6465TIP3   OH219337   4.844   7.079   1.842
 6465TIP3    H119338   4.888   7.164   1.836
 6465TIP3    H219339   4.893   7.031   1.909
 6466TIP3   OH219340   1.078   6.707   2.998
 6466TIP3    H119341   1.036   6.783   3.038
 6466TIP3    H219342   1.020   6.685   2.925
 6467TIP3   OH219343   5.445   6.655   1.219
 6467TIP3    H119344   5.510   6.696   1.162
 6467TIP3    H219345   5.400   6.728   1.261
 6468TIP3   OH219346   7.488   2.871   6.722
 6468TIP3    H119347   7.425   2.942   6.713
 6468TIP3    H219348   7.436   2.795   6.748
 6469TIP3   OH219349   4.083   6.499   5.145
 6469TIP3    H119350   4.104   6.575   5.092
 6469TIP3    H219351   4.135   6.428   5.108
 6470TIP3   OH219352   0.854   5.149   0.210
 6470TIP3    H119353   0.910   5.130   0.135
 6470TIP3    H219354   0.910   5.198   0.270
 6471TIP3   OH219355   3.519   0.404   1.006
 6471TIP3    H119356   3.499   0.484   1.055
 6471TIP3    H219357   3.614   0.402   1.001
 6472TIP3   OH219358   3.432   7.512   0.951
 6472TIP3    H119359   3.372   7.584   0.972
 6472TIP3    H219360   3.379   7.433   0.961
 6473TIP3   OH219361   2.186   4.796   5.299
 6473TIP3    H119362   2.091   4.801   5.302
 6473TIP3    H219363   2.216   4.882   5.326
 6474TIP3   OH219364   3.609   3.713   2.039
 6474TIP3    H119365   3.672   3.684   2.105
 6474TIP3    H219366   3.548   3.641   2.029
 6475TIP3   OH219367   4.223   2.543   4.344
 6475TIP3    H119368   4.178   2.468   4.382
 6475TIP3    H219369   4.162   2.616   4.353
 6476TIP3   OH219370   1.811   1.068   6.137
 6476TIP3    H119371   1.716   1.076   6.133
 6476TIP3    H219372   1.839   1.071   6.046
 6477TIP3   OH219373   7.770   0.080   1.504
 6477TIP3    H119374   7.750   0.039   1.420
 6477TIP3    H219375   7.863   0.102   1.499
 6478TIP3   OH219376   2.179   2.219   5.707
 6478TIP3    H119377   2.195   2.313   5.700
 6478TIP3    H219378   2.257   2.184   5.750
 6479TIP3   OH219379   1.767   5.312   2.345
 6479TIP3    H119380   1.738   5.334   2.433
 6479TIP3    H219381   1.852   5.270   2.358
 6480TIP3   OH219382   1.379   1.878   5.101
 6480TIP3    H119383   1.345   1.789   5.093
 6480TIP3    H219384   1.470   1.866   5.127
 6481TIP3   OH219385   4.537   0.482   4.810
 6481TIP3    H119386   4.540   0.447   4.899
 6481TIP3    H219387   4.455   0.448   4.774
 6482TIP3   OH219388   0.628   7.766   4.618
 6482TIP3    H119389   0.678   7.728   4.689
 6482TIP3    H219390   0.651   7.859   4.618
 6483TIP3   OH219391   0.253   3.865   5.924
 6483TIP3    H119392   0.203   3.784   5.920
 6483TIP3    H219393   0.303   3.859   6.006
 6484TIP3   OH219394   6.622   7.192   0.316
 6484TIP3    H119395   6.550   7.256   0.315
 6484TIP3    H219396   6.613   7.146   0.232
 6485TIP3   OH219397   5.269   1.151   5.712
 6485TIP3    H119398   5.286   1.072   5.661
 6485TIP3    H219399   5.211   1.122   5.783
 6486TIP3   OH219400   3.468   0.229   4.651
 6486TIP3    H119401   3.379   0.218   4.683
 6486TIP3    H219402   3.475   0.323   4.631
 6487TIP3   OH219403   3.981   5.577   3.597
 6487TIP3    H119404   4.061   5.560   3.547
 6487TIP3    H219405   3.968   5.497   3.648
 6488TIP3   OH219406   8.165   3.529   6.748
 6488TIP3    H119407   8.237   3.483   6.792
 6488TIP3    H219408   8.209   3.579   6.679
 6489TIP3   OH219409   0.834   7.764   1.696
 6489TIP3    H119410   0.856   7.786   1.786
 6489TIP3    H219411   0.757   7.818   1.677
 6490TIP3   OH219412   4.283   4.773   0.272
 6490TIP3    H119413   4.323   4.730   0.196
 6490TIP3    H219414   4.268   4.863   0.244
 6491TIP3   OH219415   6.358   5.711   3.059
 6491TIP3    H119416   6.361   5.696   3.154
 6491TIP3    H219417   6.268   5.740   3.042
 6492TIP3   OH219418   7.807   4.360   1.814
 6492TIP3    H119419   7.843   4.278   1.847
 6492TIP3    H219420   7.715   4.358   1.841
 6493TIP3   OH219421   0.539   0.298   6.317
 6493TIP3    H119422   0.632   0.299   6.336
 6493TIP3    H219423   0.502   0.370   6.368
 6494TIP3   OH219424   3.958   4.993   0.672
 6494TIP3    H119425   3.931   4.963   0.585
 6494TIP3    H219426   3.937   5.086   0.673
 6495TIP3   OH219427   2.221   1.103   4.054
 6495TIP3    H119428   2.261   1.150   3.980
 6495TIP3    H219429   2.128   1.122   4.046
 6496TIP3   OH219430   3.126   7.113   0.669
 6496TIP3    H119431   3.158   7.092   0.756
 6496TIP3    H219432   3.033   7.135   0.682
 6497TIP3   OH219433   8.267   5.169   1.213
 6497TIP3    H119434   8.332   5.118   1.165
 6497TIP3    H219435   8.281   5.148   1.305
 6498TIP3   OH219436   5.126   5.479   6.546
 6498TIP3    H119437   5.063   5.545   6.575
 6498TIP3    H219438   5.073   5.407   6.514
 6499TIP3   OH219439   5.165   3.701   6.017
 6499TIP3    H119440   5.205   3.738   5.939
 6499TIP3    H219441   5.112   3.771   6.054
 6500TIP3   OH219442   0.189   5.766   5.075
 6500TIP3    H119443   0.266   5.813   5.108
 6500TIP3    H219444   0.209   5.751   4.982
 6501TIP3   OH219445   0.696   0.389   5.629
 6501TIP3    H119446   0.746   0.360   5.553
 6501TIP3    H219447   0.698   0.485   5.624
 6502TIP3   OH219448   6.870   6.058   6.531
 6502TIP3    H119449   6.871   6.004   6.452
 6502TIP3    H219450   6.921   6.008   6.595
 6503TIP3   OH219451   6.218   1.836   4.568
 6503TIP3    H119452   6.244   1.901   4.503
 6503TIP3    H219453   6.140   1.795   4.532
 6504TIP3   OH219454   5.259   0.334   5.175
 6504TIP3    H119455   5.184   0.367   5.226
 6504TIP3    H219456   5.271   0.398   5.105
 6505TIP3   OH219457   1.690   6.469   0.578
 6505TIP3    H119458   1.625   6.428   0.635
 6505TIP3    H219459   1.756   6.401   0.563
 6506TIP3   OH219460   4.543   3.707   6.281
 6506TIP3    H119461   4.472   3.679   6.224
 6506TIP3    H219462   4.618   3.654   6.255
 6507TIP3   OH219463   4.517   5.057   5.956
 6507TIP3    H119464   4.467   5.080   6.035
 6507TIP3    H219465   4.452   5.024   5.895
 6508TIP3   OH219466   2.852   2.066   1.475
 6508TIP3    H119467   2.773   2.084   1.526
 6508TIP3    H219468   2.822   2.021   1.397
 6509TIP3   OH219469   2.389   6.610   5.767
 6509TIP3    H119470   2.296   6.594   5.780
 6509TIP3    H219471   2.395   6.705   5.754
 6510TIP3   OH219472   2.051   7.734   5.907
 6510TIP3    H119473   2.072   7.745   5.999
 6510TIP3    H219474   1.983   7.666   5.906
 6511TIP3   OH219475   7.545   1.950   2.711
 6511TIP3    H119476   7.552   2.019   2.777
 6511TIP3    H219477   7.556   1.997   2.628
 6512TIP3   OH219478   1.485   7.307   4.289
 6512TIP3    H119479   1.458   7.344   4.205
 6512TIP3    H219480   1.489   7.383   4.348
 6513TIP3   OH219481   1.413   0.124   0.471
 6513TIP3    H119482   1.454   0.103   0.387
 6513TIP3    H219483   1.413   0.040   0.518
 6514TIP3   OH219484   1.450   6.106   4.342
 6514TIP3    H119485   1.413   6.096   4.254
 6514TIP3    H219486   1.492   6.022   4.360
 6515TIP3   OH219487   5.161   6.674   6.210
 6515TIP3    H119488   5.195   6.628   6.287
 6515TIP3    H219489   5.176   6.613   6.137
 6516TIP3   OH219490   5.844   0.233   0.598
 6516TIP3    H119491   5.902   0.308   0.612
 6516TIP3    H219492   5.817   0.205   0.686
 6517TIP3   OH219493   7.390   7.489   5.476
 6517TIP3    H119494   7.380   7.583   5.459
 6517TIP3    H219495   7.316   7.467   5.533
 6518TIP3   OH219496   3.150   7.273   6.081
 6518TIP3    H119497   3.066   7.281   6.126
 6518TIP3    H219498   3.212   7.249   6.150
 6519TIP3   OH219499   3.381   6.872   1.747
 6519TIP3    H119500   3.373   6.959   1.786
 6519TIP3    H219501   3.373   6.887   1.653
 6520TIP3   OH219502   4.029   7.704   5.663
 6520TIP3    H119503   4.119   7.730   5.680
 6520TIP3    H219504   4.036   7.613   5.633
 6521TIP3   OH219505   5.869   3.444   1.256
 6521TIP3    H119506   5.854   3.366   1.309
 6521TIP3    H219507   5.801   3.506   1.284
 6522TIP3   OH219508   2.631   3.962   0.965
 6522TIP3    H119509   2.610   4.013   1.043
 6522TIP3    H219510   2.666   4.026   0.903
 6523TIP3   OH219511   1.668   3.481   5.231
 6523TIP3    H119512   1.627   3.539   5.167
 6523TIP3    H219513   1.686   3.400   5.183
 6524TIP3   OH219514   6.458   6.038   4.051
 6524TIP3    H119515   6.524   6.107   4.045
 6524TIP3    H219516   6.376   6.084   4.070
 6525TIP3   OH219517   1.794   2.398   1.422
 6525TIP3    H119518   1.715   2.354   1.389
 6525TIP3    H219519   1.830   2.337   1.486
 6526TIP3   OH219520   7.980   6.843   2.677
 6526TIP3    H119521   8.040   6.837   2.752
 6526TIP3    H219522   8.026   6.899   2.614
 6527TIP3   OH219523   0.056   2.021   4.536
 6527TIP3    H119524   0.059   1.941   4.588
 6527TIP3    H219525   0.000   1.999   4.461
 6528TIP3   OH219526   2.627   1.999   5.900
 6528TIP3    H119527   2.683   1.953   5.962
 6528TIP3    H219528   2.687   2.052   5.848
 6529TIP3   OH219529   6.025   4.567   4.887
 6529TIP3    H119530   6.009   4.652   4.927
 6529TIP3    H219531   6.007   4.581   4.794
 6530TIP3   OH219532   7.283   3.244   0.862
 6530TIP3    H119533   7.327   3.215   0.942
 6530TIP3    H219534   7.321   3.190   0.793
 6531TIP3   OH219535   4.838   7.403   0.887
 6531TIP3    H119536   4.914   7.390   0.831
 6531TIP3    H219537   4.768   7.353   0.845
 6532TIP3   OH219538   1.291   4.934   3.509
 6532TIP3    H119539   1.369   4.929   3.453
 6532TIP3    H219540   1.324   4.916   3.597
 6533TIP3   OH219541   4.659   0.154   2.837
 6533TIP3    H119542   4.666   0.227   2.776
 6533TIP3    H219543   4.610   0.087   2.790
 6534TIP3   OH219544   3.571   6.408   2.593
 6534TIP3    H119545   3.590   6.376   2.505
 6534TIP3    H219546   3.651   6.389   2.642
 6535TIP3   OH219547   3.553   4.737   1.227
 6535TIP3    H119548   3.470   4.731   1.181
 6535TIP3    H219549   3.618   4.706   1.164
 6536TIP3   OH219550   3.081   5.261   0.783
 6536TIP3    H119551   2.992   5.228   0.771
 6536TIP3    H219552   3.073   5.356   0.779
 6537TIP3   OH219553   2.852   4.552   2.350
 6537TIP3    H119554   2.926   4.505   2.387
 6537TIP3    H219555   2.891   4.622   2.298
 6538TIP3   OH219556   0.537   7.803   2.908
 6538TIP3    H119557   0.507   7.722   2.950
 6538TIP3    H219558   0.534   7.785   2.814
 6539TIP3   OH219559   7.375   3.619   1.151
 6539TIP3    H119560   7.389   3.555   1.081
 6539TIP3    H219561   7.379   3.567   1.231
 6540TIP3   OH219562   5.606   2.614   5.898
 6540TIP3    H119563   5.526   2.632   5.850
 6540TIP3    H219564   5.598   2.666   5.978
 6541TIP3   OH219565   0.653   0.587   4.239
 6541TIP3    H119566   0.634   0.670   4.281
 6541TIP3    H219567   0.727   0.606   4.181
 6542TIP3   OH219568   6.000   1.971   6.595
 6542TIP3    H119569   5.999   1.992   6.502
 6542TIP3    H219570   5.909   1.950   6.616
 6543TIP3   OH219571   7.123   1.244   5.966
 6543TIP3    H119572   7.217   1.234   5.978
 6543TIP3    H219573   7.094   1.290   6.044
 6544TIP3   OH219574   7.746   5.353   3.811
 6544TIP3    H119575   7.766   5.295   3.738
 6544TIP3    H219576   7.652   5.346   3.822
 6545TIP3   OH219577   3.308   2.618   5.663
 6545TIP3    H119578   3.320   2.599   5.570
 6545TIP3    H219579   3.217   2.594   5.682
 6546TIP3   OH219580   4.533   5.695   5.311
 6546TIP3    H119581   4.495   5.632   5.249
 6546TIP3    H219582   4.507   5.663   5.397
 6547TIP3   OH219583   7.593   1.917   0.513
 6547TIP3    H119584   7.635   1.933   0.598
 6547TIP3    H219585   7.588   1.822   0.506
 6548TIP3   OH219586   6.826   3.270   0.824
 6548TIP3    H119587   6.906   3.296   0.779
 6548TIP3    H219588   6.786   3.206   0.765
 6549TIP3   OH219589   6.098   3.904   1.428
 6549TIP3    H119590   6.077   3.932   1.517
 6549TIP3    H219591   6.023   3.849   1.402
 6550TIP3   OH219592   6.094   7.330   2.375
 6550TIP3    H119593   6.106   7.418   2.340
 6550TIP3    H219594   6.071   7.344   2.467
 6551TIP3   OH219595   0.203   1.999   0.685
 6551TIP3    H119596   0.154   2.003   0.767
 6551TIP3    H219597   0.145   1.953   0.625
 6552TIP3   OH219598   1.558   1.285   1.129
 6552TIP3    H119599   1.639   1.248   1.095
 6552TIP3    H219600   1.576   1.378   1.141
 6553TIP3   OH219601   2.137   0.614   1.666
 6553TIP3    H119602   2.100   0.686   1.616
 6553TIP3    H219603   2.176   0.656   1.743
 6554TIP3   OH219604   6.399   1.544   0.845
 6554TIP3    H119605   6.402   1.638   0.863
 6554TIP3    H219606   6.307   1.520   0.857
 6555TIP3   OH219607   7.639   2.448   6.281
 6555TIP3    H119608   7.655   2.445   6.375
 6555TIP3    H219609   7.666   2.361   6.249
 6556TIP3   OH219610   5.650   6.093   1.048
 6556TIP3    H119611   5.722   6.081   1.109
 6556TIP3    H219612   5.640   6.008   1.005
 6557TIP3   OH219613   4.229   6.033   3.181
 6557TIP3    H119614   4.212   5.946   3.217
 6557TIP3    H219615   4.321   6.051   3.203
 6558TIP3   OH219616   5.769   3.378   4.039
 6558TIP3    H119617   5.724   3.322   4.102
 6558TIP3    H219618   5.835   3.321   3.999
 6559TIP3   OH219619   2.246   0.081   5.009
 6559TIP3    H119620   2.327   0.131   5.008
 6559TIP3    H219621   2.185   0.132   4.957
 6560TIP3   OH219622   4.776   4.208   5.809
 6560TIP3    H119623   4.816   4.278   5.860
 6560TIP3    H219624   4.700   4.181   5.861
 6561TIP3   OH219625   7.413   0.234   3.703
 6561TIP3    H119626   7.364   0.314   3.683
 6561TIP3    H219627   7.358   0.188   3.767
 6562TIP3   OH219628   4.408   0.885   0.457
 6562TIP3    H119629   4.458   0.811   0.491
 6562TIP3    H219630   4.331   0.846   0.416
 6563TIP3   OH219631   5.099   4.575   4.078
 6563TIP3    H119632   5.022   4.518   4.075
 6563TIP3    H219633   5.064   4.660   4.104
 6564TIP3   OH219634   1.654   4.811   3.923
 6564TIP3    H119635   1.592   4.874   3.960
 6564TIP3    H219636   1.726   4.864   3.889
 6565TIP3   OH219637   6.869   7.146   6.297
 6565TIP3    H119638   6.907   7.073   6.346
 6565TIP3    H219639   6.891   7.223   6.349
 6566TIP3   OH219640   7.237   4.435   4.818
 6566TIP3    H119641   7.332   4.444   4.810
 6566TIP3    H219642   7.214   4.367   4.754
 6567TIP3   OH219643   7.008   6.108   1.988
 6567TIP3    H119644   6.970   6.068   1.910
 6567TIP3    H219645   6.977   6.198   1.987
 6568TIP3   OH219646   3.225   4.971   1.624
 6568TIP3    H119647   3.257   5.043   1.569
 6568TIP3    H219648   3.140   4.949   1.586
 6569TIP3   OH219649   8.035   3.992   1.627
 6569TIP3    H119650   8.112   4.013   1.679
 6569TIP3    H219651   7.961   4.022   1.679
 6570TIP3   OH219652   3.831   7.792   3.044
 6570TIP3    H119653   3.835   7.769   2.951
 6570TIP3    H219654   3.922   7.813   3.067
 6571TIP3   OH219655   6.401   1.891   5.486
 6571TIP3    H119656   6.354   1.808   5.472
 6571TIP3    H219657   6.381   1.914   5.577
 6572TIP3   OH219658   0.912   6.901   5.027
 6572TIP3    H119659   0.962   6.901   4.946
 6572TIP3    H219660   0.958   6.838   5.083
 6573TIP3   OH219661   1.953   7.209   1.679
 6573TIP3    H119662   1.984   7.299   1.693
 6573TIP3    H219663   1.869   7.220   1.635
 6574TIP3   OH219664   2.054   4.196   4.464
 6574TIP3    H119665   2.040   4.139   4.388
 6574TIP3    H219666   2.054   4.137   4.539
 6575TIP3   OH219667   1.865   2.468   3.963
 6575TIP3    H119668   1.849   2.505   3.876
 6575TIP3    H219669   1.823   2.382   3.961
 6576TIP3   OH219670   1.581   5.771   5.319
 6576TIP3    H119671   1.604   5.860   5.291
 6576TIP3    H219672   1.664   5.723   5.314
 6577TIP3   OH219673   7.808   3.725   3.353
 6577TIP3    H119674   7.846   3.663   3.292
 6577TIP3    H219675   7.869   3.727   3.427
 6578TIP3   OH219676   3.112   7.340   3.015
 6578TIP3    H119677   3.074   7.312   3.099
 6578TIP3    H219678   3.037   7.348   2.956
 6579TIP3   OH219679   7.066   5.712   6.189
 6579TIP3    H119680   6.973   5.735   6.187
 6579TIP3    H219681   7.072   5.631   6.139
 6580TIP3   OH219682   3.703   5.590   3.561
 6580TIP3    H119683   3.675   5.533   3.489
 6580TIP3    H219684   3.797   5.602   3.547
 6581TIP3   OH219685   6.564   4.348   6.631
 6581TIP3    H119686   6.523   4.402   6.563
 6581TIP3    H219687   6.510   4.270   6.635
 6582TIP3   OH219688   7.197   6.323   5.081
 6582TIP3    H119689   7.173   6.242   5.036
 6582TIP3    H219690   7.255   6.367   5.019
 6583TIP3   OH219691   3.627   4.409   0.322
 6583TIP3    H119692   3.653   4.443   0.408
 6583TIP3    H219693   3.702   4.357   0.293
 6584TIP3   OH219694   1.050   7.754   5.884
 6584TIP3    H119695   1.037   7.690   5.954
 6584TIP3    H219696   1.144   7.775   5.888
 6585TIP3   OH219697   1.442   3.306   3.470
 6585TIP3    H119698   1.367   3.365   3.468
 6585TIP3    H219699   1.502   3.344   3.534
 6586TIP3   OH219700   3.902   2.944   0.424
 6586TIP3    H119701   3.847   2.919   0.499
 6586TIP3    H219702   3.871   2.887   0.352
 6587TIP3   OH219703   0.107   4.767   2.581
 6587TIP3    H119704   0.103   4.851   2.627
 6587TIP3    H219705   0.049   4.778   2.505
 6588TIP3   OH219706   4.801   5.594   5.245
 6588TIP3    H119707   4.749   5.514   5.234
 6588TIP3    H219708   4.744   5.651   5.297
 6589TIP3   OH219709   6.572   6.307   5.601
 6589TIP3    H119710   6.544   6.294   5.511
 6589TIP3    H219711   6.591   6.219   5.634
 6590TIP3   OH219712   7.980   6.977   4.096
 6590TIP3    H119713   7.891   7.012   4.090
 6590TIP3    H219714   8.010   7.006   4.182
 6591TIP3   OH219715   3.711   2.356   6.334
 6591TIP3    H119716   3.690   2.267   6.306
 6591TIP3    H219717   3.743   2.400   6.255
 6592TIP3   OH219718   5.214   5.721   1.288
 6592TIP3    H119719   5.220   5.810   1.321
 6592TIP3    H219720   5.137   5.722   1.231
 6593TIP3   OH219721   6.823   0.173   2.810
 6593TIP3    H119722   6.869   0.153   2.728
 6593TIP3    H219723   6.785   0.260   2.795
 6594TIP3   OH219724   1.094   0.537   0.723
 6594TIP3    H119725   1.147   0.611   0.696
 6594TIP3    H219726   1.149   0.460   0.706
 6595TIP3   OH219727   0.288   1.976   5.882
 6595TIP3    H119728   0.330   2.041   5.825
 6595TIP3    H219729   0.196   1.977   5.857
 6596TIP3   OH219730   5.000   5.174   1.477
 6596TIP3    H119731   4.929   5.204   1.421
 6596TIP3    H219732   5.025   5.089   1.440
 6597TIP3   OH219733   1.830   6.660   1.993
 6597TIP3    H119734   1.793   6.683   1.907
 6597TIP3    H219735   1.917   6.698   1.993
 6598TIP3   OH219736   2.247   7.017   4.819
 6598TIP3    H119737   2.332   7.011   4.774
 6598TIP3    H219738   2.259   6.966   4.899
 6599TIP3   OH219739   1.007   6.752   1.094
 6599TIP3    H119740   0.923   6.781   1.130
 6599TIP3    H219741   1.072   6.803   1.141
 6600TIP3   OH219742   3.477   0.941   5.220
 6600TIP3    H119743   3.496   0.959   5.312
 6600TIP3    H219744   3.530   0.864   5.199
 6601TIP3   OH219745   7.404   3.855   1.626
 6601TIP3    H119746   7.406   3.762   1.602
 6601TIP3    H219747   7.333   3.892   1.573
 6602TIP3   OH219748   2.949   4.955   3.997
 6602TIP3    H119749   2.962   5.025   3.933
 6602TIP3    H219750   2.872   4.908   3.966
 6603TIP3   OH219751   8.247   4.901   4.931
 6603TIP3    H119752   8.188   4.829   4.955
 6603TIP3    H219753   8.218   4.974   4.985
 6604TIP3   OH219754   6.038   1.370   5.661
 6604TIP3    H119755   5.945   1.374   5.686
 6604TIP3    H219756   6.057   1.276   5.659
 6605TIP3   OH219757   2.053   0.698   0.318
 6605TIP3    H119758   1.959   0.683   0.331
 6605TIP3    H219759   2.070   0.668   0.229
 6606TIP3   OH219760   4.173   1.680   1.216
 6606TIP3    H119761   4.079   1.689   1.232
 6606TIP3    H219762   4.197   1.759   1.167
 6607TIP3   OH219763   5.923   4.378   1.387
 6607TIP3    H119764   5.936   4.358   1.479
 6607TIP3    H219765   5.972   4.310   1.340
 6608TIP3   OH219766   7.682   5.889   0.749
 6608TIP3    H119767   7.726   5.855   0.671
 6608TIP3    H219768   7.675   5.814   0.807
 6609TIP3   OH219769   3.325   2.289   1.259
 6609TIP3    H119770   3.350   2.333   1.177
 6609TIP3    H219771   3.260   2.348   1.297
 6610TIP3   OH219772   5.288   1.832   4.629
 6610TIP3    H119773   5.235   1.903   4.593
 6610TIP3    H219774   5.374   1.842   4.587
 6611TIP3   OH219775   1.483   5.417   5.158
 6611TIP3    H119776   1.478   5.439   5.251
 6611TIP3    H219777   1.416   5.350   5.146
 6612TIP3   OH219778   6.067   4.845   2.182
 6612TIP3    H119779   6.047   4.931   2.219
 6612TIP3    H219780   5.987   4.794   2.194
 6613TIP3   OH219781   7.225   2.656   1.425
 6613TIP3    H119782   7.224   2.631   1.518
 6613TIP3    H219783   7.252   2.577   1.379
 6614TIP3   OH219784   7.741   6.905   3.205
 6614TIP3    H119785   7.666   6.870   3.253
 6614TIP3    H219786   7.813   6.848   3.227
 6615TIP3   OH219787   2.081   4.997   4.092
 6615TIP3    H119788   2.076   5.013   4.187
 6615TIP3    H219789   2.053   5.079   4.052
 6616TIP3   OH219790   4.483   7.521   0.887
 6616TIP3    H119791   4.418   7.451   0.878
 6616TIP3    H219792   4.551   7.499   0.823
 6617TIP3   OH219793   6.566   0.508   3.735
 6617TIP3    H119794   6.572   0.448   3.660
 6617TIP3    H219795   6.591   0.593   3.699
 6618TIP3   OH219796   2.874   6.779   4.183
 6618TIP3    H119797   2.810   6.776   4.254
 6618TIP3    H219798   2.926   6.858   4.201
 6619TIP3   OH219799   1.725   5.969   0.903
 6619TIP3    H119800   1.693   6.005   0.985
 6619TIP3    H219801   1.772   5.889   0.929
 6620TIP3   OH219802   4.009   0.635   4.532
 6620TIP3    H119803   3.974   0.716   4.495
 6620TIP3    H219804   3.992   0.569   4.464
 6621TIP3   OH219805   1.840   6.174   0.768
 6621TIP3    H119806   1.817   6.085   0.794
 6621TIP3    H219807   1.802   6.230   0.836
 6622TIP3   OH219808   3.820   4.813   0.804
 6622TIP3    H119809   3.743   4.804   0.749
 6622TIP3    H219810   3.874   4.879   0.760
 6623TIP3   OH219811   5.574   5.069   1.055
 6623TIP3    H119812   5.658   5.057   1.101
 6623TIP3    H219813   5.599   5.088   0.965
 6624TIP3   OH219814   1.509   5.020   1.427
 6624TIP3    H119815   1.521   5.097   1.481
 6624TIP3    H219816   1.554   4.949   1.474
 6625TIP3   OH219817   8.110   1.225   5.716
 6625TIP3    H119818   8.155   1.288   5.659
 6625TIP3    H219819   8.177   1.197   5.778
 6626TIP3   OH219820   5.566   4.430   3.395
 6626TIP3    H119821   5.522   4.513   3.376
 6626TIP3    H219822   5.496   4.373   3.427
 6627TIP3   OH219823   8.084   4.194   1.001
 6627TIP3    H119824   8.030   4.243   1.062
 6627TIP3    H219825   8.044   4.210   0.915
 6628TIP3   OH219826   4.697   5.234   6.457
 6628TIP3    H119827   4.722   5.145   6.482
 6628TIP3    H219828   4.703   5.234   6.361
 6629TIP3   OH219829   1.099   2.811   0.839
 6629TIP3    H119830   1.033   2.759   0.793
 6629TIP3    H219831   1.142   2.861   0.771
 6630TIP3   OH219832   6.605   3.055   1.049
 6630TIP3    H119833   6.572   2.969   1.020
 6630TIP3    H219834   6.698   3.040   1.066
 6631TIP3   OH219835   4.385   6.752   6.772
 6631TIP3    H119836   4.314   6.705   6.728
 6631TIP3    H219837   4.350   6.840   6.787
 6632TIP3   OH219838   0.445   7.601   1.416
 6632TIP3    H119839   0.359   7.560   1.426
 6632TIP3    H219840   0.507   7.535   1.447
 6633TIP3   OH219841   4.849   2.194   6.544
 6633TIP3    H119842   4.927   2.249   6.554
 6633TIP3    H219843   4.779   2.256   6.520
 6634TIP3   OH219844   3.528   5.841   5.875
 6634TIP3    H119845   3.502   5.906   5.941
 6634TIP3    H219846   3.479   5.762   5.898
 6635TIP3   OH219847   2.242   6.757   3.122
 6635TIP3    H119848   2.274   6.676   3.083
 6635TIP3    H219849   2.307   6.823   3.097
 6636TIP3   OH219850   7.352   0.633   1.480
 6636TIP3    H119851   7.378   0.591   1.563
 6636TIP3    H219852   7.425   0.692   1.460
 6637TIP3   OH219853   1.607   1.519   3.021
 6637TIP3    H119854   1.689   1.488   3.060
 6637TIP3    H219855   1.539   1.476   3.073
 6638TIP3   OH219856   0.231   6.715   4.475
 6638TIP3    H119857   0.278   6.786   4.519
 6638TIP3    H219858   0.139   6.729   4.497
 6639TIP3   OH219859   1.720   3.630   2.212
 6639TIP3    H119860   1.753   3.715   2.241
 6639TIP3    H219861   1.706   3.641   2.118
 6640TIP3   OH219862   5.762   2.621   4.884
 6640TIP3    H119863   5.826   2.602   4.815
 6640TIP3    H219864   5.679   2.588   4.851
 6641TIP3   OH219865   0.860   5.808   1.162
 6641TIP3    H119866   0.876   5.819   1.256
 6641TIP3    H219867   0.839   5.897   1.131
 6642TIP3   OH219868   2.808   3.395   6.749
 6642TIP3    H119869   2.853   3.382   6.833
 6642TIP3    H219870   2.879   3.404   6.685
 6643TIP3   OH219871   6.970   0.723   1.991
 6643TIP3    H119872   6.959   0.729   1.896
 6643TIP3    H219873   6.963   0.630   2.010
 6644TIP3   OH219874   5.365   6.965   5.270
 6644TIP3    H119875   5.450   7.009   5.278
 6644TIP3    H219876   5.300   7.034   5.280
 6645TIP3   OH219877   1.848   6.430   6.295
 6645TIP3    H119878   1.855   6.522   6.320
 6645TIP3    H219879   1.923   6.387   6.337
 6646TIP3   OH219880   6.217   4.392   1.908
 6646TIP3    H119881   6.273   4.332   1.860
 6646TIP3    H219882   6.234   4.372   2.000
 6647TIP3   OH219883   2.803   7.269   0.139
 6647TIP3    H119884   2.850   7.205   0.086
 6647TIP3    H219885   2.852   7.272   0.221
 6648TIP3   OH219886   6.981   2.229   3.081
 6648TIP3    H119887   6.978   2.142   3.042
 6648TIP3    H219888   7.074   2.249   3.087
 6649TIP3   OH219889   3.069   3.523   4.738
 6649TIP3    H119890   3.029   3.441   4.708
 6649TIP3    H219891   2.995   3.581   4.755
 6650TIP3   OH219892   1.451   1.688   5.795
 6650TIP3    H119893   1.534   1.670   5.839
 6650TIP3    H219894   1.395   1.725   5.863
 6651TIP3   OH219895   1.813   2.205   2.123
 6651TIP3    H119896   1.780   2.181   2.036
 6651TIP3    H219897   1.777   2.138   2.181
 6652TIP3   OH219898   8.261   6.931   4.564
 6652TIP3    H119899   8.259   6.912   4.657
 6652TIP3    H219900   8.252   6.846   4.521
 6653TIP3   OH219901   2.870   6.594   6.208
 6653TIP3    H119902   2.887   6.638   6.125
 6653TIP3    H219903   2.801   6.531   6.187
 6654TIP3   OH219904   2.109   6.070   1.433
 6654TIP3    H119905   2.043   6.137   1.414
 6654TIP3    H219906   2.175   6.115   1.486
 6655TIP3   OH219907   7.424   0.511   2.726
 6655TIP3    H119908   7.475   0.432   2.707
 6655TIP3    H219909   7.341   0.498   2.681
 6656TIP3   OH219910   4.856   3.835   2.437
 6656TIP3    H119911   4.855   3.905   2.371
 6656TIP3    H219912   4.772   3.790   2.425
 6657TIP3   OH219913   4.932   3.824   6.171
 6657TIP3    H119914   4.912   3.917   6.175
 6657TIP3    H219915   4.875   3.789   6.103
 6658TIP3   OH219916   0.923   0.601   1.286
 6658TIP3    H119917   0.915   0.617   1.192
 6658TIP3    H219918   0.960   0.512   1.292
 6659TIP3   OH219919   0.227   6.972   5.242
 6659TIP3    H119920   0.186   7.053   5.272
 6659TIP3    H219921   0.175   6.902   5.281
 6660TIP3   OH219922   4.076   5.462   2.129
 6660TIP3    H119923   4.172   5.463   2.135
 6660TIP3    H219924   4.058   5.440   2.038
 6661TIP3   OH219925   5.248   1.318   6.142
 6661TIP3    H119926   5.201   1.247   6.187
 6661TIP3    H219927   5.340   1.295   6.152
 6662TIP3   OH219928   3.394   3.268   1.408
 6662TIP3    H119929   3.363   3.349   1.447
 6662TIP3    H219930   3.353   3.199   1.460
 6663TIP3   OH219931   2.557   4.158   2.427
 6663TIP3    H119932   2.652   4.150   2.414
 6663TIP3    H219933   2.535   4.244   2.392
 6664TIP3   OH219934   7.751   0.544   0.229
 6664TIP3    H119935   7.787   0.546   0.140
 6664TIP3    H219936   7.828   0.536   0.286
 6665TIP3   OH219937   5.455   4.347   2.349
 6665TIP3    H119938   5.369   4.326   2.386
 6665TIP3    H219939   5.437   4.371   2.259
 6666TIP3   OH219940   4.148   3.503   3.825
 6666TIP3    H119941   4.215   3.440   3.852
 6666TIP3    H219942   4.196   3.581   3.798
 6667TIP3   OH219943   5.808   5.268   3.015
 6667TIP3    H119944   5.891   5.230   2.987
 6667TIP3    H219945   5.741   5.208   2.981
 6668TIP3   OH219946   5.608   0.026   1.856
 6668TIP3    H119947   5.619  -0.011   1.943
 6668TIP3    H219948   5.696   0.046   1.827
 6669TIP3   OH219949   0.016   3.684   1.490
 6669TIP3    H119950   0.040   3.707   1.400
 6669TIP3    H219951   0.064   3.603   1.507
 6670TIP3   OH219952   2.950   1.665   1.917
 6670TIP3    H119953   3.003   1.613   1.857
 6670TIP3    H219954   2.935   1.608   1.993
 6671TIP3   OH219955   7.096   6.587   0.179
 6671TIP3    H119956   7.165   6.595   0.245
 6671TIP3    H219957   7.041   6.665   0.191
 6672TIP3   OH219958   1.936   1.534   3.784
 6672TIP3    H119959   1.985   1.612   3.810
 6672TIP3    H219960   1.877   1.564   3.715
 6673TIP3   OH219961   8.086   2.919   6.330
 6673TIP3    H119962   8.128   2.850   6.279
 6673TIP3    H219963   7.992   2.905   6.316
 6674TIP3   OH219964   0.593   6.112   4.000
 6674TIP3    H119965   0.517   6.092   4.055
 6674TIP3    H219966   0.655   6.041   4.017
 6675TIP3   OH219967   4.965   6.328   3.697
 6675TIP3    H119968   4.944   6.288   3.782
 6675TIP3    H219969   4.937   6.419   3.706
 6676TIP3   OH219970   1.643   3.292   6.052
 6676TIP3    H119971   1.715   3.334   6.006
 6676TIP3    H219972   1.670   3.201   6.063
 6677TIP3   OH219973   2.949   7.742   4.935
 6677TIP3    H119974   3.010   7.813   4.955
 6677TIP3    H219975   2.981   7.667   4.985
 6678TIP3   OH219976   2.697   4.836   3.954
 6678TIP3    H119977   2.694   4.805   3.864
 6678TIP3    H219978   2.685   4.757   4.007
 6679TIP3   OH219979   2.889   0.937   5.593
 6679TIP3    H119980   2.932   0.922   5.508
 6679TIP3    H219981   2.938   0.883   5.654
 6680TIP3   OH219982   4.938   6.130   5.628
 6680TIP3    H119983   5.005   6.076   5.586
 6680TIP3    H219984   4.905   6.185   5.557
 6681TIP3   OH219985   4.941   2.158   3.092
 6681TIP3    H119986   4.992   2.233   3.059
 6681TIP3    H219987   4.946   2.093   3.022
 6682TIP3   OH219988   2.913   4.099   1.705
 6682TIP3    H119989   2.908   4.042   1.628
 6682TIP3    H219990   3.000   4.083   1.741
 6683TIP3   OH219991   5.817   0.161   0.328
 6683TIP3    H119992   5.824   0.186   0.420
 6683TIP3    H219993   5.904   0.181   0.292
 6684TIP3   OH219994   4.840   5.025   3.816
 6684TIP3    H119995   4.766   5.015   3.757
 6684TIP3    H219996   4.840   4.944   3.868
 6685TIP3   OH219997   1.606   3.668   4.992
 6685TIP3    H119998   1.697   3.640   4.976
 6685TIP3    H219999   1.613   3.733   5.062
 6686TIP3   OH220000   7.125   1.604   1.716
 6686TIP3    H120001   7.032   1.597   1.738
 6686TIP3    H220002   7.166   1.528   1.759
 6687TIP3   OH220003   8.085   5.135   6.388
 6687TIP3    H120004   8.156   5.073   6.372
 6687TIP3    H220005   8.067   5.173   6.303
 6688TIP3   OH220006   2.266  -0.009   2.680
 6688TIP3    H120007   2.240   0.083   2.683
 6688TIP3    H220008   2.210  -0.048   2.612
 6689TIP3   OH220009   0.326   0.844   4.353
 6689TIP3    H120010   0.331   0.811   4.263
 6689TIP3    H220011   0.236   0.827   4.380
 6690TIP3   OH220012   0.482   6.958   5.457
 6690TIP3    H120013   0.567   7.000   5.467
 6690TIP3    H220014   0.419   7.028   5.471
 6691TIP3   OH220015   8.319   2.624   1.831
 6691TIP3    H120016   8.394   2.649   1.778
 6691TIP3    H220017   8.311   2.694   1.896
 6692TIP3   OH220018   4.729   1.447   5.733
 6692TIP3    H120019   4.712   1.521   5.791
 6692TIP3    H220020   4.749   1.486   5.648
 6693TIP3   OH220021   1.653   6.661   6.075
 6693TIP3    H120022   1.642   6.570   6.103
 6693TIP3    H220023   1.582   6.675   6.012
 6694TIP3   OH220024   4.911   6.884   4.438
 6694TIP3    H120025   4.820   6.882   4.407
 6694TIP3    H220026   4.962   6.898   4.358
 6695TIP3   OH220027   6.403   1.042   3.137
 6695TIP3    H120028   6.359   1.107   3.192
 6695TIP3    H220029   6.481   1.087   3.106
 6696TIP3   OH220030   4.564   1.496   6.207
 6696TIP3    H120031   4.506   1.424   6.179
 6696TIP3    H220032   4.586   1.542   6.126
 6697TIP3   OH220033   1.444   2.105   4.348
 6697TIP3    H120034   1.499   2.066   4.416
 6697TIP3    H220035   1.368   2.047   4.342
 6698TIP3   OH220036   1.528   6.924   0.695
 6698TIP3    H120037   1.584   6.875   0.635
 6698TIP3    H220038   1.489   6.857   0.752
 6699TIP3   OH220039   3.136   2.333   0.279
 6699TIP3    H120040   3.197   2.391   0.325
 6699TIP3    H220041   3.165   2.335   0.188
 6700TIP3   OH220042   4.186   4.024   4.091
 6700TIP3    H120043   4.162   3.956   4.028
 6700TIP3    H220044   4.279   4.011   4.107
 6701TIP3   OH220045   2.674   2.739   5.686
 6701TIP3    H120046   2.758   2.763   5.647
 6701TIP3    H220047   2.621   2.819   5.679
 6702TIP3   OH220048   6.534   6.183   2.485
 6702TIP3    H120049   6.527   6.114   2.551
 6702TIP3    H220050   6.443   6.200   2.459
 6703TIP3   OH220051   7.646   0.823   5.907
 6703TIP3    H120052   7.648   0.838   5.813
 6703TIP3    H220053   7.692   0.740   5.920
 6704TIP3   OH220054   3.966   3.987   0.551
 6704TIP3    H120055   3.896   4.008   0.613
 6704TIP3    H220056   4.045   3.978   0.605
 6705TIP3   OH220057   1.269   4.410   5.998
 6705TIP3    H120058   1.289   4.360   5.919
 6705TIP3    H220059   1.355   4.431   6.035
 6706TIP3   OH220060   3.335   1.048   2.819
 6706TIP3    H120061   3.326   1.026   2.726
 6706TIP3    H220062   3.251   1.022   2.858
 6707TIP3   OH220063   5.155   3.555   3.516
 6707TIP3    H120064   5.179   3.620   3.450
 6707TIP3    H220065   5.158   3.604   3.599
 6708TIP3   OH220066   3.392   5.376   2.892
 6708TIP3    H120067   3.487   5.381   2.900
 6708TIP3    H220068   3.373   5.403   2.802
 6709TIP3   OH220069   6.509   6.185   4.782
 6709TIP3    H120070   6.505   6.132   4.861
 6709TIP3    H220071   6.602   6.205   4.772
 6710TIP3   OH220072   4.306   5.939   4.886
 6710TIP3    H120073   4.231   5.908   4.937
 6710TIP3    H220074   4.269   5.967   4.803
 6711TIP3   OH220075   7.792   2.286   3.944
 6711TIP3    H120076   7.827   2.356   3.889
 6711TIP3    H220077   7.742   2.331   4.012
 6712TIP3   OH220078   1.272   6.220   1.965
 6712TIP3    H120079   1.361   6.190   1.946
 6712TIP3    H220080   1.276   6.315   1.957
 6713TIP3   OH220081   6.007   2.116   4.129
 6713TIP3    H120082   5.927   2.107   4.181
 6713TIP3    H220083   6.016   2.210   4.116
 6714TIP3   OH220084   1.946   0.055   5.057
 6714TIP3    H120085   1.908   0.140   5.078
 6714TIP3    H220086   1.871  -0.004   5.051
 6715TIP3   OH220087   3.362   1.726   6.193
 6715TIP3    H120088   3.296   1.658   6.209
 6715TIP3    H220089   3.439   1.678   6.161
 6716TIP3   OH220090   8.292   6.111   5.381
 6716TIP3    H120091   8.253   6.031   5.415
 6716TIP3    H220092   8.343   6.146   5.454
 6717TIP3   OH220093   8.085   0.713   5.904
 6717TIP3    H120094   8.148   0.742   5.837
 6717TIP3    H220095   8.053   0.794   5.942
 6718TIP3   OH220096   5.515   4.853   3.549
 6718TIP3    H120097   5.539   4.764   3.523
 6718TIP3    H220098   5.447   4.879   3.487
 6719TIP3   OH220099   3.103   3.848   4.178
 6719TIP3    H120100   3.045   3.891   4.241
 6719TIP3    H220101   3.049   3.834   4.101
 6720TIP3   OH220102   0.635   5.106   0.384
 6720TIP3    H120103   0.655   5.036   0.447
 6720TIP3    H220104   0.719   5.125   0.342
 6721TIP3   OH220105   2.010   4.132   2.305
 6721TIP3    H120106   2.105   4.140   2.308
 6721TIP3    H220107   1.991   4.102   2.216
 6722TIP3   OH220108   0.449   6.401   5.581
 6722TIP3    H120109   0.442   6.494   5.563
 6722TIP3    H220110   0.402   6.359   5.509
 6723TIP3   OH220111   4.966   0.470   0.586
 6723TIP3    H120112   5.000   0.388   0.621
 6723TIP3    H220113   4.871   0.460   0.590
 6724TIP3   OH220114   1.979   7.690   1.038
 6724TIP3    H120115   1.989   7.712   1.131
 6724TIP3    H220116   2.056   7.728   0.996
 6725TIP3   OH220117   4.634   1.397   1.751
 6725TIP3    H120118   4.666   1.349   1.828
 6725TIP3    H220119   4.650   1.338   1.678
 6726TIP3   OH220120   5.459   2.734   1.360
 6726TIP3    H120121   5.457   2.758   1.453
 6726TIP3    H220122   5.370   2.706   1.341
 6727TIP3   OH220123   7.992   2.172   0.364
 6727TIP3    H120124   7.906   2.132   0.377
 6727TIP3    H220125   8.054   2.111   0.405
 6728TIP3   OH220126   5.190   7.571   3.717
 6728TIP3    H120127   5.202   7.646   3.659
 6728TIP3    H220128   5.171   7.609   3.802
 6729TIP3   OH220129   1.612   4.072   6.009
 6729TIP3    H120130   1.613   4.163   6.041
 6729TIP3    H220131   1.545   4.072   5.940
 6730TIP3   OH220132   7.372   0.634   5.407
 6730TIP3    H120133   7.327   0.622   5.491
 6730TIP3    H220134   7.465   0.631   5.428
 6731TIP3   OH220135   4.074   2.750   1.499
 6731TIP3    H120136   4.050   2.699   1.422
 6731TIP3    H220137   4.035   2.836   1.485
 6732TIP3   OH220138   8.002   3.013   3.000
 6732TIP3    H120139   7.997   3.081   2.933
 6732TIP3    H220140   7.959   3.051   3.076
 6733TIP3   OH220141   5.764   0.411   3.788
 6733TIP3    H120142   5.691   0.464   3.756
 6733TIP3    H220143   5.786   0.353   3.715
 6734TIP3   OH220144   6.152   2.945   6.649
 6734TIP3    H120145   6.166   2.857   6.684
 6734TIP3    H220146   6.240   2.980   6.635
 6735TIP3   OH220147   5.928   6.987   6.143
 6735TIP3    H120148   5.898   6.914   6.089
 6735TIP3    H220149   5.936   6.951   6.231
 6736TIP3   OH220150   8.067   3.869   2.446
 6736TIP3    H120151   8.086   3.852   2.354
 6736TIP3    H220152   7.973   3.887   2.449
 6737TIP3   OH220153   7.785   2.671   6.038
 6737TIP3    H120154   7.748   2.755   6.008
 6737TIP3    H220155   7.858   2.654   5.979
 6738TIP3   OH220156   3.007   6.784   2.996
 6738TIP3    H120157   2.932   6.788   3.055
 6738TIP3    H220158   3.027   6.876   2.977
 6739TIP3   OH220159   0.172   4.232   0.273
 6739TIP3    H120160   0.201   4.316   0.236
 6739TIP3    H220161   0.140   4.183   0.198
 6740TIP3   OH220162   8.041   0.940   3.711
 6740TIP3    H120163   8.034   0.848   3.686
 6740TIP3    H220164   7.985   0.986   3.649
 6741TIP3   OH220165   4.650   6.365   5.050
 6741TIP3    H120166   4.608   6.412   5.122
 6741TIP3    H220167   4.717   6.311   5.092
 6742TIP3   OH220168   7.438   2.304   3.382
 6742TIP3    H120169   7.521   2.287   3.337
 6742TIP3    H220170   7.429   2.230   3.442
 6743TIP3   OH220171   7.310   7.792   0.735
 6743TIP3    H120172   7.365   7.722   0.769
 6743TIP3    H220173   7.327   7.792   0.641
 6744TIP3   OH220174   5.469   4.634   2.833
 6744TIP3    H120175   5.527   4.690   2.781
 6744TIP3    H220176   5.455   4.557   2.778
 6745TIP3   OH220177   4.146   5.193   4.802
 6745TIP3    H120178   4.120   5.275   4.759
 6745TIP3    H220179   4.133   5.210   4.895
 6746TIP3   OH220180   0.054   4.463   5.147
 6746TIP3    H120181   0.105   4.437   5.224
 6746TIP3    H220182   0.000   4.536   5.176
 6747TIP3   OH220183   0.086   1.536   0.456
 6747TIP3    H120184   0.072   1.579   0.372
 6747TIP3    H220185   0.099   1.444   0.434
 6748TIP3   OH220186   2.587   1.660   1.300
 6748TIP3    H120187   2.548   1.744   1.322
 6748TIP3    H220188   2.602   1.617   1.384
 6749TIP3   OH220189   8.300   3.293   1.105
 6749TIP3    H120190   8.309   3.387   1.090
 6749TIP3    H220191   8.285   3.257   1.017
 6750TIP3   OH220192   7.272   4.601   3.977
 6750TIP3    H120193   7.216   4.525   3.993
 6750TIP3    H220194   7.339   4.596   4.045
 6751TIP3   OH220195   5.122   3.926   3.166
 6751TIP3    H120196   5.057   3.991   3.193
 6751TIP3    H220197   5.085   3.886   3.088
 6752TIP3   OH220198   0.169   3.949   3.961
 6752TIP3    H120199   0.189   4.015   4.028
 6752TIP3    H220200   0.073   3.948   3.958
 6753TIP3   OH220201   5.742   4.220   0.889
 6753TIP3    H120202   5.669   4.159   0.901
 6753TIP3    H220203   5.704   4.292   0.838
 6754TIP3   OH220204   8.094   1.802   3.713
 6754TIP3    H120205   8.046   1.759   3.784
 6754TIP3    H220206   8.183   1.768   3.720
 6755TIP3   OH220207   4.754   0.221   5.648
 6755TIP3    H120208   4.847   0.228   5.626
 6755TIP3    H220209   4.738   0.294   5.708
 6756TIP3   OH220210   4.981   1.391   0.402
 6756TIP3    H120211   4.937   1.316   0.363
 6756TIP3    H220212   5.044   1.419   0.336
 6757TIP3   OH220213   5.325   5.111   5.478
 6757TIP3    H120214   5.327   5.065   5.394
 6757TIP3    H220215   5.264   5.184   5.464
 6758TIP3   OH220216   5.135   1.129   4.709
 6758TIP3    H120217   5.182   1.194   4.761
 6758TIP3    H220218   5.174   1.135   4.621
 6759TIP3   OH220219   6.990   7.440   2.815
 6759TIP3    H120220   7.079   7.413   2.792
 6759TIP3    H220221   6.934   7.383   2.763
 6760TIP3   OH220222   6.320   4.157   0.341
 6760TIP3    H120223   6.277   4.073   0.324
 6760TIP3    H220224   6.360   4.146   0.428
 6761TIP3   OH220225   4.596   7.473   6.674
 6761TIP3    H120226   4.583   7.541   6.740
 6761TIP3    H220227   4.530   7.490   6.607
 6762TIP3   OH220228   0.141   7.348   2.645
 6762TIP3    H120229   0.227   7.314   2.622
 6762TIP3    H220230   0.113   7.397   2.567
 6763TIP3   OH220231   3.746   0.839   3.522
 6763TIP3    H120232   3.810   0.889   3.471
 6763TIP3    H220233   3.675   0.901   3.539
 6764TIP3   OH220234   2.275   4.140   2.751
 6764TIP3    H120235   2.342   4.075   2.772
 6764TIP3    H220236   2.223   4.100   2.682
 6765TIP3   OH220237   6.386   3.038   3.751
 6765TIP3    H120238   6.482   3.037   3.754
 6765TIP3    H220239   6.361   3.109   3.809
 6766TIP3   OH220240   6.366   6.608   6.498
 6766TIP3    H120241   6.299   6.546   6.468
 6766TIP3    H220242   6.319   6.691   6.506
 6767TIP3   OH220243   2.097   2.419   4.362
 6767TIP3    H120244   2.027   2.465   4.316
 6767TIP3    H220245   2.054   2.375   4.435
 6768TIP3   OH220246   8.249   0.403   5.298
 6768TIP3    H120247   8.181   0.336   5.289
 6768TIP3    H220248   8.322   0.371   5.245
 6769TIP3   OH220249   0.878   3.866   6.040
 6769TIP3    H120250   0.864   3.909   5.955
 6769TIP3    H220251   0.932   3.790   6.019
 6770TIP3   OH220252   0.075   1.363   1.274
 6770TIP3    H120253  -0.016   1.390   1.267
 6770TIP3    H220254   0.084   1.291   1.211
 6771TIP3   OH220255   4.320   3.913   1.979
 6771TIP3    H120256   4.278   3.834   2.014
 6771TIP3    H220257   4.259   3.984   1.998
 6772TIP3   OH220258   2.856   0.854   5.336
 6772TIP3    H120259   2.766   0.830   5.357
 6772TIP3    H220260   2.852   0.945   5.309
 6773TIP3   OH220261   7.998   5.137   1.333
 6773TIP3    H120262   8.077   5.165   1.286
 6773TIP3    H220263   8.031   5.077   1.401
 6774TIP3   OH220264   0.745   3.662   1.429
 6774TIP3    H120265   0.798   3.726   1.381
 6774TIP3    H220266   0.805   3.590   1.448
 6775TIP3   OH220267   3.752   2.246   3.822
 6775TIP3    H120268   3.781   2.322   3.771
 6775TIP3    H220269   3.748   2.175   3.758
 6776TIP3   OH220270   0.746   7.631   0.298
 6776TIP3    H120271   0.813   7.685   0.257
 6776TIP3    H220272   0.664   7.677   0.282
 6777TIP3   OH220273   6.210   6.331   3.823
 6777TIP3    H120274   6.209   6.280   3.742
 6777TIP3    H220275   6.154   6.281   3.883
 6778TIP3   OH220276   5.182   1.747   0.399
 6778TIP3    H120277   5.190   1.769   0.307
 6778TIP3    H220278   5.255   1.686   0.415
 6779TIP3   OH220279   5.647   0.755   0.410
 6779TIP3    H120280   5.558   0.720   0.408
 6779TIP3    H220281   5.638   0.842   0.448
 6780TIP3   OH220282   8.117   4.270   1.722
 6780TIP3    H120283   8.151   4.191   1.765
 6780TIP3    H220284   8.026   4.275   1.750
 6781TIP3   OH220285   1.625   5.857   0.243
 6781TIP3    H120286   1.696   5.907   0.284
 6781TIP3    H220287   1.545   5.895   0.278
 6782TIP3   OH220288   6.843   4.311   0.676
 6782TIP3    H120289   6.802   4.283   0.758
 6782TIP3    H220290   6.872   4.401   0.693
 6783TIP3   OH220291   1.018   0.264   5.657
 6783TIP3    H120292   1.058   0.259   5.570
 6783TIP3    H220293   0.952   0.195   5.657
 6784TIP3   OH220294   1.378   2.098   4.910
 6784TIP3    H120295   1.393   2.033   4.979
 6784TIP3    H220296   1.283   2.106   4.905
 6785TIP3   OH220297   5.486   0.744   2.549
 6785TIP3    H120298   5.473   0.686   2.474
 6785TIP3    H220299   5.560   0.707   2.597
 6786TIP3   OH220300   7.354   5.751   5.464
 6786TIP3    H120301   7.274   5.700   5.445
 6786TIP3    H220302   7.422   5.685   5.472
 6787TIP3   OH220303   2.161   0.444   2.876
 6787TIP3    H120304   2.073   0.412   2.896
 6787TIP3    H220305   2.213   0.423   2.954
 6788TIP3   OH220306   5.658   6.007   2.683
 6788TIP3    H120307   5.618   5.925   2.654
 6788TIP3    H220308   5.750   6.000   2.657
 6789TIP3   OH220309   3.151   7.330   4.405
 6789TIP3    H120310   3.218   7.276   4.363
 6789TIP3    H220311   3.188   7.418   4.404
 6790TIP3   OH220312   0.747   0.202   0.221
 6790TIP3    H120313   0.789   0.287   0.239
 6790TIP3    H220314   0.747   0.195   0.126
 6791TIP3   OH220315   5.879   0.250   2.554
 6791TIP3    H120316   5.816   0.315   2.523
 6791TIP3    H220317   5.843   0.219   2.637
 6792TIP3   OH220318   5.266   3.351   5.024
 6792TIP3    H120319   5.248   3.437   4.986
 6792TIP3    H220320   5.320   3.371   5.102
 6793TIP3   OH220321   2.459   7.311   5.569
 6793TIP3    H120322   2.423   7.238   5.619
 6793TIP3    H220323   2.470   7.277   5.481
 6794TIP3   OH220324   3.326   7.125   3.693
 6794TIP3    H120325   3.386   7.124   3.767
 6794TIP3    H220326   3.243   7.093   3.729
 6795TIP3   OH220327   3.715   6.603   1.893
 6795TIP3    H120328   3.633   6.573   1.854
 6795TIP3    H220329   3.703   6.697   1.906
 6796TIP3   OH220330   2.967   6.158   0.666
 6796TIP3    H120331   2.921   6.100   0.605
 6796TIP3    H220332   2.956   6.117   0.752
 6797TIP3   OH220333   1.923   2.563   4.947
 6797TIP3    H120334   1.953   2.626   4.882
 6797TIP3    H220335   1.842   2.527   4.912
 6798TIP3   OH220336   2.799   6.609   0.833
 6798TIP3    H120337   2.817   6.691   0.789
 6798TIP3    H220338   2.879   6.558   0.822
 6799TIP3   OH220339   5.527   7.491   2.125
 6799TIP3    H120340   5.564   7.459   2.043
 6799TIP3    H220341   5.541   7.586   2.123
 6800TIP3   OH220342   2.530   0.284   3.339
 6800TIP3    H120343   2.442   0.322   3.338
 6800TIP3    H220344   2.516   0.193   3.312
 6801TIP3   OH220345   5.540   0.556   1.059
 6801TIP3    H120346   5.580   0.478   1.020
 6801TIP3    H220347   5.521   0.613   0.984
 6802TIP3   OH220348   6.857   7.356   1.342
 6802TIP3    H120349   6.855   7.308   1.258
 6802TIP3    H220350   6.822   7.442   1.321
 6803TIP3   OH220351   5.941   4.759   0.910
 6803TIP3    H120352   6.001   4.829   0.934
 6803TIP3    H220353   5.933   4.767   0.814
 6804TIP3   OH220354   0.379   7.665   4.192
 6804TIP3    H120355   0.469   7.696   4.197
 6804TIP3    H220356   0.374   7.595   4.257
 6805TIP3   OH220357   4.699   3.153   3.174
 6805TIP3    H120358   4.728   3.221   3.114
 6805TIP3    H220359   4.756   3.164   3.251
 6806TIP3   OH220360   7.215   2.253   2.605
 6806TIP3    H120361   7.298   2.248   2.559
 6806TIP3    H220362   7.233   2.219   2.692
 6807TIP3   OH220363   7.534   0.494   4.344
 6807TIP3    H120364   7.623   0.468   4.320
 6807TIP3    H220365   7.529   0.483   4.439
 6808TIP3   OH220366   4.361   0.295   2.987
 6808TIP3    H120367   4.270   0.304   3.013
 6808TIP3    H220368   4.411   0.320   3.065
 6809TIP3   OH220369   0.944   6.917   1.675
 6809TIP3    H120370   0.959   6.982   1.744
 6809TIP3    H220371   0.852   6.894   1.683
 6810TIP3   OH220372   1.292   3.210   2.738
 6810TIP3    H120373   1.336   3.187   2.656
 6810TIP3    H220374   1.349   3.174   2.806
 6811TIP3   OH220375   6.996   4.661   5.334
 6811TIP3    H120376   7.038   4.606   5.400
 6811TIP3    H220377   7.019   4.620   5.251
 6812TIP3   OH220378   0.461   7.418   0.072
 6812TIP3    H120379   0.452   7.412   0.167
 6812TIP3    H220380   0.549   7.386   0.054
 6813TIP3   OH220381   6.550   6.344   5.102
 6813TIP3    H120382   6.629   6.291   5.092
 6813TIP3    H220383   6.569   6.425   5.055
 6814TIP3   OH220384   8.168   2.421   1.670
 6814TIP3    H120385   8.193   2.513   1.658
 6814TIP3    H220386   8.251   2.373   1.663
 6815TIP3   OH220387   1.905   0.157   2.563
 6815TIP3    H120388   1.869   0.216   2.496
 6815TIP3    H220389   1.979   0.205   2.600
 6816TIP3   OH220390   4.855   6.644   5.733
 6816TIP3    H120391   4.871   6.603   5.818
 6816TIP3    H220392   4.857   6.572   5.670
 6817TIP3   OH220393   8.192   6.467   0.218
 6817TIP3    H120394   8.224   6.482   0.308
 6817TIP3    H220395   8.242   6.529   0.165
 6818TIP3   OH220396   6.083   0.036   5.882
 6818TIP3    H120397   6.073   0.032   5.787
 6818TIP3    H220398   6.160   0.090   5.897
 6819TIP3   OH220399   4.258   1.769   5.078
 6819TIP3    H120400   4.200   1.693   5.077
 6819TIP3    H220401   4.275   1.787   4.986
 6820TIP3   OH220402   7.874   2.054   1.949
 6820TIP3    H120403   7.911   2.139   1.971
 6820TIP3    H220404   7.780   2.064   1.966
 6821TIP3   OH220405   6.470   3.842   3.101
 6821TIP3    H120406   6.382   3.857   3.133
 6821TIP3    H220407   6.525   3.904   3.150
 6822TIP3   OH220408   0.443   4.839   4.935
 6822TIP3    H120409   0.445   4.752   4.976
 6822TIP3    H220410   0.357   4.874   4.959
 6823TIP3   OH220411   4.793   4.477   5.618
 6823TIP3    H120412   4.715   4.427   5.599
 6823TIP3    H220413   4.761   4.564   5.642
 6824TIP3   OH220414   7.073   2.868   0.628
 6824TIP3    H120415   7.116   2.953   0.615
 6824TIP3    H220416   7.123   2.808   0.573
 6825TIP3   OH220417   3.276   4.280   4.507
 6825TIP3    H120418   3.303   4.199   4.465
 6825TIP3    H220419   3.238   4.252   4.590
 6826TIP3   OH220420   4.192   6.990   5.099
 6826TIP3    H120421   4.260   7.052   5.073
 6826TIP3    H220422   4.189   6.926   5.028
 6827TIP3   OH220423   2.194   4.065   4.941
 6827TIP3    H120424   2.153   4.148   4.915
 6827TIP3    H220425   2.287   4.077   4.922
 6828TIP3   OH220426   3.119   2.543   1.677
 6828TIP3    H120427   3.192   2.491   1.645
 6828TIP3    H220428   3.142   2.562   1.768
 6829TIP3   OH220429   2.343   2.028   1.635
 6829TIP3    H120430   2.303   2.106   1.597
 6829TIP3    H220431   2.304   2.023   1.723
 6830TIP3   OH220432   0.720   4.792   6.272
 6830TIP3    H120433   0.698   4.833   6.355
 6830TIP3    H220434   0.795   4.735   6.292
 6831TIP3   OH220435   3.254   5.696   1.475
 6831TIP3    H120436   3.184   5.676   1.413
 6831TIP3    H220437   3.307   5.616   1.478
 6832TIP3   OH220438   4.580   3.389   2.354
 6832TIP3    H120439   4.580   3.299   2.321
 6832TIP3    H220440   4.659   3.394   2.408
 6833TIP3   OH220441   2.358   1.714   5.448
 6833TIP3    H120442   2.368   1.807   5.430
 6833TIP3    H220443   2.426   1.694   5.511
 6834TIP3   OH220444   0.592   4.467   3.085
 6834TIP3    H120445   0.525   4.511   3.032
 6834TIP3    H220446   0.653   4.536   3.109
 6835TIP3   OH220447   6.902   5.803   0.876
 6835TIP3    H120448   6.841   5.864   0.917
 6835TIP3    H220449   6.941   5.756   0.950
 6836TIP3   OH220450   1.631   5.104   2.465
 6836TIP3    H120451   1.612   5.069   2.552
 6836TIP3    H220452   1.568   5.175   2.454
 6837TIP3   OH220453   4.697   2.605   3.585
 6837TIP3    H120454   4.699   2.697   3.556
 6837TIP3    H220455   4.609   2.575   3.562
 6838TIP3   OH220456   5.968   4.237   3.778
 6838TIP3    H120457   6.007   4.152   3.798
 6838TIP3    H220458   5.878   4.231   3.813
 6839TIP3   OH220459   3.548   1.548   1.421
 6839TIP3    H120460   3.483   1.485   1.389
 6839TIP3    H220461   3.617   1.494   1.459
 6840TIP3   OH220462   4.628   4.822   2.901
 6840TIP3    H120463   4.714   4.863   2.914
 6840TIP3    H220464   4.618   4.818   2.806
 6841TIP3   OH220465   5.546   3.302   0.345
 6841TIP3    H120466   5.507   3.347   0.270
 6841TIP3    H220467   5.485   3.230   0.364
 6842TIP3   OH220468   0.208   7.237   1.791
 6842TIP3    H120469   0.178   7.201   1.874
 6842TIP3    H220470   0.247   7.163   1.745
 6843TIP3   OH220471   6.601   1.393   6.646
 6843TIP3    H120472   6.576   1.485   6.646
 6843TIP3    H220473   6.695   1.394   6.662
 6844TIP3   OH220474   8.251   0.727   0.986
 6844TIP3    H120475   8.296   0.697   0.907
 6844TIP3    H220476   8.312   0.789   1.027
 6845TIP3   OH220477   4.624   0.130   1.067
 6845TIP3    H120478   4.619   0.035   1.062
 6845TIP3    H220479   4.592   0.161   0.982
 6846TIP3   OH220480   2.978   0.483   5.531
 6846TIP3    H120481   2.992   0.526   5.446
 6846TIP3    H220482   3.000   0.551   5.595
 6847TIP3   OH220483   2.813   3.319   3.749
 6847TIP3    H120484   2.876   3.330   3.678
 6847TIP3    H220485   2.729   3.345   3.711
 6848TIP3   OH220486   0.717   0.953   6.304
 6848TIP3    H120487   0.804   0.915   6.291
 6848TIP3    H220488   0.705   0.952   6.399
 6849TIP3   OH220489   5.365   7.376   0.389
 6849TIP3    H120490   5.346   7.386   0.482
 6849TIP3    H220491   5.453   7.413   0.379
 6850TIP3   OH220492   6.968   1.321   1.619
 6850TIP3    H120493   7.050   1.341   1.663
 6850TIP3    H220494   6.977   1.230   1.590
 6851TIP3   OH220495   3.016   7.754   2.498
 6851TIP3    H120496   3.092   7.750   2.441
 6851TIP3    H220497   3.050   7.736   2.586
 6852TIP3   OH220498   8.150   6.058   0.369
 6852TIP3    H120499   8.215   6.052   0.299
 6852TIP3    H220500   8.066   6.055   0.324
 6853TIP3   OH220501   7.437   7.474   1.436
 6853TIP3    H120502   7.353   7.429   1.442
 6853TIP3    H220503   7.502   7.406   1.454
 6854TIP3   OH220504   3.261   3.027   3.123
 6854TIP3    H120505   3.179   3.074   3.107
 6854TIP3    H220506   3.324   3.096   3.145
 6855TIP3   OH220507   0.261   6.942   3.182
 6855TIP3    H120508   0.330   6.884   3.150
 6855TIP3    H220509   0.218   6.973   3.103
 6856TIP3   OH220510   7.016   3.963   4.707
 6856TIP3    H120511   7.076   4.020   4.659
 6856TIP3    H220512   7.039   3.874   4.680
 6857TIP3   OH220513   0.354   1.861   0.184
 6857TIP3    H120514   0.338   1.910   0.265
 6857TIP3    H220515   0.444   1.830   0.192
 6858TIP3   OH220516   2.465   3.891   3.735
 6858TIP3    H120517   2.554   3.859   3.722
 6858TIP3    H220518   2.421   3.821   3.784
 6859TIP3   OH220519   4.327   4.337   6.587
 6859TIP3    H120520   4.413   4.362   6.554
 6859TIP3    H220521   4.319   4.384   6.671
 6860TIP3   OH220522   3.496   4.438   0.928
 6860TIP3    H120523   3.450   4.494   0.991
 6860TIP3    H220524   3.584   4.428   0.964
 6861TIP3   OH220525   0.485   6.883   6.123
 6861TIP3    H120526   0.484   6.945   6.050
 6861TIP3    H220527   0.515   6.801   6.083
 6862TIP3   OH220528   3.218   1.515   4.943
 6862TIP3    H120529   3.203   1.432   4.988
 6862TIP3    H220530   3.293   1.554   4.988
 6863TIP3   OH220531   3.752   2.895   1.642
 6863TIP3    H120532   3.745   2.885   1.547
 6863TIP3    H220533   3.828   2.952   1.654
 6864TIP3   OH220534   2.006   3.651   0.382
 6864TIP3    H120535   2.037   3.639   0.292
 6864TIP3    H220536   2.071   3.708   0.422
 6865TIP3   OH220537   3.188   7.005   3.004
 6865TIP3    H120538   3.113   7.041   2.956
 6865TIP3    H220539   3.199   7.065   3.078
 6866TIP3   OH220540   8.360   1.651   2.318
 6866TIP3    H120541   8.384   1.582   2.257
 6866TIP3    H220542   8.356   1.731   2.265
 6867TIP3   OH220543   7.493   4.555   0.885
 6867TIP3    H120544   7.433   4.628   0.904
 6867TIP3    H220545   7.468   4.525   0.798
 6868TIP3   OH220546   3.656   2.013   5.217
 6868TIP3    H120547   3.579   1.977   5.261
 6868TIP3    H220548   3.725   2.013   5.284
 6869TIP3   OH220549   6.190   7.721   6.225
 6869TIP3    H120550   6.110   7.743   6.272
 6869TIP3    H220551   6.235   7.805   6.213
 6870TIP3   OH220552   3.251   7.779   4.048
 6870TIP3    H120553   3.205   7.827   4.116
 6870TIP3    H220554   3.327   7.834   4.028
 6871TIP3   OH220555   1.982   1.311   0.537
 6871TIP3    H120556   2.078   1.310   0.545
 6871TIP3    H220557   1.966   1.356   0.453
 6872TIP3   OH220558   3.462   6.032   6.080
 6872TIP3    H120559   3.385   6.076   6.045
 6872TIP3    H220560   3.480   6.076   6.163
 6873TIP3   OH220561   4.333   1.641   0.449
 6873TIP3    H120562   4.252   1.596   0.475
 6873TIP3    H220563   4.394   1.570   0.430
 6874TIP3   OH220564   0.471   6.307   1.199
 6874TIP3    H120565   0.512   6.330   1.115
 6874TIP3    H220566   0.387   6.352   1.197
 6875TIP3   OH220567   3.377   6.348   0.931
 6875TIP3    H120568   3.401   6.273   0.985
 6875TIP3    H220569   3.398   6.424   0.985
 6876TIP3   OH220570   4.431   1.261   4.693
 6876TIP3    H120571   4.412   1.289   4.783
 6876TIP3    H220572   4.504   1.200   4.702
 6877TIP3   OH220573   4.251   7.257   1.340
 6877TIP3    H120574   4.320   7.199   1.373
 6877TIP3    H220575   4.292   7.304   1.267
 6878TIP3   OH220576   5.295   7.119   3.179
 6878TIP3    H120577   5.214   7.078   3.209
 6878TIP3    H220578   5.292   7.207   3.215
 6879TIP3   OH220579   5.186   5.441   1.034
 6879TIP3    H120580   5.111   5.488   0.999
 6879TIP3    H220581   5.209   5.488   1.114
 6880TIP3   OH220582   3.442   0.667   5.455
 6880TIP3    H120583   3.418   0.741   5.511
 6880TIP3    H220584   3.408   0.690   5.369
 6881TIP3   OH220585   0.226   2.376   5.323
 6881TIP3    H120586   0.172   2.453   5.340
 6881TIP3    H220587   0.287   2.404   5.254
 6882TIP3   OH220588   4.367   3.047   0.364
 6882TIP3    H120589   4.346   3.129   0.409
 6882TIP3    H220590   4.282   3.015   0.333
 6883TIP3   OH220591   5.595   2.974   6.568
 6883TIP3    H120592   5.628   3.026   6.495
 6883TIP3    H220593   5.541   2.906   6.528
 6884TIP3   OH220594   2.570   7.354   5.264
 6884TIP3    H120595   2.655   7.321   5.293
 6884TIP3    H220596   2.580   7.449   5.265
 6885TIP3   OH220597   4.760   0.515   6.414
 6885TIP3    H120598   4.750   0.449   6.345
 6885TIP3    H220599   4.847   0.552   6.399
 6886TIP3   OH220600   7.311   2.803   4.692
 6886TIP3    H120601   7.314   2.735   4.625
 6886TIP3    H220602   7.355   2.765   4.768
 6887TIP3   OH220603   4.744   5.121   4.565
 6887TIP3    H120604   4.810   5.184   4.535
 6887TIP3    H220605   4.708   5.161   4.644
 6888TIP3   OH220606   6.711   6.632   2.362
 6888TIP3    H120607   6.660   6.608   2.284
 6888TIP3    H220608   6.730   6.548   2.405
 6889TIP3   OH220609   2.959   2.890   3.243
 6889TIP3    H120610   2.876   2.920   3.206
 6889TIP3    H220611   2.985   2.960   3.303
 6890TIP3   OH220612   6.684   2.731   4.943
 6890TIP3    H120613   6.749   2.723   4.874
 6890TIP3    H220614   6.644   2.817   4.929
 6891TIP3   OH220615   4.774   2.205   0.305
 6891TIP3    H120616   4.692   2.156   0.292
 6891TIP3    H220617   4.817   2.202   0.220
 6892TIP3   OH220618   0.301   0.454   3.740
 6892TIP3    H120619   0.395   0.470   3.745
 6892TIP3    H220620   0.263   0.516   3.802
 6893TIP3   OH220621   7.295   3.950   2.717
 6893TIP3    H120622   7.259   4.033   2.685
 6893TIP3    H220623   7.259   3.940   2.804
 6894TIP3   OH220624   6.193   7.447   1.161
 6894TIP3    H120625   6.155   7.374   1.209
 6894TIP3    H220626   6.273   7.412   1.122
 6895TIP3   OH220627   3.703   1.766   3.436
 6895TIP3    H120628   3.686   1.853   3.402
 6895TIP3    H220629   3.726   1.714   3.359
 6896TIP3   OH220630   0.422   7.716   3.914
 6896TIP3    H120631   0.377   7.711   3.999
 6896TIP3    H220632   0.496   7.774   3.930
 6897TIP3   OH220633   7.652   7.508   1.724
 6897TIP3    H120634   7.582   7.548   1.673
 6897TIP3    H220635   7.667   7.423   1.683
 6898TIP3   OH220636   1.701   1.493   0.746
 6898TIP3    H120637   1.694   1.587   0.730
 6898TIP3    H220638   1.761   1.485   0.820
 6899TIP3   OH220639   1.189   0.947   2.483
 6899TIP3    H120640   1.233   1.015   2.533
 6899TIP3    H220641   1.115   0.921   2.537
 6900TIP3   OH220642   6.691   3.503   0.511
 6900TIP3    H120643   6.735   3.525   0.594
 6900TIP3    H220644   6.727   3.417   0.488
 6901TIP3   OH220645   4.396   1.316   6.606
 6901TIP3    H120646   4.409   1.389   6.545
 6901TIP3    H220647   4.315   1.339   6.653
 6902TIP3   OH220648   7.188   6.810   1.822
 6902TIP3    H120649   7.126   6.737   1.820
 6902TIP3    H220650   7.179   6.851   1.736
 6903TIP3   OH220651   6.990   1.055   1.524
 6903TIP3    H120652   6.927   0.984   1.519
 6903TIP3    H220653   7.070   1.015   1.559
 6904TIP3   OH220654   4.323   1.614   5.879
 6904TIP3    H120655   4.370   1.555   5.821
 6904TIP3    H220656   4.253   1.650   5.825
 6905TIP3   OH220657   2.023   2.167   2.522
 6905TIP3    H120658   2.083   2.102   2.558
 6905TIP3    H220659   2.047   2.172   2.429
 6906TIP3   OH220660   2.802   0.180   3.884
 6906TIP3    H120661   2.754   0.131   3.817
 6906TIP3    H220662   2.894   0.166   3.863
 6907TIP3   OH220663   6.458   3.275   1.612
 6907TIP3    H120664   6.515   3.341   1.651
 6907TIP3    H220665   6.469   3.286   1.518
 6908TIP3   OH220666   0.594   4.547   2.114
 6908TIP3    H120667   0.666   4.592   2.159
 6908TIP3    H220668   0.526   4.613   2.104
 6909TIP3   OH220669   0.909   2.800   0.158
 6909TIP3    H120670   0.955   2.717   0.146
 6909TIP3    H220671   0.822   2.785   0.119
 6910TIP3   OH220672   4.435   5.474   3.166
 6910TIP3    H120673   4.373   5.485   3.094
 6910TIP3    H220674   4.520   5.493   3.127
 6911TIP3   OH220675   7.909   4.062   1.213
 6911TIP3    H120676   7.930   4.155   1.213
 6911TIP3    H220677   7.856   4.049   1.292
 6912TIP3   OH220678   4.115   3.596   1.911
 6912TIP3    H120679   4.037   3.559   1.870
 6912TIP3    H220680   4.179   3.601   1.839
 6913TIP3   OH220681   2.980   2.110   1.177
 6913TIP3    H120682   2.918   2.039   1.196
 6913TIP3    H220683   2.926   2.183   1.148
 6914TIP3   OH220684   7.652   7.734   5.916
 6914TIP3    H120685   7.612   7.713   5.831
 6914TIP3    H220686   7.614   7.818   5.940
 6915TIP3   OH220687   6.372   5.764   1.769
 6915TIP3    H120688   6.400   5.679   1.804
 6915TIP3    H220689   6.394   5.759   1.676
 6916TIP3   OH220690   6.301   1.978   1.087
 6916TIP3    H120691   6.323   1.961   0.996
 6916TIP3    H220692   6.346   1.910   1.137
 6917TIP3   OH220693   6.403   4.391   1.150
 6917TIP3    H120694   6.458   4.465   1.126
 6917TIP3    H220695   6.325   4.431   1.189
 6918TIP3   OH220696   2.245   1.325   3.913
 6918TIP3    H120697   2.270   1.266   3.842
 6918TIP3    H220698   2.259   1.413   3.877
 6919TIP3   OH220699   3.275   1.802   1.799
 6919TIP3    H120700   3.258   1.767   1.886
 6919TIP3    H220701   3.194   1.786   1.751
 6920TIP3   OH220702   2.926   4.424   0.599
 6920TIP3    H120703   2.971   4.430   0.683
 6920TIP3    H220704   2.902   4.514   0.578
 6921TIP3   OH220705   1.005   2.009   4.941
 6921TIP3    H120706   1.087   2.041   4.977
 6921TIP3    H220707   1.004   2.038   4.850
 6922TIP3   OH220708   8.153   1.712   1.728
 6922TIP3    H120709   8.192   1.632   1.694
 6922TIP3    H220710   8.063   1.687   1.749
 6923TIP3   OH220711   3.885   3.107   1.937
 6923TIP3    H120712   3.798   3.123   1.974
 6923TIP3    H220713   3.874   3.120   1.843
 6924TIP3   OH220714   7.559   5.259   0.319
 6924TIP3    H120715   7.604   5.255   0.234
 6924TIP3    H220716   7.616   5.209   0.378
 6925TIP3   OH220717   0.154   0.876   5.428
 6925TIP3    H120718   0.203   0.801   5.392
 6925TIP3    H220719   0.077   0.883   5.371
 6926TIP3   OH220720   7.917   3.194   6.627
 6926TIP3    H120721   8.002   3.167   6.661
 6926TIP3    H220722   7.926   3.193   6.532
 6927TIP3   OH220723   6.745   0.282   6.278
 6927TIP3    H120724   6.707   0.201   6.310
 6927TIP3    H220725   6.728   0.281   6.184
 6928TIP3   OH220726   5.272   4.525   2.644
 6928TIP3    H120727   5.251   4.605   2.595
 6928TIP3    H220728   5.194   4.507   2.697
 6929TIP3   OH220729   5.955   3.901   2.655
 6929TIP3    H120730   6.026   3.863   2.706
 6929TIP3    H220731   5.985   3.989   2.633
 6930TIP3   OH220732   4.298   3.225   5.501
 6930TIP3    H120733   4.370   3.189   5.554
 6930TIP3    H220734   4.292   3.165   5.426
 6931TIP3   OH220735   3.121   4.744   4.412
 6931TIP3    H120736   3.151   4.700   4.333
 6931TIP3    H220737   3.087   4.829   4.382
 6932TIP3   OH220738   2.883   3.343   2.072
 6932TIP3    H120739   2.872   3.258   2.114
 6932TIP3    H220740   2.925   3.397   2.139
 6933TIP3   OH220741   8.034   1.500   3.831
 6933TIP3    H120742   8.040   1.406   3.845
 6933TIP3    H220743   8.083   1.538   3.904
 6934TIP3   OH220744   6.271   3.839   5.223
 6934TIP3    H120745   6.224   3.921   5.216
 6934TIP3    H220746   6.312   3.827   5.137
 6935TIP3   OH220747   2.896   5.815   1.907
 6935TIP3    H120748   2.832   5.820   1.978
 6935TIP3    H220749   2.962   5.880   1.930
 6936TIP3   OH220750   5.655   0.661   4.918
 6936TIP3    H120751   5.685   0.703   4.999
 6936TIP3    H220752   5.706   0.580   4.913
 6937TIP3   OH220753   1.524   5.279   6.722
 6937TIP3    H120754   1.543   5.324   6.804
 6937TIP3    H220755   1.589   5.209   6.718
 6938TIP3   OH220756   7.582   7.410   4.416
 6938TIP3    H120757   7.648   7.402   4.347
 6938TIP3    H220758   7.547   7.321   4.426
 6939TIP3   OH220759   1.810   0.132   1.309
 6939TIP3    H120760   1.876   0.198   1.333
 6939TIP3    H220761   1.825   0.117   1.216
 6940TIP3   OH220762   1.272   3.384   5.610
 6940TIP3    H120763   1.187   3.414   5.577
 6940TIP3    H220764   1.288   3.438   5.687
 6941TIP3   OH220765   8.312   7.730   4.655
 6941TIP3    H120766   8.277   7.642   4.668
 6941TIP3    H220767   8.236   7.788   4.664
 6942TIP3   OH220768   6.034   0.550   3.781
 6942TIP3    H120769   5.944   0.523   3.761
 6942TIP3    H220770   6.073   0.567   3.695
 6943TIP3   OH220771   3.220   2.584   0.867
 6943TIP3    H120772   3.131   2.617   0.876
 6943TIP3    H220773   3.210   2.489   0.854
 6944TIP3   OH220774   4.227   1.268   0.734
 6944TIP3    H120775   4.268   1.325   0.799
 6944TIP3    H220776   4.201   1.190   0.784
 6945TIP3   OH220777   4.992   3.829   2.659
 6945TIP3    H120778   4.934   3.851   2.587
 6945TIP3    H220779   4.979   3.735   2.673
 6946TIP3   OH220780   7.909   0.190   5.815
 6946TIP3    H120781   7.824   0.154   5.789
 6946TIP3    H220782   7.955   0.116   5.854
 6947TIP3   OH220783   1.251   4.021   0.071
 6947TIP3    H120784   1.185   4.089   0.084
 6947TIP3    H220785   1.258   4.011  -0.024
 6948TIP3   OH220786   6.604   4.237   3.399
 6948TIP3    H120787   6.583   4.321   3.357
 6948TIP3    H220788   6.642   4.184   3.329
 6949TIP3   OH220789   1.626   3.959   0.634
 6949TIP3    H120790   1.602   4.033   0.689
 6949TIP3    H220791   1.663   3.999   0.555
 6950TIP3   OH220792   4.825   3.884   6.762
 6950TIP3    H120793   4.857   3.796   6.782
 6950TIP3    H220794   4.901   3.941   6.773
 6951TIP3   OH220795   1.659   5.846   1.784
 6951TIP3    H120796   1.722   5.840   1.855
 6951TIP3    H220797   1.663   5.936   1.754
 6952TIP3   OH220798   2.108   1.512   2.567
 6952TIP3    H120799   2.093   1.603   2.592
 6952TIP3    H220800   2.158   1.476   2.640
 6953TIP3   OH220801   0.861   4.263   4.581
 6953TIP3    H120802   0.769   4.240   4.574
 6953TIP3    H220803   0.861   4.351   4.619
 6954TIP3   OH220804   8.228   4.025   2.975
 6954TIP3    H120805   8.188   4.020   2.889
 6954TIP3    H220806   8.169   3.977   3.033
 6955TIP3   OH220807   4.393   4.051   1.605
 6955TIP3    H120808   4.465   4.114   1.602
 6955TIP3    H220809   4.328   4.091   1.663
 6956TIP3   OH220810   1.785   4.889   4.961
 6956TIP3    H120811   1.879   4.868   4.957
 6956TIP3    H220812   1.742   4.805   4.945
 6957TIP3   OH220813   0.755   0.638   2.199
 6957TIP3    H120814   0.667   0.604   2.185
 6957TIP3    H220815   0.767   0.704   2.130
 6958TIP3   OH220816   5.937   2.561   4.675
 6958TIP3    H120817   6.004   2.514   4.626
 6958TIP3    H220818   5.908   2.631   4.616
 6959TIP3   OH220819   7.542   4.366   5.275
 6959TIP3    H120820   7.629   4.368   5.316
 6959TIP3    H220821   7.483   4.337   5.345
 6960TIP3   OH220822   6.539   5.308   3.080
 6960TIP3    H120823   6.519   5.214   3.078
 6960TIP3    H220824   6.628   5.313   3.114
 6961TIP3   OH220825   6.208   3.990   2.911
 6961TIP3    H120826   6.232   3.950   2.827
 6961TIP3    H220827   6.157   3.922   2.956
 6962TIP3   OH220828   3.796   2.458   4.039
 6962TIP3    H120829   3.889   2.458   4.014
 6962TIP3    H220830   3.749   2.459   3.956
 6963TIP3   OH220831   3.353   1.910   3.511
 6963TIP3    H120832   3.399   1.857   3.577
 6963TIP3    H220833   3.268   1.928   3.551
 6964TIP3   OH220834   5.107   1.987   6.716
 6964TIP3    H120835   5.089   1.903   6.674
 6964TIP3    H220836   5.123   2.048   6.643
 6965TIP3   OH220837   5.403   6.033   3.339
 6965TIP3    H120838   5.403   6.030   3.243
 6965TIP3    H220839   5.400   6.126   3.360
 6966TIP3   OH220840   1.705   5.527   5.739
 6966TIP3    H120841   1.662   5.532   5.824
 6966TIP3    H220842   1.663   5.454   5.695
 6967TIP3   OH220843   8.056   6.868   6.732
 6967TIP3    H120844   8.140   6.847   6.773
 6967TIP3    H220845   7.993   6.812   6.777
 6968TIP3   OH220846   6.241   1.446   5.849
 6968TIP3    H120847   6.187   1.394   5.789
 6968TIP3    H220848   6.179   1.484   5.910
 6969TIP3   OH220849   3.985   5.257   6.620
 6969TIP3    H120850   3.894   5.287   6.629
 6969TIP3    H220851   4.036   5.319   6.671
 6970TIP3   OH220852   7.593   7.609   0.512
 6970TIP3    H120853   7.642   7.527   0.515
 6970TIP3    H220854   7.556   7.610   0.423
 6971TIP3   OH220855   7.926   7.751   5.932
 6971TIP3    H120856   7.940   7.845   5.941
 6971TIP3    H220857   7.831   7.741   5.930
 6972TIP3   OH220858   1.038   1.944  -0.044
 6972TIP3    H120859   0.960   1.998  -0.034
 6972TIP3    H220860   1.007   1.866  -0.091
 6973TIP3   OH220861   6.866   6.422   0.159
 6973TIP3    H120862   6.931   6.493   0.158
 6973TIP3    H220863   6.836   6.416   0.069
 6974TIP3   OH220864   6.788   0.754   0.698
 6974TIP3    H120865   6.774   0.840   0.737
 6974TIP3    H220866   6.749   0.693   0.760
 6975TIP3   OH220867   7.485   5.064   2.837
 6975TIP3    H120868   7.470   4.969   2.830
 6975TIP3    H220869   7.568   5.079   2.792
 6976TIP3   OH220870   2.870   2.152   5.206
 6976TIP3    H120871   2.875   2.082   5.141
 6976TIP3    H220872   2.941   2.133   5.268
 6977TIP3   OH220873   2.906   4.071   0.548
 6977TIP3    H120874   2.993   4.038   0.572
 6977TIP3    H220875   2.905   4.069   0.452
 6978TIP3   OH220876   8.266   3.080   1.783
 6978TIP3    H120877   8.302   3.038   1.861
 6978TIP3    H220878   8.186   3.030   1.764
 6979TIP3   OH220879   7.916   7.050   1.820
 6979TIP3    H120880   7.833   7.099   1.817
 6979TIP3    H220881   7.929   7.030   1.912
 6980TIP3   OH220882   3.756   5.632   6.595
 6980TIP3    H120883   3.690   5.615   6.528
 6980TIP3    H220884   3.831   5.665   6.546
 6981TIP3   OH220885   2.688   7.311   3.093
 6981TIP3    H120886   2.746   7.334   3.021
 6981TIP3    H220887   2.600   7.322   3.058
 6982TIP3   OH220888   7.571   7.396   2.265
 6982TIP3    H120889   7.487   7.407   2.221
 6982TIP3    H220890   7.618   7.332   2.212
 6983TIP3   OH220891   7.631   5.205   2.546
 6983TIP3    H120892   7.669   5.156   2.619
 6983TIP3    H220893   7.629   5.143   2.474
 6984TIP3   OH220894   4.622   0.297   2.272
 6984TIP3    H120895   4.615   0.275   2.179
 6984TIP3    H220896   4.540   0.267   2.310
 6985TIP3   OH220897   2.351   6.016   6.665
 6985TIP3    H120898   2.433   6.040   6.709
 6985TIP3    H220899   2.282   6.041   6.726
 6986TIP3   OH220900   7.352   3.116   6.385
 6986TIP3    H120901   7.414   3.060   6.431
 6986TIP3    H220902   7.364   3.096   6.293
 6987TIP3   OH220903   3.104   4.073   2.266
 6987TIP3    H120904   3.088   4.011   2.195
 6987TIP3    H220905   3.072   4.028   2.345
 6988TIP3   OH220906   5.209   3.967   2.753
 6988TIP3    H120907   5.140   3.907   2.726
 6988TIP3    H220908   5.175   4.007   2.833
 6989TIP3   OH220909   4.384   6.392   4.513
 6989TIP3    H120910   4.459   6.422   4.461
 6989TIP3    H220911   4.308   6.433   4.469
 6990TIP3   OH220912   1.474   7.589   5.759
 6990TIP3    H120913   1.429   7.556   5.681
 6990TIP3    H220914   1.562   7.611   5.728
 6991TIP3   OH220915   3.153   0.640   0.425
 6991TIP3    H120916   3.133   0.727   0.459
 6991TIP3    H220917   3.125   0.580   0.494
 6992TIP3   OH220918   5.881   7.384   4.635
 6992TIP3    H120919   5.884   7.396   4.730
 6992TIP3    H220920   5.971   7.397   4.607
 6993TIP3   OH220921   4.571   5.740   3.745
 6993TIP3    H120922   4.632   5.731   3.672
 6993TIP3    H220923   4.562   5.651   3.780
 6994TIP3   OH220924   2.468   7.151   2.373
 6994TIP3    H120925   2.474   7.091   2.299
 6994TIP3    H220926   2.375   7.151   2.397
 6995TIP3   OH220927   6.141   1.787   3.410
 6995TIP3    H120928   6.160   1.696   3.388
 6995TIP3    H220929   6.224   1.833   3.397
 6996TIP3   OH220930   6.725   1.529   3.614
 6996TIP3    H120931   6.813   1.523   3.578
 6996TIP3    H220932   6.723   1.464   3.683
 6997TIP3   OH220933   0.179   1.141   5.055
 6997TIP3    H120934   0.271   1.154   5.028
 6997TIP3    H220935   0.151   1.063   5.008
 6998TIP3   OH220936   1.585   6.695   1.403
 6998TIP3    H120937   1.554   6.742   1.325
 6998TIP3    H220938   1.548   6.607   1.394
 6999TIP3   OH220939   4.798   1.198   5.547
 6999TIP3    H120940   4.779   1.251   5.470
 6999TIP3    H220941   4.872   1.242   5.590
 7000TIP3   OH220942   0.381   2.541   1.882
 7000TIP3    H120943   0.372   2.577   1.970
 7000TIP3    H220944   0.476   2.544   1.865
 7001TIP3   OH220945   0.348   7.028   1.698
 7001TIP3    H120946   0.312   6.940   1.689
 7001TIP3    H220947   0.395   7.026   1.782
 7002TIP3   OH220948   7.953   4.285   1.471
 7002TIP3    H120949   8.035   4.285   1.520
 7002TIP3    H220950   7.892   4.333   1.527
 7003TIP3   OH220951   1.596   5.326   6.012
 7003TIP3    H120952   1.662   5.324   6.081
 7003TIP3    H220953   1.574   5.419   6.003
 7004TIP3   OH220954   4.417   0.573   5.867
 7004TIP3    H120955   4.467   0.624   5.931
 7004TIP3    H220956   4.368   0.638   5.817
 7005TIP3   OH220957   5.227   2.335   0.324
 7005TIP3    H120958   5.223   2.321   0.229
 7005TIP3    H220959   5.147   2.383   0.345
 7006TIP3   OH220960   5.153   4.086   6.265
 7006TIP3    H120961   5.113   4.091   6.352
 7006TIP3    H220962   5.199   4.170   6.255
 7007TIP3   OH220963   6.333   5.876   2.208
 7007TIP3    H120964   6.355   5.792   2.249
 7007TIP3    H220965   6.347   5.941   2.277
 7008TIP3   OH220966   5.163   2.147   6.485
 7008TIP3    H120967   5.180   2.084   6.415
 7008TIP3    H220968   5.239   2.206   6.483
 7009TIP3   OH220969   3.419   5.536   0.770
 7009TIP3    H120970   3.449   5.534   0.861
 7009TIP3    H220971   3.468   5.466   0.727
 7010TIP3   OH220972   8.189   7.677   4.334
 7010TIP3    H120973   8.250   7.751   4.335
 7010TIP3    H220974   8.109   7.712   4.297
 7011TIP3   OH220975   4.415   7.766   0.954
 7011TIP3    H120976   4.439   7.680   0.920
 7011TIP3    H220977   4.498   7.813   0.963
 7012TIP3   OH220978   0.169   0.821   3.316
 7012TIP3    H120979   0.136   0.875   3.244
 7012TIP3    H220980   0.152   0.731   3.287
 7013TIP3   OH220981   1.155   4.887   1.818
 7013TIP3    H120982   1.076   4.919   1.861
 7013TIP3    H220983   1.216   4.868   1.890
 7014TIP3   OH220984   4.435   7.500   5.763
 7014TIP3    H120985   4.457   7.490   5.671
 7014TIP3    H220986   4.500   7.447   5.809
 7015TIP3   OH220987   2.908   2.707   1.575
 7015TIP3    H120988   2.956   2.625   1.585
 7015TIP3    H220989   2.913   2.726   1.482
 7016TIP3   OH220990   4.364   7.010   6.672
 7016TIP3    H120991   4.407   7.034   6.590
 7016TIP3    H220992   4.373   7.088   6.727
 7017TIP3   OH220993   0.343   7.535   3.730
 7017TIP3    H120994   0.388   7.595   3.789
 7017TIP3    H220995   0.301   7.591   3.666
 7018TIP3   OH220996   5.528   7.698   6.235
 7018TIP3    H120997   5.477   7.777   6.219
 7018TIP3    H220998   5.463   7.627   6.231
 7019TIP3   OH220999   0.874   7.017   1.274
 7019TIP3    H121000   0.915   7.030   1.189
 7019TIP3    H221001   0.785   6.988   1.253
 7020TIP3   OH221002   3.555   5.213   0.143
 7020TIP3    H121003   3.480   5.154   0.148
 7020TIP3    H221004   3.572   5.238   0.234
 7021TIP3   OH221005   1.039  -0.068   6.594
 7021TIP3    H121006   1.125  -0.109   6.585
 7021TIP3    H221007   1.058   0.023   6.619
 7022TIP3   OH221008   5.793   5.575   3.744
 7022TIP3    H121009   5.721   5.580   3.808
 7022TIP3    H221010   5.750   5.553   3.662
 7023TIP3   OH221011   1.273   1.902   6.698
 7023TIP3    H121012   1.239   1.844   6.767
 7023TIP3    H221013   1.204   1.904   6.633
 7024TIP3   OH221014   2.816   1.853   4.747
 7024TIP3    H121015   2.906   1.822   4.743
 7024TIP3    H221016   2.822   1.938   4.792
 7025TIP3   OH221017   4.677   0.834   3.366
 7025TIP3    H121018   4.632   0.918   3.373
 7025TIP3    H221019   4.717   0.821   3.452
 7026TIP3   OH221020   5.894   4.051   3.170
 7026TIP3    H121021   5.988   4.060   3.180
 7026TIP3    H221022   5.880   4.048   3.075
 7027TIP3   OH221023   6.309   5.305   2.415
 7027TIP3    H121024   6.352   5.305   2.500
 7027TIP3    H221025   6.336   5.222   2.375
 7028TIP3   OH221026   4.759   5.341   2.021
 7028TIP3    H121027   4.751   5.423   2.071
 7028TIP3    H221028   4.671   5.304   2.022
 7029TIP3   OH221029   2.935   3.089   6.096
 7029TIP3    H121030   3.001   3.117   6.033
 7029TIP3    H221031   2.862   3.057   6.042
 7030TIP3   OH221032   3.204   2.662   2.873
 7030TIP3    H121033   3.218   2.625   2.960
 7030TIP3    H221034   3.292   2.686   2.844
 7031TIP3   OH221035   3.372   6.349   5.133
 7031TIP3    H121036   3.431   6.422   5.117
 7031TIP3    H221037   3.383   6.292   5.057
 7032TIP3   OH221038   4.930   5.288   4.474
 7032TIP3    H121039   5.019   5.269   4.444
 7032TIP3    H221040   4.892   5.343   4.405
 7033TIP3   OH221041   3.747   7.770   5.712
 7033TIP3    H121042   3.727   7.725   5.794
 7033TIP3    H221043   3.838   7.747   5.693
 7034TIP3   OH221044   0.311   3.698   1.378
 7034TIP3    H121045   0.242   3.749   1.334
 7034TIP3    H221046   0.264   3.622   1.414
 7035TIP3   OH221047   4.197   1.234   0.323
 7035TIP3    H121048   4.269   1.218   0.262
 7035TIP3    H221049   4.233   1.210   0.408
 7036TIP3   OH221050   4.071   7.148   2.001
 7036TIP3    H121051   4.165   7.152   1.984
 7036TIP3    H221052   4.047   7.236   2.028
 7037TIP3   OH221053   3.571   6.609   2.259
 7037TIP3    H121054   3.639   6.553   2.221
 7037TIP3    H221055   3.503   6.549   2.288
 7038TIP3   OH221056   7.083   1.617   5.186
 7038TIP3    H121057   7.070   1.645   5.277
 7038TIP3    H221058   7.123   1.693   5.143
 7039TIP3   OH221059   0.191   7.517   6.430
 7039TIP3    H121060   0.244   7.526   6.509
 7039TIP3    H221061   0.211   7.430   6.396
 7040TIP3   OH221062   0.699   1.454   1.416
 7040TIP3    H121063   0.733   1.402   1.488
 7040TIP3    H221064   0.776   1.478   1.365
 7041TIP3   OH221065   6.376   7.736   0.884
 7041TIP3    H121066   6.365   7.830   0.897
 7041TIP3    H221067   6.417   7.705   0.965
 7042TIP3   OH221068   1.746   5.285   1.293
 7042TIP3    H121069   1.788   5.201   1.312
 7042TIP3    H221070   1.782   5.345   1.358
 7043TIP3   OH221071   8.109   4.452   5.432
 7043TIP3    H121072   8.121   4.519   5.365
 7043TIP3    H221073   8.028   4.478   5.477
 7044TIP3   OH221074   4.109   4.752   3.250
 7044TIP3    H121075   4.178   4.809   3.283
 7044TIP3    H221076   4.146   4.664   3.258
 7045TIP3   OH221077   1.687   6.109   2.975
 7045TIP3    H121078   1.765   6.089   3.027
 7045TIP3    H221079   1.668   6.028   2.928
 7046TIP3   OH221080   5.413   3.080   5.394
 7046TIP3    H121081   5.432   3.011   5.330
 7046TIP3    H221082   5.317   3.082   5.398
 7047TIP3   OH221083   1.132   7.616   2.837
 7047TIP3    H121084   1.038   7.615   2.852
 7047TIP3    H221085   1.164   7.537   2.882
 7048TIP3   OH221086   4.214   0.758   4.942
 7048TIP3    H121087   4.137   0.767   4.885
 7048TIP3    H221088   4.287   0.792   4.889
 7049TIP3   OH221089   7.743   2.605   3.589
 7049TIP3    H121090   7.726   2.690   3.548
 7049TIP3    H221091   7.799   2.559   3.527
 7050TIP3   OH221092   7.450   1.868   5.207
 7050TIP3    H121093   7.512   1.799   5.184
 7050TIP3    H221094   7.488   1.948   5.172
 7051TIP3   OH221095   6.606   1.759   4.350
 7051TIP3    H121096   6.606   1.855   4.351
 7051TIP3    H221097   6.604   1.734   4.442
 7052TIP3   OH221098   2.072   7.007   4.072
 7052TIP3    H121099   2.086   6.960   4.154
 7052TIP3    H221100   2.157   7.004   4.028
 7053TIP3   OH221101   5.422   0.557   4.628
 7053TIP3    H121102   5.465   0.641   4.644
 7053TIP3    H221103   5.403   0.522   4.715
 7054TIP3   OH221104   0.505   1.755   2.219
 7054TIP3    H121105   0.542   1.843   2.231
 7054TIP3    H221106   0.444   1.764   2.146
 7055TIP3   OH221107   1.971   4.245   0.080
 7055TIP3    H121108   1.883   4.235   0.118
 7055TIP3    H221109   1.996   4.157   0.053
 7056TIP3   OH221110   7.485   1.910   4.280
 7056TIP3    H121111   7.534   1.966   4.340
 7056TIP3    H221112   7.521   1.931   4.194
 7057TIP3   OH221113   2.510   3.172   4.798
 7057TIP3    H121114   2.595   3.140   4.765
 7057TIP3    H221115   2.515   3.267   4.789
 7058TIP3   OH221116   6.526   1.072   5.756
 7058TIP3    H121117   6.556   1.142   5.698
 7058TIP3    H221118   6.474   1.015   5.700
 7059TIP3   OH221119   6.994   7.113   5.766
 7059TIP3    H121120   7.028   7.202   5.776
 7059TIP3    H221121   7.071   7.061   5.741
 7060TIP3   OH221122   4.575   6.820   0.039
 7060TIP3    H121123   4.529   6.821  -0.045
 7060TIP3    H221124   4.654   6.769   0.022
 7061TIP3   OH221125   3.379   3.165   5.976
 7061TIP3    H121126   3.299   3.177   6.028
 7061TIP3    H221127   3.446   3.216   6.023
 7062TIP3   OH221128   3.432   2.977   5.560
 7062TIP3    H121129   3.375   3.053   5.559
 7062TIP3    H221130   3.464   2.971   5.650
 7063TIP3   OH221131   2.101   6.381   2.929
 7063TIP3    H121132   2.023   6.367   2.875
 7063TIP3    H221133   2.067   6.422   3.009
 7064TIP3   OH221134   8.018   7.676   3.941
 7064TIP3    H121135   8.074   7.732   3.995
 7064TIP3    H221136   8.070   7.658   3.863
 7065TIP3   OH221137   0.746   2.736   6.227
 7065TIP3    H121138   0.712   2.651   6.198
 7065TIP3    H221139   0.783   2.719   6.313
 7066TIP3   OH221140   2.685   3.569   5.235
 7066TIP3    H121141   2.752   3.553   5.302
 7066TIP3    H221142   2.735   3.589   5.156
 7067TIP3   OH221143   6.333   0.743   5.314
 7067TIP3    H121144   6.428   0.735   5.304
 7067TIP3    H221145   6.310   0.821   5.263
 7068TIP3   OH221146   0.516   4.474   0.427
 7068TIP3    H121147   0.477   4.391   0.455
 7068TIP3    H221148   0.588   4.449   0.370
 7069TIP3   OH221149   1.769   7.104   5.387
 7069TIP3    H121150   1.819   7.185   5.398
 7069TIP3    H221151   1.687   7.131   5.346
 7070TIP3   OH221152   4.968   4.707   4.680
 7070TIP3    H121153   5.022   4.682   4.756
 7070TIP3    H221154   4.938   4.795   4.701
 7071TIP3   OH221155   4.926   4.525   6.842
 7071TIP3    H121156   5.016   4.535   6.875
 7071TIP3    H221157   4.933   4.536   6.748
 7072TIP3   OH221158   3.950   7.597   4.250
 7072TIP3    H121159   4.009   7.525   4.229
 7072TIP3    H221160   3.999   7.676   4.224
 7073TIP3   OH221161   2.033   3.698   3.646
 7073TIP3    H121162   2.022   3.757   3.721
 7073TIP3    H221163   2.073   3.620   3.684
 7074TIP3   OH221164   0.048   1.129   5.830
 7074TIP3    H121165   0.113   1.199   5.828
 7074TIP3    H221166   0.097   1.049   5.812
 7075TIP3   OH221167   7.164   7.908   0.317
 7075TIP3    H121168   7.187   7.825   0.360
 7075TIP3    H221169   7.183   7.892   0.224
 7076TIP3   OH221170   4.259   1.536   6.245
 7076TIP3    H121171   4.296   1.452   6.216
 7076TIP3    H221172   4.309   1.558   6.323
 7077TIP3   OH221173   2.325   7.713   3.359
 7077TIP3    H121174   2.337   7.618   3.363
 7077TIP3    H221175   2.401   7.749   3.404
 7078TIP3   OH221176   6.851   6.603   2.960
 7078TIP3    H121177   6.833   6.518   2.920
 7078TIP3    H221178   6.877   6.582   3.050
 7079TIP3   OH221179   5.278   0.851   2.379
 7079TIP3    H121180   5.344   0.834   2.446
 7079TIP3    H221181   5.264   0.946   2.383
 7080TIP3   OH221182   0.421   0.500   1.034
 7080TIP3    H121183   0.445   0.565   0.968
 7080TIP3    H221184   0.426   0.416   0.988
 7081TIP3   OH221185   5.138   5.543   3.666
 7081TIP3    H121186   5.054   5.519   3.705
 7081TIP3    H221187   5.186   5.461   3.661
 7082TIP3   OH221188   5.543   7.453   3.045
 7082TIP3    H121189   5.551   7.386   2.976
 7082TIP3    H221190   5.450   7.458   3.063
 7083TIP3   OH221191   0.139   0.098   1.797
 7083TIP3    H121192   0.231   0.126   1.798
 7083TIP3    H221193   0.141   0.009   1.762
 7084TIP3   OH221194   1.254   7.647   3.826
 7084TIP3    H121195   1.350   7.649   3.824
 7084TIP3    H221196   1.227   7.707   3.757
 7085TIP3   OH221197   0.426   4.589   5.036
 7085TIP3    H121198   0.350   4.552   4.991
 7085TIP3    H221199   0.395   4.607   5.124
 7086TIP3   OH221200   7.387   0.345   5.014
 7086TIP3    H121201   7.388   0.261   4.968
 7086TIP3    H221202   7.456   0.396   4.972
 7087TIP3   OH221203   1.808   5.065   5.515
 7087TIP3    H121204   1.895   5.048   5.480
 7087TIP3    H221205   1.759   4.984   5.499
 7088TIP3   OH221206   0.950   1.467   4.800
 7088TIP3    H121207   0.910   1.504   4.721
 7088TIP3    H221208   0.876   1.432   4.850
 7089TIP3   OH221209   7.280   1.413   2.604
 7089TIP3    H121210   7.318   1.353   2.540
 7089TIP3    H221211   7.333   1.492   2.598
 7090TIP3   OH221212   2.149   2.227   1.305
 7090TIP3    H121213   2.054   2.235   1.309
 7090TIP3    H221214   2.181   2.293   1.366
 7091TIP3   OH221215   2.034   7.256   0.525
 7091TIP3    H121216   1.993   7.342   0.540
 7091TIP3    H221217   1.982   7.196   0.578
 7092TIP3   OH221218   2.278   4.064   0.716
 7092TIP3    H121219   2.218   4.047   0.643
 7092TIP3    H221220   2.351   4.004   0.700
 7093TIP3   OH221221   7.676   1.884   6.259
 7093TIP3    H121222   7.697   1.973   6.288
 7093TIP3    H221223   7.583   1.888   6.235
 7094TIP3   OH221224   4.356   2.971   2.025
 7094TIP3    H121225   4.294   3.036   1.992
 7094TIP3    H221226   4.314   2.887   2.008
 7095TIP3   OH221227   6.576   7.811   3.201
 7095TIP3    H121228   6.661   7.827   3.241
 7095TIP3    H221229   6.559   7.718   3.216
 7096TIP3   OH221230   1.281   4.808   4.749
 7096TIP3    H121231   1.355   4.777   4.698
 7096TIP3    H221232   1.320   4.854   4.824
 7097TIP3   OH221233   6.433   2.341   0.015
 7097TIP3    H121234   6.341   2.367   0.015
 7097TIP3    H221235   6.478   2.413   0.060
 7098TIP3   OH221236   6.718   1.597   0.556
 7098TIP3    H121237   6.631   1.559   0.571
 7098TIP3    H221238   6.710   1.642   0.472
 7099TIP3   OH221239   7.952   0.099   1.058
 7099TIP3    H121240   7.934   0.173   1.001
 7099TIP3    H221241   7.995   0.138   1.135
 7100TIP3   OH221242   6.456   0.567   5.065
 7100TIP3    H121243   6.533   0.623   5.075
 7100TIP3    H221244   6.410   0.602   4.989
 7101TIP3   OH221245   6.702   1.430   4.328
 7101TIP3    H121246   6.656   1.457   4.249
 7101TIP3    H221247   6.635   1.426   4.396
 7102TIP3   OH221248   4.688   3.618   1.098
 7102TIP3    H121249   4.654   3.578   1.018
 7102TIP3    H221250   4.718   3.544   1.151
 7103TIP3   OH221251   0.668   2.610   2.270
 7103TIP3    H121252   0.625   2.620   2.185
 7103TIP3    H221253   0.694   2.698   2.295
 7104TIP3   OH221254   0.943   4.723   0.115
 7104TIP3    H121255   1.036   4.728   0.092
 7104TIP3    H221256   0.913   4.814   0.110
 7105TIP3   OH221257   4.772   0.774   5.151
 7105TIP3    H121258   4.855   0.787   5.106
 7105TIP3    H221259   4.764   0.680   5.161
 7106TIP3   OH221260   1.486   5.763   6.273
 7106TIP3    H121261   1.498   5.823   6.199
 7106TIP3    H221262   1.404   5.790   6.314
 7107TIP3   OH221263   7.393   1.797   3.079
 7107TIP3    H121264   7.440   1.877   3.057
 7107TIP3    H221265   7.373   1.805   3.172
 7108TIP3   OH221266   7.166   2.699   0.438
 7108TIP3    H121267   7.183   2.618   0.390
 7108TIP3    H221268   7.128   2.758   0.373
 7109TIP3   OH221269   2.511   4.987   5.233
 7109TIP3    H121270   2.524   5.022   5.145
 7109TIP3    H221271   2.594   5.000   5.278
 7110TIP3   OH221272   4.520   6.180   0.612
 7110TIP3    H121273   4.569   6.170   0.530
 7110TIP3    H221274   4.433   6.146   0.592
 7111TIP3   OH221275   2.231   2.742   3.669
 7111TIP3    H121276   2.227   2.646   3.665
 7111TIP3    H221277   2.152   2.771   3.623
 7112TIP3   OH221278   6.515   7.462   1.079
 7112TIP3    H121279   6.598   7.484   1.036
 7112TIP3    H221280   6.454   7.447   1.007
 7113TIP3   OH221281   2.717   1.273   4.977
 7113TIP3    H121282   2.719   1.302   4.886
 7113TIP3    H221283   2.808   1.272   5.005
 7114TIP3   OH221284   1.253   4.406   2.015
 7114TIP3    H121285   1.341   4.432   2.042
 7114TIP3    H221286   1.217   4.361   2.092
 7115TIP3   OH221287   3.746   1.085   3.702
 7115TIP3    H121288   3.650   1.078   3.702
 7115TIP3    H221289   3.765   1.150   3.770
 7116TIP3   OH221290   7.434   4.302   0.287
 7116TIP3    H121291   7.409   4.290   0.378
 7116TIP3    H221292   7.463   4.393   0.281
 7117TIP3   OH221293   0.156   3.892   4.492
 7117TIP3    H121294   0.132   3.865   4.580
 7117TIP3    H221295   0.209   3.820   4.458
 7118TIP3   OH221296   8.242   7.764   2.000
 7118TIP3    H121297   8.199   7.817   1.933
 7118TIP3    H221298   8.329   7.747   1.964
 7119TIP3   OH221299   1.586   1.980   1.090
 7119TIP3    H121300   1.674   2.012   1.069
 7119TIP3    H221301   1.598   1.931   1.171
 7120TIP3   OH221302   5.576   5.090   0.783
 7120TIP3    H121303   5.524   5.168   0.801
 7120TIP3    H221304   5.585   5.088   0.688
 7121TIP3   OH221305   6.869   4.990   1.037
 7121TIP3    H121306   6.851   4.945   1.119
 7121TIP3    H221307   6.957   5.026   1.048
 7122TIP3   OH221308   3.895   5.955   3.189
 7122TIP3    H121309   3.866   5.923   3.274
 7122TIP3    H221310   3.981   5.915   3.177
 7123TIP3   OH221311   0.849   0.607   3.690
 7123TIP3    H121312   0.853   0.513   3.673
 7123TIP3    H221313   0.902   0.646   3.620
 7124TIP3   OH221314   7.924   4.612   1.148
 7124TIP3    H121315   7.963   4.698   1.162
 7124TIP3    H221316   7.830   4.626   1.157
 7125TIP3   OH221317   2.819   1.701   5.543
 7125TIP3    H121318   2.780   1.681   5.628
 7125TIP3    H221319   2.746   1.705   5.482
 7126TIP3   OH221320   4.658   4.326   1.788
 7126TIP3    H121321   4.637   4.411   1.747
 7126TIP3    H221322   4.647   4.262   1.717
 7127TIP3   OH221323   4.268   4.521   3.214
 7127TIP3    H121324   4.255   4.465   3.137
 7127TIP3    H221325   4.212   4.482   3.281
 7128TIP3   OH221326   3.109   3.113   2.838
 7128TIP3    H121327   3.027   3.119   2.789
 7128TIP3    H221328   3.097   3.039   2.897
 7129TIP3   OH221329   5.530   5.858   1.469
 7129TIP3    H121330   5.481   5.793   1.519
 7129TIP3    H221331   5.589   5.898   1.532
 7130TIP3   OH221332   2.273   1.556   3.745
 7130TIP3    H121333   2.198   1.572   3.688
 7130TIP3    H221334   2.253   1.606   3.825
 7131TIP3   OH221335   3.810   1.335   3.183
 7131TIP3    H121336   3.776   1.358   3.270
 7131TIP3    H221337   3.899   1.304   3.199
 7132TIP3   OH221338   7.862   0.380   2.603
 7132TIP3    H121339   7.895   0.388   2.514
 7132TIP3    H221340   7.931   0.416   2.658
 7133TIP3   OH221341   1.366   1.853   0.410
 7133TIP3    H121342   1.415   1.893   0.339
 7133TIP3    H221343   1.395   1.899   0.489
 7134TIP3   OH221344   3.950   3.428   2.398
 7134TIP3    H121345   4.026   3.371   2.411
 7134TIP3    H221346   3.897   3.382   2.333
 7135TIP3   OH221347   2.877   2.714   1.297
 7135TIP3    H121348   2.830   2.637   1.329
 7135TIP3    H221349   2.899   2.692   1.206
 7136TIP3   OH221350   1.107   3.644   0.067
 7136TIP3    H121351   1.147   3.620  -0.017
 7136TIP3    H221352   1.013   3.633   0.053
 7137TIP3   OH221353   1.203   4.185   1.442
 7137TIP3    H121354   1.262   4.204   1.369
 7137TIP3    H221355   1.174   4.271   1.472
 7138TIP3   OH221356   6.796   3.461   2.921
 7138TIP3    H121357   6.749   3.384   2.954
 7138TIP3    H221358   6.880   3.427   2.891
 7139TIP3   OH221359   4.848   0.104   3.682
 7139TIP3    H121360   4.859   0.013   3.711
 7139TIP3    H221361   4.935   0.142   3.687
 7140TIP3   OH221362   8.107   4.597   0.150
 7140TIP3    H121363   8.172   4.550   0.202
 7140TIP3    H221364   8.151   4.611   0.065
 7141TIP3   OH221365   1.594   6.134   1.686
 7141TIP3    H121366   1.501   6.114   1.675
 7141TIP3    H221367   1.604   6.151   1.780
 7142TIP3   OH221368   0.892   5.544   4.693
 7142TIP3    H121369   0.873   5.455   4.723
 7142TIP3    H221370   0.826   5.562   4.627
 7143TIP3   OH221371   2.098   1.725   5.409
 7143TIP3    H121372   2.090   1.818   5.390
 7143TIP3    H221373   2.192   1.708   5.412
 7144TIP3   OH221374   1.764   7.658   2.709
 7144TIP3    H121375   1.710   7.728   2.746
 7144TIP3    H221376   1.752   7.666   2.614
 7145TIP3   OH221377   2.806   5.923   4.557
 7145TIP3    H121378   2.724   5.970   4.545
 7145TIP3    H221379   2.797   5.881   4.643
 7146TIP3   OH221380   4.957   6.834   6.043
 7146TIP3    H121381   5.007   6.782   6.105
 7146TIP3    H221382   4.999   6.818   5.958
 7147TIP3   OH221383   2.476   1.764   1.998
 7147TIP3    H121384   2.438   1.692   2.048
 7147TIP3    H221385   2.438   1.757   1.911
 7148TIP3   OH221386   7.077   4.049   0.768
 7148TIP3    H121387   7.101   4.138   0.745
 7148TIP3    H221388   7.155   3.997   0.750
 7149TIP3   OH221389   5.731   1.813   1.217
 7149TIP3    H121390   5.732   1.879   1.148
 7149TIP3    H221391   5.724   1.730   1.171
 7150TIP3   OH221392   8.186   7.836   4.071
 7150TIP3    H121393   8.259   7.804   4.123
 7150TIP3    H221394   8.220   7.915   4.029
 7151TIP3   OH221395   0.480   0.708   1.845
 7151TIP3    H121396   0.440   0.792   1.866
 7151TIP3    H221397   0.508   0.718   1.753
 7152TIP3   OH221398   3.272   1.602   6.488
 7152TIP3    H121399   3.365   1.603   6.465
 7152TIP3    H221400   3.232   1.541   6.427
 7153TIP3   OH221401   1.506   1.625   1.677
 7153TIP3    H121402   1.483   1.542   1.718
 7153TIP3    H221403   1.519   1.604   1.585
 7154TIP3   OH221404   6.727   5.269   4.032
 7154TIP3    H121405   6.655   5.299   4.087
 7154TIP3    H221406   6.696   5.186   3.995
 7155TIP3   OH221407   4.127   1.764   5.367
 7155TIP3    H121408   4.147   1.693   5.306
 7155TIP3    H221409   4.206   1.819   5.365
 7156TIP3   OH221410   7.074   4.497   2.845
 7156TIP3    H121411   7.161   4.514   2.811
 7156TIP3    H221412   7.018   4.492   2.768
 7157TIP3   OH221413   2.330   6.263   0.356
 7157TIP3    H121414   2.333   6.332   0.422
 7157TIP3    H221415   2.299   6.306   0.276
 7158TIP3   OH221416   0.671   6.923   1.665
 7158TIP3    H121417   0.639   7.012   1.682
 7158TIP3    H221418   0.627   6.869   1.730
 7159TIP3   OH221419   6.440   3.626   4.202
 7159TIP3    H121420   6.374   3.640   4.135
 7159TIP3    H221421   6.392   3.589   4.276
 7160TIP3   OH221422   3.269   7.307   5.533
 7160TIP3    H121423   3.349   7.253   5.540
 7160TIP3    H221424   3.278   7.371   5.603
 7161TIP3   OH221425   1.441   7.426   0.830
 7161TIP3    H121426   1.416   7.334   0.835
 7161TIP3    H221427   1.449   7.454   0.921
 7162TIP3   OH221428   2.927   7.631   1.185
 7162TIP3    H121429   2.847   7.681   1.200
 7162TIP3    H221430   2.997   7.688   1.217
 7163TIP3   OH221431   4.647   6.542   1.596
 7163TIP3    H121432   4.613   6.480   1.531
 7163TIP3    H221433   4.721   6.584   1.552
 7164TIP3   OH221434   8.193   5.467   0.421
 7164TIP3    H121435   8.104   5.495   0.443
 7164TIP3    H221436   8.245   5.487   0.499
 7165TIP3   OH221437   8.279   3.779   5.999
 7165TIP3    H121438   8.260   3.817   5.913
 7165TIP3    H221439   8.193   3.754   6.034
 7166TIP3   OH221440   3.249   7.347   3.449
 7166TIP3    H121441   3.333   7.327   3.489
 7166TIP3    H221442   3.205   7.404   3.512
 7167TIP3   OH221443   7.664   5.843   1.622
 7167TIP3    H121444   7.719   5.841   1.700
 7167TIP3    H221445   7.579   5.809   1.651
 7168TIP3   OH221446   4.604   7.504   3.062
 7168TIP3    H121447   4.553   7.426   3.083
 7168TIP3    H221448   4.562   7.574   3.113
 7169TIP3   OH221449   1.113   2.205   1.664
 7169TIP3    H121450   1.116   2.158   1.581
 7169TIP3    H221451   1.073   2.289   1.643
 7170TIP3   OH221452   3.134   1.690   1.362
 7170TIP3    H121453   3.115   1.723   1.450
 7170TIP3    H221454   3.051   1.694   1.316
 7171TIP3   OH221455   1.355   0.750   1.674
 7171TIP3    H121456   1.387   0.810   1.606
 7171TIP3    H221457   1.271   0.718   1.640
 7172TIP3   OH221458   5.746   1.675   1.776
 7172TIP3    H121459   5.750   1.742   1.845
 7172TIP3    H221460   5.669   1.699   1.724
 7173TIP3   OH221461   4.424   6.665   0.949
 7173TIP3    H121462   4.387   6.579   0.933
 7173TIP3    H221463   4.416   6.711   0.866
 7174TIP3   OH221464   3.454   4.842   0.904
 7174TIP3    H121465   3.536   4.815   0.945
 7174TIP3    H221466   3.469   4.831   0.811
 7175TIP3   OH221467   7.642   5.840   1.231
 7175TIP3    H121468   7.730   5.814   1.256
 7175TIP3    H221469   7.649   5.862   1.138
 7176TIP3   OH221470   4.322   1.091   3.158
 7176TIP3    H121471   4.288   1.155   3.095
 7176TIP3    H221472   4.411   1.073   3.128
 7177TIP3   OH221473   3.142   0.131   4.213
 7177TIP3    H121474   3.092   0.212   4.202
 7177TIP3    H221475   3.086   0.064   4.175
 7178TIP3   OH221476   5.203   2.174   1.545
 7178TIP3    H121477   5.288   2.131   1.556
 7178TIP3    H221478   5.158   2.159   1.628
 7179TIP3   OH221479   6.645   5.423   6.750
 7179TIP3    H121480   6.605   5.380   6.674
 7179TIP3    H221481   6.722   5.369   6.770
 7180TIP3   OH221482   2.880   0.522   1.239
 7180TIP3    H121483   2.969   0.488   1.235
 7180TIP3    H221484   2.838   0.492   1.158
 7181TIP3   OH221485   2.074   6.406   1.080
 7181TIP3    H121486   1.982   6.428   1.067
 7181TIP3    H221487   2.079   6.313   1.058
 7182TIP3   OH221488   1.131   4.731   1.604
 7182TIP3    H121489   1.135   4.643   1.642
 7182TIP3    H221490   1.155   4.789   1.676
 7183TIP3   OH221491   6.883   0.126   2.243
 7183TIP3    H121492   6.870   0.176   2.162
 7183TIP3    H221493   6.809   0.066   2.246
 7184TIP3   OH221494   5.743   5.308   3.313
 7184TIP3    H121495   5.781   5.299   3.226
 7184TIP3    H221496   5.779   5.389   3.347
 7185TIP3   OH221497   1.637   0.614   1.617
 7185TIP3    H121498   1.596   0.614   1.530
 7185TIP3    H221499   1.713   0.556   1.608
 7186TIP3   OH221500   3.003   6.481   3.095
 7186TIP3    H121501   2.949   6.402   3.097
 7186TIP3    H221502   2.984   6.520   3.009
 7187TIP3   OH221503   4.094   0.284   3.047
 7187TIP3    H121504   4.079   0.308   3.138
 7187TIP3    H221505   4.044   0.203   3.035
 7188TIP3   OH221506   7.888   2.540   5.793
 7188TIP3    H121507   7.905   2.476   5.724
 7188TIP3    H221508   7.833   2.606   5.751
 7189TIP3   OH221509   5.039   0.392   3.945
 7189TIP3    H121510   4.971   0.364   4.007
 7189TIP3    H221511   4.996   0.388   3.859
 7190TIP3   OH221512   2.459   3.412   3.399
 7190TIP3    H121513   2.493   3.422   3.310
 7190TIP3    H221514   2.474   3.320   3.420
 7191TIP3   OH221515   3.737   3.168   3.788
 7191TIP3    H121516   3.664   3.177   3.727
 7191TIP3    H221517   3.785   3.250   3.782
 7192TIP3   OH221518   4.679   1.635   5.973
 7192TIP3    H121519   4.607   1.688   5.939
 7192TIP3    H221520   4.757   1.689   5.960
 7193TIP3   OH221521   3.822   5.240   2.839
 7193TIP3    H121522   3.818   5.172   2.906
 7193TIP3    H221523   3.757   5.305   2.866
 7194TIP3   OH221524   4.620   7.565   3.568
 7194TIP3    H121525   4.703   7.582   3.612
 7194TIP3    H221526   4.555   7.613   3.619
 7195TIP3   OH221527   1.009   0.344   3.090
 7195TIP3    H121528   0.953   0.410   3.132
 7195TIP3    H221529   0.948   0.277   3.060
 7196TIP3   OH221530   7.671   2.905   1.879
 7196TIP3    H121531   7.765   2.904   1.896
 7196TIP3    H221532   7.664   2.909   1.784
 7197TIP3   OH221533   0.819   2.876   0.643
 7197TIP3    H121534   0.774   2.809   0.695
 7197TIP3    H221535   0.870   2.826   0.579
 7198TIP3   OH221536   0.834   0.235   2.433
 7198TIP3    H121537   0.914   0.186   2.419
 7198TIP3    H221538   0.824   0.239   2.528
 7199TIP3   OH221539   5.792   4.899   6.420
 7199TIP3    H121540   5.785   4.807   6.394
 7199TIP3    H221541   5.720   4.912   6.481
 7200TIP3   OH221542   2.267   6.356   3.185
 7200TIP3    H121543   2.276   6.361   3.090
 7200TIP3    H221544   2.174   6.370   3.202
 7201TIP3   OH221545   8.118   0.378   5.755
 7201TIP3    H121546   8.062   0.306   5.783
 7201TIP3    H221547   8.058   0.449   5.735
 7202TIP3   OH221548   3.578   3.954   0.914
 7202TIP3    H121549   3.660   3.973   0.869
 7202TIP3    H221550   3.541   3.880   0.866
 7203TIP3   OH221551   6.745   1.894   2.668
 7203TIP3    H121552   6.694   1.904   2.748
 7203TIP3    H221553   6.831   1.864   2.698
 7204TIP3   OH221554   1.272   3.810   4.337
 7204TIP3    H121555   1.197   3.860   4.368
 7204TIP3    H221556   1.325   3.794   4.415
 7205TIP3   OH221557   0.374   5.399   3.759
 7205TIP3    H121558   0.320   5.369   3.685
 7205TIP3    H221559   0.464   5.378   3.733
 7206TIP3   OH221560   4.936   2.789   0.577
 7206TIP3    H121561   5.023   2.751   0.580
 7206TIP3    H221562   4.902   2.764   0.491
 7207TIP3   OH221563   8.006   4.870   5.244
 7207TIP3    H121564   7.919   4.882   5.206
 7207TIP3    H221565   8.056   4.947   5.215
 7208TIP3   OH221566   4.944   4.276   1.282
 7208TIP3    H121567   4.853   4.304   1.272
 7208TIP3    H221568   4.970   4.250   1.194
 7209TIP3   OH221569   0.287   0.517   1.263
 7209TIP3    H121570   0.337   0.494   1.185
 7209TIP3    H221571   0.353   0.532   1.330
 7210TIP3   OH221572   2.196   4.641   4.597
 7210TIP3    H121573   2.247   4.710   4.555
 7210TIP3    H221574   2.225   4.640   4.688
 7211TIP3   OH221575   0.663   1.309   6.368
 7211TIP3    H121576   0.588   1.249   6.366
 7211TIP3    H221577   0.739   1.252   6.381
 7212TIP3   OH221578   2.770   0.819   2.605
 7212TIP3    H121579   2.757   0.759   2.532
 7212TIP3    H221580   2.704   0.887   2.592
 7213TIP3   OH221581   6.511   5.293   4.195
 7213TIP3    H121582   6.442   5.356   4.171
 7213TIP3    H221583   6.476   5.246   4.270
 7214TIP3   OH221584   2.972   6.559   2.253
 7214TIP3    H121585   3.006   6.549   2.342
 7214TIP3    H221586   2.990   6.650   2.230
 7215TIP3   OH221587   5.767   0.739   3.496
 7215TIP3    H121588   5.772   0.740   3.400
 7215TIP3    H221589   5.855   0.764   3.524
 7216TIP3   OH221590   2.467   6.868   0.567
 7216TIP3    H121591   2.449   6.935   0.501
 7216TIP3    H221592   2.457   6.914   0.650
 7217TIP3   OH221593   0.244   7.463   2.027
 7217TIP3    H121594   0.297   7.432   1.954
 7217TIP3    H221595   0.246   7.558   2.019
 7218TIP3   OH221596   2.561   6.021   3.367
 7218TIP3    H121597   2.505   6.021   3.289
 7218TIP3    H221598   2.506   6.057   3.436
 7219TIP3   OH221599   1.181   7.011   0.212
 7219TIP3    H121600   1.226   7.047   0.288
 7219TIP3    H221601   1.251   6.968   0.162
 7220TIP3   OH221602   3.917   0.631   5.587
 7220TIP3    H121603   3.894   0.581   5.666
 7220TIP3    H221604   3.842   0.619   5.529
 7221TIP3   OH221605   1.996   2.376   4.631
 7221TIP3    H121606   1.921   2.341   4.680
 7221TIP3    H221607   2.068   2.377   4.694
 7222TIP3   OH221608   1.581   3.123   0.444
 7222TIP3    H121609   1.487   3.115   0.430
 7222TIP3    H221610   1.590   3.142   0.538
 7223TIP3   OH221611   0.942   1.319   6.003
 7223TIP3    H121612   0.981   1.400   6.035
 7223TIP3    H221613   1.016   1.268   5.971
 7224TIP3   OH221614   6.679   5.982   2.340
 7224TIP3    H121615   6.656   6.058   2.393
 7224TIP3    H221616   6.648   6.004   2.252
 7225TIP3   OH221617   7.083   5.542   2.392
 7225TIP3    H121618   7.041   5.489   2.459
 7225TIP3    H221619   7.148   5.593   2.439
 7226TIP3   OH221620   2.021   5.193   4.855
 7226TIP3    H121621   2.010   5.159   4.766
 7226TIP3    H221622   2.085   5.135   4.896
 7227TIP3   OH221623   0.602   7.186   4.759
 7227TIP3    H121624   0.669   7.236   4.712
 7227TIP3    H221625   0.535   7.250   4.780
 7228TIP3   OH221626   2.571   4.291   3.390
 7228TIP3    H121627   2.583   4.313   3.297
 7228TIP3    H221628   2.658   4.301   3.428
 7229TIP3   OH221629   2.627   7.516   0.966
 7229TIP3    H121630   2.714   7.479   0.954
 7229TIP3    H221631   2.611   7.567   0.887
 7230TIP3   OH221632   6.787   0.944   3.943
 7230TIP3    H121633   6.882   0.930   3.939
 7230TIP3    H221634   6.751   0.857   3.959
 7231TIP3   OH221635   6.114   0.768   6.528
 7231TIP3    H121636   6.141   0.755   6.619
 7231TIP3    H221637   6.163   0.845   6.500
 7232TIP3   OH221638   6.529   0.461   2.467
 7232TIP3    H121639   6.510   0.527   2.399
 7232TIP3    H221640   6.540   0.512   2.547
 7233TIP3   OH221641   3.930  -0.008   1.339
 7233TIP3    H121642   4.020  -0.008   1.306
 7233TIP3    H221643   3.878   0.031   1.269
 7234TIP3   OH221644   3.474   2.400   2.671
 7234TIP3    H121645   3.566   2.414   2.645
 7234TIP3    H221646   3.423   2.441   2.601
 7235TIP3   OH221647   7.126   5.438   0.908
 7235TIP3    H121648   7.213   5.469   0.883
 7235TIP3    H221649   7.104   5.489   0.986
 7236TIP3   OH221650   4.937   7.514   6.395
 7236TIP3    H121651   4.896   7.434   6.363
 7236TIP3    H221652   5.015   7.485   6.442
 7237TIP3   OH221653   7.258   6.436   1.723
 7237TIP3    H121654   7.279   6.386   1.802
 7237TIP3    H221655   7.304   6.390   1.653
 7238TIP3   OH221656   6.073   1.227   6.052
 7238TIP3    H121657   6.058   1.321   6.063
 7238TIP3    H221658   6.063   1.191   6.140
 7239TIP3   OH221659   4.623   2.459   3.973
 7239TIP3    H121660   4.645   2.548   3.999
 7239TIP3    H221661   4.554   2.433   4.034
 7240TIP3   OH221662   4.641   6.954   3.186
 7240TIP3    H121663   4.669   6.983   3.100
 7240TIP3    H221664   4.554   6.993   3.197
 7241TIP3   OH221665   2.111   2.691   4.497
 7241TIP3    H121666   2.105   2.599   4.470
 7241TIP3    H221667   2.069   2.740   4.426
 7242TIP3   OH221668   1.321   5.350   0.974
 7242TIP3    H121669   1.291   5.434   1.008
 7242TIP3    H221670   1.364   5.308   1.049
 7243TIP3   OH221671   0.758   6.072   1.804
 7243TIP3    H121672   0.823   6.054   1.736
 7243TIP3    H221673   0.808   6.073   1.886
 7244TIP3   OH221674   7.171   6.118   0.722
 7244TIP3    H121675   7.225   6.042   0.742
 7244TIP3    H221676   7.091   6.081   0.684
 7245TIP3   OH221677   3.879   3.728   0.511
 7245TIP3    H121678   3.882   3.823   0.521
 7245TIP3    H221679   3.854   3.714   0.420
 7246TIP3   OH221680   1.069   6.092   4.271
 7246TIP3    H121681   1.137   6.091   4.337
 7246TIP3    H221682   1.044   6.184   4.263
 7247TIP3   OH221683   0.588   6.920   0.654
 7247TIP3    H121684   0.542   6.915   0.570
 7247TIP3    H221685   0.622   6.832   0.668
 7248TIP3   OH221686   0.749   3.334   4.676
 7248TIP3    H121687   0.788   3.418   4.651
 7248TIP3    H221688   0.795   3.309   4.756
 7249TIP3   OH221689   0.262   2.075   1.429
 7249TIP3    H121690   0.350   2.079   1.392
 7249TIP3    H221691   0.211   2.136   1.376
 7250TIP3   OH221692   8.129   7.261   1.873
 7250TIP3    H121693   8.138   7.198   1.944
 7250TIP3    H221694   8.158   7.344   1.910
 7251TIP3   OH221695   2.148   0.968   4.453
 7251TIP3    H121696   2.089   0.912   4.503
 7251TIP3    H221697   2.170   0.916   4.375
 7252TIP3   OH221698   8.255   1.704   6.063
 7252TIP3    H121699   8.205   1.747   6.132
 7252TIP3    H221700   8.321   1.652   6.109
 7253TIP3   OH221701   6.666   2.123   3.337
 7253TIP3    H121702   6.574   2.143   3.350
 7253TIP3    H221703   6.707   2.208   3.319
 7254TIP3   OH221704   5.671   0.182   5.511
 7254TIP3    H121705   5.598   0.219   5.462
 7254TIP3    H221706   5.631   0.123   5.574
 7255TIP3   OH221707   4.323  -0.034   5.065
 7255TIP3    H121708   4.234  -0.057   5.094
 7255TIP3    H221709   4.338   0.053   5.101
 7256TIP3   OH221710   6.521   4.608   2.066
 7256TIP3    H121711   6.427   4.629   2.064
 7256TIP3    H221712   6.542   4.587   1.975
 7257TIP3   OH221713   0.457   7.566   5.485
 7257TIP3    H121714   0.411   7.581   5.402
 7257TIP3    H221715   0.534   7.623   5.481
 7258TIP3   OH221716   5.458   4.266   1.160
 7258TIP3    H121717   5.546   4.229   1.157
 7258TIP3    H221718   5.473   4.360   1.171
 7259TIP3   OH221719   2.271   1.228   4.730
 7259TIP3    H121720   2.327   1.220   4.807
 7259TIP3    H221721   2.266   1.139   4.695
 7260TIP3   OH221722   3.386   1.391   4.749
 7260TIP3    H121723   3.451   1.459   4.733
 7260TIP3    H221724   3.309   1.439   4.782
 7261TIP3   OH221725   3.990   6.713   1.206
 7261TIP3    H121726   4.061   6.755   1.255
 7261TIP3    H221727   3.943   6.786   1.165
 7262TIP3   OH221728   8.004  -0.023   1.884
 7262TIP3    H121729   8.053   0.053   1.853
 7262TIP3    H221730   7.946  -0.046   1.811
 7263TIP3   OH221731   0.996   6.286   5.908
 7263TIP3    H121732   1.076   6.338   5.918
 7263TIP3    H221733   0.992   6.265   5.815
 7264TIP3   OH221734   5.274   1.663   5.829
 7264TIP3    H121735   5.302   1.620   5.910
 7264TIP3    H221736   5.211   1.603   5.791
 7265TIP3   OH221737   2.577   6.672   3.172
 7265TIP3    H121738   2.535   6.668   3.258
 7265TIP3    H221739   2.554   6.590   3.129
 7266TIP3   OH221740   4.537   1.696   1.189
 7266TIP3    H121741   4.542   1.784   1.227
 7266TIP3    H221742   4.488   1.645   1.254
 7267TIP3   OH221743   4.053   2.235   2.646
 7267TIP3    H121744   4.016   2.300   2.587
 7267TIP3    H221745   4.148   2.250   2.642
 7268TIP3   OH221746   0.280   0.159   3.205
 7268TIP3    H121747   0.333   0.221   3.154
 7268TIP3    H221748   0.194   0.201   3.211
 7269TIP3   OH221749   6.101   6.310   4.102
 7269TIP3    H121750   6.099   6.233   4.159
 7269TIP3    H221751   6.192   6.341   4.107
 7270TIP3   OH221752   0.076   6.978   1.082
 7270TIP3    H121753   0.059   7.069   1.108
 7270TIP3    H221754   0.020   6.963   1.007
 7271TIP3   OH221755   6.021   3.667   5.369
 7271TIP3    H121756   5.968   3.746   5.360
 7271TIP3    H221757   6.015   3.625   5.283
 7272TIP3   OH221758   1.529   3.471   4.633
 7272TIP3    H121759   1.591   3.542   4.617
 7272TIP3    H221760   1.465   3.508   4.694
 7273TIP3   OH221761   7.001   0.925   6.764
 7273TIP3    H121762   7.014   0.969   6.849
 7273TIP3    H221763   7.089   0.893   6.741
 7274TIP3   OH221764   1.695   2.862   4.629
 7274TIP3    H121765   1.671   2.858   4.536
 7274TIP3    H221766   1.691   2.771   4.658
 7275TIP3   OH221767   4.508   7.195   1.488
 7275TIP3    H121768   4.570   7.206   1.417
 7275TIP3    H221769   4.537   7.258   1.555
 7276TIP3   OH221770   7.381   6.495   2.042
 7276TIP3    H121771   7.287   6.511   2.054
 7276TIP3    H221772   7.396   6.410   2.083
 7277TIP3   OH221773   5.132   1.935   5.173
 7277TIP3    H121774   5.039   1.949   5.154
 7277TIP3    H221775   5.157   1.862   5.116
 7278TIP3   OH221776   2.708   3.168   1.813
 7278TIP3    H121777   2.693   3.127   1.728
 7278TIP3    H221778   2.698   3.262   1.797
 7279TIP3   OH221779   3.447   2.945   1.352
 7279TIP3    H121780   3.459   2.883   1.424
 7279TIP3    H221781   3.379   2.905   1.297
 7280TIP3   OH221782   3.086   2.034   3.193
 7280TIP3    H121783   3.069   1.967   3.259
 7280TIP3    H221784   3.108   1.984   3.114
 7281TIP3   OH221785   1.009   3.571   4.083
 7281TIP3    H121786   1.000   3.640   4.017
 7281TIP3    H221787   1.097   3.583   4.118
 7282TIP3   OH221788   4.164   2.880   2.335
 7282TIP3    H121789   4.158   2.806   2.396
 7282TIP3    H221790   4.092   2.865   2.272
 7283TIP3   OH221791   0.845   5.004   4.679
 7283TIP3    H121792   0.924   4.956   4.704
 7283TIP3    H221793   0.774   4.942   4.692
 7284TIP3   OH221794   3.448   4.071   5.474
 7284TIP3    H121795   3.476   4.150   5.519
 7284TIP3    H221796   3.477   3.999   5.531
 7285TIP3   OH221797   5.402   0.231   2.042
 7285TIP3    H121798   5.466   0.167   2.014
 7285TIP3    H221799   5.327   0.217   1.984
 7286TIP3   OH221800   4.712   5.617   1.574
 7286TIP3    H121801   4.801   5.647   1.552
 7286TIP3    H221802   4.661   5.697   1.580
 7287TIP3   OH221803   0.649   5.955   5.049
 7287TIP3    H121804   0.738   5.960   5.015
 7287TIP3    H221805   0.646   5.872   5.095
 7288TIP3   OH221806   7.905   1.374   0.476
 7288TIP3    H121807   7.907   1.432   0.400
 7288TIP3    H221808   7.992   1.381   0.515
 7289TIP3   OH221809   5.692   4.588   1.822
 7289TIP3    H121810   5.772   4.554   1.862
 7289TIP3    H221811   5.699   4.683   1.831
 7290TIP3   OH221812   3.797   3.498   5.050
 7290TIP3    H121813   3.887   3.524   5.072
 7290TIP3    H221814   3.804   3.459   4.963
 7291TIP3   OH221815   6.683   4.988   4.010
 7291TIP3    H121816   6.605   4.938   3.986
 7291TIP3    H221817   6.754   4.924   4.013
 7292TIP3   OH221818   1.911   4.142   5.166
 7292TIP3    H121819   1.938   4.087   5.093
 7292TIP3    H221820   1.993   4.170   5.206
 7293TIP3   OH221821   6.113   1.625   2.292
 7293TIP3    H121822   6.019   1.644   2.298
 7293TIP3    H221823   6.155   1.696   2.341
 7294TIP3   OH221824   5.053   5.926   0.553
 7294TIP3    H121825   5.144   5.957   0.556
 7294TIP3    H221826   5.049   5.860   0.622
 7295TIP3   OH221827   5.480   7.692   4.340
 7295TIP3    H121828   5.503   7.785   4.343
 7295TIP3    H221829   5.436   7.682   4.256
 7296TIP3   OH221830   7.974   2.108   1.571
 7296TIP3    H121831   7.925   2.171   1.519
 7296TIP3    H221832   8.066   2.132   1.558
 7297TIP3   OH221833   6.169   3.355   5.682
 7297TIP3    H121834   6.229   3.415   5.638
 7297TIP3    H221835   6.224   3.281   5.709
 7298TIP3   OH221836   2.098   7.631   6.557
 7298TIP3    H121837   2.052   7.672   6.484
 7298TIP3    H221838   2.063   7.675   6.635
 7299TIP3   OH221839   3.976   7.688   2.437
 7299TIP3    H121840   3.891   7.654   2.466
 7299TIP3    H221841   3.957   7.734   2.356
 7300TIP3   OH221842   6.666   7.191   1.790
 7300TIP3    H121843   6.588   7.240   1.765
 7300TIP3    H221844   6.710   7.171   1.707
 7301TIP3   OH221845   1.887   2.092   4.344
 7301TIP3    H121846   1.820   2.118   4.406
 7301TIP3    H221847   1.925   2.013   4.381
 7302TIP3   OH221848   8.014   5.824   0.967
 7302TIP3    H121849   7.986   5.889   0.902
 7302TIP3    H221850   8.100   5.854   0.995
 7303TIP3   OH221851   5.499   6.338   2.435
 7303TIP3    H121852   5.552   6.399   2.486
 7303TIP3    H221853   5.517   6.252   2.474
 7304TIP3   OH221854   6.061   4.627   1.605
 7304TIP3    H121855   6.006   4.687   1.656
 7304TIP3    H221856   6.035   4.540   1.635
 7305TIP3   OH221857   1.445   3.621   3.641
 7305TIP3    H121858   1.413   3.694   3.588
 7305TIP3    H221859   1.371   3.560   3.644
 7306TIP3   OH221860   5.621   6.110   6.427
 7306TIP3    H121861   5.691   6.059   6.467
 7306TIP3    H221862   5.564   6.045   6.386
 7307TIP3   OH221863   3.028   6.568   1.402
 7307TIP3    H121864   2.997   6.640   1.457
 7307TIP3    H221865   2.952   6.510   1.392
 7308TIP3   OH221866   4.414   0.678   1.552
 7308TIP3    H121867   4.399   0.657   1.644
 7308TIP3    H221868   4.338   0.729   1.526
 7309TIP3   OH221869   5.427   3.342   0.715
 7309TIP3    H121870   5.349   3.286   0.715
 7309TIP3    H221871   5.461   3.337   0.804
 7310TIP3   OH221872   5.038   1.836   1.733
 7310TIP3    H121873   5.049   1.763   1.672
 7310TIP3    H221874   4.992   1.798   1.808
 7311TIP3   OH221875   3.546   1.551   6.077
 7311TIP3    H121876   3.500   1.485   6.025
 7311TIP3    H221877   3.625   1.507   6.108
 7312TIP3   OH221878   4.222   4.153   0.814
 7312TIP3    H121879   4.160   4.203   0.761
 7312TIP3    H221880   4.208   4.062   0.790
 7313TIP3   OH221881   4.262   1.842   3.705
 7313TIP3    H121882   4.350   1.877   3.690
 7313TIP3    H221883   4.218   1.907   3.758
 7314TIP3   OH221884   2.080   0.065   3.211
 7314TIP3    H121885   2.061   0.132   3.145
 7314TIP3    H221886   2.030  -0.012   3.183
 7315TIP3   OH221887   4.385   5.384   4.903
 7315TIP3    H121888   4.397   5.424   4.989
 7315TIP3    H221889   4.301   5.417   4.872
 7316TIP3   OH221890   7.939   6.375   0.149
 7316TIP3    H121891   8.028   6.407   0.164
 7316TIP3    H221892   7.947   6.321   0.071
 7317TIP3   OH221893   4.248   5.466   3.595
 7317TIP3    H121894   4.207   5.380   3.587
 7317TIP3    H221895   4.238   5.490   3.687
 7318TIP3   OH221896   5.592   0.202   6.549
 7318TIP3    H121897   5.529   0.274   6.555
 7318TIP3    H221898   5.543   0.131   6.508
 7319TIP3   OH221899   7.643   6.095   5.547
 7319TIP3    H121900   7.587   6.164   5.585
 7319TIP3    H221901   7.721   6.142   5.517
 7320TIP3   OH221902   0.934   6.170   0.109
 7320TIP3    H121903   0.965   6.085   0.139
 7320TIP3    H221904   0.981   6.233   0.162
 7321TIP3   OH221905   3.758   6.021   5.992
 7321TIP3    H121906   3.664   6.037   5.988
 7321TIP3    H221907   3.797   6.109   5.986
 7322TIP3   OH221908   4.358   6.105   4.498
 7322TIP3    H121909   4.290   6.085   4.563
 7322TIP3    H221910   4.357   6.201   4.492
 7323TIP3   OH221911   7.911   7.114   2.989
 7323TIP3    H121912   7.905   7.035   3.043
 7323TIP3    H221913   7.996   7.107   2.945
 7324TIP3   OH221914   7.526   2.374   2.072
 7324TIP3    H121915   7.609   2.422   2.066
 7324TIP3    H221916   7.462   2.432   2.029
 7325TIP3   OH221917   4.502   6.446   6.569
 7325TIP3    H121918   4.461   6.426   6.654
 7325TIP3    H221919   4.568   6.378   6.559
 7326TIP3   OH221920   4.066   5.060   1.375
 7326TIP3    H121921   4.008   5.095   1.443
 7326TIP3    H221922   4.007   5.028   1.307
 7327TIP3   OH221923   8.281   1.919   5.871
 7327TIP3    H121924   8.262   1.871   5.790
 7327TIP3    H221925   8.242   1.866   5.940
 7328TIP3   OH221926   4.386   3.487   3.044
 7328TIP3    H121927   4.457   3.539   3.081
 7328TIP3    H221928   4.366   3.530   2.961
 7329TIP3   OH221929   7.829   4.161   2.793
 7329TIP3    H121930   7.918   4.185   2.821
 7329TIP3    H221931   7.787   4.244   2.772
 7330TIP3   OH221932   3.156   0.073   4.502
 7330TIP3    H121933   3.234   0.017   4.511
 7330TIP3    H221934   3.141   0.077   4.408
 7331TIP3   OH221935   2.170   1.242   3.445
 7331TIP3    H121936   2.217   1.219   3.365
 7331TIP3    H221937   2.122   1.163   3.469
 7332TIP3   OH221938   5.256   2.611   2.463
 7332TIP3    H121939   5.242   2.704   2.443
 7332TIP3    H221940   5.181   2.587   2.517
 7333TIP3   OH221941   6.179   3.224   4.375
 7333TIP3    H121942   6.207   3.133   4.365
 7333TIP3    H221943   6.258   3.269   4.406
 7334TIP3   OH221944   6.104   2.282   3.530
 7334TIP3    H121945   6.099   2.339   3.454
 7334TIP3    H221946   6.032   2.310   3.586
 7335TIP3   OH221947   4.723   4.599   4.578
 7335TIP3    H121948   4.741   4.508   4.554
 7335TIP3    H221949   4.803   4.628   4.621
 7336TIP3   OH221950   5.945   6.083   0.904
 7336TIP3    H121951   5.924   6.026   0.978
 7336TIP3    H221952   5.871   6.143   0.899
 7337TIP3   OH221953   4.948   1.649   4.310
 7337TIP3    H121954   4.928   1.564   4.269
 7337TIP3    H221955   4.907   1.713   4.252
 7338TIP3   OH221956   1.160   5.551   3.126
 7338TIP3    H121957   1.125   5.472   3.084
 7338TIP3    H221958   1.174   5.612   3.053
 7339TIP3   OH221959   8.264   5.106   1.991
 7339TIP3    H121960   8.233   5.180   2.045
 7339TIP3    H221961   8.269   5.033   2.053
 7340TIP3   OH221962   7.749   4.909   1.689
 7340TIP3    H121963   7.824   4.862   1.727
 7340TIP3    H221964   7.673   4.866   1.728
 7341TIP3   OH221965   1.045   3.664   4.903
 7341TIP3    H121966   1.052   3.583   4.954
 7341TIP3    H221967   0.951   3.676   4.891
 7342TIP3   OH221968   1.681   5.763   0.695
 7342TIP3    H121969   1.712   5.736   0.781
 7342TIP3    H221970   1.667   5.682   0.648
 7343TIP3   OH221971   3.201   2.179   5.808
 7343TIP3    H121972   3.126   2.121   5.803
 7343TIP3    H221973   3.225   2.197   5.717
 7344TIP3   OH221974   1.809   6.917   5.141
 7344TIP3    H121975   1.791   6.956   5.227
 7344TIP3    H221976   1.862   6.983   5.096
 7345TIP3   OH221977   4.454   3.082   5.665
 7345TIP3    H121978   4.535   3.034   5.682
 7345TIP3    H221979   4.387   3.032   5.711
 7346TIP3   OH221980   4.134   2.892   6.678
 7346TIP3    H121981   4.177   2.821   6.630
 7346TIP3    H221982   4.122   2.857   6.767
 7347TIP3   OH221983   0.823   3.350   2.920
 7347TIP3    H121984   0.898   3.292   2.907
 7347TIP3    H221985   0.778   3.314   2.995
 7348TIP3   OH221986   5.837   0.455   4.978
 7348TIP3    H121987   5.809   0.483   5.065
 7348TIP3    H221988   5.839   0.359   4.983
 7349TIP3   OH221989   5.858   7.587   3.764
 7349TIP3    H121990   5.902   7.630   3.837
 7349TIP3    H221991   5.807   7.517   3.805
 7350TIP3   OH221992   4.715   3.339   1.162
 7350TIP3    H121993   4.676   3.281   1.227
 7350TIP3    H221994   4.747   3.281   1.093
 7351TIP3   OH221995   2.538   7.681   6.017
 7351TIP3    H121996   2.606   7.709   6.077
 7351TIP3    H221997   2.513   7.594   6.047
 7352TIP3   OH221998   6.866   1.531   1.746
 7352TIP3    H121999   6.884   1.506   1.837
 7352TIP3    H222000   6.893   1.455   1.695
 7353TIP3   OH222001   6.671   3.774   3.943
 7353TIP3    H122002   6.734   3.845   3.954
 7353TIP3    H222003   6.587   3.812   3.969
 7354TIP3   OH222004   2.251   4.923   6.634
 7354TIP3    H122005   2.316   4.942   6.701
 7354TIP3    H222006   2.291   4.852   6.582
 7355TIP3   OH222007   3.064   1.814   6.136
 7355TIP3    H122008   3.008   1.880   6.176
 7355TIP3    H222009   3.152   1.852   6.139
 7356TIP3   OH222010   4.310   1.805   4.790
 7356TIP3    H122011   4.319   1.714   4.821
 7356TIP3    H222012   4.389   1.820   4.738
 7357TIP3   OH222013   3.885   5.864   3.609
 7357TIP3    H122014   3.870   5.772   3.630
 7357TIP3    H222015   3.972   5.866   3.569
 7358TIP3   OH222016   3.862   7.656   0.460
 7358TIP3    H122017   3.832   7.616   0.379
 7358TIP3    H222018   3.857   7.750   0.444
 7359TIP3   OH222019   6.905   5.074   3.145
 7359TIP3    H122020   6.967   5.091   3.075
 7359TIP3    H222021   6.915   4.981   3.164
 7360TIP3   OH222022   0.420   6.616   5.827
 7360TIP3    H122023   0.364   6.545   5.797
 7360TIP3    H222024   0.431   6.600   5.921
 7361TIP3   OH222025   0.601   3.442   5.976
 7361TIP3    H122026   0.629   3.453   6.066
 7361TIP3    H222027   0.663   3.495   5.925
 7362TIP3   OH222028   1.720   4.439   0.449
 7362TIP3    H122029   1.752   4.491   0.376
 7362TIP3    H222030   1.650   4.493   0.488
 7363TIP3   OH222031   8.200   3.997   4.019
 7363TIP3    H122032   8.190   4.075   4.073
 7363TIP3    H222033   8.123   3.944   4.038
 7364TIP3   OH222034   2.965   5.693   1.647
 7364TIP3    H122035   2.909   5.727   1.717
 7364TIP3    H222036   2.954   5.755   1.575
 7365TIP3   OH222037   0.340   4.262   0.461
 7365TIP3    H122038   0.313   4.267   0.553
 7365TIP3    H222039   0.261   4.236   0.414
 7366TIP3   OH222040   7.046   1.842   0.728
 7366TIP3    H122041   7.013   1.825   0.639
 7366TIP3    H222042   7.056   1.937   0.732
 7367TIP3   OH222043   4.915   4.932   1.757
 7367TIP3    H122044   5.009   4.950   1.760
 7367TIP3    H222045   4.902   4.889   1.673
 7368TIP3   OH222046   2.982   4.291   5.022
 7368TIP3    H122047   2.991   4.383   5.001
 7368TIP3    H222048   2.919   4.257   4.958
 7369TIP3   OH222049   0.185   0.984   3.085
 7369TIP3    H122050   0.150   1.049   3.145
 7369TIP3    H222051   0.146   1.006   3.000
 7370TIP3   OH222052   3.116   5.965   6.554
 7370TIP3    H122053   3.193   5.924   6.514
 7370TIP3    H222054   3.079   5.896   6.609
 7371TIP3   OH222055   3.295   0.542   5.948
 7371TIP3    H122056   3.294   0.528   5.853
 7371TIP3    H222057   3.384   0.573   5.967
 7372TIP3   OH222058   3.419   2.927   0.887
 7372TIP3    H122059   3.512   2.949   0.885
 7372TIP3    H222060   3.414   2.844   0.935
 7373TIP3   OH222061   2.829   7.122   0.659
 7373TIP3    H122062   2.772   7.116   0.581
 7373TIP3    H222063   2.853   7.215   0.663
 7374TIP3   OH222064   2.358   5.645   0.142
 7374TIP3    H122065   2.318   5.616   0.060
 7374TIP3    H222066   2.286   5.683   0.193
 7375TIP3   OH222067   4.279   6.418   0.910
 7375TIP3    H122068   4.280   6.390   0.819
 7375TIP3    H222069   4.202   6.474   0.918
 7376TIP3   OH222070   2.586   2.860   1.591
 7376TIP3    H122071   2.535   2.800   1.537
 7376TIP3    H222072   2.653   2.805   1.632
 7377TIP3   OH222073   4.766   3.568   2.022
 7377TIP3    H122074   4.730   3.627   2.088
 7377TIP3    H222075   4.770   3.621   1.942
 7378TIP3   OH222076   8.247   5.968   5.033
 7378TIP3    H122077   8.215   5.925   4.953
 7378TIP3    H222078   8.307   5.904   5.072
 7379TIP3   OH222079   6.677   0.819   0.164
 7379TIP3    H122080   6.721   0.822   0.249
 7379TIP3    H222081   6.744   0.841   0.100
 7380TIP3   OH222082   2.264   4.246   0.107
 7380TIP3    H122083   2.254   4.273   0.198
 7380TIP3    H222084   2.175   4.238   0.074
 7381TIP3   OH222085   5.513   1.294   6.592
 7381TIP3    H122086   5.557   1.230   6.536
 7381TIP3    H222087   5.582   1.357   6.614
 7382TIP3   OH222088   2.193   4.745   2.128
 7382TIP3    H122089   2.106   4.719   2.099
 7382TIP3    H222090   2.208   4.693   2.207
 7383TIP3   OH222091   6.549   0.295   4.982
 7383TIP3    H122092   6.482   0.295   4.915
 7383TIP3    H222093   6.515   0.353   5.051
 7384TIP3   OH222094   4.308   6.592   1.777
 7384TIP3    H122095   4.343   6.532   1.843
 7384TIP3    H222096   4.213   6.594   1.793
 7385TIP3   OH222097   7.780   2.852   3.381
 7385TIP3    H122098   7.689   2.843   3.408
 7385TIP3    H222099   7.776   2.858   3.285
 7386TIP3   OH222100   0.614   6.133   3.109
 7386TIP3    H122101   0.557   6.142   3.185
 7386TIP3    H222102   0.573   6.065   3.056
 7387TIP3   OH222103   2.180   1.715   0.151
 7387TIP3    H122104   2.183   1.727   0.246
 7387TIP3    H222105   2.206   1.624   0.138
 7388TIP3   OH222106   0.436   6.938   0.080
 7388TIP3    H122107   0.465   6.888   0.004
 7388TIP3    H222108   0.507   7.000   0.096
 7389TIP3   OH222109   4.262   7.675   4.764
 7389TIP3    H122110   4.228   7.616   4.696
 7389TIP3    H222111   4.257   7.624   4.845
 7390TIP3   OH222112   0.921   7.372   0.889
 7390TIP3    H122113   0.831   7.345   0.872
 7390TIP3    H222114   0.973   7.321   0.827
 7391TIP3   OH222115   3.203   4.519   5.315
 7391TIP3    H122116   3.147   4.474   5.379
 7391TIP3    H222117   3.243   4.449   5.264
 7392TIP3   OH222118   4.403   4.193   3.660
 7392TIP3    H122119   4.452   4.233   3.588
 7392TIP3    H222120   4.352   4.124   3.619
 7393TIP3   OH222121   3.080   7.569   5.955
 7393TIP3    H122122   3.008   7.511   5.931
 7393TIP3    H222123   3.059   7.652   5.913
 7394TIP3   OH222124   8.178   0.685   5.418
 7394TIP3    H122125   8.182   0.731   5.334
 7394TIP3    H222126   8.184   0.592   5.394
 7395TIP3   OH222127   6.564   1.649   2.420
 7395TIP3    H122128   6.504   1.723   2.424
 7395TIP3    H222129   6.591   1.635   2.511
 7396TIP3   OH222130   3.358   3.620   6.060
 7396TIP3    H122131   3.419   3.599   6.131
 7396TIP3    H222132   3.407   3.602   5.980
 7397TIP3   OH222133   6.009   1.920   0.962
 7397TIP3    H122134   6.087   1.943   0.913
 7397TIP3    H222135   6.041   1.895   1.049
 7398TIP3   OH222136   3.626   4.592   1.597
 7398TIP3    H122137   3.705   4.563   1.642
 7398TIP3    H222138   3.577   4.640   1.664
 7399TIP3   OH222139   6.064   7.298   5.670
 7399TIP3    H122140   6.141   7.332   5.716
 7399TIP3    H222141   6.010   7.260   5.739
 7400TIP3   OH222142   2.220   7.406   3.753
 7400TIP3    H122143   2.201   7.495   3.722
 7400TIP3    H222144   2.226   7.354   3.673
 7401TIP3   OH222145   1.759   0.978   2.867
 7401TIP3    H122146   1.732   0.929   2.789
 7401TIP3    H222147   1.839   0.933   2.896
 7402TIP3   OH222148   3.795   2.795   1.102
 7402TIP3    H122149   3.877   2.843   1.114
 7402TIP3    H222150   3.822   2.703   1.099
 7403TIP3   OH222151   6.136   1.556   4.049
 7403TIP3    H122152   6.153   1.650   4.062
 7403TIP3    H222153   6.115   1.524   4.137
 7404TIP3   OH222154   5.821   6.455   1.215
 7404TIP3    H122155   5.751   6.438   1.152
 7404TIP3    H222156   5.777   6.466   1.299
 7405TIP3   OH222157   5.165   0.444   5.572
 7405TIP3    H122158   5.261   0.446   5.576
 7405TIP3    H222159   5.138   0.414   5.658
 7406TIP3   OH222160   0.297   0.843   3.545
 7406TIP3    H122161   0.391   0.841   3.527
 7406TIP3    H222162   0.256   0.822   3.460
 7407TIP3   OH222163   5.527   0.661   0.158
 7407TIP3    H122164   5.552   0.572   0.135
 7407TIP3    H222165   5.590   0.688   0.225
 7408TIP3   OH222166   4.728   0.879   1.059
 7408TIP3    H122167   4.688   0.953   1.013
 7408TIP3    H222168   4.667   0.860   1.131
 7409TIP3   OH222169   4.117   5.832   0.294
 7409TIP3    H122170   4.175   5.869   0.227
 7409TIP3    H222171   4.137   5.738   0.292
 7410TIP3   OH222172   7.486   5.603   6.726
 7410TIP3    H122173   7.560   5.575   6.780
 7410TIP3    H222174   7.477   5.696   6.743
 7411TIP3   OH222175   2.436   5.922   6.426
 7411TIP3    H122176   2.433   5.961   6.513
 7411TIP3    H222177   2.361   5.863   6.423
 7412TIP3   OH222178   5.082   6.319   1.225
 7412TIP3    H122179   5.128   6.275   1.154
 7412TIP3    H222180   4.991   6.321   1.198
 7413TIP3   OH222181   3.552   5.170   5.224
 7413TIP3    H122182   3.569   5.251   5.272
 7413TIP3    H222183   3.502   5.198   5.147
 7414TIP3   OH222184   6.947   3.027   2.772
 7414TIP3    H122185   7.003   2.978   2.832
 7414TIP3    H222186   6.894   3.082   2.830
 7415TIP3   OH222187   0.455   5.892   2.292
 7415TIP3    H122188   0.525   5.869   2.353
 7415TIP3    H222189   0.395   5.818   2.297
 7416TIP3   OH222190   1.710   7.145   4.306
 7416TIP3    H122191   1.628   7.179   4.342
 7416TIP3    H222192   1.768   7.136   4.382
 7417TIP3   OH222193   5.802   2.648   1.817
 7417TIP3    H122194   5.744   2.708   1.864
 7417TIP3    H222195   5.882   2.699   1.802
 7418TIP3   OH222196   6.008   1.917   0.346
 7418TIP3    H122197   5.989   1.979   0.276
 7418TIP3    H222198   6.033   1.836   0.301
 7419TIP3   OH222199   7.002   2.406   0.623
 7419TIP3    H122200   6.938   2.336   0.620
 7419TIP3    H222201   6.968   2.472   0.561
 7420TIP3   OH222202   1.312   1.248   5.051
 7420TIP3    H122203   1.247   1.259   5.121
 7420TIP3    H222204   1.300   1.325   4.995
 7421TIP3   OH222205   0.117   4.276   4.797
 7421TIP3    H122206   0.186   4.213   4.820
 7421TIP3    H222207   0.138   4.302   4.707
 7422TIP3   OH222208   7.197   3.166   3.194
 7422TIP3    H122209   7.260   3.209   3.137
 7422TIP3    H222210   7.115   3.211   3.179
 7423TIP3   OH222211   5.883   6.801   1.686
 7423TIP3    H122212   5.805   6.855   1.695
 7423TIP3    H222213   5.950   6.861   1.652
 7424TIP3   OH222214   5.899   2.086   5.748
 7424TIP3    H122215   5.967   2.021   5.763
 7424TIP3    H222216   5.817   2.041   5.769
 7425TIP3   OH222217   1.101   7.520   1.353
 7425TIP3    H122218   1.174   7.458   1.353
 7425TIP3    H222219   1.141   7.605   1.371
 7426TIP3   OH222220   7.076   5.867   4.722
 7426TIP3    H122221   7.097   5.775   4.733
 7426TIP3    H222222   7.157   5.913   4.744
 7427TIP3   OH222223   2.194   2.808   1.301
 7427TIP3    H122224   2.108   2.839   1.331
 7427TIP3    H222225   2.237   2.886   1.267
 7428TIP3   OH222226   7.195   5.388   3.103
 7428TIP3    H122227   7.245   5.392   3.184
 7428TIP3    H222228   7.257   5.358   3.037
 7429TIP3   OH222229   0.932   3.195   0.584
 7429TIP3    H122230   0.838   3.214   0.577
 7429TIP3    H222231   0.939   3.134   0.657
 7430TIP3   OH222232   6.053   3.712   2.453
 7430TIP3    H122233   6.000   3.744   2.527
 7430TIP3    H222234   6.143   3.733   2.477
 7431TIP3   OH222235   4.754   0.643   4.059
 7431TIP3    H122236   4.785   0.687   3.980
 7431TIP3    H222237   4.669   0.607   4.034
 7432TIP3   OH222238   6.431   1.480   2.998
 7432TIP3    H122239   6.426   1.571   3.027
 7432TIP3    H222240   6.403   1.482   2.906
 7433TIP3   OH222241   5.554   7.201   5.506
 7433TIP3    H122242   5.598   7.277   5.542
 7433TIP3    H222243   5.517   7.232   5.423
 7434TIP3   OH222244   7.850   7.752   1.644
 7434TIP3    H122245   7.833   7.803   1.723
 7434TIP3    H222246   7.797   7.673   1.654
 7435TIP3   OH222247   5.756   2.550   3.150
 7435TIP3    H122248   5.690   2.481   3.151
 7435TIP3    H222249   5.709   2.628   3.119
 7436TIP3   OH222250   5.333   7.302   5.071
 7436TIP3    H122251   5.349   7.227   5.128
 7436TIP3    H222252   5.338   7.266   4.982
 7437TIP3   OH222253   3.622   1.057   4.107
 7437TIP3    H122254   3.622   1.037   4.201
 7437TIP3    H222255   3.700   1.013   4.073
 7438TIP3   OH222256   6.143   6.239   6.152
 7438TIP3    H122257   6.052   6.214   6.168
 7438TIP3    H222258   6.162   6.204   6.065
 7439TIP3   OH222259   5.170   5.966   4.469
 7439TIP3    H122260   5.167   5.874   4.495
 7439TIP3    H222261   5.089   5.979   4.418
 7440TIP3   OH222262   6.917   2.716   4.776
 7440TIP3    H122263   6.885   2.761   4.698
 7440TIP3    H222264   6.983   2.655   4.743
 7441TIP3   OH222265   7.333   7.239   1.093
 7441TIP3    H122266   7.250   7.197   1.114
 7441TIP3    H222267   7.309   7.316   1.040
 7442TIP3   OH222268   6.218   1.537   4.396
 7442TIP3    H122269   6.152   1.468   4.398
 7442TIP3    H222270   6.169   1.618   4.407
 7443TIP3   OH222271   6.749   0.042   1.007
 7443TIP3    H122272   6.751   0.008   1.097
 7443TIP3    H222273   6.656   0.052   0.987
 7444TIP3   OH222274   3.414   1.657   5.354
 7444TIP3    H122275   3.409   1.562   5.366
 7444TIP3    H222276   3.476   1.686   5.421
 7445TIP3   OH222277   4.996   2.300   1.169
 7445TIP3    H122278   4.958   2.384   1.196
 7445TIP3    H222279   5.091   2.317   1.166
 7446TIP3   OH222280   6.415   3.390   0.614
 7446TIP3    H122281   6.482   3.382   0.682
 7446TIP3    H222282   6.442   3.466   0.563
 7447TIP3   OH222283   0.407   3.558   6.265
 7447TIP3    H122284   0.380   3.650   6.269
 7447TIP3    H222285   0.362   3.517   6.339
 7448TIP3   OH222286   3.635   7.370   2.645
 7448TIP3    H122287   3.568   7.313   2.683
 7448TIP3    H222288   3.717   7.343   2.686
 7449TIP3   OH222289   1.543   6.674   2.127
 7449TIP3    H122290   1.521   6.757   2.084
 7449TIP3    H222291   1.630   6.652   2.093
 7450TIP3   OH222292   8.170   6.274   6.218
 7450TIP3    H122293   8.160   6.187   6.178
 7450TIP3    H222294   8.202   6.329   6.147
 7451TIP3   OH222295   7.276   7.383   6.288
 7451TIP3    H122296   7.371   7.392   6.293
 7451TIP3    H222297   7.253   7.327   6.362
 7452TIP3   OH222298   1.056   3.377   3.361
 7452TIP3    H122299   1.136   3.428   3.371
 7452TIP3    H222300   1.021   3.404   3.276
 7453TIP3   OH222301   2.316   6.698   0.144
 7453TIP3    H122302   2.272   6.717   0.227
 7453TIP3    H222303   2.285   6.767   0.084
 7454TIP3   OH222304   5.633   2.198   0.673
 7454TIP3    H122305   5.701   2.193   0.740
 7454TIP3    H222306   5.606   2.108   0.659
 7455TIP3   OH222307   6.039   5.932   5.319
 7455TIP3    H122308   6.088   5.852   5.340
 7455TIP3    H222309   6.025   5.974   5.404
 7456TIP3   OH222310   6.577   7.421   5.444
 7456TIP3    H122311   6.665   7.401   5.477
 7456TIP3    H222312   6.581   7.513   5.418
 7457TIP3   OH222313   2.559   2.745   6.463
 7457TIP3    H122314   2.551   2.654   6.492
 7457TIP3    H222315   2.542   2.743   6.369
 7458TIP3   OH222316   1.002   1.529   0.160
 7458TIP3    H122317   1.093   1.550   0.178
 7458TIP3    H222318   0.952   1.581   0.224
 7459TIP3   OH222319   5.883   7.508  -0.031
 7459TIP3    H122320   5.846   7.596  -0.030
 7459TIP3    H222321   5.894   7.484   0.061
 7460TIP3   OH222322   4.243   1.045   5.008
 7460TIP3    H122323   4.178   0.976   4.998
 7460TIP3    H222324   4.280   1.030   5.095
 7461TIP3   OH222325   1.764   7.502   0.995
 7461TIP3    H122326   1.807   7.583   1.023
 7461TIP3    H222327   1.686   7.495   1.051
 7462TIP3   OH222328   1.874   2.748   4.042
 7462TIP3    H122329   1.779   2.757   4.031
 7462TIP3    H222330   1.891   2.655   4.030
 7463TIP3   OH222331   1.511   4.429   3.115
 7463TIP3    H122332   1.566   4.462   3.186
 7463TIP3    H222333   1.455   4.364   3.157
 7464TIP3   OH222334   0.997   0.614   0.070
 7464TIP3    H122335   1.058   0.554   0.026
 7464TIP3    H222336   1.050   0.656   0.138
 7465TIP3   OH222337   6.087   1.084   5.618
 7465TIP3    H122338   6.126   1.015   5.671
 7465TIP3    H222339   6.113   1.062   5.528
 7466TIP3   OH222340   7.414   3.372   6.252
 7466TIP3    H122341   7.494   3.383   6.304
 7466TIP3    H222342   7.350   3.338   6.314
 7467TIP3   OH222343   7.369   3.019   3.344
 7467TIP3    H122344   7.313   3.007   3.421
 7467TIP3    H222345   7.310   3.056   3.278
 7468TIP3   OH222346   5.416   2.313   1.419
 7468TIP3    H122347   5.495   2.357   1.450
 7468TIP3    H222348   5.364   2.300   1.499
 7469TIP3   OH222349   2.077   2.195   3.200
 7469TIP3    H122350   2.073   2.208   3.295
 7469TIP3    H222351   1.988   2.172   3.174
 7470TIP3   OH222352   4.973   5.683   6.648
 7470TIP3    H122353   4.987   5.655   6.738
 7470TIP3    H222354   5.007   5.773   6.645
 7471TIP3   OH222355   4.249   4.679   1.261
 7471TIP3    H122356   4.213   4.678   1.349
 7471TIP3    H222357   4.341   4.704   1.273
 7472TIP3   OH222358   4.784   5.059   0.135
 7472TIP3    H122359   4.694   5.078   0.108
 7472TIP3    H222360   4.827   5.145   0.138
 7473TIP3   OH222361   1.758   0.122   3.694
 7473TIP3    H122362   1.827   0.150   3.635
 7473TIP3    H222363   1.767   0.180   3.770
 7474TIP3   OH222364   2.042   0.384   1.280
 7474TIP3    H122365   2.003   0.401   1.194
 7474TIP3    H222366   2.120   0.440   1.282
 7475TIP3   OH222367   5.911   7.459   5.177
 7475TIP3    H122368   5.900   7.375   5.222
 7475TIP3    H222369   5.975   7.506   5.230
 7476TIP3   OH222370   3.366   3.604   1.030
 7476TIP3    H122371   3.318   3.532   0.989
 7476TIP3    H222372   3.305   3.638   1.096
 7477TIP3   OH222373   2.930   4.115   3.130
 7477TIP3    H122374   2.970   4.201   3.112
 7477TIP3    H222375   2.930   4.071   3.045
 7478TIP3   OH222376   3.654   1.199   0.715
 7478TIP3    H122377   3.678   1.266   0.652
 7478TIP3    H222378   3.559   1.210   0.726
 7479TIP3   OH222379   7.970   5.051   0.483
 7479TIP3    H122380   8.021   5.055   0.402
 7479TIP3    H222381   7.998   4.969   0.525
 7480TIP3   OH222382   4.065   1.833   4.653
 7480TIP3    H122383   4.053   1.757   4.596
 7480TIP3    H222384   4.156   1.828   4.681
 7481TIP3   OH222385   5.715   6.504   2.544
 7481TIP3    H122386   5.699   6.413   2.569
 7481TIP3    H222387   5.808   6.507   2.521
 7482TIP3   OH222388   5.226   5.617   5.254
 7482TIP3    H122389   5.278   5.667   5.317
 7482TIP3    H222390   5.224   5.529   5.289
 7483TIP3   OH222391   6.759   0.051   6.575
 7483TIP3    H122392   6.794  -0.035   6.551
 7483TIP3    H222393   6.664   0.040   6.570
 7484TIP3   OH222394   4.108   5.255   0.986
 7484TIP3    H122395   4.189   5.215   0.954
 7484TIP3    H222396   4.093   5.330   0.929
 7485TIP3   OH222397   6.597   3.120   2.700
 7485TIP3    H122398   6.653   3.169   2.640
 7485TIP3    H222399   6.628   3.145   2.787
 7486TIP3   OH222400   4.273   7.324   0.858
 7486TIP3    H122401   4.193   7.319   0.910
 7486TIP3    H222402   4.253   7.277   0.778
 7487TIP3   OH222403   7.927   0.835   0.450
 7487TIP3    H122404   7.986   0.794   0.513
 7487TIP3    H222405   7.975   0.910   0.417
 7488TIP3   OH222406   6.506   5.156   4.417
 7488TIP3    H122407   6.534   5.158   4.508
 7488TIP3    H222408   6.570   5.101   4.373
 7489TIP3   OH222409   1.798   5.510   0.660
 7489TIP3    H122410   1.729   5.455   0.697
 7489TIP3    H222411   1.869   5.505   0.724
 7490TIP3   OH222412   1.854   5.161   3.475
 7490TIP3    H122413   1.762   5.179   3.457
 7490TIP3    H222414   1.902   5.225   3.423
 7491TIP3   OH222415   1.013   5.938   4.063
 7491TIP3    H122416   1.007   6.000   4.136
 7491TIP3    H222417   1.004   5.992   3.985
 7492TIP3   OH222418   8.127   7.878   2.206
 7492TIP3    H122419   8.172   7.849   2.126
 7492TIP3    H222420   8.134   7.804   2.266
 7493TIP3   OH222421   4.156   5.203   2.662
 7493TIP3    H122422   4.120   5.265   2.725
 7493TIP3    H222423   4.087   5.192   2.597
 7494TIP3   OH222424   6.743   3.716   0.956
 7494TIP3    H122425   6.705   3.795   0.918
 7494TIP3    H222426   6.837   3.726   0.943
 7495TIP3   OH222427   1.792   1.206   1.034
 7495TIP3    H122428   1.838   1.124   1.054
 7495TIP3    H222429   1.814   1.224   0.943
 7496TIP3   OH222430   1.029   6.424   4.709
 7496TIP3    H122431   1.010   6.331   4.694
 7496TIP3    H222432   0.948   6.469   4.685
 7497TIP3   OH222433   5.809   5.830   2.885
 7497TIP3    H122434   5.874   5.884   2.838
 7497TIP3    H222435   5.759   5.788   2.815
 7498TIP3   OH222436   1.082   6.753   3.970
 7498TIP3    H122437   1.171   6.730   3.944
 7498TIP3    H222438   1.080   6.848   3.970
 7499TIP3   OH222439   3.880   7.810   2.229
 7499TIP3    H122440   3.822   7.885   2.217
 7499TIP3    H222441   3.832   7.736   2.191
 7500TIP3   OH222442   1.277   6.528   1.226
 7500TIP3    H122443   1.238   6.613   1.245
 7500TIP3    H222444   1.282   6.525   1.130
 7501TIP3   OH222445   7.530   7.804   6.436
 7501TIP3    H122446   7.583   7.725   6.442
 7501TIP3    H222447   7.589   7.870   6.398
 7502TIP3   OH222448   8.186   1.838   2.090
 7502TIP3    H122449   8.100   1.796   2.087
 7502TIP3    H222450   8.169   1.929   2.063
 7503TIP3   OH222451   0.728   0.832   4.393
 7503TIP3    H122452   0.779   0.888   4.334
 7503TIP3    H222453   0.793   0.796   4.454
 7504TIP3   OH222454   4.721   0.430   2.738
 7504TIP3    H122455   4.643   0.484   2.729
 7504TIP3    H222456   4.748   0.412   2.647
 7505TIP3   OH222457   7.012   3.753   3.598
 7505TIP3    H122458   6.939   3.811   3.578
 7505TIP3    H222459   6.997   3.724   3.688
 7506TIP3   OH222460   2.773   7.104   3.537
 7506TIP3    H122461   2.856   7.056   3.535
 7506TIP3    H222462   2.797   7.190   3.570
 7507TIP3   OH222463   1.887   0.626   3.071
 7507TIP3    H122464   1.956   0.662   3.015
 7507TIP3    H222465   1.814   0.610   3.012
 7508TIP3   OH222466   4.715   0.838   6.083
 7508TIP3    H122467   4.795   0.876   6.048
 7508TIP3    H222468   4.743   0.754   6.121
 7509TIP3   OH222469   5.376   0.687   5.870
 7509TIP3    H122470   5.397   0.759   5.811
 7509TIP3    H222471   5.395   0.608   5.818
 7510TIP3   OH222472   6.357   5.968   5.889
 7510TIP3    H122473   6.369   5.936   5.979
 7510TIP3    H222474   6.442   6.007   5.866
 7511TIP3   OH222475   6.130   0.229   3.415
 7511TIP3    H122476   6.099   0.151   3.369
 7511TIP3    H222477   6.193   0.196   3.479
 7512TIP3   OH222478   2.304   5.743   5.030
 7512TIP3    H122479   2.380   5.792   5.060
 7512TIP3    H222480   2.246   5.739   5.106
 7513TIP3   OH222481   2.152   2.228   1.637
 7513TIP3    H122482   2.111   2.144   1.656
 7513TIP3    H222483   2.126   2.285   1.709
 7514TIP3   OH222484   5.051   6.545   6.594
 7514TIP3    H122485   5.058   6.639   6.612
 7514TIP3    H222486   5.129   6.524   6.542
 7515TIP3   OH222487   3.020   7.598   5.635
 7515TIP3    H122488   3.087   7.658   5.669
 7515TIP3    H222489   3.027   7.607   5.539
 7516TIP3   OH222490   7.610   1.980   3.989
 7516TIP3    H122491   7.529   2.032   3.988
 7516TIP3    H222492   7.660   2.015   4.063
 7517TIP3   OH222493   2.447   5.145   2.901
 7517TIP3    H122494   2.445   5.183   2.813
 7517TIP3    H222495   2.376   5.081   2.901
 7518TIP3   OH222496   4.745   7.068   0.515
 7518TIP3    H122497   4.677   7.014   0.555
 7518TIP3    H222498   4.822   7.012   0.513
 7519TIP3   OH222499   0.604   4.666   2.883
 7519TIP3    H122500   0.587   4.750   2.839
 7519TIP3    H222501   0.559   4.601   2.829
 7520TIP3   OH222502   5.474   4.086   4.244
 7520TIP3    H122503   5.563   4.116   4.262
 7520TIP3    H222504   5.425   4.105   4.324
 7521TIP3   OH222505   6.778   5.872   5.825
 7521TIP3    H122506   6.768   5.837   5.737
 7521TIP3    H222507   6.741   5.806   5.882
 7522TIP3   OH222508   2.145   2.490   0.645
 7522TIP3    H122509   2.122   2.577   0.613
 7522TIP3    H222510   2.239   2.493   0.659
 7523TIP3   OH222511   0.276   6.021   1.545
 7523TIP3    H122512   0.328   6.030   1.465
 7523TIP3    H222513   0.283   5.928   1.567
 7524TIP3   OH222514   2.796   2.090   3.841
 7524TIP3    H122515   2.793   2.120   3.932
 7524TIP3    H222516   2.784   2.169   3.789
 7525TIP3   OH222517   0.540   2.653   2.605
 7525TIP3    H122518   0.515   2.692   2.689
 7525TIP3    H222519   0.633   2.632   2.615
 7526TIP3   OH222520   1.511   1.386   2.238
 7526TIP3    H122521   1.497   1.292   2.248
 7526TIP3    H222522   1.464   1.425   2.312
 7527TIP3   OH222523   1.098   0.466   3.881
 7527TIP3    H122524   1.128   0.473   3.790
 7527TIP3    H222525   1.178   0.473   3.933
 7528TIP3   OH222526   0.858   3.143   5.985
 7528TIP3    H122527   0.822   3.070   6.035
 7528TIP3    H222528   0.785   3.174   5.931
 7529TIP3   OH222529   6.367   0.201   5.600
 7529TIP3    H122530   6.346   0.179   5.691
 7529TIP3    H222531   6.421   0.129   5.569
 7530TIP3   OH222532   1.421   0.995   3.984
 7530TIP3    H122533   1.380   1.067   3.936
 7530TIP3    H222534   1.434   1.029   4.072
 7531TIP3   OH222535   2.570   4.184   0.298
 7531TIP3    H122536   2.652   4.234   0.295
 7531TIP3    H222537   2.538   4.187   0.208
 7532TIP3   OH222538   6.601   3.296   5.786
 7532TIP3    H122539   6.637   3.239   5.718
 7532TIP3    H222540   6.654   3.376   5.780
 7533TIP3   OH222541   6.952   7.762   4.833
 7533TIP3    H122542   6.942   7.681   4.882
 7533TIP3    H222543   7.017   7.812   4.882
 7534TIP3   OH222544   0.580   3.912   2.261
 7534TIP3    H122545   0.530   3.838   2.225
 7534TIP3    H222546   0.541   3.989   2.219
 7535TIP3   OH222547   6.118   0.069   6.420
 7535TIP3    H122548   6.027   0.056   6.443
 7535TIP3    H222549   6.143  -0.012   6.374
 7536TIP3   OH222550   4.617   3.508   3.635
 7536TIP3    H122551   4.578   3.571   3.696
 7536TIP3    H222552   4.542   3.462   3.597
 7537TIP3   OH222553   4.698   1.672   0.766
 7537TIP3    H122554   4.645   1.721   0.703
 7537TIP3    H222555   4.780   1.722   0.771
 7538TIP3   OH222556   2.669   6.465   0.409
 7538TIP3    H122557   2.585   6.493   0.445
 7538TIP3    H222558   2.719   6.436   0.484
 7539TIP3   OH222559   1.602   5.657   6.654
 7539TIP3    H122560   1.594   5.624   6.743
 7539TIP3    H222561   1.515   5.689   6.632
 7540TIP3   OH222562   4.882   3.792   4.834
 7540TIP3    H122563   4.852   3.737   4.761
 7540TIP3    H222564   4.898   3.731   4.905
 7541TIP3   OH222565   5.358   4.596   4.204
 7541TIP3    H122566   5.270   4.600   4.167
 7541TIP3    H222567   5.374   4.502   4.218
 7542TIP3   OH222568   1.305   7.523   0.626
 7542TIP3    H122569   1.238   7.559   0.684
 7542TIP3    H222570   1.375   7.496   0.684
 7543TIP3   OH222571   3.826   7.208   2.766
 7543TIP3    H122572   3.919   7.207   2.742
 7543TIP3    H222573   3.798   7.118   2.752
 7544TIP3   OH222574   7.855   6.298   6.335
 7544TIP3    H122575   7.785   6.242   6.301
 7544TIP3    H222576   7.933   6.269   6.287
 7545TIP3   OH222577   3.286   7.704   3.366
 7545TIP3    H122578   3.350   7.679   3.433
 7545TIP3    H222579   3.295   7.638   3.297
 7546TIP3   OH222580   7.449   6.714   1.135
 7546TIP3    H122581   7.517   6.779   1.151
 7546TIP3    H222582   7.465   6.647   1.201
 7547TIP3   OH222583   1.319   3.388   6.474
 7547TIP3    H122584   1.383   3.448   6.513
 7547TIP3    H222585   1.361   3.357   6.394
 7548TIP3   OH222586   3.181   6.022   2.649
 7548TIP3    H122587   3.156   6.105   2.689
 7548TIP3    H222588   3.102   5.968   2.655
 7549TIP3   OH222589   3.269   6.084   4.518
 7549TIP3    H122590   3.186   6.066   4.474
 7549TIP3    H222591   3.247   6.147   4.586
 7550TIP3   OH222592   6.092   6.979   5.136
 7550TIP3    H122593   6.083   6.884   5.148
 7550TIP3    H222594   6.174   6.989   5.088
 7551TIP3   OH222595   4.516   7.254   6.003
 7551TIP3    H122596   4.439   7.224   5.954
 7551TIP3    H222597   4.582   7.272   5.935
 7552TIP3   OH222598   6.940   2.811   5.653
 7552TIP3    H122599   7.007   2.805   5.722
 7552TIP3    H222600   6.879   2.740   5.673
 7553TIP3   OH222601   4.775   5.690   4.983
 7553TIP3    H122602   4.783   5.655   5.072
 7553TIP3    H222603   4.702   5.751   4.987
 7554TIP3   OH222604   4.025   0.054   3.689
 7554TIP3    H122605   4.051   0.064   3.597
 7554TIP3    H222606   4.101   0.085   3.738
 7555TIP3   OH222607   6.464   6.082   6.599
 7555TIP3    H122608   6.538   6.130   6.562
 7555TIP3    H222609   6.440   6.130   6.678
 7556TIP3   OH222610   4.351   6.749   5.510
 7556TIP3    H122611   4.376   6.663   5.476
 7556TIP3    H222612   4.258   6.740   5.531
 7557TIP3   OH222613   5.753   2.238   6.342
 7557TIP3    H122614   5.702   2.171   6.388
 7557TIP3    H222615   5.704   2.253   6.261
 7558TIP3   OH222616   7.825   7.811   6.605
 7558TIP3    H122617   7.865   7.725   6.619
 7558TIP3    H222618   7.801   7.812   6.513
 7559TIP3   OH222619   5.611   5.880   4.681
 7559TIP3    H122620   5.538   5.858   4.624
 7559TIP3    H222621   5.675   5.811   4.666
 7560TIP3   OH222622   0.677   0.373   1.249
 7560TIP3    H122623   0.591   0.414   1.256
 7560TIP3    H222624   0.725   0.405   1.325
 7561TIP3   OH222625   2.962   4.263   2.161
 7561TIP3    H122626   3.037   4.206   2.174
 7561TIP3    H222627   2.995   4.352   2.177
 7562TIP3   OH222628   6.582   4.829   3.503
 7562TIP3    H122629   6.622   4.905   3.461
 7562TIP3    H222630   6.517   4.865   3.562
 7563TIP3   OH222631   2.824   6.400   4.492
 7563TIP3    H122632   2.857   6.331   4.549
 7563TIP3    H222633   2.876   6.393   4.412
 7564TIP3   OH222634   2.626   6.444   3.810
 7564TIP3    H122635   2.713   6.469   3.842
 7564TIP3    H222636   2.643   6.397   3.729
 7565TIP3   OH222637   6.010   3.323   4.578
 7565TIP3    H122638   6.044   3.271   4.505
 7565TIP3    H222639   6.011   3.264   4.653
 7566TIP3   OH222640   7.809   5.071   6.415
 7566TIP3    H122641   7.813   5.021   6.333
 7566TIP3    H222642   7.898   5.102   6.429
 7567TIP3   OH222643   8.018   7.311   6.020
 7567TIP3    H122644   8.025   7.404   6.039
 7567TIP3    H222645   7.925   7.292   6.023
 7568TIP3   OH222646   1.198   6.446   5.103
 7568TIP3    H122647   1.169   6.513   5.165
 7568TIP3    H222648   1.227   6.373   5.159
 7569TIP3   OH222649   4.114   1.261   5.085
 7569TIP3    H122650   4.035   1.223   5.122
 7569TIP3    H222651   4.147   1.194   5.025
 7570TIP3   OH222652   7.047   0.058   6.346
 7570TIP3    H122653   7.045  -0.024   6.395
 7570TIP3    H222654   7.139   0.070   6.324
 7571TIP3   OH222655   3.407   0.289   4.356
 7571TIP3    H122656   3.433   0.276   4.448
 7571TIP3    H222657   3.316   0.316   4.361
 7572TIP3   OH222658   4.375   1.722   4.102
 7572TIP3    H122659   4.373   1.817   4.116
 7572TIP3    H222660   4.420   1.711   4.018
 7573TIP3   OH222661   7.836   4.034   5.765
 7573TIP3    H122662   7.742   4.022   5.762
 7573TIP3    H222663   7.849   4.129   5.764
 7574TIP3   OH222664   4.016   2.905   1.180
 7574TIP3    H122665   4.099   2.857   1.189
 7574TIP3    H222666   4.039   2.996   1.199
 7575TIP3   OH222667   3.670   1.097   1.898
 7575TIP3    H122668   3.662   1.045   1.978
 7575TIP3    H222669   3.645   1.038   1.827
 7576TIP3   OH222670   5.471   2.476   6.312
 7576TIP3    H122671   5.393   2.530   6.304
 7576TIP3    H222672   5.437   2.387   6.324
 7577TIP3   OH222673   5.562   1.321   3.787
 7577TIP3    H122674   5.478   1.359   3.762
 7577TIP3    H222675   5.542   1.265   3.862
 7578TIP3   OH222676   3.866   5.133   0.956
 7578TIP3    H122677   3.930   5.199   0.983
 7578TIP3    H222678   3.911   5.050   0.972
 7579TIP3   OH222679   1.653   5.152   0.735
 7579TIP3    H122680   1.583   5.203   0.776
 7579TIP3    H222681   1.729   5.166   0.790
 7580TIP3   OH222682   5.641   5.436   5.982
 7580TIP3    H122683   5.561   5.430   6.035
 7580TIP3    H222684   5.694   5.362   6.010
 7581TIP3   OH222685   0.119   2.290   1.929
 7581TIP3    H122686   0.192   2.329   1.881
 7581TIP3    H222687   0.133   2.316   2.020
 7582TIP3   OH222688   1.256   2.824   6.063
 7582TIP3    H122689   1.277   2.742   6.108
 7582TIP3    H222690   1.161   2.819   6.048
 7583TIP3   OH222691   1.584   0.562   4.191
 7583TIP3    H122692   1.577   0.604   4.277
 7583TIP3    H222693   1.607   0.633   4.131
 7584TIP3   OH222694   7.123   6.795   1.300
 7584TIP3    H122695   7.108   6.700   1.302
 7584TIP3    H222696   7.217   6.805   1.309
 7585TIP3   OH222697   0.351   4.587   0.948
 7585TIP3    H122698   0.441   4.616   0.932
 7585TIP3    H222699   0.298   4.632   0.883
 7586TIP3   OH222700   2.732   2.277   6.625
 7586TIP3    H122701   2.761   2.192   6.660
 7586TIP3    H222702   2.729   2.264   6.531
 7587TIP3   OH222703   0.631   4.464   5.142
 7587TIP3    H122704   0.618   4.494   5.232
 7587TIP3    H222705   0.568   4.515   5.091
 7588TIP3   OH222706   3.967   0.049   0.920
 7588TIP3    H122707   3.887   0.084   0.960
 7588TIP3    H222708   3.965   0.081   0.830
 7589TIP3   OH222709   0.673   3.235   6.598
 7589TIP3    H122710   0.732   3.310   6.604
 7589TIP3    H222711   0.668   3.216   6.504
 7590TIP3   OH222712   5.840   0.999   1.014
 7590TIP3    H122713   5.834   1.092   0.994
 7590TIP3    H222714   5.925   0.972   0.977
 7591TIP3   OH222715   3.530   5.757   0.215
 7591TIP3    H122716   3.515   5.733   0.123
 7591TIP3    H222717   3.621   5.785   0.218
 7592TIP3   OH222718   4.456   4.666   0.442
 7592TIP3    H122719   4.381   4.697   0.390
 7592TIP3    H222720   4.438   4.573   0.457
 7593TIP3   OH222721   1.898   5.250   3.732
 7593TIP3    H122722   1.900   5.228   3.639
 7593TIP3    H222723   1.855   5.336   3.735
 7594TIP3   OH222724   2.057   0.611   5.982
 7594TIP3    H122725   2.059   0.690   5.929
 7594TIP3    H222726   2.050   0.643   6.072
 7595TIP3   OH222727   5.030   5.839   2.479
 7595TIP3    H122728   5.070   5.764   2.523
 7595TIP3    H222729   4.995   5.803   2.397
 7596TIP3   OH222730   0.381   0.091   5.580
 7596TIP3    H122731   0.316   0.133   5.637
 7596TIP3    H222732   0.410   0.014   5.629
 7597TIP3   OH222733   0.929   2.338   4.029
 7597TIP3    H122734   0.836   2.363   4.022
 7597TIP3    H222735   0.927   2.245   4.051
 7598TIP3   OH222736   5.672   0.856   0.747
 7598TIP3    H122737   5.596   0.798   0.754
 7598TIP3    H222738   5.699   0.871   0.838
 7599TIP3   OH222739   6.898   7.252   6.567
 7599TIP3    H122740   6.823   7.277   6.621
 7599TIP3    H222741   6.958   7.210   6.628
 7600TIP3   OH222742   4.805   7.382   0.465
 7600TIP3    H122743   4.860   7.389   0.387
 7600TIP3    H222744   4.731   7.327   0.437
 7601TIP3   OH222745   2.072   0.841   1.518
 7601TIP3    H122746   2.048   0.892   1.441
 7601TIP3    H222747   2.161   0.869   1.538
 7602TIP3   OH222748   5.000   2.555   0.892
 7602TIP3    H122749   4.952   2.552   0.809
 7602TIP3    H222750   5.028   2.465   0.907
 7603TIP3   OH222751   2.545   3.224   2.265
 7603TIP3    H122752   2.450   3.233   2.258
 7603TIP3    H222753   2.572   3.193   2.178
 7604TIP3   OH222754   7.319   0.317   1.740
 7604TIP3    H122755   7.259   0.304   1.666
 7604TIP3    H222756   7.364   0.233   1.750
 7605TIP3   OH222757   5.532   7.387   2.410
 7605TIP3    H122758   5.538   7.384   2.314
 7605TIP3    H222759   5.596   7.453   2.436
 7606TIP3   OH222760   7.826   1.026   3.002
 7606TIP3    H122761   7.871   1.074   2.933
 7606TIP3    H222762   7.771   0.963   2.956
 7607TIP3   OH222763   0.917   4.350   5.279
 7607TIP3    H122764   0.842   4.326   5.334
 7607TIP3    H222765   0.991   4.351   5.339
 7608TIP3   OH222766   4.558   3.861   3.665
 7608TIP3    H122767   4.620   3.873   3.736
 7608TIP3    H222768   4.571   3.938   3.609
 7609TIP3   OH222769   0.292   4.241   6.817
 7609TIP3    H122770   0.388   4.238   6.817
 7609TIP3    H222771   0.271   4.324   6.774
 7610TIP3   OH222772   6.525   1.119   6.776
 7610TIP3    H122773   6.565   1.193   6.730
 7610TIP3    H222774   6.579   1.043   6.752
 7611TIP3   OH222775   2.527   1.224   6.377
 7611TIP3    H122776   2.562   1.255   6.460
 7611TIP3    H222777   2.497   1.304   6.333
 7612TIP3   OH222778   1.988   0.843   3.264
 7612TIP3    H122779   1.950   0.772   3.212
 7612TIP3    H222780   2.073   0.809   3.291
 7613TIP3   OH222781   4.970   0.236   6.029
 7613TIP3    H122782   4.880   0.202   6.034
 7613TIP3    H222783   4.971   0.289   5.950
 7614TIP3   OH222784   4.881   5.523   3.744
 7614TIP3    H122785   4.896   5.596   3.805
 7614TIP3    H222786   4.835   5.563   3.670
 7615TIP3   OH222787   6.495   4.795   4.998
 7615TIP3    H122788   6.416   4.846   5.018
 7615TIP3    H222789   6.516   4.751   5.079
 7616TIP3   OH222790   2.363   4.420   6.432
 7616TIP3    H122791   2.297   4.395   6.367
 7616TIP3    H222792   2.436   4.360   6.416
 7617TIP3   OH222793   5.943   3.255   4.262
 7617TIP3    H122794   6.034   3.255   4.290
 7617TIP3    H222795   5.944   3.295   4.175
 7618TIP3   OH222796   6.173   4.681   3.727
 7618TIP3    H122797   6.193   4.682   3.821
 7618TIP3    H222798   6.163   4.588   3.706
 7619TIP3   OH222799   8.196   2.002   4.780
 7619TIP3    H122800   8.229   1.912   4.773
 7619TIP3    H222801   8.204   2.037   4.692
 7620TIP3   OH222802   5.001   3.781   0.819
 7620TIP3    H122803   4.910   3.804   0.834
 7620TIP3    H222804   5.019   3.808   0.729
 7621TIP3   OH222805   7.832   7.482   3.493
 7621TIP3    H122806   7.834   7.423   3.569
 7621TIP3    H222807   7.740   7.489   3.471
 7622TIP3   OH222808   7.558   5.036   6.237
 7622TIP3    H122809   7.475   4.995   6.214
 7622TIP3    H222810   7.584   4.994   6.319
 7623TIP3   OH222811   2.233   2.938   4.563
 7623TIP3    H122812   2.138   2.937   4.564
 7623TIP3    H222813   2.258   2.846   4.565
 7624TIP3   OH222814   1.652   3.780   6.262
 7624TIP3    H122815   1.684   3.870   6.271
 7624TIP3    H222816   1.728   3.731   6.228
 7625TIP3   OH222817   0.960   6.148   3.606
 7625TIP3    H122818   0.961   6.238   3.574
 7625TIP3    H222819   1.044   6.111   3.578
 7626TIP3   OH222820   4.887   3.698   3.536
 7626TIP3    H122821   4.816   3.636   3.519
 7626TIP3    H222822   4.871   3.771   3.475
 7627TIP3   OH222823   6.827   2.351   3.281
 7627TIP3    H122824   6.887   2.386   3.347
 7627TIP3    H222825   6.884   2.308   3.218
 7628TIP3   OH222826   0.170   6.937   6.679
 7628TIP3    H122827   0.219   6.860   6.647
 7628TIP3    H222828   0.238   7.001   6.699
 7629TIP3   OH222829   3.658   3.842   6.230
 7629TIP3    H122830   3.730   3.782   6.212
 7629TIP3    H222831   3.681   3.922   6.183
 7630TIP3   OH222832   1.758   0.751   5.854
 7630TIP3    H122833   1.711   0.834   5.854
 7630TIP3    H222834   1.766   0.728   5.947
 7631TIP3   OH222835   0.831   7.117   5.796
 7631TIP3    H122836   0.767   7.186   5.780
 7631TIP3    H222837   0.855   7.127   5.888
 7632TIP3   OH222838   3.232   5.786   0.156
 7632TIP3    H122839   3.313   5.810   0.201
 7632TIP3    H222840   3.206   5.704   0.197
 7633TIP3   OH222841   2.138   5.136   2.700
 7633TIP3    H122842   2.173   5.130   2.612
 7633TIP3    H222843   2.150   5.227   2.725
 7634TIP3   OH222844   1.906   7.100   0.731
 7634TIP3    H122845   1.850   7.043   0.679
 7634TIP3    H222846   1.932   7.046   0.806
 7635TIP3   OH222847   0.606   0.982   5.284
 7635TIP3    H122848   0.675   0.940   5.234
 7635TIP3    H222849   0.537   1.000   5.221
 7636TIP3   OH222850   7.296   2.857   2.281
 7636TIP3    H122851   7.382   2.858   2.241
 7636TIP3    H222852   7.293   2.774   2.330
 7637TIP3   OH222853   4.744   5.908   4.523
 7637TIP3    H122854   4.749   5.941   4.613
 7637TIP3    H222855   4.675   5.961   4.482
 7638TIP3   OH222856   3.724   4.602   6.485
 7638TIP3    H122857   3.674   4.658   6.425
 7638TIP3    H222858   3.721   4.649   6.569
 7639TIP3   OH222859   4.629   2.905   4.937
 7639TIP3    H122860   4.667   2.894   5.024
 7639TIP3    H222861   4.694   2.868   4.877
 7640TIP3   OH222862   5.665   3.250   4.273
 7640TIP3    H122863   5.751   3.264   4.314
 7640TIP3    H222864   5.666   3.158   4.246
 7641TIP3   OH222865   7.853   6.077   6.656
 7641TIP3    H122866   7.780   6.019   6.676
 7641TIP3    H222867   7.914   6.023   6.606
 7642TIP3   OH222868   1.659   6.376   0.092
 7642TIP3    H122869   1.573   6.411   0.116
 7642TIP3    H222870   1.685   6.323   0.167
 7643TIP3   OH222871   0.923   6.198   0.923
 7643TIP3    H122872   0.833   6.219   0.946
 7643TIP3    H222873   0.932   6.229   0.832
 7644TIP3   OH222874   3.637   6.687   0.548
 7644TIP3    H122875   3.649   6.730   0.463
 7644TIP3    H222876   3.721   6.644   0.565
 7645TIP3   OH222877   3.998   5.384   6.121
 7645TIP3    H122878   3.977   5.451   6.055
 7645TIP3    H222879   4.081   5.346   6.092
 7646TIP3   OH222880   3.972   6.459   3.572
 7646TIP3    H122881   4.048   6.405   3.596
 7646TIP3    H222882   3.902   6.395   3.559
 7647TIP3   OH222883   6.193   5.980   6.610
 7647TIP3    H122884   6.281   6.014   6.622
 7647TIP3    H222885   6.205   5.902   6.556
 7648TIP3   OH222886   1.690   0.033   2.392
 7648TIP3    H122887   1.669  -0.049   2.437
 7648TIP3    H222888   1.669   0.102   2.455
 7649TIP3   OH222889   4.667   0.111   2.541
 7649TIP3    H122890   4.662   0.021   2.511
 7649TIP3    H222891   4.596   0.156   2.495
 7650TIP3   OH222892   5.438   1.120   2.744
 7650TIP3    H122893   5.490   1.040   2.758
 7650TIP3    H222894   5.349   1.096   2.772
 7651TIP3   OH222895   5.558   4.523   1.038
 7651TIP3    H122896   5.653   4.506   1.042
 7651TIP3    H222897   5.544   4.564   0.953
 7652TIP3   OH222898   4.585   6.245   2.155
 7652TIP3    H122899   4.679   6.254   2.169
 7652TIP3    H222900   4.549   6.228   2.243
 7653TIP3   OH222901   1.475   5.857   4.412
 7653TIP3    H122902   1.427   5.861   4.329
 7653TIP3    H222903   1.420   5.804   4.469
 7654TIP3   OH222904   7.515   1.018   1.590
 7654TIP3    H122905   7.539   0.934   1.550
 7654TIP3    H222906   7.555   1.084   1.533
 7655TIP3   OH222907   1.561   0.585   2.613
 7655TIP3    H122908   1.552   0.619   2.702
 7655TIP3    H222909   1.503   0.639   2.560
 7656TIP3   OH222910   6.973   1.405   6.159
 7656TIP3    H122911   7.050   1.430   6.107
 7656TIP3    H222912   6.998   1.425   6.250
 7657TIP3   OH222913   0.950   0.625   5.924
 7657TIP3    H122914   0.947   0.530   5.916
 7657TIP3    H222915   0.864   0.654   5.893
 7658TIP3   OH222916   7.632   1.242   3.330
 7658TIP3    H122917   7.594   1.301   3.395
 7658TIP3    H222918   7.726   1.243   3.347
 7659TIP3   OH222919   2.554   1.421   5.570
 7659TIP3    H122920   2.563   1.381   5.484
 7659TIP3    H222921   2.618   1.492   5.571
 7660TIP3   OH222922   6.129   5.590   5.828
 7660TIP3    H122923   6.099   5.499   5.824
 7660TIP3    H222924   6.070   5.632   5.891
 7661TIP3   OH222925   0.172   2.684   1.141
 7661TIP3    H122926   0.154   2.612   1.081
 7661TIP3    H222927   0.264   2.703   1.128
 7662TIP3   OH222928   4.504   5.125   3.956
 7662TIP3    H122929   4.498   5.041   3.911
 7662TIP3    H222930   4.493   5.104   4.048
 7663TIP3   OH222931   2.728   6.057   1.481
 7663TIP3    H122932   2.704   6.136   1.530
 7663TIP3    H222933   2.809   6.027   1.522
 7664TIP3   OH222934   3.188   2.425   5.945
 7664TIP3    H122935   3.154   2.349   5.897
 7664TIP3    H222936   3.185   2.398   6.037
 7665TIP3   OH222937   1.262   4.716   0.249
 7665TIP3    H122938   1.245   4.624   0.268
 7665TIP3    H222939   1.353   4.718   0.221
 7666TIP3   OH222940   5.083   0.176   0.007
 7666TIP3    H122941   5.009   0.151  -0.048
 7666TIP3    H222942   5.061   0.142   0.094
 7667TIP3   OH222943   1.712   7.019   2.107
 7667TIP3    H122944   1.650   7.013   2.035
 7667TIP3    H222945   1.796   7.035   2.065
 7668TIP3   OH222946   0.437   0.557   2.126
 7668TIP3    H122947   0.388   0.554   2.044
 7668TIP3    H222948   0.395   0.493   2.182
 7669TIP3   OH222949   5.766   1.546   1.028
 7669TIP3    H122950   5.831   1.569   0.961
 7669TIP3    H222951   5.682   1.568   0.988
 7670TIP3   OH222952   1.299   1.121   3.647
 7670TIP3    H122953   1.262   1.178   3.579
 7670TIP3    H222954   1.271   1.033   3.622
 7671TIP3   OH222955   2.770   1.666   3.147
 7671TIP3    H122956   2.767   1.762   3.138
 7671TIP3    H222957   2.770   1.651   3.241
 7672TIP3   OH222958   2.805   5.440   2.243
 7672TIP3    H122959   2.817   5.495   2.320
 7672TIP3    H222960   2.733   5.381   2.267
 7673TIP3   OH222961   3.623   1.871   4.953
 7673TIP3    H122962   3.593   1.916   5.032
 7673TIP3    H222963   3.705   1.915   4.931
 7674TIP3   OH222964   7.540   4.911   4.086
 7674TIP3    H122965   7.585   4.833   4.119
 7674TIP3    H222966   7.594   4.940   4.013
 7675TIP3   OH222967   6.576   3.392   4.997
 7675TIP3    H122968   6.589   3.416   4.905
 7675TIP3    H222969   6.482   3.403   5.011
 7676TIP3   OH222970   8.156   6.754   0.986
 7676TIP3    H122971   8.074   6.722   1.022
 7676TIP3    H222972   8.131   6.799   0.905
 7677TIP3   OH222973   3.821   3.318   0.915
 7677TIP3    H122974   3.894   3.332   0.854
 7677TIP3    H222975   3.796   3.406   0.942
 7678TIP3   OH222976   0.957   5.057   4.424
 7678TIP3    H122977   1.041   5.041   4.466
 7678TIP3    H222978   0.895   5.003   4.473
 7679TIP3   OH222979   5.169   6.267   0.742
 7679TIP3    H122980   5.168   6.180   0.703
 7679TIP3    H222981   5.083   6.304   0.720
 7680TIP3   OH222982   1.243   7.197   1.780
 7680TIP3    H122983   1.226   7.131   1.846
 7680TIP3    H222984   1.171   7.260   1.789
 7681TIP3   OH222985   0.456   4.332   5.660
 7681TIP3    H122986   0.468   4.410   5.715
 7681TIP3    H222987   0.395   4.278   5.710
 7682TIP3   OH222988   0.200   6.120   3.307
 7682TIP3    H122989   0.202   6.215   3.314
 7682TIP3    H222990   0.107   6.098   3.309
 7683TIP3   OH222991   3.211   4.291   1.552
 7683TIP3    H122992   3.297   4.299   1.594
 7683TIP3    H222993   3.229   4.250   1.468
 7684TIP3   OH222994   3.928   6.748   4.994
 7684TIP3    H122995   4.000   6.751   4.931
 7684TIP3    H222996   3.892   6.660   4.985
 7685TIP3   OH222997   5.176   4.379   3.260
 7685TIP3    H122998   5.203   4.311   3.322
 7685TIP3    H222999   5.148   4.452   3.315
 7686TIP3   OH223000   4.778   4.393   0.098
 7686TIP3    H123001   4.819   4.378   0.184
 7686TIP3    H223002   4.703   4.333   0.097
 7687TIP3   OH223003   4.262   6.650   6.081
 7687TIP3    H123004   4.348   6.633   6.119
 7687TIP3    H223005   4.248   6.744   6.093
 7688TIP3   OH223006   4.258   5.016   3.576
 7688TIP3    H123007   4.260   4.989   3.484
 7688TIP3    H223008   4.217   4.943   3.621
 7689TIP3   OH223009   0.261   2.582   1.383
 7689TIP3    H123010   0.341   2.530   1.374
 7689TIP3    H223011   0.220   2.577   1.296
 7690TIP3   OH223012   5.495   5.212   3.398
 7690TIP3    H123013   5.581   5.246   3.371
 7690TIP3    H223014   5.441   5.290   3.408
 7691TIP3   OH223015   7.463   3.951   4.029
 7691TIP3    H123016   7.467   3.916   3.940
 7691TIP3    H223017   7.533   3.905   4.076
 7692TIP3   OH223018   2.846   6.946   5.815
 7692TIP3    H123019   2.891   6.873   5.858
 7692TIP3    H223020   2.905   7.021   5.827
 7693TIP3   OH223021   4.655   4.404   3.196
 7693TIP3    H123022   4.621   4.481   3.151
 7693TIP3    H223023   4.749   4.408   3.184
 7694TIP3   OH223024   1.855   2.988   0.743
 7694TIP3    H123025   1.925   3.053   0.743
 7694TIP3    H223026   1.774   3.040   0.746
 7695TIP3   OH223027   4.810   7.353   5.023
 7695TIP3    H123028   4.789   7.383   4.934
 7695TIP3    H223029   4.745   7.285   5.041
 7696TIP3   OH223030   7.891   6.259   2.124
 7696TIP3    H123031   7.837   6.272   2.046
 7696TIP3    H223032   7.977   6.292   2.099
 7697TIP3   OH223033   0.836   7.837   0.096
 7697TIP3    H123034   0.931   7.827   0.105
 7697TIP3    H223035   0.810   7.766   0.036
 7698TIP3   OH223036   5.365  -0.023   4.502
 7698TIP3    H123037   5.380   0.071   4.512
 7698TIP3    H223038   5.320  -0.031   4.417
 7699TIP3   OH223039   6.795   5.788   6.205
 7699TIP3    H123040   6.803   5.884   6.202
 7699TIP3    H223041   6.771   5.769   6.296
 7700TIP3   OH223042   0.045   3.072   4.353
 7700TIP3    H123043   0.075   2.993   4.309
 7700TIP3    H223044   0.124   3.109   4.393
 7701TIP3   OH223045   3.313   3.727   1.547
 7701TIP3    H123046   3.375   3.669   1.503
 7701TIP3    H223047   3.359   3.757   1.625
 7702TIP3   OH223048   8.193   5.258   3.560
 7702TIP3    H123049   8.138   5.186   3.591
 7702TIP3    H223050   8.143   5.337   3.581
 7703TIP3   OH223051   2.820   4.643   6.664
 7703TIP3    H123052   2.866   4.559   6.660
 7703TIP3    H223053   2.860   4.690   6.737
 7704TIP3   OH223054   5.450   4.672   1.238
 7704TIP3    H123055   5.483   4.606   1.177
 7704TIP3    H223056   5.513   4.743   1.232
 7705TIP3   OH223057   6.539   3.849   4.310
 7705TIP3    H123058   6.628   3.884   4.313
 7705TIP3    H223059   6.550   3.759   4.281
 7706TIP3   OH223060   7.912   3.723   4.474
 7706TIP3    H123061   7.967   3.686   4.405
 7706TIP3    H223062   7.935   3.675   4.553
 7707TIP3   OH223063   2.722   4.893   1.028
 7707TIP3    H123064   2.643   4.888   0.974
 7707TIP3    H223065   2.754   4.803   1.031
 7708TIP3   OH223066   3.222   6.686   6.452
 7708TIP3    H123067   3.220   6.596   6.418
 7708TIP3    H223068   3.310   6.695   6.488
 7709TIP3   OH223069   4.545   6.096   3.750
 7709TIP3    H123070   4.503   6.182   3.743
 7709TIP3    H223071   4.611   6.107   3.818
 7710TIP3   OH223072   3.692   0.209   5.020
 7710TIP3    H123073   3.739   0.126   5.026
 7710TIP3    H223074   3.722   0.258   5.097
 7711TIP3   OH223075   7.949   6.920   2.098
 7711TIP3    H123076   7.909   6.839   2.066
 7711TIP3    H223077   7.947   6.911   2.193
 7712TIP3   OH223078   6.551   0.144   1.328
 7712TIP3    H123079   6.637   0.175   1.300
 7712TIP3    H223080   6.564   0.052   1.350
 7713TIP3   OH223081   4.335   6.748   3.099
 7713TIP3    H123082   4.326   6.843   3.092
 7713TIP3    H223083   4.246   6.716   3.110
 7714TIP3   OH223084   1.735   2.660   6.474
 7714TIP3    H123085   1.715   2.618   6.390
 7714TIP3    H223086   1.752   2.751   6.452
 7715TIP3   OH223087   7.929   7.044   4.989
 7715TIP3    H123088   7.964   7.132   4.973
 7715TIP3    H223089   7.921   7.039   5.084
 7716TIP3   OH223090   0.068   1.682   0.216
 7716TIP3    H123091   0.089   1.764   0.172
 7716TIP3    H223092   0.098   1.614   0.156
 7717TIP3   OH223093   5.098   6.933   3.005
 7717TIP3    H123094   5.115   6.852   3.054
 7717TIP3    H223095   5.088   7.000   3.073
 7718TIP3   OH223096   5.130   1.747   6.592
 7718TIP3    H123097   5.183   1.747   6.512
 7718TIP3    H223098   5.087   1.661   6.591
 7719TIP3   OH223099   5.898   0.010   2.030
 7719TIP3    H123100   5.963  -0.002   2.099
 7719TIP3    H223101   5.814   0.008   2.076
 7720TIP3   OH223102   8.136   3.303   0.459
 7720TIP3    H123103   8.198   3.248   0.507
 7720TIP3    H223104   8.189   3.350   0.395
 7721TIP3   OH223105   4.057   7.040   1.737
 7721TIP3    H123106   4.066   7.075   1.826
 7721TIP3    H223107   4.097   7.106   1.681
 7722TIP3   OH223108   6.184   7.159   0.743
 7722TIP3    H123109   6.217   7.085   0.793
 7722TIP3    H223110   6.210   7.141   0.653
 7723TIP3   OH223111   0.637   3.165   3.385
 7723TIP3    H123112   0.564   3.110   3.412
 7723TIP3    H223113   0.646   3.230   3.455
 7724TIP3   OH223114   3.889   2.957   3.917
 7724TIP3    H123115   3.866   2.961   4.010
 7724TIP3    H223116   3.832   3.023   3.876
 7725TIP3   OH223117   7.733   2.966   6.751
 7725TIP3    H123118   7.740   3.061   6.756
 7725TIP3    H223119   7.641   2.948   6.771
 7726TIP3   OH223120   8.236   1.810   4.058
 7726TIP3    H123121   8.204   1.720   4.051
 7726TIP3    H223122   8.272   1.830   3.971
 7727TIP3   OH223123   3.943   1.642   3.482
 7727TIP3    H123124   3.859   1.689   3.486
 7727TIP3    H223125   4.007   1.710   3.463
 7728TIP3   OH223126   5.412   7.539   1.259
 7728TIP3    H123127   5.486   7.520   1.202
 7728TIP3    H223128   5.337   7.497   1.216
 7729TIP3   OH223129   5.682   1.927   6.668
 7729TIP3    H123130   5.587   1.923   6.678
 7729TIP3    H223131   5.716   1.861   6.729
 7730TIP3   OH223132   7.174   1.140   2.299
 7730TIP3    H123133   7.117   1.115   2.371
 7730TIP3    H223134   7.114   1.173   2.232
 7731TIP3   OH223135   0.381   4.831   2.504
 7731TIP3    H123136   0.298   4.784   2.497
 7731TIP3    H223137   0.433   4.778   2.565
 7732TIP3   OH223138   0.740   3.479   2.702
 7732TIP3    H123139   0.764   3.407   2.760
 7732TIP3    H223140   0.730   3.554   2.760
 7733TIP3   OH223141   2.279   3.410   3.844
 7733TIP3    H123142   2.269   3.425   3.750
 7733TIP3    H223143   2.368   3.440   3.863
 7734TIP3   OH223144   6.052   5.157   3.877
 7734TIP3    H123145   6.039   5.222   3.946
 7734TIP3    H223146   6.032   5.203   3.795
 7735TIP3   OH223147   7.754   3.984   5.139
 7735TIP3    H123148   7.666   3.950   5.122
 7735TIP3    H223149   7.785   4.013   5.053
 7736TIP3   OH223150   6.569   0.932   2.404
 7736TIP3    H123151   6.616   1.003   2.359
 7736TIP3    H223152   6.544   0.872   2.334
 7737TIP3   OH223153   6.152   1.692   3.796
 7737TIP3    H123154   6.155   1.627   3.866
 7737TIP3    H223155   6.161   1.641   3.715
 7738TIP3   OH223156   6.788   6.112   4.230
 7738TIP3    H123157   6.801   6.098   4.324
 7738TIP3    H223158   6.697   6.140   4.222
 7739TIP3   OH223159   5.968   7.837   6.375
 7739TIP3    H123160   5.914   7.916   6.371
 7739TIP3    H223161   5.905   7.766   6.386
 7740TIP3   OH223162   1.511   4.788   0.963
 7740TIP3    H123163   1.597   4.827   0.979
 7740TIP3    H223164   1.519   4.749   0.875
 7741TIP3   OH223165   6.714   3.514   1.949
 7741TIP3    H123166   6.771   3.562   2.009
 7741TIP3    H223167   6.696   3.431   1.993
 7742TIP3   OH223168   0.668   3.316   3.131
 7742TIP3    H123169   0.580   3.321   3.096
 7742TIP3    H223170   0.657   3.282   3.220
 7743TIP3   OH223171   5.706   0.283   4.736
 7743TIP3    H123172   5.695   0.331   4.819
 7743TIP3    H223173   5.650   0.206   4.745
 7744TIP3   OH223174   1.518   5.382   1.416
 7744TIP3    H123175   1.572   5.461   1.413
 7744TIP3    H223176   1.578   5.312   1.393
 7745TIP3   OH223177   3.434   1.212   2.499
 7745TIP3    H123178   3.487   1.148   2.547
 7745TIP3    H223179   3.429   1.288   2.557
 7746TIP3   OH223180   7.968   7.174   2.671
 7746TIP3    H123181   7.906   7.108   2.702
 7746TIP3    H223182   7.917   7.229   2.611
 7747TIP3   OH223183   8.211   7.478   1.989
 7747TIP3    H123184   8.218   7.546   2.056
 7747TIP3    H223185   8.289   7.490   1.934
 7748TIP3   OH223186   3.620   1.417   5.752
 7748TIP3    H123187   3.541   1.447   5.707
 7748TIP3    H223188   3.589   1.355   5.817
 7749TIP3   OH223189   3.341   5.795   4.579
 7749TIP3    H123190   3.267   5.841   4.618
 7749TIP3    H223191   3.363   5.846   4.501
 7750TIP3   OH223192   0.262   2.754   1.792
 7750TIP3    H123193   0.307   2.672   1.809
 7750TIP3    H223194   0.238   2.787   1.879
 7751TIP3   OH223195   0.096   0.070   2.625
 7751TIP3    H123196   0.163   0.135   2.642
 7751TIP3    H223197   0.043   0.067   2.704
 7752TIP3   OH223198   1.414   0.422   5.699
 7752TIP3    H123199   1.339   0.457   5.747
 7752TIP3    H223200   1.476   0.396   5.766
 7753TIP3   OH223201   5.822   3.634   3.704
 7753TIP3    H123202   5.784   3.649   3.791
 7753TIP3    H223203   5.851   3.543   3.707
 7754TIP3   OH223204   6.339   1.766   4.129
 7754TIP3    H123205   6.427   1.802   4.120
 7754TIP3    H223206   6.299   1.819   4.199
 7755TIP3   OH223207   5.493   4.778   4.565
 7755TIP3    H123208   5.533   4.827   4.493
 7755TIP3    H223209   5.556   4.785   4.637
 7756TIP3   OH223210   3.987   5.369   1.886
 7756TIP3    H123211   4.010   5.385   1.794
 7756TIP3    H223212   3.977   5.274   1.891
 7757TIP3   OH223213   5.403   0.896   4.476
 7757TIP3    H123214   5.444   0.876   4.560
 7757TIP3    H223215   5.477   0.907   4.416
 7758TIP3   OH223216   3.736   3.116   2.521
 7758TIP3    H123217   3.678   3.090   2.592
 7758TIP3    H223218   3.722   3.050   2.453
 7759TIP3   OH223219   7.973   1.217   6.048
 7759TIP3    H123220   8.005   1.287   5.991
 7759TIP3    H223221   8.004   1.243   6.135
 7760TIP3   OH223222   3.601   7.203   2.355
 7760TIP3    H123223   3.526   7.262   2.342
 7760TIP3    H223224   3.629   7.180   2.266
 7761TIP3   OH223225   2.398   1.014   1.023
 7761TIP3    H123226   2.452   0.950   1.069
 7761TIP3    H223227   2.349   0.963   0.959
 7762TIP3   OH223228   4.134   6.700   4.532
 7762TIP3    H123229   4.092   6.614   4.524
 7762TIP3    H223230   4.113   6.746   4.451
 7763TIP3   OH223231   0.985   7.417   5.962
 7763TIP3    H123232   1.080   7.409   5.955
 7763TIP3    H223233   0.962   7.359   6.035
 7764TIP3   OH223234   7.918   0.552   5.624
 7764TIP3    H123235   7.930   0.631   5.571
 7764TIP3    H223236   7.883   0.487   5.563
 7765TIP3   OH223237   3.388   7.578   5.474
 7765TIP3    H123238   3.341   7.563   5.392
 7765TIP3    H223239   3.426   7.493   5.496
 7766TIP3   OH223240   0.963   7.573   6.735
 7766TIP3    H123241   0.917   7.525   6.804
 7766TIP3    H223242   1.020   7.634   6.781
 7767TIP3   OH223243   4.256   6.148   1.909
 7767TIP3    H123244   4.283   6.211   1.976
 7767TIP3    H223245   4.188   6.193   1.859
 7768TIP3   OH223246   6.173   1.411   0.968
 7768TIP3    H123247   6.262   1.402   1.001
 7768TIP3    H223248   6.120   1.425   1.047
 7769TIP3   OH223249   1.299   3.871   3.889
 7769TIP3    H123250   1.206   3.848   3.884
 7769TIP3    H223251   1.343   3.787   3.904
 7770TIP3   OH223252   8.227   4.317   6.710
 7770TIP3    H123253   8.273   4.260   6.649
 7770TIP3    H223254   8.237   4.405   6.672
 7771TIP3   OH223255   1.602   7.748   3.502
 7771TIP3    H123256   1.582   7.700   3.422
 7771TIP3    H223257   1.564   7.696   3.572
 7772TIP3   OH223258   1.481   5.339   2.473
 7772TIP3    H123259   1.406   5.344   2.414
 7772TIP3    H223260   1.518   5.428   2.472
 7773TIP3   OH223261   6.706   2.138   5.216
 7773TIP3    H123262   6.662   2.222   5.228
 7773TIP3    H223263   6.636   2.076   5.198
 7774TIP3   OH223264   5.022   7.261   3.505
 7774TIP3    H123265   5.117   7.257   3.494
 7774TIP3    H223266   5.003   7.354   3.517
 7775TIP3   OH223267   6.347   1.469   3.850
 7775TIP3    H123268   6.349   1.380   3.883
 7775TIP3    H223269   6.312   1.522   3.922
 7776TIP3   OH223270   7.929   3.105   0.736
 7776TIP3    H123271   8.009   3.157   0.726
 7776TIP3    H223272   7.899   3.124   0.825
 7777TIP3   OH223273   5.092   1.789   3.228
 7777TIP3    H123274   5.086   1.846   3.305
 7777TIP3    H223275   5.001   1.767   3.207
 7778TIP3   OH223276   2.963   7.604   4.281
 7778TIP3    H123277   3.043   7.647   4.313
 7778TIP3    H223278   2.897   7.624   4.347
 7779TIP3   OH223279   5.055   1.387   2.940
 7779TIP3    H123280   4.999   1.313   2.920
 7779TIP3    H223281   5.024   1.418   3.025
 7780TIP3   OH223282   1.129   2.810   2.056
 7780TIP3    H123283   1.038   2.820   2.029
 7780TIP3    H223284   1.125   2.771   2.143
 7781TIP3   OH223285   7.029   4.735   3.638
 7781TIP3    H123286   7.061   4.649   3.662
 7781TIP3    H223287   6.954   4.718   3.581
 7782TIP3   OH223288   1.524   6.682   0.513
 7782TIP3    H123289   1.593   6.627   0.549
 7782TIP3    H223290   1.566   6.729   0.441
 7783TIP3   OH223291   0.868   2.810   2.521
 7783TIP3    H123292   0.827   2.818   2.435
 7783TIP3    H223293   0.928   2.885   2.526
 7784TIP3   OH223294   2.326   4.744   1.511
 7784TIP3    H123295   2.244   4.792   1.509
 7784TIP3    H223296   2.324   4.695   1.593
 7785TIP3   OH223297   7.450   4.249   2.478
 7785TIP3    H123298   7.502   4.223   2.403
 7785TIP3    H223299   7.412   4.168   2.511
 7786TIP3   OH223300   2.741   3.543   3.457
 7786TIP3    H123301   2.736   3.450   3.434
 7786TIP3    H223302   2.665   3.558   3.512
 7787TIP3   OH223303   8.249   2.518   2.261
 7787TIP3    H123304   8.181   2.519   2.194
 7787TIP3    H223305   8.314   2.457   2.228
 7788TIP3   OH223306   4.660   3.000   2.625
 7788TIP3    H123307   4.575   3.042   2.611
 7788TIP3    H223308   4.639   2.907   2.635
 7789TIP3   OH223309   3.984   4.459   5.927
 7789TIP3    H123310   4.041   4.389   5.960
 7789TIP3    H223311   4.010   4.471   5.836
 7790TIP3   OH223312   0.780   5.168   3.447
 7790TIP3    H123313   0.753   5.204   3.363
 7790TIP3    H223314   0.873   5.147   3.435
 7791TIP3   OH223315   1.381   6.832   2.338
 7791TIP3    H123316   1.450   6.823   2.273
 7791TIP3    H223317   1.426   6.822   2.422
 7792TIP3   OH223318   2.717   3.079   1.525
 7792TIP3    H123319   2.674   2.994   1.539
 7792TIP3    H223320   2.657   3.126   1.467
 7793TIP3   OH223321   4.142   0.430   0.568
 7793TIP3    H123322   4.227   0.461   0.537
 7793TIP3    H223323   4.147   0.335   0.562
 7794TIP3   OH223324   7.327   5.982   0.968
 7794TIP3    H123325   7.351   5.899   1.007
 7794TIP3    H223326   7.236   5.996   0.993
 7795TIP3   OH223327   8.221   4.014   5.793
 7795TIP3    H123328   8.157   4.019   5.864
 7795TIP3    H223329   8.205   4.092   5.740
 7796TIP3   OH223330   0.734   4.468   6.592
 7796TIP3    H123331   0.785   4.546   6.573
 7796TIP3    H223332   0.796   4.396   6.581
 7797TIP3   OH223333   6.481   3.647   1.679
 7797TIP3    H123334   6.466   3.680   1.590
 7797TIP3    H223335   6.561   3.594   1.671
 7798TIP3   OH223336   8.326   7.070   0.781
 7798TIP3    H123337   8.374   7.079   0.699
 7798TIP3    H223338   8.234   7.068   0.755
 7799TIP3   OH223339   0.704   0.935   3.989
 7799TIP3    H123340   0.660   0.976   3.915
 7799TIP3    H223341   0.640   0.939   4.060
 7800TIP3   OH223342   4.415   2.140   5.624
 7800TIP3    H123343   4.484   2.086   5.586
 7800TIP3    H223344   4.462   2.213   5.666
 7801TIP3   OH223345   8.005   0.039   2.511
 7801TIP3    H123346   8.001   0.087   2.428
 7801TIP3    H223347   8.035  -0.049   2.485
 7802TIP3   OH223348   3.515   4.409   4.218
 7802TIP3    H123349   3.483   4.498   4.204
 7802TIP3    H223350   3.476   4.358   4.147
 7803TIP3   OH223351   1.313   6.502   0.527
 7803TIP3    H123352   1.380   6.569   0.536
 7803TIP3    H223353   1.274   6.518   0.441
 7804TIP3   OH223354   7.566   2.802   4.984
 7804TIP3    H123355   7.512   2.881   4.986
 7804TIP3    H223356   7.588   2.786   5.076
 7805TIP3   OH223357   2.891   3.700   5.750
 7805TIP3    H123358   2.971   3.654   5.773
 7805TIP3    H223359   2.826   3.631   5.740
 7806TIP3   OH223360   7.807   2.721   0.933
 7806TIP3    H123361   7.828   2.628   0.932
 7806TIP3    H223362   7.741   2.729   1.003
 7807TIP3   OH223363   4.223   6.280   3.502
 7807TIP3    H123364   4.216   6.220   3.576
 7807TIP3    H223365   4.316   6.303   3.498
 7808TIP3   OH223366   3.635   4.537   1.910
 7808TIP3    H123367   3.637   4.468   1.844
 7808TIP3    H223368   3.654   4.617   1.862
 7809TIP3   OH223369   4.715   5.108   4.855
 7809TIP3    H123370   4.762   5.171   4.910
 7809TIP3    H223371   4.784   5.054   4.816
 7810TIP3   OH223372   8.306   1.801   0.591
 7810TIP3    H123373   8.223   1.780   0.634
 7810TIP3    H223374   8.335   1.717   0.555
 7811TIP3   OH223375   7.120   1.328   5.576
 7811TIP3    H123376   7.063   1.315   5.501
 7811TIP3    H223377   7.204   1.292   5.549
 7812TIP3   OH223378   3.794   6.583   0.941
 7812TIP3    H123379   3.738   6.656   0.966
 7812TIP3    H223380   3.737   6.527   0.887
 7813TIP3   OH223381   1.623   7.202   3.574
 7813TIP3    H123382   1.550   7.264   3.577
 7813TIP3    H223383   1.695   7.251   3.536
 7814TIP3   OH223384   8.098   0.333   4.040
 7814TIP3    H123385   8.169   0.339   3.976
 7814TIP3    H223386   8.023   0.376   3.996
 7815TIP3   OH223387   0.712   7.449   4.988
 7815TIP3    H123388   0.759   7.376   5.029
 7815TIP3    H223389   0.712   7.518   5.055
 7816TIP3   OH223390   1.568   5.427   0.857
 7816TIP3    H123391   1.475   5.414   0.875
 7816TIP3    H223392   1.606   5.444   0.943
 7817TIP3   OH223393   3.968   0.789   2.636
 7817TIP3    H123394   4.045   0.775   2.581
 7817TIP3    H223395   4.002   0.833   2.714
 7818TIP3   OH223396   0.223   5.146   0.236
 7818TIP3    H123397   0.140   5.193   0.243
 7818TIP3    H223398   0.244   5.121   0.326
 7819TIP3   OH223399   3.245   2.880   0.515
 7819TIP3    H123400   3.302   2.818   0.561
 7819TIP3    H223401   3.299   2.913   0.443
 7820TIP3   OH223402   1.589   0.389   4.468
 7820TIP3    H123403   1.610   0.477   4.436
 7820TIP3    H223404   1.614   0.331   4.396
 7821TIP3   OH223405   6.425   0.375   2.836
 7821TIP3    H123406   6.429   0.299   2.895
 7821TIP3    H223407   6.358   0.432   2.875
 7822TIP3   OH223408   5.414   4.982   3.269
 7822TIP3    H123409   5.449   5.045   3.332
 7822TIP3    H223410   5.322   4.972   3.294
 7823TIP3   OH223411   4.494   7.089   2.129
 7823TIP3    H123412   4.443   7.097   2.049
 7823TIP3    H223413   4.584   7.076   2.098
 7824TIP3   OH223414   1.631   2.133   5.451
 7824TIP3    H123415   1.557   2.087   5.412
 7824TIP3    H223416   1.592   2.186   5.521
 7825TIP3   OH223417   3.854   2.928   4.206
 7825TIP3    H123418   3.871   2.837   4.229
 7825TIP3    H223419   3.759   2.938   4.211
 7826TIP3   OH223420   5.825   1.809   5.604
 7826TIP3    H123421   5.909   1.841   5.571
 7826TIP3    H223422   5.799   1.741   5.542
 7827TIP3   OH223423   7.587   4.378   1.083
 7827TIP3    H123424   7.579   4.442   1.012
 7827TIP3    H223425   7.604   4.431   1.161
 7828TIP3   OH223426   1.895   1.496   6.100
 7828TIP3    H123427   1.970   1.553   6.083
 7828TIP3    H223428   1.912   1.417   6.048
 7829TIP3   OH223429   5.588   5.429   0.461
 7829TIP3    H123430   5.652   5.441   0.392
 7829TIP3    H223431   5.552   5.516   0.477
 7830TIP3   OH223432   6.262   3.740   0.781
 7830TIP3    H123433   6.216   3.680   0.839
 7830TIP3    H223434   6.343   3.694   0.758
 7831TIP3   OH223435   4.666   3.786   0.727
 7831TIP3    H123436   4.593   3.744   0.771
 7831TIP3    H223437   4.634   3.874   0.706
 7832TIP3   OH223438   7.725   5.965   3.714
 7832TIP3    H123439   7.698   5.880   3.681
 7832TIP3    H223440   7.819   5.957   3.730
 7833TIP3   OH223441   7.081   0.735   3.584
 7833TIP3    H123442   7.096   0.734   3.489
 7833TIP3    H223443   7.160   0.696   3.621
 7834TIP3   OH223444   3.423   7.648   1.859
 7834TIP3    H123445   3.463   7.718   1.808
 7834TIP3    H223446   3.353   7.614   1.803
 7835TIP3   OH223447   6.613   7.822   0.735
 7835TIP3    H123448   6.651   7.840   0.821
 7835TIP3    H223449   6.520   7.808   0.753
 7836TIP3   OH223450   5.772   3.225   1.813
 7836TIP3    H123451   5.780   3.320   1.799
 7836TIP3    H223452   5.857   3.190   1.785
 7837TIP3   OH223453   2.282   7.786   2.816
 7837TIP3    H123454   2.336   7.846   2.867
 7837TIP3    H223455   2.341   7.752   2.749
 7838TIP3   OH223456   3.514   2.566   4.500
 7838TIP3    H123457   3.564   2.545   4.421
 7838TIP3    H223458   3.462   2.488   4.517
 7839TIP3   OH223459   3.631   5.418   2.513
 7839TIP3    H123460   3.631   5.414   2.418
 7839TIP3    H223461   3.566   5.485   2.535
 7840TIP3   OH223462   3.119   7.741   1.774
 7840TIP3    H123463   3.099   7.739   1.868
 7840TIP3    H223464   3.156   7.655   1.756
 7841TIP3   OH223465   2.581   2.329   5.665
 7841TIP3    H123466   2.601   2.352   5.574
 7841TIP3    H223467   2.588   2.412   5.713
 7842TIP3   OH223468   6.329   6.413   3.483
 7842TIP3    H123469   6.252   6.416   3.426
 7842TIP3    H223470   6.365   6.325   3.469
 7843TIP3   OH223471   6.597   4.486   4.502
 7843TIP3    H123472   6.510   4.446   4.509
 7843TIP3    H223473   6.621   4.509   4.592
 7844TIP3   OH223474   0.922   7.493   2.668
 7844TIP3    H123475   0.907   7.406   2.632
 7844TIP3    H223476   0.940   7.548   2.592
 7845TIP3   OH223477   6.282   5.486   4.908
 7845TIP3    H123478   6.188   5.490   4.891
 7845TIP3    H223479   6.289   5.457   4.999
 7846TIP3   OH223480   3.932   4.922   1.153
 7846TIP3    H123481   3.917   4.849   1.213
 7846TIP3    H223482   4.007   4.895   1.100
 7847TIP3   OH223483   2.078   4.120   0.453
 7847TIP3    H123484   1.999   4.066   0.462
 7847TIP3    H223485   2.063   4.194   0.512
 7848TIP3   OH223486   4.351   5.597   0.443
 7848TIP3    H123487   4.389   5.684   0.433
 7848TIP3    H223488   4.395   5.560   0.519
 7849TIP3   OH223489   7.665   5.406   2.845
 7849TIP3    H123490   7.744   5.353   2.830
 7849TIP3    H223491   7.645   5.442   2.759
 7850TIP3   OH223492   4.112   2.773   4.048
 7850TIP3    H123493   4.129   2.709   3.979
 7850TIP3    H223494   4.174   2.844   4.031
 7851TIP3   OH223495   6.574   2.044   4.335
 7851TIP3    H123496   6.629   2.053   4.258
 7851TIP3    H223497   6.620   2.093   4.403
 7852TIP3   OH223498   2.769   5.789   1.427
 7852TIP3    H123499   2.731   5.873   1.451
 7852TIP3    H223500   2.693   5.732   1.411
 7853TIP3   OH223501   7.527   1.204   0.146
 7853TIP3    H123502   7.533   1.137   0.214
 7853TIP3    H223503   7.614   1.243   0.143
 7854TIP3   OH223504   6.681   6.131   2.851
 7854TIP3    H123505   6.646   6.065   2.911
 7854TIP3    H223506   6.671   6.093   2.764
 7855TIP3   OH223507   1.042   6.712   5.987
 7855TIP3    H123508   1.090   6.755   6.058
 7855TIP3    H223509   1.018   6.783   5.927
 7856TIP3   OH223510   3.932   4.813   6.435
 7856TIP3    H123511   3.891   4.728   6.416
 7856TIP3    H223512   3.904   4.834   6.524
 7857TIP3   OH223513   3.595   3.689   5.044
 7857TIP3    H123514   3.679   3.647   5.063
 7857TIP3    H223515   3.615   3.753   4.975
 7858TIP3   OH223516   5.992   1.935   6.317
 7858TIP3    H123517   6.083   1.906   6.307
 7858TIP3    H223518   5.948   1.907   6.237
 7859TIP3   OH223519   2.051   5.889   1.118
 7859TIP3    H123520   2.073   5.803   1.083
 7859TIP3    H223521   1.970   5.876   1.166
 7860TIP3   OH223522   5.459   3.340   6.299
 7860TIP3    H123523   5.370   3.374   6.285
 7860TIP3    H223524   5.517   3.409   6.267
 7861TIP3   OH223525   2.993   1.604   2.783
 7861TIP3    H123526   2.933   1.530   2.793
 7861TIP3    H223527   3.012   1.632   2.872
 7862TIP3   OH223528   5.730   4.063   5.276
 7862TIP3    H123529   5.766   4.005   5.343
 7862TIP3    H223530   5.787   4.140   5.277
 7863TIP3   OH223531   0.974   3.925   0.334
 7863TIP3    H123532   0.960   3.841   0.377
 7863TIP3    H223533   1.006   3.903   0.246
 7864TIP3   OH223534   7.095   6.758   0.853
 7864TIP3    H123535   7.045   6.760   0.771
 7864TIP3    H223536   7.165   6.821   0.840
 7865TIP3   OH223537   6.204   2.976   1.508
 7865TIP3    H123538   6.124   2.933   1.480
 7865TIP3    H223539   6.260   2.975   1.430
 7866TIP3   OH223540   5.748   6.183   6.005
 7866TIP3    H123541   5.708   6.097   5.993
 7866TIP3    H223542   5.801   6.175   6.084
 7867TIP3   OH223543   3.222   0.349   1.491
 7867TIP3    H123544   3.221   0.384   1.580
 7867TIP3    H223545   3.234   0.426   1.435
 7868TIP3   OH223546   3.549   4.601   5.644
 7868TIP3    H123547   3.599   4.635   5.718
 7868TIP3    H223548   3.497   4.676   5.613
 7869TIP3   OH223549   0.390   0.956   1.914
 7869TIP3    H123550   0.402   0.984   1.823
 7869TIP3    H223551   0.434   1.023   1.966
 7870TIP3   OH223552   4.404   0.197   3.425
 7870TIP3    H123553   4.463   0.187   3.349
 7870TIP3    H223554   4.382   0.107   3.449
 7871TIP3   OH223555   3.052   6.863   0.446
 7871TIP3    H123556   3.030   6.955   0.459
 7871TIP3    H223557   2.969   6.822   0.421
 7872TIP3   OH223558   7.093   2.699   2.094
 7872TIP3    H123559   7.017   2.656   2.054
 7872TIP3    H223560   7.134   2.748   2.023
 7873TIP3   OH223561   0.835   5.319   4.367
 7873TIP3    H123562   0.915   5.369   4.351
 7873TIP3    H223563   0.865   5.228   4.370
 7874TIP3   OH223564   2.098   6.507   6.686
 7874TIP3    H123565   2.049   6.468   6.759
 7874TIP3    H223566   2.146   6.434   6.648
 7875TIP3   OH223567   3.561   0.503   1.460
 7875TIP3    H123568   3.656   0.497   1.468
 7875TIP3    H223569   3.531   0.412   1.451
 7876TIP3   OH223570   3.216   6.454   6.721
 7876TIP3    H123571   3.183   6.484   6.806
 7876TIP3    H223572   3.137   6.439   6.668
 7877TIP3   OH223573   4.985   6.901   1.988
 7877TIP3    H123574   5.063   6.871   2.033
 7877TIP3    H223575   4.973   6.840   1.915
 7878TIP3   OH223576   1.959   7.790   4.455
 7878TIP3    H123577   1.980   7.860   4.393
 7878TIP3    H223578   1.965   7.832   4.541
 7879TIP3   OH223579   1.226   4.448   0.285
 7879TIP3    H123580   1.265   4.363   0.266
 7879TIP3    H223581   1.153   4.428   0.344
 7880TIP3   OH223582   4.079   0.742   2.364
 7880TIP3    H123583   4.053   0.726   2.273
 7880TIP3    H223584   4.100   0.836   2.366
 7881TIP3   OH223585   2.697   2.885   5.926
 7881TIP3    H123586   2.787   2.858   5.907
 7881TIP3    H223587   2.656   2.894   5.841
 7882TIP3   OH223588   7.753   3.419   1.851
 7882TIP3    H123589   7.666   3.382   1.866
 7882TIP3    H223590   7.779   3.455   1.936
 7883TIP3   OH223591   5.306   3.968   3.806
 7883TIP3    H123592   5.242   3.957   3.877
 7883TIP3    H223593   5.258   3.943   3.727
 7884TIP3   OH223594   7.656   4.680   1.267
 7884TIP3    H123595   7.718   4.729   1.320
 7884TIP3    H223596   7.600   4.634   1.330
 7885TIP3   OH223597   4.933   4.345   3.118
 7885TIP3    H123598   4.948   4.368   3.026
 7885TIP3    H223599   5.013   4.373   3.163
 7886TIP3   OH223600   4.893   1.642   3.671
 7886TIP3    H123601   4.908   1.562   3.722
 7886TIP3    H223602   4.960   1.640   3.602
 7887TIP3   OH223603   5.216   7.832   2.782
 7887TIP3    H123604   5.128   7.862   2.806
 7887TIP3    H223605   5.226   7.859   2.690
 7888TIP3   OH223606   1.377   3.800   1.865
 7888TIP3    H123607   1.379   3.796   1.769
 7888TIP3    H223608   1.285   3.786   1.888
 7889TIP3   OH223609   1.565   6.645   5.046
 7889TIP3    H123610   1.553   6.650   5.141
 7889TIP3    H223611   1.658   6.625   5.034
 7890TIP3   OH223612   5.623   7.729   4.592
 7890TIP3    H123613   5.639   7.789   4.520
 7890TIP3    H223614   5.575   7.656   4.552
 7891TIP3   OH223615   5.180   5.285   4.448
 7891TIP3    H123616   5.213   5.253   4.363
 7891TIP3    H223617   5.190   5.210   4.507
 7892TIP3   OH223618   5.504   3.069   3.356
 7892TIP3    H123619   5.502   2.999   3.422
 7892TIP3    H223620   5.457   3.032   3.281
 7893TIP3   OH223621   4.179   4.758   3.645
 7893TIP3    H123622   4.175   4.721   3.734
 7893TIP3    H223623   4.243   4.704   3.599
 7894TIP3   OH223624   4.188   0.666   2.062
 7894TIP3    H123625   4.278   0.648   2.090
 7894TIP3    H223626   4.138   0.588   2.089
 7895TIP3   OH223627   4.270   7.678   1.278
 7895TIP3    H123628   4.180   7.682   1.246
 7895TIP3    H223629   4.285   7.763   1.319
 7896TIP3   OH223630   6.874   6.601   6.445
 7896TIP3    H123631   6.850   6.633   6.532
 7896TIP3    H223632   6.888   6.507   6.457
 7897TIP3   OH223633   5.494   1.377   0.219
 7897TIP3    H123634   5.467   1.323   0.294
 7897TIP3    H223635   5.575   1.418   0.247
 7898TIP3   OH223636   1.987   5.357   5.956
 7898TIP3    H123637   1.952   5.314   5.877
 7898TIP3    H223638   2.077   5.326   5.963
 7899TIP3   OH223639   7.799   2.312   2.164
 7899TIP3    H123640   7.779   2.382   2.102
 7899TIP3    H223641   7.735   2.243   2.144
 7900TIP3   OH223642   8.109   5.085   0.250
 7900TIP3    H123643   8.032   5.141   0.248
 7900TIP3    H223644   8.099   5.027   0.175
 7901TIP3   OH223645   1.738   6.446   4.486
 7901TIP3    H123646   1.720   6.431   4.394
 7901TIP3    H223647   1.653   6.435   4.529
 7902TIP3   OH223648   8.019   5.578   0.057
 7902TIP3    H123649   7.946   5.584  -0.004
 7902TIP3    H223650   8.097   5.579   0.002
 7903TIP3   OH223651   0.453   2.189   5.785
 7903TIP3    H123652   0.387   2.209   5.718
 7903TIP3    H223653   0.536   2.196   5.738
 7904TIP3   OH223654   7.807   6.828   1.404
 7904TIP3    H123655   7.785   6.828   1.497
 7904TIP3    H223656   7.827   6.736   1.383
 7905TIP3   OH223657   7.587   0.240  -0.027
 7905TIP3    H123658   7.672   0.254  -0.069
 7905TIP3    H223659   7.608   0.214   0.063
 7906TIP3   OH223660   6.582   0.480   1.154
 7906TIP3    H123661   6.516   0.462   1.222
 7906TIP3    H223662   6.552   0.560   1.112
 7907TIP3   OH223663   4.750   0.637   0.916
 7907TIP3    H123664   4.727   0.716   0.965
 7907TIP3    H223665   4.774   0.669   0.829
 7908TIP3   OH223666   6.104   7.502   5.372
 7908TIP3    H123667   6.092   7.523   5.464
 7908TIP3    H223668   6.080   7.410   5.365
 7909TIP3   OH223669   0.655   0.226   5.835
 7909TIP3    H123670   0.668   0.283   5.759
 7909TIP3    H223671   0.563   0.238   5.858
 7910TIP3   OH223672   1.911   5.046   2.824
 7910TIP3    H123673   1.831   5.073   2.779
 7910TIP3    H223674   1.982   5.083   2.771
 7911TIP3   OH223675   1.747   0.993   4.180
 7911TIP3    H123676   1.734   0.995   4.275
 7911TIP3    H223677   1.767   1.084   4.157
 7912TIP3   OH223678   1.045   3.917   4.538
 7912TIP3    H123679   0.973   3.925   4.600
 7912TIP3    H223680   1.075   3.826   4.547
 7913TIP3   OH223681   4.331   0.869   1.157
 7913TIP3    H123682   4.255   0.889   1.211
 7913TIP3    H223683   4.401   0.922   1.194
 7914TIP3   OH223684   3.877   3.098   5.117
 7914TIP3    H123685   3.834   3.126   5.037
 7914TIP3    H223686   3.807   3.092   5.182
 7915TIP3   OH223687   7.036   4.802   5.822
 7915TIP3    H123688   7.004   4.875   5.770
 7915TIP3    H223689   7.117   4.775   5.778
 7916TIP3   OH223690   2.512   5.802   4.095
 7916TIP3    H123691   2.446   5.863   4.063
 7916TIP3    H223692   2.462   5.730   4.133
 7917TIP3   OH223693   6.995   1.807   2.750
 7917TIP3    H123694   7.048   1.829   2.674
 7917TIP3    H223695   7.014   1.714   2.766
 7918TIP3   OH223696   6.934   5.857   2.604
 7918TIP3    H123697   6.889   5.868   2.520
 7918TIP3    H223698   6.969   5.944   2.623
 7919TIP3   OH223699   6.717   0.103   0.436
 7919TIP3    H123700   6.765   0.133   0.359
 7919TIP3    H223701   6.765   0.141   0.510
 7920TIP3   OH223702   5.092   6.455   6.005
 7920TIP3    H123703   5.012   6.507   5.996
 7920TIP3    H223704   5.100   6.411   5.920
 7921TIP3   OH223705   1.905   6.591   2.263
 7921TIP3    H123706   1.815   6.605   2.235
 7921TIP3    H223707   1.958   6.630   2.193
 7922TIP3   OH223708   2.862   0.532   5.114
 7922TIP3    H123709   2.943   0.539   5.166
 7922TIP3    H223710   2.849   0.619   5.078
 7923TIP3   OH223711   0.687   4.587   1.700
 7923TIP3    H123712   0.625   4.577   1.772
 7923TIP3    H223713   0.742   4.661   1.725
 7924TIP3   OH223714   2.839   6.694   3.759
 7924TIP3    H123715   2.797   6.757   3.701
 7924TIP3    H223716   2.892   6.747   3.818
 7925TIP3   OH223717   5.229   0.227   1.552
 7925TIP3    H123718   5.186   0.202   1.470
 7925TIP3    H223719   5.157   0.254   1.609
 7926TIP3   OH223720   7.315   2.489   4.807
 7926TIP3    H123721   7.410   2.484   4.810
 7926TIP3    H223722   7.288   2.495   4.899
 7927TIP3   OH223723   3.517   5.858   4.809
 7927TIP3    H123724   3.461   5.794   4.765
 7927TIP3    H223725   3.536   5.924   4.742
 7928TIP3   OH223726   7.465   5.642   2.802
 7928TIP3    H123727   7.495   5.633   2.712
 7928TIP3    H223728   7.499   5.564   2.847
 7929TIP3   OH223729   3.743   3.402   5.488
 7929TIP3    H123730   3.748   3.431   5.397
 7929TIP3    H223731   3.835   3.395   5.515
 7930TIP3   OH223732   4.691   6.305   2.591
 7930TIP3    H123733   4.712   6.359   2.667
 7930TIP3    H223734   4.635   6.361   2.537
 7931TIP3   OH223735   0.757   3.514   3.966
 7931TIP3    H123736   0.821   3.540   4.033
 7931TIP3    H223737   0.672   3.526   4.008
 7932TIP3   OH223738   7.596   1.982   1.182
 7932TIP3    H123739   7.563   2.022   1.102
 7932TIP3    H223740   7.629   1.896   1.154
 7933TIP3   OH223741   2.061   6.689   0.542
 7933TIP3    H123742   2.061   6.594   0.545
 7933TIP3    H223743   2.080   6.710   0.450
 7934TIP3   OH223744   1.629   1.950   3.922
 7934TIP3    H123745   1.691   1.899   3.973
 7934TIP3    H223746   1.562   1.886   3.896
 7935TIP3   OH223747   4.305   1.499   2.475
 7935TIP3    H123748   4.257   1.491   2.558
 7935TIP3    H223749   4.247   1.549   2.418
 7936TIP3   OH223750   0.230   1.314   0.852
 7936TIP3    H123751   0.280   1.395   0.844
 7936TIP3    H223752   0.138   1.343   0.851
 7937TIP3   OH223753   5.981   2.111   0.135
 7937TIP3    H123754   5.949   2.034   0.089
 7937TIP3    H223755   5.961   2.184   0.076
 7938TIP3   OH223756   2.380   3.756   1.412
 7938TIP3    H123757   2.323   3.826   1.444
 7938TIP3    H223758   2.333   3.718   1.338
 7939TIP3   OH223759   3.639   4.328   5.921
 7939TIP3    H123760   3.658   4.247   5.968
 7939TIP3    H223761   3.671   4.397   5.980
 7940TIP3   OH223762   5.389   1.967   6.674
 7940TIP3    H123763   5.367   2.053   6.637
 7940TIP3    H223764   5.321   1.952   6.739
 7941TIP3   OH223765   5.711   5.543   4.971
 7941TIP3    H123766   5.640   5.602   4.999
 7941TIP3    H223767   5.764   5.532   5.049
 7942TIP3   OH223768   5.579   6.512   1.583
 7942TIP3    H123769   5.514   6.502   1.513
 7942TIP3    H223770   5.545   6.583   1.637
 7943TIP3   OH223771   0.062   6.421   5.661
 7943TIP3    H123772   0.108   6.337   5.658
 7943TIP3    H223773   0.083   6.456   5.748
 7944TIP3   OH223774   5.510   1.973   1.963
 7944TIP3    H123775   5.498   1.968   2.058
 7944TIP3    H223776   5.592   1.927   1.946
 7945TIP3   OH223777   3.918   1.408   1.323
 7945TIP3    H123778   3.942   1.429   1.232
 7945TIP3    H223779   3.958   1.323   1.339
 7946TIP3   OH223780   6.057   4.066   3.472
 7946TIP3    H123781   5.966   4.082   3.449
 7946TIP3    H223782   6.057   4.056   3.567
 7947TIP3   OH223783   3.534   1.261   4.928
 7947TIP3    H123784   3.486   1.179   4.926
 7947TIP3    H223785   3.519   1.301   4.842
 7948TIP3   OH223786   0.293   0.712   4.120
 7948TIP3    H123787   0.218   0.726   4.061
 7948TIP3    H223788   0.328   0.627   4.094
 7949TIP3   OH223789   6.083   2.732   5.120
 7949TIP3    H123790   6.047   2.792   5.054
 7949TIP3    H223791   6.018   2.662   5.127
 7950TIP3   OH223792   4.561   2.276   6.056
 7950TIP3    H123793   4.579   2.365   6.085
 7950TIP3    H223794   4.504   2.240   6.124
 7951TIP3   OH223795   1.134   4.593   2.588
 7951TIP3    H123796   1.156   4.594   2.495
 7951TIP3    H223797   1.110   4.502   2.606
 7952TIP3   OH223798   7.505   7.648   3.126
 7952TIP3    H123799   7.576   7.597   3.085
 7952TIP3    H223800   7.427   7.623   3.078
 7953TIP3   OH223801   1.001   2.670   3.332
 7953TIP3    H123802   0.979   2.713   3.414
 7953TIP3    H223803   0.927   2.688   3.274
 7954TIP3   OH223804   1.122   6.102   2.694
 7954TIP3    H123805   1.160   6.188   2.713
 7954TIP3    H223806   1.056   6.089   2.762
 7955TIP3   OH223807   3.084   7.602   0.468
 7955TIP3    H123808   3.062   7.584   0.377
 7955TIP3    H223809   3.179   7.587   0.474
 7956TIP3   OH223810   1.259   0.550   2.463
 7956TIP3    H123811   1.166   0.561   2.446
 7956TIP3    H223812   1.262   0.500   2.545
 7957TIP3   OH223813   4.041   3.603   3.055
 7957TIP3    H123814   4.113   3.658   3.087
 7957TIP3    H223815   4.076   3.514   3.058
 7958TIP3   OH223816   7.340   7.054   4.049
 7958TIP3    H123817   7.415   6.996   4.032
 7958TIP3    H223818   7.347   7.122   3.982
 7959TIP3   OH223819   3.492   5.678   4.267
 7959TIP3    H123820   3.485   5.751   4.328
 7959TIP3    H223821   3.526   5.717   4.186
 7960TIP3   OH223822   4.252   5.383   1.511
 7960TIP3    H123823   4.207   5.396   1.428
 7960TIP3    H223824   4.344   5.369   1.488
 7961TIP3   OH223825   0.291   3.535   5.927
 7961TIP3    H123826   0.371   3.535   5.979
 7961TIP3    H223827   0.318   3.568   5.841
 7962TIP3   OH223828   0.426   5.098   2.501
 7962TIP3    H123829   0.389   5.010   2.500
 7962TIP3    H223830   0.352   5.155   2.521
 7963TIP3   OH223831   7.274   1.336   6.580
 7963TIP3    H123832   7.299   1.388   6.657
 7963TIP3    H223833   7.295   1.245   6.605
 7964TIP3   OH223834   0.609   2.192   1.644
 7964TIP3    H123835   0.626   2.098   1.647
 7964TIP3    H223836   0.600   2.213   1.551
 7965TIP3   OH223837   3.408   2.765   5.367
 7965TIP3    H123838   3.434   2.835   5.427
 7965TIP3    H223839   3.316   2.783   5.347
 7966TIP3   OH223840   5.981   6.608   4.106
 7966TIP3    H123841   5.942   6.688   4.140
 7966TIP3    H223842   5.928   6.587   4.029
 7967TIP3   OH223843   2.181   1.297   2.355
 7967TIP3    H123844   2.190   1.352   2.433
 7967TIP3    H223845   2.086   1.290   2.342
 7968TIP3   OH223846   1.993   1.494   0.309
 7968TIP3    H123847   2.084   1.520   0.301
 7968TIP3    H223848   1.958   1.550   0.378
 7969TIP3   OH223849   4.396   2.030   1.217
 7969TIP3    H123850   4.491   2.020   1.228
 7969TIP3    H223851   4.387   2.095   1.147
 7970TIP3   OH223852   7.653   5.209   3.577
 7970TIP3    H123853   7.599   5.288   3.576
 7970TIP3    H223854   7.596   5.140   3.543
 7971TIP3   OH223855   4.989   4.672   1.107
 7971TIP3    H123856   5.022   4.620   1.033
 7971TIP3    H223857   5.068   4.707   1.148
 7972TIP3   OH223858   0.695   4.909   3.518
 7972TIP3    H123859   0.723   4.998   3.495
 7972TIP3    H223860   0.639   4.921   3.596
 7973TIP3   OH223861   4.252   4.126   3.275
 7973TIP3    H123862   4.184   4.186   3.306
 7973TIP3    H223863   4.307   4.179   3.218
 7974TIP3   OH223864   4.190   3.820   1.590
 7974TIP3    H123865   4.099   3.842   1.568
 7974TIP3    H223866   4.237   3.827   1.507
 7975TIP3   OH223867   4.436   0.013   4.547
 7975TIP3    H123868   4.498   0.046   4.613
 7975TIP3    H223869   4.458   0.061   4.467
 7976TIP3   OH223870   1.873   4.868   3.516
 7976TIP3    H123871   1.855   4.838   3.427
 7976TIP3    H223872   1.866   4.963   3.511
 7977TIP3   OH223873   4.956   3.963   5.794
 7977TIP3    H123874   4.983   3.984   5.883
 7977TIP3    H223875   4.884   4.023   5.776
 7978TIP3   OH223876   8.236   4.754   4.146
 7978TIP3    H123877   8.203   4.831   4.099
 7978TIP3    H223878   8.329   4.752   4.126
 7979TIP3   OH223879   3.074   7.837   6.387
 7979TIP3    H123880   3.090   7.751   6.347
 7979TIP3    H223881   3.067   7.818   6.481
 7980TIP3   OH223882   2.419   2.420   0.177
 7980TIP3    H123883   2.370   2.377   0.246
 7980TIP3    H223884   2.466   2.490   0.221
 7981TIP3   OH223885   3.461   2.325   6.469
 7981TIP3    H123886   3.540   2.351   6.516
 7981TIP3    H223887   3.479   2.346   6.377
 7982TIP3   OH223888   5.543   4.678   0.053
 7982TIP3    H123889   5.504   4.762   0.027
 7982TIP3    H223890   5.541   4.680   0.149
 7983TIP3   OH223891   0.873   3.038   5.060
 7983TIP3    H123892   0.952   3.048   5.113
 7983TIP3    H223893   0.824   2.968   5.103
 7984TIP3   OH223894   1.414   5.000   6.458
 7984TIP3    H123895   1.477   4.932   6.484
 7984TIP3    H223896   1.469   5.072   6.425
 7985TIP3   OH223897   0.971   4.366   3.214
 7985TIP3    H123898   0.963   4.364   3.309
 7985TIP3    H223899   0.942   4.454   3.189
 7986TIP3   OH223900   7.240   6.431   2.863
 7986TIP3    H123901   7.204   6.488   2.931
 7986TIP3    H223902   7.281   6.491   2.801
 7987TIP3   OH223903   1.940   5.634   4.775
 7987TIP3    H123904   1.941   5.592   4.689
 7987TIP3    H223905   1.862   5.690   4.774
 7988TIP3   OH223906   1.948   4.270   1.386
 7988TIP3    H123907   1.897   4.202   1.343
 7988TIP3    H223908   2.031   4.272   1.337
 7989TIP3   OH223909   0.375   7.228   2.464
 7989TIP3    H123910   0.394   7.215   2.557
 7989TIP3    H223911   0.328   7.150   2.437
 7990TIP3   OH223912   5.020   1.061   3.718
 7990TIP3    H123913   5.032   1.069   3.813
 7990TIP3    H223914   5.106   1.036   3.685
 7991TIP3   OH223915   0.743   2.783   3.264
 7991TIP3    H123916   0.710   2.861   3.221
 7991TIP3    H223917   0.740   2.715   3.196
 7992TIP3   OH223918   0.708   3.052   3.159
 7992TIP3    H123919   0.678   3.094   3.240
 7992TIP3    H223920   0.792   3.093   3.141
 7993TIP3   OH223921   7.853   3.649   6.047
 7993TIP3    H123922   7.837   3.670   5.955
 7993TIP3    H223923   7.796   3.709   6.095
 7994TIP3   OH223924   1.400   3.815   4.561
 7994TIP3    H123925   1.479   3.855   4.525
 7994TIP3    H223926   1.361   3.883   4.615
 7995TIP3   OH223927   8.159   3.436   1.734
 7995TIP3    H123928   8.142   3.530   1.737
 7995TIP3    H223929   8.219   3.420   1.807
 7996TIP3   OH223930   7.415   2.749   0.549
 7996TIP3    H123931   7.325   2.714   0.544
 7996TIP3    H223932   7.407   2.829   0.600
 7997TIP3   OH223933   0.720   2.827   5.537
 7997TIP3    H123934   0.784   2.757   5.551
 7997TIP3    H223935   0.721   2.877   5.619
 7998TIP3   OH223936   6.644   1.950   0.054
 7998TIP3    H123937   6.551   1.945   0.030
 7998TIP3    H223938   6.685   1.999  -0.017
 7999TIP3   OH223939   0.390   2.188   3.446
 7999TIP3    H123940   0.347   2.139   3.517
 7999TIP3    H223941   0.331   2.261   3.429
 8000TIP3   OH223942   1.164   2.115   5.133
 8000TIP3    H123943   1.173   2.186   5.196
 8000TIP3    H223944   1.124   2.043   5.182
 8001TIP3   OH223945   6.633   6.888   2.462
 8001TIP3    H123946   6.540   6.895   2.483
 8001TIP3    H223947   6.645   6.795   2.441
 8002TIP3   OH223948   6.366   3.239   6.369
 8002TIP3    H123949   6.390   3.172   6.305
 8002TIP3    H223950   6.350   3.318   6.317
 8003TIP3   OH223951   0.603   2.510   0.632
 8003TIP3    H123952   0.530   2.450   0.621
 8003TIP3    H223953   0.623   2.541   0.543
 8004TIP3   OH223954   4.879   6.197   0.019
 8004TIP3    H123955   4.816   6.250   0.067
 8004TIP3    H223956   4.930   6.260  -0.032
 8005TIP3   OH223957   3.175   6.603   6.089
 8005TIP3    H123958   3.109   6.667   6.116
 8005TIP3    H223959   3.180   6.541   6.161
 8006TIP3   OH223960   3.784   7.610   5.408
 8006TIP3    H123961   3.798   7.530   5.359
 8006TIP3    H223962   3.850   7.608   5.478
 8007TIP3   OH223963   1.776   4.880   0.907
 8007TIP3    H123964   1.846   4.834   0.860
 8007TIP3    H223965   1.791   4.972   0.887
 8008TIP3   OH223966   1.276   4.916   2.382
 8008TIP3    H123967   1.309   4.839   2.335
 8008TIP3    H223968   1.248   4.976   2.312
 8009TIP3   OH223969   1.430   5.387   0.618
 8009TIP3    H123970   1.366   5.457   0.604
 8009TIP3    H223971   1.493   5.425   0.679
 8010TIP3   OH223972   8.106   4.744   2.802
 8010TIP3    H123973   8.114   4.768   2.709
 8010TIP3    H223974   8.023   4.783   2.829
 8011TIP3   OH223975   4.177   2.331   5.556
 8011TIP3    H123976   4.180   2.383   5.477
 8011TIP3    H223977   4.267   2.302   5.570
 8012TIP3   OH223978   5.197   2.403   5.790
 8012TIP3    H123979   5.153   2.466   5.847
 8012TIP3    H223980   5.248   2.348   5.850
 8013TIP3   OH223981   3.116   5.839   5.962
 8013TIP3    H123982   3.063   5.762   5.942
 8013TIP3    H223983   3.154   5.821   6.048
 8014TIP3   OH223984   3.025   3.695   1.586
 8014TIP3    H123985   2.997   3.630   1.522
 8014TIP3    H223986   3.118   3.709   1.567
 8015TIP3   OH223987   2.986   3.851   4.442
 8015TIP3    H123988   2.936   3.775   4.472
 8015TIP3    H223989   3.048   3.869   4.514
 8016TIP3   OH223990   4.893   5.526   0.889
 8016TIP3    H123991   4.914   5.505   0.980
 8016TIP3    H223992   4.798   5.538   0.890
 8017TIP3   OH223993   2.573   0.029   1.159
 8017TIP3    H123994   2.527   0.006   1.240
 8017TIP3    H223995   2.616   0.112   1.179
 8018TIP3   OH223996   1.222   0.207   5.111
 8018TIP3    H123997   1.228   0.131   5.169
 8018TIP3    H223998   1.278   0.273   5.153
 8019TIP3   OH223999   7.477   2.823   4.258
 8019TIP3    H124000   7.561   2.863   4.236
 8019TIP3    H224001   7.439   2.799   4.173
 8020TIP3   OH224002   1.302   3.638   5.755
 8020TIP3    H124003   1.335   3.719   5.715
 8020TIP3    H224004   1.372   3.612   5.816
 8021TIP3   OH224005   5.305   2.324   4.051
 8021TIP3    H124006   5.333   2.285   3.968
 8021TIP3    H224007   5.219   2.287   4.068
 8022TIP3   OH224008   7.286   5.250   5.719
 8022TIP3    H124009   7.380   5.263   5.722
 8022TIP3    H224010   7.269   5.221   5.629
 8023TIP3   OH224011   6.317   0.239   6.458
 8023TIP3    H124012   6.285   0.319   6.500
 8023TIP3    H224013   6.246   0.176   6.472
 8024TIP3   OH224014   4.834   1.426   0.710
 8024TIP3    H124015   4.776   1.486   0.756
 8024TIP3    H224016   4.785   1.344   0.706
 8025TIP3   OH224017   6.149   5.380   1.032
 8025TIP3    H124018   6.141   5.314   0.964
 8025TIP3    H224019   6.177   5.332   1.110
 8026TIP3   OH224020   1.630   1.543   3.377
 8026TIP3    H124021   1.622   1.476   3.308
 8026TIP3    H224022   1.543   1.548   3.416
 8027TIP3   OH224023   0.000   4.526   0.321
 8027TIP3    H124024  -0.037   4.454   0.371
 8027TIP3    H224025   0.095   4.517   0.332
 8028TIP3   OH224026   4.773   3.803   5.189
 8028TIP3    H124027   4.757   3.716   5.225
 8028TIP3    H224028   4.838   3.789   5.119
 8029TIP3   OH224029   6.848   1.899   4.582
 8029TIP3    H124030   6.901   1.897   4.661
 8029TIP3    H224031   6.773   1.843   4.602
 8030TIP3   OH224032   0.484   6.591   0.542
 8030TIP3    H124033   0.537   6.644   0.483
 8030TIP3    H224034   0.454   6.518   0.489
 8031TIP3   OH224035   6.468   5.713   1.513
 8031TIP3    H124036   6.391   5.710   1.457
 8031TIP3    H224037   6.533   5.658   1.468
 8032TIP3   OH224038   7.238   7.215   4.875
 8032TIP3    H124039   7.309   7.172   4.923
 8032TIP3    H224040   7.281   7.278   4.818
 8033TIP3   OH224041   7.236   7.514   2.524
 8033TIP3    H124042   7.238   7.419   2.509
 8033TIP3    H224043   7.327   7.541   2.522
 8034TIP3   OH224044   4.391   3.230   6.348
 8034TIP3    H124045   4.484   3.210   6.364
 8034TIP3    H224046   4.390   3.322   6.323
 8035TIP3   OH224047   0.684   2.751   3.760
 8035TIP3    H124048   0.745   2.824   3.751
 8035TIP3    H224049   0.664   2.724   3.670
 8036TIP3   OH224050   5.924   5.913   4.324
 8036TIP3    H124051   5.880   5.831   4.304
 8036TIP3    H224052   5.933   5.913   4.419
 8037TIP3   OH224053   2.264   6.511   1.735
 8037TIP3    H124054   2.246   6.445   1.802
 8037TIP3    H224055   2.359   6.507   1.723
 8038TIP3   OH224056   5.602   1.051   1.273
 8038TIP3    H124057   5.574   1.115   1.339
 8038TIP3    H224058   5.647   1.104   1.207
 8039TIP3   OH224059   2.958   7.344   6.328
 8039TIP3    H124060   2.889   7.333   6.393
 8039TIP3    H224061   2.983   7.436   6.335
 8040TIP3   OH224062   0.414   3.122   5.153
 8040TIP3    H124063   0.495   3.168   5.129
 8040TIP3    H224064   0.433   3.030   5.139
 8041TIP3   OH224065   1.227   0.644   3.439
 8041TIP3    H124066   1.257   0.732   3.464
 8041TIP3    H224067   1.254   0.588   3.511
 8042TIP3   OH224068   8.117   0.273   2.029
 8042TIP3    H124069   8.126   0.228   1.945
 8042TIP3    H224070   8.140   0.364   2.011
 8043TIP3   OH224071   3.281   5.848   2.856
 8043TIP3    H124072   3.247   5.878   2.771
 8043TIP3    H224073   3.283   5.927   2.910
 8044TIP3   OH224074   2.733   5.768   0.054
 8044TIP3    H124075   2.766   5.798   0.138
 8044TIP3    H224076   2.742   5.843  -0.004
 8045TIP3   OH224077   6.412   7.657   0.334
 8045TIP3    H124078   6.333   7.688   0.378
 8045TIP3    H224079   6.482   7.675   0.396
 8046TIP3   OH224080   7.968   5.343   6.531
 8046TIP3    H124081   8.018   5.275   6.486
 8046TIP3    H224082   7.933   5.398   6.461
 8047TIP3   OH224083   7.209   7.019   5.434
 8047TIP3    H124084   7.257   7.002   5.515
 8047TIP3    H224085   7.252   6.963   5.369
 8048TIP3   OH224086   1.884   3.921   4.932
 8048TIP3    H124087   1.922   3.840   4.897
 8048TIP3    H224088   1.803   3.932   4.881
 8049TIP3   OH224089   5.667   5.553   6.748
 8049TIP3    H124090   5.640   5.461   6.751
 8049TIP3    H224091   5.604   5.594   6.689
 8050TIP3   OH224092   1.052   1.990   0.915
 8050TIP3    H124093   0.961   2.017   0.899
 8050TIP3    H224094   1.054   1.898   0.891
 8051TIP3   OH224095   5.695   0.363   6.007
 8051TIP3    H124096   5.696   0.301   6.080
 8051TIP3    H224097   5.668   0.446   6.047
 8052TIP3   OH224098   6.570   5.927   4.684
 8052TIP3    H124099   6.518   5.969   4.753
 8052TIP3    H224100   6.605   5.848   4.726
 8053TIP3   OH224101   1.704   3.040   1.346
 8053TIP3    H124102   1.706   3.122   1.395
 8053TIP3    H224103   1.632   3.051   1.283
 8054TIP3   OH224104   8.043   3.366   2.054
 8054TIP3    H124105   8.087   3.309   1.991
 8054TIP3    H224106   8.073   3.336   2.140
 8055TIP3   OH224107   4.190   1.531   5.148
 8055TIP3    H124108   4.139   1.480   5.084
 8055TIP3    H224109   4.268   1.478   5.163
 8056TIP3   OH224110   7.260   3.885   3.487
 8056TIP3    H124111   7.338   3.830   3.473
 8056TIP3    H224112   7.201   3.830   3.539
 8057TIP3   OH224113   3.820   3.960   4.026
 8057TIP3    H124114   3.813   3.915   4.110
 8057TIP3    H224115   3.730   3.961   3.992
 8058TIP3   OH224116   6.079   3.944   3.714
 8058TIP3    H124117   6.142   3.883   3.753
 8058TIP3    H224118   5.998   3.928   3.764
 8059TIP3   OH224119   4.705   0.304   2.015
 8059TIP3    H124120   4.674   0.356   1.941
 8059TIP3    H224121   4.739   0.224   1.976
 8060TIP3   OH224122   7.570   2.860   6.234
 8060TIP3    H124123   7.606   2.926   6.292
 8060TIP3    H224124   7.557   2.905   6.151
 8061TIP3   OH224125   2.151   7.659   3.617
 8061TIP3    H124126   2.192   7.711   3.548
 8061TIP3    H224127   2.063   7.641   3.585
 8062TIP3   OH224128   5.418   5.684   1.693
 8062TIP3    H124129   5.421   5.697   1.788
 8062TIP3    H224130   5.331   5.650   1.676
 8063TIP3   OH224131   3.172   0.574   3.828
 8063TIP3    H124132   3.219   0.520   3.891
 8063TIP3    H224133   3.107   0.621   3.881
 8064TIP3   OH224134   2.149   5.819   2.854
 8064TIP3    H124135   2.083   5.825   2.785
 8064TIP3    H224136   2.188   5.907   2.857
 8065TIP3   OH224137   6.121   4.520   3.324
 8065TIP3    H124138   6.124   4.493   3.416
 8065TIP3    H224139   6.027   4.522   3.303
 8066TIP3   OH224140   3.762   5.724   4.471
 8066TIP3    H124141   3.846   5.682   4.488
 8066TIP3    H224142   3.700   5.651   4.463
 8067TIP3   OH224143   3.038   7.143   0.374
 8067TIP3    H124144   2.999   7.210   0.430
 8067TIP3    H224145   3.132   7.154   0.386
 8068TIP3   OH224146  -0.040   0.968   3.458
 8068TIP3    H124147  -0.111   0.951   3.396
 8068TIP3    H224148   0.040   0.947   3.409
 8069TIP3   OH224149   5.502   1.910   3.013
 8069TIP3    H124150   5.481   1.936   3.103
 8069TIP3    H224151   5.597   1.900   3.012
 8070TIP3   OH224152   0.069   4.001   3.563
 8070TIP3    H124153   0.138   3.950   3.521
 8070TIP3    H224154   0.113   4.047   3.634
 8071TIP3   OH224155   0.426   3.611   5.204
 8071TIP3    H124156   0.359   3.547   5.227
 8071TIP3    H224157   0.477   3.569   5.135
 8072TIP3   OH224158   8.187   3.435   5.062
 8072TIP3    H124159   8.240   3.504   5.101
 8072TIP3    H224160   8.212   3.356   5.110
 8073TIP3   OH224161   0.986   3.333   2.319
 8073TIP3    H124162   1.053   3.382   2.271
 8073TIP3    H224163   0.943   3.398   2.374
 8074TIP3   OH224164   5.919   6.252   6.557
 8074TIP3    H124165   5.928   6.296   6.642
 8074TIP3    H224166   5.898   6.162   6.580
 8075TIP3   OH224167   5.233   7.354   2.125
 8075TIP3    H124168   5.250   7.260   2.115
 8075TIP3    H224169   5.320   7.394   2.130
 8076TIP3   OH224170   7.062   7.729   3.101
 8076TIP3    H124171   7.106   7.656   3.057
 8076TIP3    H224172   7.104   7.807   3.065
 8077TIP3   OH224173   7.678   7.224   6.449
 8077TIP3    H124174   7.759   7.236   6.498
 8077TIP3    H224175   7.699   7.251   6.360
 8078TIP3   OH224176   2.146   2.999   4.030
 8078TIP3    H124177   2.230   2.985   3.987
 8078TIP3    H224178   2.087   3.028   3.961
 8079TIP3   OH224179   6.986   4.504   0.849
 8079TIP3    H124180   7.070   4.525   0.807
 8079TIP3    H224181   7.005   4.426   0.901
 8080TIP3   OH224182   4.957   4.114   1.050
 8080TIP3    H124183   5.052   4.115   1.062
 8080TIP3    H224184   4.932   4.024   1.072
 8081TIP3   OH224185   6.178   2.248   1.568
 8081TIP3    H124186   6.143   2.191   1.500
 8081TIP3    H224187   6.100   2.289   1.607
 8082TIP3   OH224188   4.107   7.662   0.895
 8082TIP3    H124189   4.186   7.699   0.934
 8082TIP3    H224190   4.037   7.724   0.917
 8083TIP3   OH224191   3.920   6.127   5.726
 8083TIP3    H124192   3.834   6.127   5.767
 8083TIP3    H224193   3.914   6.059   5.659
 8084TIP3   OH224194   0.271   1.439   1.474
 8084TIP3    H124195   0.342   1.489   1.434
 8084TIP3    H224196   0.212   1.419   1.402
 8085TIP3   OH224197   5.041   5.245   0.244
 8085TIP3    H124198   5.003   5.262   0.158
 8085TIP3    H224199   4.999   5.164   0.273
 8086TIP3   OH224200   5.823   5.674   4.232
 8086TIP3    H124201   5.819   5.600   4.171
 8086TIP3    H224202   5.840   5.633   4.317
 8087TIP3   OH224203   7.380   5.671   3.871
 8087TIP3    H124204   7.426   5.592   3.899
 8087TIP3    H224205   7.295   5.640   3.839
 8088TIP3   OH224206   7.720   7.341   5.948
 8088TIP3    H124207   7.672   7.370   6.026
 8088TIP3    H224208   7.679   7.388   5.875
 8089TIP3   OH224209   4.893   3.248   0.604
 8089TIP3    H124210   4.971   3.301   0.618
 8089TIP3    H224211   4.827   3.286   0.663
 8090TIP3   OH224212   3.276   4.802   5.881
 8090TIP3    H124213   3.350   4.761   5.925
 8090TIP3    H224214   3.211   4.732   5.874
 8091TIP3   OH224215   8.109   5.564   2.056
 8091TIP3    H124216   8.189   5.615   2.052
 8091TIP3    H224217   8.138   5.473   2.065
 8092TIP3   OH224218   2.646   5.505   0.011
 8092TIP3    H124219   2.674   5.595   0.031
 8092TIP3    H224220   2.567   5.516  -0.041
 8093TIP3   OH224221   0.513   2.836   4.728
 8093TIP3    H124222   0.541   2.744   4.733
 8093TIP3    H224223   0.428   2.833   4.684
 8094TIP3   OH224224   6.638   2.895   0.258
 8094TIP3    H124225   6.563   2.906   0.200
 8094TIP3    H224226   6.609   2.832   0.323
 8095TIP3   OH224227   4.990   6.723   3.362
 8095TIP3    H124228   4.933   6.646   3.364
 8095TIP3    H224229   4.933   6.796   3.386
 8096TIP3   OH224230   7.043   0.389   3.594
 8096TIP3    H124231   7.084   0.434   3.520
 8096TIP3    H224232   6.997   0.457   3.642
 8097TIP3   OH224233   3.765   6.818   0.340
 8097TIP3    H124234   3.811   6.842   0.259
 8097TIP3    H224235   3.835   6.799   0.403
 8098TIP3   OH224236   1.494   1.991   0.220
 8098TIP3    H124237   1.571   2.031   0.261
 8098TIP3    H224238   1.440   2.065   0.192
 8099TIP3   OH224239   1.412   4.431   2.339
 8099TIP3    H124240   1.433   4.426   2.432
 8099TIP3    H224241   1.387   4.342   2.315
 8100TIP3   OH224242   3.067   0.970   2.872
 8100TIP3    H124243   3.035   0.946   2.958
 8100TIP3    H224244   3.069   1.066   2.873
 8101TIP3   OH224245   6.822   3.971   1.429
 8101TIP3    H124246   6.829   3.882   1.465
 8101TIP3    H224247   6.739   3.971   1.382
 8102TIP3   OH224248   1.785   4.208   4.460
 8102TIP3    H124249   1.748   4.176   4.543
 8102TIP3    H224250   1.877   4.224   4.480
 8103TIP3   OH224251   7.421   4.825   5.446
 8103TIP3    H124252   7.421   4.822   5.542
 8103TIP3    H224253   7.376   4.744   5.420
 8104TIP3   OH224254   7.267   6.084   4.899
 8104TIP3    H124255   7.234   6.041   4.978
 8104TIP3    H224256   7.353   6.118   4.924
 8105TIP3   OH224257   3.097   5.566   4.125
 8105TIP3    H124258   3.157   5.532   4.192
 8105TIP3    H224259   3.110   5.508   4.050
 8106TIP3   OH224260   2.723   6.386   6.093
 8106TIP3    H124261   2.686   6.298   6.097
 8106TIP3    H224262   2.670   6.431   6.027
 8107TIP3   OH224263   7.096   2.561   4.655
 8107TIP3    H124264   7.173   2.529   4.700
 8107TIP3    H224265   7.128   2.591   4.570
 8108TIP3   OH224266   2.613   7.149   1.123
 8108TIP3    H124267   2.585   7.057   1.124
 8108TIP3    H224268   2.563   7.189   1.052
 8109TIP3   OH224269   7.892   0.699   4.808
 8109TIP3    H124270   7.908   0.792   4.824
 8109TIP3    H224271   7.809   0.697   4.760
 8110TIP3   OH224272   4.532   3.240   3.755
 8110TIP3    H124273   4.517   3.148   3.778
 8110TIP3    H224274   4.476   3.255   3.678
 8111TIP3   OH224275   5.182   4.845   2.254
 8111TIP3    H124276   5.265   4.887   2.235
 8111TIP3    H224277   5.139   4.836   2.169
 8112TIP3   OH224278   7.674   3.241   3.983
 8112TIP3    H124279   7.626   3.271   3.907
 8112TIP3    H224280   7.763   3.276   3.971
 8113TIP3   OH224281   5.064   1.080   6.566
 8113TIP3    H124282   4.983   1.111   6.606
 8113TIP3    H224283   5.101   1.019   6.630
 8114TIP3   OH224284   4.940   0.981   2.303
 8114TIP3    H124285   4.900   0.948   2.384
 8114TIP3    H224286   4.889   0.941   2.233
 8115TIP3   OH224287   0.365   3.542   3.557
 8115TIP3    H124288   0.282   3.493   3.553
 8115TIP3    H224289   0.378   3.575   3.468
 8116TIP3   OH224290   7.922   7.766   3.503
 8116TIP3    H124291   7.886   7.842   3.458
 8116TIP3    H224292   7.876   7.762   3.586
 8117TIP3   OH224293   7.867   7.668   1.112
 8117TIP3    H124294   7.921   7.609   1.166
 8117TIP3    H224295   7.925   7.742   1.092
 8118TIP3   OH224296   1.777   1.862   1.447
 8118TIP3    H124297   1.863   1.893   1.419
 8118TIP3    H224298   1.797   1.789   1.507
 8119TIP3   OH224299   6.612   0.315   0.928
 8119TIP3    H124300   6.558   0.241   0.901
 8119TIP3    H224301   6.573   0.343   1.011
 8120TIP3   OH224302   3.007   1.635   5.064
 8120TIP3    H124303   3.080   1.601   5.012
 8120TIP3    H224304   3.046   1.656   5.149
 8121TIP3   OH224305   3.710   2.663   4.895
 8121TIP3    H124306   3.744   2.724   4.961
 8121TIP3    H224307   3.654   2.717   4.840
 8122TIP3   OH224308   5.775   1.635   5.414
 8122TIP3    H124309   5.713   1.660   5.346
 8122TIP3    H224310   5.760   1.541   5.426
 8123TIP3   OH224311   6.558   6.013   2.100
 8123TIP3    H124312   6.487   5.964   2.140
 8123TIP3    H224313   6.535   6.018   2.007
 8124TIP3   OH224314   2.120   5.641   5.620
 8124TIP3    H124315   2.203   5.597   5.602
 8124TIP3    H224316   2.143   5.714   5.678
 8125TIP3   OH224317   5.308   7.691   0.730
 8125TIP3    H124318   5.277   7.695   0.640
 8125TIP3    H224319   5.398   7.658   0.723
 8126TIP3   OH224320   4.639   0.447   1.665
 8126TIP3    H124321   4.632   0.514   1.597
 8126TIP3    H224322   4.730   0.418   1.661
 8127TIP3   OH224323   1.829   5.939   0.446
 8127TIP3    H124324   1.758   5.976   0.498
 8127TIP3    H224325   1.859   5.863   0.496
 8128TIP3   OH224326   8.123   0.743   2.606
 8128TIP3    H124327   8.138   0.820   2.551
 8128TIP3    H224328   8.073   0.776   2.681
 8129TIP3   OH224329   7.524   4.531   5.042
 8129TIP3    H124330   7.472   4.608   5.065
 8129TIP3    H224331   7.544   4.490   5.127
 8130TIP3   OH224332   2.207   5.317   3.265
 8130TIP3    H124333   2.263   5.380   3.221
 8130TIP3    H224334   2.197   5.246   3.202
 8131TIP3   OH224335   2.816   1.176   3.579
 8131TIP3    H124336   2.829   1.266   3.550
 8131TIP3    H224337   2.728   1.175   3.615
 8132TIP3   OH224338   3.956   2.545   1.330
 8132TIP3    H124339   4.034   2.491   1.328
 8132TIP3    H224340   3.883   2.483   1.330
 8133TIP3   OH224341   5.160   7.493   4.999
 8133TIP3    H124342   5.243   7.459   5.032
 8133TIP3    H224343   5.160   7.470   4.906
 8134TIP3   OH224344   1.393   6.339   1.694
 8134TIP3    H124345   1.442   6.306   1.618
 8134TIP3    H224346   1.333   6.267   1.716
 8135TIP3   OH224347   1.657   3.272   3.690
 8135TIP3    H124348   1.650   3.368   3.692
 8135TIP3    H224349   1.735   3.256   3.637
 8136TIP3   OH224350   6.288   2.094   0.216
 8136TIP3    H124351   6.305   2.043   0.295
 8136TIP3    H224352   6.193   2.093   0.206
 8137TIP3   OH224353   1.455   2.354   5.484
 8137TIP3    H124354   1.459   2.449   5.474
 8137TIP3    H224355   1.521   2.321   5.423
 8138TIP3   OH224356   2.441   7.776   1.800
 8138TIP3    H124357   2.390   7.731   1.867
 8138TIP3    H224358   2.425   7.869   1.816
 8139TIP3   OH224359   1.661   5.263   4.532
 8139TIP3    H124360   1.637   5.341   4.583
 8139TIP3    H224361   1.585   5.206   4.537
 8140TIP3   OH224362   7.895   4.115   6.211
 8140TIP3    H124363   7.875   4.197   6.165
 8140TIP3    H224364   7.840   4.117   6.289
 8141TIP3   OH224365   4.765   0.157   0.029
 8141TIP3    H124366   4.683   0.204   0.011
 8141TIP3    H224367   4.784   0.110  -0.052
 8142TIP3   OH224368   0.493   5.927   6.216
 8142TIP3    H124369   0.585   5.955   6.216
 8142TIP3    H224370   0.496   5.835   6.242
 8143TIP3   OH224371   0.167   6.005   6.489
 8143TIP3    H124372   0.172   5.982   6.396
 8143TIP3    H224373   0.206   5.930   6.534
 8144TIP3   OH224374   2.478   2.415   1.424
 8144TIP3    H124375   2.395   2.442   1.385
 8144TIP3    H224376   2.461   2.414   1.518
 8145TIP3   OH224377   0.741   7.434   0.502
 8145TIP3    H124378   0.759   7.481   0.583
 8145TIP3    H224379   0.729   7.502   0.436
 8146TIP3   OH224380   5.797   4.840   5.415
 8146TIP3    H124381   5.866   4.780   5.385
 8146TIP3    H224382   5.801   4.834   5.511
 8147TIP3   OH224383   7.403   6.249   2.171
 8147TIP3    H124384   7.487   6.225   2.211
 8147TIP3    H224385   7.337   6.204   2.224
 8148TIP3   OH224386   2.615   3.291   0.750
 8148TIP3    H124387   2.702   3.260   0.726
 8148TIP3    H224388   2.631   3.362   0.812
 8149TIP3   OH224389   8.240   7.349   6.521
 8149TIP3    H124390   8.237   7.438   6.554
 8149TIP3    H224391   8.269   7.296   6.596
 8150TIP3   OH224392   1.803   2.335   2.794
 8150TIP3    H124393   1.729   2.298   2.842
 8150TIP3    H224394   1.798   2.296   2.707
 8151TIP3   OH224395   3.090   7.430   4.664
 8151TIP3    H124396   3.096   7.524   4.647
 8151TIP3    H224397   3.102   7.390   4.579
 8152TIP3   OH224398   6.687   5.635   3.261
 8152TIP3    H124399   6.684   5.550   3.218
 8152TIP3    H224400   6.716   5.695   3.193
 8153TIP3   OH224401   5.881   0.971   0.569
 8153TIP3    H124402   5.837   0.920   0.637
 8153TIP3    H224403   5.821   0.969   0.495
 8154TIP3   OH224404   1.151   7.494   4.219
 8154TIP3    H124405   1.101   7.567   4.181
 8154TIP3    H224406   1.101   7.416   4.194
 8155TIP3   OH224407   7.078   2.926   0.266
 8155TIP3    H124408   7.137   2.954   0.196
 8155TIP3    H224409   7.027   3.005   0.287
 8156TIP3   OH224410   1.168   6.924   0.817
 8156TIP3    H124411   1.133   6.871   0.889
 8156TIP3    H224412   1.100   6.922   0.750
 8157TIP3   OH224413   1.617   5.879   2.821
 8157TIP3    H124414   1.689   5.853   2.764
 8157TIP3    H224415   1.540   5.880   2.765
 8158TIP3   OH224416   5.656   6.685   0.971
 8158TIP3    H124417   5.600   6.716   0.901
 8158TIP3    H224418   5.708   6.614   0.932
 8159TIP3   OH224419   7.208   3.499   5.889
 8159TIP3    H124420   7.118   3.498   5.923
 8159TIP3    H224421   7.229   3.592   5.882
 8160TIP3   OH224422   1.402   6.465   4.913
 8160TIP3    H124423   1.454   6.524   4.968
 8160TIP3    H224424   1.324   6.445   4.965
 8161TIP3   OH224425   3.176   2.489   6.228
 8161TIP3    H124426   3.153   2.401   6.256
 8161TIP3    H224427   3.123   2.547   6.283
 8162TIP3   OH224428   1.442   2.944   5.012
 8162TIP3    H124429   1.412   2.937   5.103
 8162TIP3    H224430   1.471   2.855   4.990
 8163TIP3   OH224431   0.726   2.022   5.091
 8163TIP3    H124432   0.818   2.036   5.067
 8163TIP3    H224433   0.688   1.980   5.015
 8164TIP3   OH224434   7.611   0.354   0.362
 8164TIP3    H124435   7.643   0.355   0.452
 8164TIP3    H224436   7.655   0.427   0.320
 8165TIP3   OH224437   0.118   7.663   2.426
 8165TIP3    H124438   0.026   7.686   2.413
 8165TIP3    H224439   0.133   7.590   2.366
 8166TIP3   OH224440   1.881   5.725   4.316
 8166TIP3    H124441   1.824   5.653   4.289
 8166TIP3    H224442   1.958   5.718   4.260
 8167TIP3   OH224443   1.638   2.334   5.845
 8167TIP3    H124444   1.631   2.244   5.875
 8167TIP3    H224445   1.712   2.334   5.784
 8168TIP3   OH224446   6.923   5.283   0.740
 8168TIP3    H124447   6.950   5.285   0.649
 8168TIP3    H224448   6.967   5.206   0.777
 8169TIP3   OH224449   1.699   4.466   1.261
 8169TIP3    H124450   1.747   4.429   1.187
 8169TIP3    H224451   1.617   4.498   1.223
 8170TIP3   OH224452   3.444   6.972   0.075
 8170TIP3    H124453   3.424   7.046   0.018
 8170TIP3    H224454   3.515   7.003   0.132
 8171TIP3   OH224455   3.079   3.647   5.053
 8171TIP3    H124456   3.090   3.721   5.113
 8171TIP3    H224457   3.168   3.619   5.032
 8172TIP3   OH224458   5.306   0.125   6.751
 8172TIP3    H124459   5.233   0.064   6.766
 8172TIP3    H224460   5.326   0.115   6.658
 8173TIP3   OH224461   1.032   6.076   6.627
 8173TIP3    H124462   0.983   6.128   6.691
 8173TIP3    H224463   0.995   6.102   6.542
 8174TIP3   OH224464   6.636   3.862   5.216
 8174TIP3    H124465   6.694   3.808   5.162
 8174TIP3    H224466   6.572   3.800   5.252
 8175TIP3   OH224467   6.503   1.961   5.235
 8175TIP3    H124468   6.544   1.884   5.195
 8175TIP3    H224469   6.487   1.935   5.326
 8176TIP3   OH224470   5.477   6.913   3.202
 8176TIP3    H124471   5.413   6.968   3.157
 8176TIP3    H224472   5.524   6.973   3.260
 8177TIP3   OH224473   4.718   3.729   5.668
 8177TIP3    H124474   4.809   3.701   5.664
 8177TIP3    H224475   4.678   3.692   5.589
 8178TIP3   OH224476   6.733   7.218   5.809
 8178TIP3    H124477   6.759   7.283   5.744
 8178TIP3    H224478   6.792   7.144   5.794
 8179TIP3   OH224479   2.468   7.438   3.436
 8179TIP3    H124480   2.474   7.355   3.482
 8179TIP3    H224481   2.411   7.420   3.361
 8180TIP3   OH224482   8.109   2.464   4.696
 8180TIP3    H124483   8.144   2.553   4.682
 8180TIP3    H224484   8.142   2.414   4.621
 8181TIP3   OH224485   3.282   6.977   3.477
 8181TIP3    H124486   3.360   6.941   3.435
 8181TIP3    H224487   3.312   7.000   3.566
 8182TIP3   OH224488   3.202   2.859   1.281
 8182TIP3    H124489   3.170   2.902   1.360
 8182TIP3    H224490   3.138   2.882   1.214
 8183TIP3   OH224491   7.456   3.374   5.974
 8183TIP3    H124492   7.445   3.402   6.065
 8183TIP3    H224493   7.373   3.332   5.951
 8184TIP3   OH224494   6.321   5.975   3.355
 8184TIP3    H124495   6.331   5.990   3.261
 8184TIP3    H224496   6.228   5.958   3.367
 8185TIP3   OH224497   5.366   3.968   5.599
 8185TIP3    H124498   5.379   4.045   5.655
 8185TIP3    H224499   5.284   3.985   5.553
 8186TIP3   OH224500   7.228   4.067   4.151
 8186TIP3    H124501   7.199   3.997   4.209
 8186TIP3    H224502   7.291   4.026   4.092
 8187TIP3   OH224503   7.161   2.722   2.671
 8187TIP3    H124504   7.166   2.811   2.638
 8187TIP3    H224505   7.073   2.715   2.709
 8188TIP3   OH224506   0.372   1.299   0.474
 8188TIP3    H124507   0.400   1.210   0.450
 8188TIP3    H224508   0.282   1.305   0.440
 8189TIP3   OH224509   3.980   3.752   2.506
 8189TIP3    H124510   4.011   3.772   2.594
 8189TIP3    H224511   3.970   3.656   2.505
 8190TIP3   OH224512   5.538   5.895   5.217
 8190TIP3    H124513   5.633   5.910   5.216
 8190TIP3    H224514   5.506   5.941   5.139
 8191TIP3   OH224515   0.575   5.706   4.040
 8191TIP3    H124516   0.508   5.717   3.972
 8191TIP3    H224517   0.591   5.612   4.043
 8192TIP3   OH224518   6.715   6.045   5.040
 8192TIP3    H124519   6.627   6.007   5.038
 8192TIP3    H224520   6.769   5.980   4.996
 8193TIP3   OH224521   7.674   1.132   0.792
 8193TIP3    H124522   7.689   1.136   0.698
 8193TIP3    H224523   7.720   1.208   0.827
 8194TIP3   OH224524   5.973   4.927   6.086
 8194TIP3    H124525   6.064   4.923   6.116
 8194TIP3    H224526   5.935   4.844   6.113
 8195TIP3   OH224527   4.988   4.736   2.747
 8195TIP3    H124528   5.083   4.750   2.738
 8195TIP3    H224529   4.981   4.649   2.787
 8196TIP3   OH224530   1.718   1.766   1.762
 8196TIP3    H124531   1.771   1.689   1.781
 8196TIP3    H224532   1.629   1.733   1.754
 8197TIP3   OH224533   2.401   2.522   2.440
 8197TIP3    H124534   2.425   2.491   2.353
 8197TIP3    H224535   2.341   2.456   2.474
 8198TIP3   OH224536   2.300   5.591   2.910
 8198TIP3    H124537   2.387   5.566   2.877
 8198TIP3    H224538   2.285   5.679   2.875
 8199TIP3   OH224539   1.274   5.168   6.638
 8199TIP3    H124540   1.338   5.239   6.640
 8199TIP3    H224541   1.315   5.100   6.585
 8200TIP3   OH224542   4.551   3.446   1.475
 8200TIP3    H124543   4.549   3.482   1.563
 8200TIP3    H224544   4.544   3.523   1.418
 8201TIP3   OH224545   1.724   6.529   2.786
 8201TIP3    H124546   1.732   6.619   2.818
 8201TIP3    H224547   1.646   6.495   2.829
 8202TIP3   OH224548   6.137   2.112   5.627
 8202TIP3    H124549   6.063   2.157   5.667
 8202TIP3    H224550   6.202   2.103   5.697
 8203TIP3   OH224551   1.658   7.578   1.789
 8203TIP3    H124552   1.632   7.615   1.705
 8203TIP3    H224553   1.670   7.654   1.846
 8204TIP3   OH224554   5.482   2.900   4.459
 8204TIP3    H124555   5.438   2.936   4.382
 8204TIP3    H224556   5.477   2.805   4.448
 8205TIP3   OH224557   0.884   2.901   1.985
 8205TIP3    H124558   0.911   2.977   1.934
 8205TIP3    H224559   0.796   2.880   1.953
 8206TIP3   OH224560   5.831   5.844   0.602
 8206TIP3    H124561   5.749   5.795   0.613
 8206TIP3    H224562   5.856   5.869   0.691
 8207TIP3   OH224563   4.543   5.495   2.435
 8207TIP3    H124564   4.457   5.465   2.464
 8207TIP3    H224565   4.582   5.535   2.513
 8208TIP3   OH224566   3.458   4.378   3.377
 8208TIP3    H124567   3.425   4.460   3.414
 8208TIP3    H224568   3.532   4.355   3.433
 8209TIP3   OH224569   7.462   6.956   6.090
 8209TIP3    H124570   7.417   7.040   6.079
 8209TIP3    H224571   7.524   6.953   6.017
 8210TIP3   OH224572   8.250   2.594   3.752
 8210TIP3    H124573   8.204   2.638   3.824
 8210TIP3    H224574   8.243   2.501   3.772
 8211TIP3   OH224575   5.221   1.781   3.597
 8211TIP3    H124576   5.170   1.700   3.603
 8211TIP3    H224577   5.166   1.840   3.545
 8212TIP3   OH224578   2.812   6.827   4.674
 8212TIP3    H124579   2.780   6.740   4.649
 8212TIP3    H224580   2.810   6.878   4.593
 8213TIP3   OH224581   2.105   6.841   1.360
 8213TIP3    H124582   2.197   6.826   1.337
 8213TIP3    H224583   2.083   6.768   1.418
 8214TIP3   OH224584   3.445   3.657   5.291
 8214TIP3    H124585   3.463   3.735   5.344
 8214TIP3    H224586   3.491   3.674   5.208
 8215TIP3   OH224587   6.569   0.636   3.021
 8215TIP3    H124588   6.594   0.549   2.989
 8215TIP3    H224589   6.484   0.653   2.981
 8216TIP3   OH224590   1.108   0.682   2.978
 8216TIP3    H124591   1.134   0.635   3.057
 8216TIP3    H224592   1.117   0.774   3.001
 8217TIP3   OH224593   6.277   7.145   0.490
 8217TIP3    H124594   6.309   7.214   0.433
 8217TIP3    H224595   6.283   7.065   0.438
 8218TIP3   OH224596   1.761   0.755   1.892
 8218TIP3    H124597   1.789   0.823   1.831
 8218TIP3    H224598   1.842   0.728   1.937
 8219TIP3   OH224599   0.224   7.250   5.885
 8219TIP3    H124600   0.192   7.337   5.909
 8219TIP3    H224601   0.166   7.190   5.931
 8220TIP3   OH224602   4.635   5.686   5.757
 8220TIP3    H124603   4.695   5.616   5.784
 8220TIP3    H224604   4.689   5.745   5.705
 8221TIP3   OH224605   0.246   4.402   3.796
 8221TIP3    H124606   0.249   4.467   3.867
 8221TIP3    H224607   0.338   4.385   3.775
 8222TIP3   OH224608   0.900   2.620   5.609
 8222TIP3    H124609   0.971   2.650   5.664
 8222TIP3    H224610   0.943   2.577   5.535
 8223TIP3   OH224611   7.199   6.115   5.702
 8223TIP3    H124612   7.247   6.100   5.621
 8223TIP3    H224613   7.253   6.075   5.770
 8224TIP3   OH224614   0.012   4.034   5.179
 8224TIP3    H124615  -0.037   4.030   5.261
 8224TIP3    H224616  -0.022   4.111   5.134
 8225TIP3   OH224617   4.113   6.269   2.698
 8225TIP3    H124618   4.194   6.280   2.648
 8225TIP3    H224619   4.137   6.208   2.768
 8226TIP3   OH224620   8.124   2.214   0.931
 8226TIP3    H124621   8.128   2.204   1.026
 8226TIP3    H224622   8.100   2.305   0.917
 8227TIP3   OH224623   3.585   4.558   2.381
 8227TIP3    H124624   3.620   4.580   2.295
 8227TIP3    H224625   3.662   4.544   2.436
 8228TIP3   OH224626   7.951   7.477   0.229
 8228TIP3    H124627   8.026   7.420   0.213
 8228TIP3    H224628   7.975   7.525   0.309
 8229TIP3   OH224629   2.391   0.829   0.259
 8229TIP3    H124630   2.353   0.874   0.335
 8229TIP3    H224631   2.435   0.753   0.296
 8230TIP3   OH224632   4.206   3.306   1.714
 8230TIP3    H124633   4.226   3.398   1.731
 8230TIP3    H224634   4.212   3.264   1.800
 8231TIP3   OH224635   6.634   4.325   0.113
 8231TIP3    H124636   6.706   4.382   0.087
 8231TIP3    H224637   6.566   4.340   0.048
 8232TIP3   OH224638   6.483   4.464   6.266
 8232TIP3    H124639   6.426   4.493   6.337
 8232TIP3    H224640   6.572   4.483   6.296
 8233TIP3   OH224641   0.898   1.829   0.514
 8233TIP3    H124642   0.823   1.887   0.502
 8233TIP3    H224643   0.973   1.888   0.524
 8234TIP3   OH224644   2.176   3.995   5.214
 8234TIP3    H124645   2.182   4.023   5.123
 8234TIP3    H224646   2.254   3.940   5.228
 8235TIP3   OH224647   4.303   6.864   1.100
 8235TIP3    H124648   4.346   6.859   1.185
 8235TIP3    H224649   4.315   6.776   1.063
 8236TIP3   OH224650   3.542   1.650   6.417
 8236TIP3    H124651   3.577   1.726   6.463
 8236TIP3    H224652   3.587   1.648   6.333
 8237TIP3   OH224653   0.468   3.926   3.817
 8237TIP3    H124654   0.386   3.971   3.794
 8237TIP3    H224655   0.450   3.833   3.804
 8238TIP3   OH224656   5.810   5.975   5.197
 8238TIP3    H124657   5.849   6.063   5.201
 8238TIP3    H224658   5.873   5.919   5.242
 8239TIP3   OH224659   1.325   7.243   5.211
 8239TIP3    H124660   1.262   7.276   5.276
 8239TIP3    H224661   1.271   7.216   5.137
 8240TIP3   OH224662   2.239   1.379   6.588
 8240TIP3    H124663   2.262   1.286   6.588
 8240TIP3    H224664   2.201   1.394   6.501
 8241TIP3   OH224665   0.993   2.484   1.521
 8241TIP3    H124666   1.011   2.457   1.431
 8241TIP3    H224667   1.066   2.542   1.543
 8242TIP3   OH224668   3.145   7.426   0.798
 8242TIP3    H124669   3.191   7.379   0.868
 8242TIP3    H224670   3.215   7.459   0.742
 8243TIP3   OH224671   6.892   6.629   5.764
 8243TIP3    H124672   6.870   6.649   5.673
 8243TIP3    H224673   6.901   6.534   5.766
 8244TIP3   OH224674   7.611   3.152   6.090
 8244TIP3    H124675   7.586   3.229   6.039
 8244TIP3    H224676   7.707   3.154   6.089
 8245TIP3   OH224677   3.968   1.805   3.995
 8245TIP3    H124678   4.030   1.785   4.066
 8245TIP3    H224679   3.994   1.892   3.965
 8246TIP3   OH224680   4.159   3.156   1.960
 8246TIP3    H124681   4.167   3.231   2.019
 8246TIP3    H224682   4.066   3.132   1.966
 8247TIP3   OH224683   3.589   0.693   0.794
 8247TIP3    H124684   3.636   0.700   0.877
 8247TIP3    H224685   3.612   0.606   0.761
 8248TIP3   OH224686   2.424   5.225   6.686
 8248TIP3    H124687   2.333   5.214   6.714
 8248TIP3    H224688   2.471   5.151   6.724
 8249TIP3   OH224689   3.681   7.726   5.957
 8249TIP3    H124690   3.640   7.641   5.972
 8249TIP3    H224691   3.730   7.743   6.038
 8250TIP3   OH224692   7.111   6.528   1.117
 8250TIP3    H124693   7.184   6.572   1.073
 8250TIP3    H224694   7.101   6.446   1.069
 8251TIP3   OH224695   3.780   1.716   2.417
 8251TIP3    H124696   3.781   1.722   2.512
 8251TIP3    H224697   3.695   1.678   2.396
 8252TIP3   OH224698   7.600   0.922   3.485
 8252TIP3    H124699   7.591   0.827   3.490
 8252TIP3    H224700   7.652   0.937   3.406
 8253TIP3   OH224701   0.493   5.606   4.300
 8253TIP3    H124702   0.510   5.599   4.206
 8253TIP3    H224703   0.529   5.526   4.337
 8254TIP3   OH224704   5.920   1.693   0.119
 8254TIP3    H124705   5.864   1.771   0.125
 8254TIP3    H224706   5.978   1.710   0.045
 8255TIP3   OH224707   3.968   6.196   6.076
 8255TIP3    H124708   3.998   6.111   6.109
 8255TIP3    H224709   4.045   6.252   6.083
 8256TIP3   OH224710   6.700   1.532   1.106
 8256TIP3    H124711   6.750   1.585   1.044
 8256TIP3    H224712   6.687   1.589   1.181
 8257TIP3   OH224713   7.815   1.044   3.582
 8257TIP3    H124714   7.765   1.113   3.628
 8257TIP3    H224715   7.753   1.006   3.521
 8258TIP3   OH224716   7.707   7.059   4.059
 8258TIP3    H124717   7.696   7.064   4.154
 8258TIP3    H224718   7.636   7.001   4.030
 8259TIP3   OH224719   6.549   4.857   1.019
 8259TIP3    H124720   6.522   4.866   0.927
 8259TIP3    H224721   6.595   4.774   1.023
 8260TIP3   OH224722   0.929   5.583   4.162
 8260TIP3    H124723   0.939   5.559   4.254
 8260TIP3    H224724   1.015   5.615   4.136
 8261TIP3   OH224725   6.446   5.986   4.945
 8261TIP3    H124726   6.426   5.893   4.952
 8261TIP3    H224727   6.381   6.029   5.001
 8262TIP3   OH224728   5.867   2.316   2.766
 8262TIP3    H124729   5.796   2.363   2.722
 8262TIP3    H224730   5.918   2.385   2.809
 8263TIP3   OH224731   2.625   4.635   1.786
 8263TIP3    H124732   2.542   4.672   1.814
 8263TIP3    H224733   2.645   4.567   1.851
 8264TIP3   OH224734   0.590   2.426   1.055
 8264TIP3    H124735   0.587   2.416   1.150
 8264TIP3    H224736   0.658   2.365   1.027
 8265TIP3   OH224737   0.676   6.036   2.792
 8265TIP3    H124738   0.630   5.968   2.841
 8265TIP3    H224739   0.685   6.109   2.854
 8266TIP3   OH224740   5.205   0.406   4.193
 8266TIP3    H124741   5.154   0.460   4.253
 8266TIP3    H224742   5.141   0.375   4.129
 8267TIP3   OH224743   0.313   7.820   2.333
 8267TIP3    H124744   0.237   7.775   2.369
 8267TIP3    H224745   0.388   7.780   2.378
 8268TIP3   OH224746   2.423   0.304   6.791
 8268TIP3    H124747   2.417   0.399   6.784
 8268TIP3    H224748   2.332   0.274   6.790
 8269TIP3   OH224749   3.016   4.315   0.111
 8269TIP3    H124750   3.053   4.258   0.178
 8269TIP3    H224751   2.988   4.393   0.158
 8270TIP3   OH224752   7.806   2.797   1.261
 8270TIP3    H124753   7.733   2.851   1.230
 8270TIP3    H224754   7.868   2.860   1.298
 8271TIP3   OH224755   4.907   2.845   3.698
 8271TIP3    H124756   4.890   2.751   3.689
 8271TIP3    H224757   4.895   2.862   3.791
 8272TIP3   OH224758   7.357   5.279   1.165
 8272TIP3    H124759   7.390   5.293   1.076
 8272TIP3    H224760   7.342   5.185   1.170
 8273TIP3   OH224761   4.326   1.774   6.707
 8273TIP3    H124762   4.415   1.787   6.673
 8273TIP3    H224763   4.309   1.852   6.760
 8274TIP3   OH224764   5.878   1.474   3.366
 8274TIP3    H124765   5.798   1.431   3.396
 8274TIP3    H224766   5.874   1.562   3.405
 8275TIP3   OH224767   1.454   4.286   4.802
 8275TIP3    H124768   1.495   4.300   4.887
 8275TIP3    H224769   1.374   4.338   4.804
 8276TIP3   OH224770   3.683   7.008   4.884
 8276TIP3    H124771   3.597   6.969   4.866
 8276TIP3    H224772   3.710   6.970   4.968
 8277TIP3   OH224773   8.068   3.747   6.185
 8277TIP3    H124774   8.023   3.794   6.254
 8277TIP3    H224775   7.998   3.711   6.130
 8278TIP3   OH224776   3.568   5.749   4.027
 8278TIP3    H124777   3.493   5.762   3.969
 8278TIP3    H224778   3.624   5.687   3.981
 8279TIP3   OH224779   4.044   3.822   4.569
 8279TIP3    H124780   4.037   3.871   4.487
 8279TIP3    H224781   3.973   3.856   4.623
 8280TIP3   OH224782   7.947   4.156   3.210
 8280TIP3    H124783   8.039   4.158   3.233
 8280TIP3    H224784   7.901   4.172   3.292
 8281TIP3   OH224785   1.796   4.435   1.746
 8281TIP3    H124786   1.865   4.492   1.713
 8281TIP3    H224787   1.835   4.389   1.819
 8282TIP3   OH224788   4.130   1.387   5.659
 8282TIP3    H124789   4.069   1.319   5.686
 8282TIP3    H224790   4.178   1.348   5.585
 8283TIP3   OH224791   4.451   4.467   1.095
 8283TIP3    H124792   4.526   4.439   1.044
 8283TIP3    H224793   4.465   4.561   1.110
 8284TIP3   OH224794   6.208   4.561   0.643
 8284TIP3    H124795   6.140   4.625   0.621
 8284TIP3    H224796   6.218   4.508   0.564
 8285TIP3   OH224797   3.566   0.072   2.977
 8285TIP3    H124798   3.533   0.144   3.030
 8285TIP3    H224799   3.489   0.037   2.933
 8286TIP3   OH224800   4.141   2.332   1.322
 8286TIP3    H124801   4.220   2.283   1.342
 8286TIP3    H224802   4.088   2.325   1.402
 8287TIP3   OH224803   8.013   7.214   3.865
 8287TIP3    H124804   8.046   7.156   3.933
 8287TIP3    H224805   7.978   7.290   3.911
 8288TIP3   OH224806   1.119   3.783   1.934
 8288TIP3    H124807   1.063   3.833   1.875
 8288TIP3    H224808   1.058   3.732   1.988
 8289TIP3   OH224809   0.193   0.643   5.951
 8289TIP3    H124810   0.106   0.658   5.986
 8289TIP3    H224811   0.239   0.593   6.019
 8290TIP3   OH224812   1.154   3.687   3.503
 8290TIP3    H124813   1.187   3.629   3.434
 8290TIP3    H224814   1.134   3.627   3.575
 8291TIP3   OH224815   1.104   6.541   3.531
 8291TIP3    H124816   1.094   6.605   3.601
 8291TIP3    H224817   1.048   6.575   3.460
 8292TIP3   OH224818   2.110   0.985   3.517
 8292TIP3    H124819   2.038   0.923   3.510
 8292TIP3    H224820   2.185   0.938   3.481
 8293TIP3   OH224821   5.162   6.500   3.338
 8293TIP3    H124822   5.116   6.583   3.349
 8293TIP3    H224823   5.184   6.472   3.427
 8294TIP3   OH224824   0.130   4.977   2.227
 8294TIP3    H124825   0.187   4.920   2.175
 8294TIP3    H224826   0.091   4.918   2.293
 8295TIP3   OH224827   0.600   4.693   1.407
 8295TIP3    H124828   0.560   4.623   1.458
 8295TIP3    H224829   0.676   4.653   1.365
 8296TIP3   OH224830   7.638   2.125   4.667
 8296TIP3    H124831   7.725   2.164   4.679
 8296TIP3    H224832   7.593   2.185   4.608
 8297TIP3   OH224833   0.772   5.060   2.266
 8297TIP3    H124834   0.855   5.013   2.269
 8297TIP3    H224835   0.707   4.997   2.297
 8298TIP3   OH224836   4.836   0.513   5.198
 8298TIP3    H124837   4.913   0.460   5.178
 8298TIP3    H224838   4.774   0.451   5.237
 8299TIP3   OH224839   0.904   6.498   1.616
 8299TIP3    H124840   0.992   6.535   1.607
 8299TIP3    H224841   0.875   6.528   1.702
 8300TIP3   OH224842   5.370   2.659   0.164
 8300TIP3    H124843   5.451   2.615   0.190
 8300TIP3    H224844   5.360   2.635   0.072
 8301TIP3   OH224845   1.580   6.880   5.698
 8301TIP3    H124846   1.650   6.895   5.761
 8301TIP3    H224847   1.624   6.850   5.619
 8302TIP3   OH224848   4.904   5.319   4.158
 8302TIP3    H124849   4.833   5.342   4.099
 8302TIP3    H224850   4.981   5.309   4.101
 8303TIP3   OH224851   2.450   1.846   1.471
 8303TIP3    H124852   2.426   1.921   1.525
 8303TIP3    H224853   2.501   1.790   1.530
 8304TIP3   OH224854   6.754   4.282   4.669
 8304TIP3    H124855   6.816   4.338   4.622
 8304TIP3    H224856   6.681   4.339   4.690
 8305TIP3   OH224857   5.706   0.988   5.545
 8305TIP3    H124858   5.659   0.909   5.572
 8305TIP3    H224859   5.657   1.060   5.585
 8306TIP3   OH224860   0.629   3.212   0.597
 8306TIP3    H124861   0.601   3.296   0.632
 8306TIP3    H224862   0.557   3.152   0.617
 8307TIP3   OH224863   4.393   6.037   1.143
 8307TIP3    H124864   4.414   6.040   1.049
 8307TIP3    H224865   4.318   5.979   1.149
 8308TIP3   OH224866   5.689   4.240   2.046
 8308TIP3    H124867   5.600   4.209   2.031
 8308TIP3    H224868   5.695   4.254   2.141
 8309TIP3   OH224869   5.175   4.729   0.666
 8309TIP3    H124870   5.111   4.785   0.711
 8309TIP3    H224871   5.245   4.790   0.640
 8310TIP3   OH224872   2.206   0.428   6.122
 8310TIP3    H124873   2.158   0.493   6.071
 8310TIP3    H224874   2.274   0.478   6.168
 8311TIP3   OH224875   3.218   2.107   2.253
 8311TIP3    H124876   3.206   2.058   2.334
 8311TIP3    H224877   3.148   2.173   2.254
 8312TIP3   OH224878   7.408   1.926   6.251
 8312TIP3    H124879   7.372   1.845   6.287
 8312TIP3    H224880   7.396   1.918   6.156
 8313TIP3   OH224881   7.339   1.732   0.279
 8313TIP3    H124882   7.363   1.713   0.188
 8313TIP3    H224883   7.269   1.669   0.299
 8314TIP3   OH224884   2.499   5.854   3.607
 8314TIP3    H124885   2.426   5.865   3.546
 8314TIP3    H224886   2.513   5.942   3.642
 8315TIP3   OH224887   5.465   5.685   1.949
 8315TIP3    H124888   5.410   5.743   2.003
 8315TIP3    H224889   5.552   5.691   1.989
 8316TIP3   OH224890   5.599   0.178   3.978
 8316TIP3    H124891   5.647   0.109   3.932
 8316TIP3    H224892   5.667   0.236   4.012
 8317TIP3   OH224893   2.871   7.706   6.773
 8317TIP3    H124894   2.898   7.654   6.848
 8317TIP3    H224895   2.778   7.685   6.762
 8318TIP3   OH224896   5.901   2.858   3.258
 8318TIP3    H124897   5.858   2.807   3.190
 8318TIP3    H224898   5.905   2.947   3.223
 8319TIP3   OH224899   6.622   5.361   0.766
 8319TIP3    H124900   6.614   5.269   0.793
 8319TIP3    H224901   6.703   5.391   0.806
 8320TIP3   OH224902   6.079   0.477   2.116
 8320TIP3    H124903   6.131   0.398   2.131
 8320TIP3    H224904   6.005   0.447   2.062
 8321TIP3   OH224905   6.774   4.686   2.442
 8321TIP3    H124906   6.817   4.682   2.357
 8321TIP3    H224907   6.685   4.655   2.425
 8322TIP3   OH224908   1.307   4.853   1.341
 8322TIP3    H124909   1.254   4.829   1.417
 8322TIP3    H224910   1.382   4.901   1.377
 8323TIP3   OH224911   1.976   4.751   2.417
 8323TIP3    H124912   1.937   4.838   2.424
 8323TIP3    H224913   1.928   4.709   2.346
 8324TIP3   OH224914   5.033   3.008   6.041
 8324TIP3    H124915   5.092   2.969   6.105
 8324TIP3    H224916   5.009   2.936   5.982
 8325TIP3   OH224917   2.288   6.197   5.961
 8325TIP3    H124918   2.285   6.269   6.024
 8325TIP3    H224919   2.345   6.132   6.002
 8326TIP3   OH224920   6.651   7.329   4.765
 8326TIP3    H124921   6.727   7.377   4.797
 8326TIP3    H224922   6.671   7.310   4.674
 8327TIP3   OH224923   5.353   4.216   3.429
 8327TIP3    H124924   5.278   4.186   3.481
 8327TIP3    H224925   5.424   4.157   3.453
 8328TIP3   OH224926   1.039   6.405   6.357
 8328TIP3    H124927   0.958   6.450   6.332
 8328TIP3    H224928   1.010   6.320   6.389
 8329TIP3   OH224929   1.931   4.673   1.963
 8329TIP3    H124930   1.974   4.594   1.996
 8329TIP3    H224931   1.937   4.666   1.868
 8330TIP3   OH224932   3.853   6.546   6.140
 8330TIP3    H124933   3.913   6.596   6.195
 8330TIP3    H224934   3.908   6.510   6.070
 8331TIP3   OH224935   6.709   7.027   2.237
 8331TIP3    H124936   6.776   6.984   2.184
 8331TIP3    H224937   6.693   6.967   2.310
 8332TIP3   OH224938   0.138   3.816   1.753
 8332TIP3    H124939   0.125   3.758   1.678
 8332TIP3    H224940   0.207   3.876   1.725
 8333TIP3   OH224941   3.871   0.164   0.023
 8333TIP3    H124942   3.841   0.248  -0.013
 8333TIP3    H224943   3.845   0.167   0.115
 8334TIP3   OH224944   1.836   3.394   3.396
 8334TIP3    H124945   1.873   3.481   3.380
 8334TIP3    H224946   1.785   3.375   3.317
 8335TIP3   OH224947   6.875   5.267   5.521
 8335TIP3    H124948   6.824   5.325   5.464
 8335TIP3    H224949   6.945   5.323   5.555
 8336TIP3   OH224950   7.702   4.932   3.891
 8336TIP3    H124951   7.773   4.997   3.894
 8336TIP3    H224952   7.738   4.860   3.840
 8337TIP3   OH224953   7.460   4.814   0.194
 8337TIP3    H124954   7.511   4.735   0.210
 8337TIP3    H224955   7.507   4.883   0.240
 8338TIP3   OH224956   7.571   5.027   1.860
 8338TIP3    H124957   7.600   5.078   1.784
 8338TIP3    H224958   7.633   5.049   1.929
 8339TIP3   OH224959   0.824   1.828   1.397
 8339TIP3    H124960   0.815   1.908   1.448
 8339TIP3    H224961   0.782   1.847   1.314
 8340TIP3   OH224962   7.005   0.508   1.008
 8340TIP3    H124963   7.059   0.582   0.982
 8340TIP3    H224964   6.970   0.533   1.094
 8341TIP3   OH224965   6.152   7.604   2.318
 8341TIP3    H124966   6.219   7.654   2.271
 8341TIP3    H224967   6.170   7.620   2.411
 8342TIP3   OH224968   7.794   2.328   1.517
 8342TIP3    H124969   7.798   2.418   1.483
 8342TIP3    H224970   7.782   2.273   1.440
 8343TIP3   OH224971   3.394   4.534   6.266
 8343TIP3    H124972   3.310   4.525   6.221
 8343TIP3    H224973   3.374   4.585   6.344
 8344TIP3   OH224974   6.445   3.758   5.414
 8344TIP3    H124975   6.359   3.778   5.378
 8344TIP3    H224976   6.479   3.688   5.359
 8345TIP3   OH224977   7.297   7.377   2.234
 8345TIP3    H124978   7.264   7.324   2.307
 8345TIP3    H224979   7.272   7.467   2.257
 8346TIP3   OH224980   5.922   4.884   3.466
 8346TIP3    H124981   5.882   4.968   3.442
 8346TIP3    H224982   6.003   4.908   3.512
 8347TIP3   OH224983   7.608   5.398   5.075
 8347TIP3    H124984   7.659   5.334   5.026
 8347TIP3    H224985   7.661   5.416   5.153
 8348TIP3   OH224986   5.842   4.643   5.119
 8348TIP3    H124987   5.899   4.577   5.159
 8348TIP3    H224988   5.903   4.700   5.071
 8349TIP3   OH224989   7.269   6.730   3.599
 8349TIP3    H124990   7.275   6.696   3.688
 8349TIP3    H224991   7.214   6.808   3.606
 8350TIP3   OH224992   1.680   2.571   6.228
 8350TIP3    H124993   1.620   2.605   6.161
 8350TIP3    H224994   1.710   2.487   6.192
 8351TIP3   OH224995   1.081   2.031   0.546
 8351TIP3    H124996   1.114   2.062   0.462
 8351TIP3    H224997   1.154   2.046   0.607
 8352TIP3   OH224998   4.032   5.962   0.999
 8352TIP3    H124999   3.940   5.980   1.016
 8352TIP3    H225000   4.044   5.870   1.021
 8353TIP3   OH225001   1.262   5.234   5.100
 8353TIP3    H125002   1.279   5.251   5.007
 8353TIP3    H225003   1.169   5.251   5.110
 8354TIP3   OH225004   3.775   2.095   2.681
 8354TIP3    H125005   3.762   2.188   2.662
 8354TIP3    H225006   3.792   2.091   2.775
 8355TIP3   OH225007   0.453   6.015   3.334
 8355TIP3    H125008   0.441   5.921   3.344
 8355TIP3    H225009   0.375   6.044   3.287
 8356TIP3   OH225010   2.537   7.567   4.035
 8356TIP3    H125011   2.474   7.552   3.964
 8356TIP3    H225012   2.598   7.633   4.000
 8357TIP3   OH225013   2.496   3.974   5.031
 8357TIP3    H125014   2.557   4.018   5.090
 8357TIP3    H225015   2.549   3.949   4.956
 8358TIP3   OH225016   3.484   4.275   1.663
 8358TIP3    H125017   3.490   4.369   1.679
 8358TIP3    H225018   3.555   4.237   1.714
 8359TIP3   OH225019   1.088   1.930   1.199
 8359TIP3    H125020   1.166   1.921   1.143
 8359TIP3    H225021   1.023   1.969   1.141
 8360TIP3   OH225022   5.578   3.667   5.398
 8360TIP3    H125023   5.619   3.658   5.312
 8360TIP3    H225024   5.559   3.577   5.425
 8361TIP3   OH225025   3.855   4.692   2.766
 8361TIP3    H125026   3.894   4.729   2.845
 8361TIP3    H225027   3.807   4.615   2.797
 8362TIP3   OH225028   0.520   6.045   3.722
 8362TIP3    H125029   0.531   6.053   3.816
 8362TIP3    H225030   0.531   5.951   3.704
 8363TIP3   OH225031   0.775   4.704   2.241
 8363TIP3    H125032   0.733   4.698   2.326
 8363TIP3    H225033   0.847   4.766   2.254
 8364TIP3   OH225034   4.272   4.777   6.077
 8364TIP3    H125035   4.238   4.748   6.162
 8364TIP3    H225036   4.254   4.871   6.075
 8365TIP3   OH225037   5.886   2.752   3.584
 8365TIP3    H125038   5.893   2.847   3.575
 8365TIP3    H225039   5.871   2.720   3.495
 8366TIP3   OH225040   6.986   1.585   4.640
 8366TIP3    H125041   6.995   1.572   4.734
 8366TIP3    H225042   6.894   1.610   4.628
 8367TIP3   OH225043   1.178   6.846   1.530
 8367TIP3    H125044   1.155   6.754   1.518
 8367TIP3    H225045   1.110   6.880   1.588
 8368TIP3   OH225046   0.167   1.744   1.502
 8368TIP3    H125047   0.183   1.653   1.478
 8368TIP3    H225048   0.110   1.777   1.433
 8369TIP3   OH225049   5.231   6.510   5.596
 8369TIP3    H125050   5.221   6.603   5.612
 8369TIP3    H225051   5.184   6.493   5.514
 8370TIP3   OH225052   8.134   5.039   4.434
 8370TIP3    H125053   8.177   5.045   4.519
 8370TIP3    H225054   8.126   4.945   4.418
 8371TIP3   OH225055   5.662   2.326   4.391
 8371TIP3    H125056   5.594   2.271   4.351
 8371TIP3    H225057   5.713   2.358   4.317
 8372TIP3   OH225058   4.662   2.277   1.679
 8372TIP3    H125059   4.715   2.265   1.758
 8372TIP3    H225060   4.602   2.202   1.678
 8373TIP3   OH225061   3.189   2.324   5.547
 8373TIP3    H125062   3.124   2.375   5.596
 8373TIP3    H225063   3.241   2.390   5.500
 8374TIP3   OH225064   5.893   2.251   3.316
 8374TIP3    H125065   5.861   2.168   3.352
 8374TIP3    H225066   5.902   2.235   3.222
 8375TIP3   OH225067   5.195   2.097   4.263
 8375TIP3    H125068   5.153   2.038   4.325
 8375TIP3    H225069   5.143   2.088   4.183
 8376TIP3   OH225070   4.916   2.454   1.963
 8376TIP3    H125071   4.964   2.382   2.003
 8376TIP3    H225072   4.849   2.477   2.028
 8377TIP3   OH225073   5.976   0.126   6.134
 8377TIP3    H125074   6.032   0.135   6.210
 8377TIP3    H225075   6.027   0.072   6.073
 8378TIP3   OH225076   1.844   2.615   3.725
 8378TIP3    H125077   1.767   2.620   3.782
 8378TIP3    H225078   1.817   2.556   3.654
 8379TIP3   OH225079   3.666   6.884   1.753
 8379TIP3    H125080   3.571   6.877   1.766
 8379TIP3    H225081   3.679   6.863   1.661
 8380TIP3   OH225082   6.236   6.282   5.588
 8380TIP3    H125083   6.267   6.358   5.637
 8380TIP3    H225084   6.199   6.224   5.655
 8381TIP3   OH225085   6.820   7.318   1.074
 8381TIP3    H125086   6.886   7.338   1.007
 8381TIP3    H225087   6.791   7.229   1.053
 8382TIP3   OH225088   2.206   3.614   3.221
 8382TIP3    H125089   2.134   3.620   3.284
 8382TIP3    H225090   2.202   3.524   3.188
 8383TIP3   OH225091   7.934   2.473   6.415
 8383TIP3    H125092   7.895   2.561   6.416
 8383TIP3    H225093   7.973   2.463   6.502
 8384TIP3   OH225094   7.525   0.704   3.246
 8384TIP3    H125095   7.497   0.769   3.181
 8384TIP3    H225096   7.505   0.619   3.206
 8385TIP3   OH225097   7.115   2.107   0.685
 8385TIP3    H125098   7.208   2.131   0.682
 8385TIP3    H225099   7.075   2.158   0.614
 8386TIP3   OH225100   4.793   3.149   6.132
 8386TIP3    H125101   4.837   3.066   6.150
 8386TIP3    H225102   4.856   3.217   6.158
 8387TIP3   OH225103   1.639   7.467   3.946
 8387TIP3    H125104   1.725   7.491   3.979
 8387TIP3    H225105   1.580   7.481   4.020
 8388TIP3   OH225106   1.020   2.356   5.505
 8388TIP3    H125107   0.969   2.280   5.478
 8388TIP3    H225108   1.109   2.338   5.475
 8389TIP3   OH225109   3.375   2.896   6.276
 8389TIP3    H125110   3.356   2.901   6.370
 8389TIP3    H225111   3.460   2.852   6.272
 8390TIP3   OH225112   7.339   4.689   3.312
 8390TIP3    H125113   7.427   4.716   3.284
 8390TIP3    H225114   7.329   4.600   3.278
 8391TIP3   OH225115   4.093   7.050   0.262
 8391TIP3    H125116   4.150   7.126   0.249
 8391TIP3    H225117   4.047   7.068   0.344
 8392TIP3   OH225118   3.759   1.116   2.400
 8392TIP3    H125119   3.672   1.090   2.429
 8392TIP3    H225120   3.793   1.039   2.356
 8393TIP3   OH225121   2.857   6.048   3.865
 8393TIP3    H125122   2.887   6.033   3.775
 8393TIP3    H225123   2.900   6.130   3.891
 8394TIP3   OH225124   5.584   4.596   3.086
 8394TIP3    H125125   5.544   4.520   3.129
 8394TIP3    H225126   5.555   4.591   2.995
 8395TIP3   OH225127   2.755   5.179   4.094
 8395TIP3    H125128   2.690   5.175   4.024
 8395TIP3    H225129   2.830   5.130   4.060
 8396TIP3   OH225130   3.988   4.252   5.692
 8396TIP3    H125131   3.972   4.164   5.727
 8396TIP3    H225132   3.924   4.262   5.622
 8397TIP3   OH225133   8.263   3.550   5.477
 8397TIP3    H125134   8.196   3.505   5.528
 8397TIP3    H225135   8.271   3.636   5.518
 8398TIP3   OH225136   6.606   7.380   2.818
 8398TIP3    H125137   6.543   7.348   2.883
 8398TIP3    H225138   6.554   7.396   2.739
 8399TIP3   OH225139   3.677   6.115   2.086
 8399TIP3    H125140   3.720   6.171   2.022
 8399TIP3    H225141   3.740   6.044   2.102
 8400TIP3   OH225142   2.268   6.054   1.190
 8400TIP3    H125143   2.188   6.027   1.146
 8400TIP3    H225144   2.262   6.016   1.277
 8401TIP3   OH225145   1.585   3.107   2.750
 8401TIP3    H125146   1.538   3.104   2.666
 8401TIP3    H225147   1.523   3.069   2.813
 8402TIP3   OH225148   6.133   5.713   1.865
 8402TIP3    H125149   6.082   5.792   1.853
 8402TIP3    H225150   6.224   5.741   1.855
 8403TIP3   OH225151   3.062   1.102   1.370
 8403TIP3    H125152   3.005   1.155   1.315
 8403TIP3    H225153   3.099   1.164   1.433
 8404TIP3   OH225154   5.704   2.103   4.935
 8404TIP3    H125155   5.776   2.044   4.912
 8404TIP3    H225156   5.727   2.186   4.895
 8405TIP3   OH225157   6.370   4.889   5.216
 8405TIP3    H125158   6.358   4.813   5.273
 8405TIP3    H225159   6.289   4.939   5.225
 8406TIP3   OH225160   6.413   7.427   2.596
 8406TIP3    H125161   6.444   7.479   2.522
 8406TIP3    H225162   6.427   7.336   2.569
 8407TIP3   OH225163   3.962   4.644   1.194
 8407TIP3    H125164   3.904   4.615   1.264
 8407TIP3    H225165   4.047   4.604   1.214
 8408TIP3   OH225166   7.090   1.076   3.470
 8408TIP3    H125167   7.090   0.985   3.441
 8408TIP3    H225168   7.179   1.106   3.455
 8409TIP3   OH225169   2.810   0.109   3.448
 8409TIP3    H125170   2.849   0.188   3.412
 8409TIP3    H225171   2.746   0.081   3.382
 8410TIP3   OH225172   0.163   2.312   3.219
 8410TIP3    H125173   0.187   2.376   3.286
 8410TIP3    H225174   0.096   2.258   3.261
 8411TIP3   OH225175   1.211   6.913   6.112
 8411TIP3    H125176   1.206   6.974   6.186
 8411TIP3    H225177   1.201   6.969   6.035
 8412TIP3   OH225178   6.810   4.016   5.366
 8412TIP3    H125179   6.799   3.988   5.456
 8412TIP3    H225180   6.755   3.956   5.315
 8413TIP3   OH225181   7.265   1.456   3.465
 8413TIP3    H125182   7.334   1.458   3.532
 8413TIP3    H225183   7.238   1.364   3.462
 8414TIP3   OH225184   1.972   7.509   1.829
 8414TIP3    H125185   2.001   7.577   1.769
 8414TIP3    H225186   1.877   7.517   1.831
 8415TIP3   OH225187   8.017   7.246   4.765
 8415TIP3    H125188   8.051   7.257   4.854
 8415TIP3    H225189   7.975   7.329   4.746
 8416TIP3   OH225190   0.053   6.129   1.668
 8416TIP3    H125191   0.124   6.078   1.628
 8416TIP3    H225192   0.020   6.072   1.738
 8417TIP3   OH225193   0.500   6.394   5.012
 8417TIP3    H125194   0.583   6.359   5.046
 8417TIP3    H225195   0.507   6.383   4.917
 8418TIP3   OH225196   6.006   6.520   3.475
 8418TIP3    H125197   5.933   6.560   3.427
 8418TIP3    H225198   6.072   6.504   3.408
 8419TIP3   OH225199   8.264   4.900   3.347
 8419TIP3    H125200   8.229   4.857   3.425
 8419TIP3    H225201   8.274   4.829   3.283
 8420TIP3   OH225202   3.494   3.562   1.428
 8420TIP3    H125203   3.531   3.557   1.340
 8420TIP3    H225204   3.554   3.619   1.476
 8421TIP3   OH225205   7.120   3.862   0.136
 8421TIP3    H125206   7.199   3.914   0.153
 8421TIP3    H225207   7.048   3.921   0.154
 8422TIP3   OH225208   8.112   6.333   6.478
 8422TIP3    H125209   8.122   6.320   6.384
 8422TIP3    H225210   8.040   6.275   6.503
 8423TIP3   OH225211   2.379   0.190   6.377
 8423TIP3    H125212   2.453   0.162   6.323
 8423TIP3    H225213   2.416   0.204   6.464
 8424TIP3   OH225214   4.215   4.893   4.406
 8424TIP3    H125215   4.172   4.831   4.465
 8424TIP3    H225216   4.242   4.965   4.462
 8425TIP3   OH225217   0.514   3.777   0.935
 8425TIP3    H125218   0.582   3.712   0.951
 8425TIP3    H225219   0.514   3.831   1.014
 8426TIP3   OH225220   1.861   6.257   0.500
 8426TIP3    H125221   1.940   6.206   0.485
 8426TIP3    H225222   1.844   6.247   0.594
 8427TIP3   OH225223   1.132   5.613   4.800
 8427TIP3    H125224   1.053   5.607   4.745
 8427TIP3    H225225   1.099   5.625   4.889
 8428TIP3   OH225226   5.337   4.129   6.651
 8428TIP3    H125227   5.283   4.198   6.690
 8428TIP3    H225228   5.277   4.078   6.598
 8429TIP3   OH225229   0.359   1.070   4.864
 8429TIP3    H125230   0.435   1.108   4.821
 8429TIP3    H225231   0.393   0.990   4.905
 8430TIP3   OH225232   2.421   5.243   1.430
 8430TIP3    H125233   2.414   5.169   1.489
 8430TIP3    H225234   2.490   5.219   1.369
 8431TIP3   OH225235   7.867   1.075   4.394
 8431TIP3    H125236   7.930   1.003   4.406
 8431TIP3    H225237   7.850   1.107   4.482
 8432TIP3   OH225238   3.014   6.285   6.125
 8432TIP3    H125239   2.951   6.357   6.123
 8432TIP3    H225240   3.027   6.267   6.219
 8433TIP3   OH225241   3.822   4.946   6.229
 8433TIP3    H125242   3.816   4.904   6.315
 8433TIP3    H225243   3.799   4.877   6.167
 8434TIP3   OH225244   6.849   5.591   0.703
 8434TIP3    H125245   6.892   5.512   0.736
 8434TIP3    H225246   6.875   5.660   0.763
 8435TIP3   OH225247   4.157   6.792   4.263
 8435TIP3    H125248   4.078   6.839   4.235
 8435TIP3    H225249   4.228   6.831   4.212
 8436TIP3   OH225250   7.750   3.718   0.726
 8436TIP3    H125251   7.733   3.674   0.643
 8436TIP3    H225252   7.726   3.654   0.793
 8437TIP3   OH225253   1.052   5.950   0.937
 8437TIP3    H125254   0.976   6.002   0.962
 8437TIP3    H225255   1.127   6.003   0.964
 8438TIP3   OH225256   7.128   5.399   1.267
 8438TIP3    H125257   7.162   5.396   1.357
 8438TIP3    H225258   7.198   5.363   1.214
 8439TIP3   OH225259   1.728   3.288   1.399
 8439TIP3    H125260   1.770   3.347   1.336
 8439TIP3    H225261   1.676   3.347   1.454
 8440TIP3   OH225262   4.958   5.618   4.244
 8440TIP3    H125263   4.891   5.672   4.284
 8440TIP3    H225264   4.910   5.543   4.208
 8441TIP3   OH225265   3.550   4.234   5.270
 8441TIP3    H125266   3.489   4.174   5.312
 8441TIP3    H225267   3.524   4.321   5.301
 8442TIP3   OH225268   5.234   2.379   2.313
 8442TIP3    H125269   5.245   2.300   2.366
 8442TIP3    H225270   5.244   2.451   2.376
 8443TIP3   OH225271   2.102   6.122   0.436
 8443TIP3    H125272   2.100   6.065   0.359
 8443TIP3    H225273   2.191   6.157   0.437
 8444TIP3   OH225274   3.617   2.310   1.970
 8444TIP3    H125275   3.553   2.245   2.000
 8444TIP3    H225276   3.693   2.297   2.026
 8445TIP3   OH225277   7.289   1.797   1.106
 8445TIP3    H125278   7.274   1.889   1.127
 8445TIP3    H225279   7.349   1.766   1.174
 8446TIP3   OH225280   5.128   6.540   5.355
 8446TIP3    H125281   5.201   6.586   5.314
 8446TIP3    H225282   5.054   6.554   5.296
 8447TIP3   OH225283   6.075   5.262   1.711
 8447TIP3    H125284   6.114   5.350   1.711
 8447TIP3    H225285   6.001   5.269   1.772
 8448TIP3   OH225286   1.014   0.247   1.601
 8448TIP3    H125287   0.996   0.232   1.693
 8448TIP3    H225288   1.023   0.160   1.563
 8449TIP3   OH225289   3.972   5.932   1.300
 8449TIP3    H125290   4.061   5.926   1.264
 8449TIP3    H225291   3.916   5.896   1.230
 8450TIP3   OH225292   6.941   4.425   0.273
 8450TIP3    H125293   6.925   4.465   0.188
 8450TIP3    H225294   6.856   4.430   0.318
 8451TIP3   OH225295   5.985   7.253   2.096
 8451TIP3    H125296   5.945   7.340   2.102
 8451TIP3    H225297   6.054   7.254   2.163
 8452TIP3   OH225298   6.177   3.892   4.237
 8452TIP3    H125299   6.230   3.958   4.192
 8452TIP3    H225300   6.114   3.863   4.171
 8453TIP3   OH225301   8.265   3.191   6.067
 8453TIP3    H125302   8.308   3.239   5.995
 8453TIP3    H225303   8.172   3.192   6.044
 8454TIP3   OH225304   6.528   1.890   0.659
 8454TIP3    H125305   6.438   1.877   0.688
 8454TIP3    H225306   6.548   1.813   0.607
 8455TIP3   OH225307   3.002   6.291   2.026
 8455TIP3    H125308   3.096   6.310   2.035
 8455TIP3    H225309   2.959   6.359   2.078
 8456TIP3   OH225310   4.480   4.848   5.341
 8456TIP3    H125311   4.443   4.913   5.281
 8456TIP3    H225312   4.425   4.770   5.330
 8457TIP3   OH225313   2.283   0.412   2.213
 8457TIP3    H125314   2.326   0.443   2.293
 8457TIP3    H225315   2.200   0.374   2.244
 8458TIP3   OH225316   2.487   6.047   2.332
 8458TIP3    H125317   2.470   6.083   2.419
 8458TIP3    H225318   2.474   5.953   2.342
 8459TIP3   OH225319   6.653   0.903   6.679
 8459TIP3    H125320   6.740   0.868   6.663
 8459TIP3    H225321   6.597   0.861   6.614
 8460TIP3   OH225322   0.586   6.427   2.770
 8460TIP3    H125323   0.673   6.437   2.731
 8460TIP3    H225324   0.534   6.382   2.704
 8461TIP3   OH225325   5.809   3.576   0.535
 8461TIP3    H125326   5.860   3.560   0.614
 8461TIP3    H225327   5.719   3.584   0.566
 8462TIP3   OH225328   3.095   3.050   3.458
 8462TIP3    H125329   3.191   3.052   3.461
 8462TIP3    H225330   3.070   2.979   3.516
 8463TIP3   OH225331   0.310   2.737   6.134
 8463TIP3    H125332   0.224   2.703   6.108
 8463TIP3    H225333   0.366   2.660   6.138
 8464TIP3   OH225334   7.855   4.490   0.126
 8464TIP3    H125335   7.933   4.544   0.137
 8464TIP3    H225336   7.860   4.424   0.195
 8465TIP3   OH225337   2.110   4.027   5.497
 8465TIP3    H125338   2.113   3.935   5.522
 8465TIP3    H225339   2.139   4.029   5.406
 8466TIP3   OH225340   0.630   0.352   3.273
 8466TIP3    H125341   0.593   0.303   3.346
 8466TIP3    H225342   0.716   0.314   3.258
 8467TIP3   OH225343   0.017   6.156   3.574
 8467TIP3    H125344   0.112   6.141   3.577
 8467TIP3    H225345  -0.003   6.155   3.480
 8468TIP3   OH225346   3.549   7.521   0.246
 8468TIP3    H125347   3.627   7.466   0.239
 8468TIP3    H225348   3.477   7.463   0.222
 8469TIP3   OH225349   0.255   1.594   1.031
 8469TIP3    H125350   0.286   1.660   0.969
 8469TIP3    H225351   0.335   1.563   1.074
 8470TIP3   OH225352   0.942   0.719   3.452
 8470TIP3    H125353   1.037   0.709   3.455
 8470TIP3    H225354   0.928   0.812   3.439
 8471TIP3   OH225355   1.213   7.719   2.596
 8471TIP3    H125356   1.212   7.808   2.631
 8471TIP3    H225357   1.171   7.666   2.664
 8472TIP3   OH225358   3.268   3.242   0.466
 8472TIP3    H125359   3.333   3.203   0.408
 8472TIP3    H225360   3.183   3.219   0.429
 8473TIP3   OH225361   1.162   7.773   4.567
 8473TIP3    H125362   1.155   7.854   4.618
 8473TIP3    H225363   1.135   7.704   4.627
 8474TIP3   OH225364   6.036   0.330   4.673
 8474TIP3    H125365   6.090   0.384   4.730
 8474TIP3    H225366   5.974   0.391   4.633
 8475TIP3   OH225367   2.877   1.886   4.143
 8475TIP3    H125368   2.928   1.943   4.201
 8475TIP3    H225369   2.943   1.841   4.089
 8476TIP3   OH225370   5.914   2.047   2.458
 8476TIP3    H125371   5.995   2.098   2.468
 8476TIP3    H225372   5.872   2.052   2.544
 8477TIP3   OH225373   7.460   2.203   2.790
 8477TIP3    H125374   7.488   2.293   2.806
 8477TIP3    H225375   7.376   2.195   2.835
 8478TIP3   OH225376   6.269   6.193   1.975
 8478TIP3    H125377   6.262   6.149   1.891
 8478TIP3    H225378   6.244   6.284   1.957
 8479TIP3   OH225379   7.537   6.152   0.036
 8479TIP3    H125380   7.577   6.137  -0.049
 8479TIP3    H225381   7.606   6.192   0.089
 8480TIP3   OH225382   3.940   7.375   5.195
 8480TIP3    H125383   4.031   7.369   5.224
 8480TIP3    H225384   3.933   7.464   5.159
 8481TIP3   OH225385   6.960   0.329   1.842
 8481TIP3    H125386   6.945   0.364   1.930
 8481TIP3    H225387   6.895   0.373   1.787
 8482TIP3   OH225388   4.071   7.035   3.291
 8482TIP3    H125389   3.997   6.981   3.263
 8482TIP3    H225390   4.036   7.090   3.361
 8483TIP3   OH225391   7.581   7.116   5.003
 8483TIP3    H125392   7.658   7.082   4.958
 8483TIP3    H225393   7.552   7.189   4.948
 8484TIP3   OH225394   5.165   6.551   4.230
 8484TIP3    H125395   5.220   6.610   4.281
 8484TIP3    H225396   5.103   6.514   4.293
 8485TIP3   OH225397   2.063   4.140   1.615
 8485TIP3    H125398   2.018   4.180   1.540
 8485TIP3    H225399   2.005   4.069   1.643
 8486TIP3   OH225400   5.105   4.539   0.914
 8486TIP3    H125401   5.089   4.544   0.820
 8486TIP3    H225402   5.194   4.505   0.921
 8487TIP3   OH225403   6.007   1.404   0.736
 8487TIP3    H125404   6.017   1.488   0.692
 8487TIP3    H225405   6.064   1.410   0.813
 8488TIP3   OH225406   6.175   5.605   3.592
 8488TIP3    H125407   6.142   5.531   3.541
 8488TIP3    H225408   6.097   5.642   3.634
 8489TIP3   OH225409   7.762   0.657   3.036
 8489TIP3    H125410   7.707   0.724   2.995
 8489TIP3    H225411   7.742   0.576   2.989
 8490TIP3   OH225412   7.590   5.385   1.327
 8490TIP3    H125413   7.580   5.475   1.358
 8490TIP3    H225414   7.500   5.356   1.309
 8491TIP3   OH225415   1.867   3.532   1.283
 8491TIP3    H125416   1.870   3.530   1.378
 8491TIP3    H225417   1.957   3.551   1.256
 8492TIP3   OH225418   2.574   2.681   1.176
 8492TIP3    H125419   2.596   2.723   1.260
 8492TIP3    H225420   2.478   2.675   1.177
 8493TIP3   OH225421   5.141   2.860   1.147
 8493TIP3    H125422   5.166   2.787   1.203
 8493TIP3    H225423   5.071   2.904   1.195
 8494TIP3   OH225424   8.148   2.478   1.970
 8494TIP3    H125425   8.216   2.493   1.905
 8494TIP3    H225426   8.109   2.394   1.944
 8495TIP3   OH225427   7.654   6.091   1.930
 8495TIP3    H125428   7.599   6.055   1.860
 8495TIP3    H225429   7.633   6.037   2.007
 8496TIP3   OH225430   4.979   0.571   3.520
 8496TIP3    H125431   5.066   0.532   3.516
 8496TIP3    H225432   4.919   0.499   3.499
 8497TIP3   OH225433   6.987   1.478   3.576
 8497TIP3    H125434   7.027   1.565   3.571
 8497TIP3    H225435   7.021   1.432   3.499
 8498TIP3   OH225436   1.840   3.553   4.959
 8498TIP3    H125437   1.878   3.566   5.046
 8498TIP3    H225438   1.870   3.466   4.932
 8499TIP3   OH225439   5.524   5.300   4.888
 8499TIP3    H125440   5.571   5.376   4.922
 8499TIP3    H225441   5.476   5.334   4.812
 8500TIP3   OH225442   1.131   3.187   1.466
 8500TIP3    H125443   1.140   3.214   1.374
 8500TIP3    H225444   1.047   3.141   1.469
 8501TIP3   OH225445   4.785   2.214   4.899
 8501TIP3    H125446   4.881   2.214   4.891
 8501TIP3    H225447   4.753   2.217   4.809
 8502TIP3   OH225448   4.382   3.440   4.007
 8502TIP3    H125449   4.475   3.444   4.030
 8502TIP3    H225450   4.337   3.480   4.082
 8503TIP3   OH225451   1.591   0.912   1.746
 8503TIP3    H125452   1.651   0.909   1.672
 8503TIP3    H225453   1.600   1.002   1.780
 8504TIP3   OH225454   0.884   0.179   0.835
 8504TIP3    H125455   0.887   0.221   0.921
 8504TIP3    H225456   0.934   0.236   0.778
 8505TIP3   OH225457   7.161   3.540   2.649
 8505TIP3    H125458   7.239   3.545   2.705
 8505TIP3    H225459   7.169   3.613   2.589
 8506TIP3   OH225460   7.031   5.644   3.252
 8506TIP3    H125461   7.008   5.576   3.316
 8506TIP3    H225462   7.070   5.596   3.179
 8507TIP3   OH225463   4.385   3.092   3.465
 8507TIP3    H125464   4.425   3.005   3.463
 8507TIP3    H225465   4.406   3.131   3.380
 8508TIP3   OH225466   2.124   4.778   1.086
 8508TIP3    H125467   2.202   4.726   1.069
 8508TIP3    H225468   2.159   4.862   1.117
 8509TIP3   OH225469   4.854   6.580   3.773
 8509TIP3    H125470   4.801   6.657   3.750
 8509TIP3    H225471   4.839   6.567   3.867
 8510TIP3   OH225472   3.458   6.854   6.619
 8510TIP3    H125473   3.491   6.895   6.699
 8510TIP3    H225474   3.477   6.761   6.629
 8511TIP3   OH225475   6.205   7.448   3.226
 8511TIP3    H125476   6.224   7.516   3.291
 8511TIP3    H225477   6.229   7.487   3.142
 8512TIP3   OH225478   8.181   0.341   1.497
 8512TIP3    H125479   8.113   0.409   1.498
 8512TIP3    H225480   8.263   0.390   1.493
 8513TIP3   OH225481   0.610   0.406   5.264
 8513TIP3    H125482   0.693   0.397   5.312
 8513TIP3    H225483   0.543   0.379   5.327
 8514TIP3   OH225484   1.621   2.100   0.538
 8514TIP3    H125485   1.674   2.120   0.461
 8514TIP3    H225486   1.685   2.083   0.607
 8515TIP3   OH225487   2.562   6.409   0.129
 8515TIP3    H125488   2.585   6.393   0.220
 8515TIP3    H225489   2.636   6.459   0.095
 8516TIP3   OH225490   6.314   4.980   1.741
 8516TIP3    H125491   6.375   5.040   1.784
 8516TIP3    H225492   6.249   4.960   1.808
 8517TIP3   OH225493   4.908   2.013   3.853
 8517TIP3    H125494   4.995   2.046   3.832
 8517TIP3    H225495   4.848   2.078   3.818
 8518TIP3   OH225496   7.198   2.476   3.631
 8518TIP3    H125497   7.254   2.408   3.667
 8518TIP3    H225498   7.143   2.504   3.705
 8519TIP3   OH225499   3.092   4.457   2.488
 8519TIP3    H125500   3.075   4.376   2.535
 8519TIP3    H225501   3.164   4.498   2.537
 8520TIP3   OH225502   8.191   4.534   4.745
 8520TIP3    H125503   8.143   4.504   4.668
 8520TIP3    H225504   8.283   4.535   4.717
 8521TIP3   OH225505   4.762   2.710   1.829
 8521TIP3    H125506   4.769   2.804   1.808
 8521TIP3    H225507   4.836   2.670   1.783
 8522TIP3   OH225508   6.118   1.305   1.782
 8522TIP3    H125509   6.123   1.212   1.761
 8522TIP3    H225510   6.039   1.314   1.834
 8523TIP3   OH225511   7.357   5.092   0.409
 8523TIP3    H125512   7.305   5.112   0.331
 8523TIP3    H225513   7.442   5.133   0.392
 8524TIP3   OH225514   3.906   2.244   1.863
 8524TIP3    H125515   3.814   2.269   1.854
 8524TIP3    H225516   3.904   2.165   1.917
 8525TIP3   OH225517   1.540   2.998   5.456
 8525TIP3    H125518   1.590   2.950   5.522
 8525TIP3    H225519   1.606   3.031   5.395
 8526TIP3   OH225520   4.201   6.303   6.173
 8526TIP3    H125521   4.243   6.220   6.148
 8526TIP3    H225522   4.274   6.359   6.200
 8527TIP3   OH225523   3.419   3.149   6.522
 8527TIP3    H125524   3.385   3.214   6.583
 8527TIP3    H225525   3.346   3.090   6.507
 8528TIP3   OH225526   4.056   7.224   3.522
 8528TIP3    H125527   3.984   7.260   3.470
 8528TIP3    H225528   4.042   7.260   3.609
 8529TIP3   OH225529   6.286   2.375   3.052
 8529TIP3    H125530   6.306   2.400   3.143
 8529TIP3    H225531   6.204   2.327   3.059
 8530TIP3   OH225532   1.434   3.614   2.285
 8530TIP3    H125533   1.514   3.648   2.325
 8530TIP3    H225534   1.375   3.599   2.359
 8531TIP3   OH225535   6.491   1.995   1.331
 8531TIP3    H125536   6.430   1.984   1.404
 8531TIP3    H225537   6.521   1.906   1.311
 8532TIP3   OH225538   8.034   3.634   0.500
 8532TIP3    H125539   7.967   3.688   0.456
 8532TIP3    H225540   8.117   3.677   0.478
 8533TIP3   OH225541   2.770   6.231   5.262
 8533TIP3    H125542   2.819   6.299   5.310
 8533TIP3    H225543   2.753   6.270   5.176
 8534TIP3   OH225544   0.962   7.415   2.176
 8534TIP3    H125545   0.928   7.504   2.175
 8534TIP3    H225546   0.894   7.363   2.132
 8535TIP3   OH225547   3.632   5.879   1.744
 8535TIP3    H125548   3.624   5.937   1.668
 8535TIP3    H225549   3.710   5.910   1.790
 8536TIP3   OH225550   1.697   6.447   3.223
 8536TIP3    H125551   1.612   6.422   3.188
 8536TIP3    H225552   1.697   6.414   3.313
 8537TIP3   OH225553   4.145   4.186   1.433
 8537TIP3    H125554   4.180   4.097   1.423
 8537TIP3    H225555   4.209   4.242   1.391
 8538TIP3   OH225556   0.250   2.265   2.961
 8538TIP3    H125557   0.226   2.301   3.046
 8538TIP3    H225558   0.338   2.300   2.944
 8539TIP3   OH225559   4.114   1.129   3.532
 8539TIP3    H125560   4.033   1.083   3.509
 8539TIP3    H225561   4.091   1.182   3.608
 8540TIP3   OH225562   3.714   5.042   4.896
 8540TIP3    H125563   3.786   4.980   4.893
 8540TIP3    H225564   3.716   5.086   4.811
 8541TIP3   OH225565   1.630   3.337   0.057
 8541TIP3    H125566   1.614   3.373   0.144
 8541TIP3    H225567   1.662   3.412   0.006
 8542TIP3   OH225568   7.847   1.916   4.577
 8542TIP3    H125569   7.793   1.891   4.652
 8542TIP3    H225570   7.826   2.008   4.563
 8543TIP3   OH225571   3.089   6.426   2.549
 8543TIP3    H125572   3.034   6.447   2.625
 8543TIP3    H225573   3.043   6.356   2.504
 8544TIP3   OH225574   7.114   3.062   2.242
 8544TIP3    H125575   7.025   3.030   2.258
 8544TIP3    H225576   7.168   2.983   2.236
 8545TIP3   OH225577   2.238   3.461   3.581
 8545TIP3    H125578   2.300   3.444   3.510
 8545TIP3    H225579   2.236   3.556   3.590
 8546TIP3   OH225580   2.775   0.967   1.239
 8546TIP3    H125581   2.791   0.896   1.301
 8546TIP3    H225582   2.833   0.948   1.165
 8547TIP3   OH225583   0.047   4.597   2.881
 8547TIP3    H125584   0.052   4.525   2.817
 8547TIP3    H225585  -0.026   4.651   2.849
 8548TIP3   OH225586   2.595   6.897   3.618
 8548TIP3    H125587   2.633   6.976   3.579
 8548TIP3    H225588   2.598   6.914   3.712
 8549TIP3   OH225589   6.048   4.186   2.697
 8549TIP3    H125590   6.079   4.267   2.736
 8549TIP3    H225591   6.119   4.123   2.713
 8550TIP3   OH225592   6.440   4.238   0.880
 8550TIP3    H125593   6.393   4.281   0.951
 8550TIP3    H225594   6.531   4.269   0.890
 8551TIP3   OH225595   3.133   2.107   1.737
 8551TIP3    H125596   3.116   2.081   1.646
 8551TIP3    H225597   3.081   2.046   1.789
 8552TIP3   OH225598   0.210   3.705   3.184
 8552TIP3    H125599   0.261   3.646   3.128
 8552TIP3    H225600   0.154   3.753   3.123
 8553TIP3   OH225601   4.689   6.564   1.988
 8553TIP3    H125602   4.617   6.501   1.998
 8553TIP3    H225603   4.651   6.635   1.937
 8554TIP3   OH225604   0.388   2.454   4.915
 8554TIP3    H125605   0.294   2.437   4.921
 8554TIP3    H225606   0.410   2.495   4.998
 8555TIP3   OH225607   2.447   0.223   3.704
 8555TIP3    H125608   2.431   0.158   3.636
 8555TIP3    H225609   2.535   0.257   3.684
 8556TIP3   OH225610   1.359   2.324   6.240
 8556TIP3    H125611   1.440   2.284   6.207
 8556TIP3    H225612   1.355   2.296   6.331
 8557TIP3   OH225613   4.881   2.659   3.330
 8557TIP3    H125614   4.827   2.738   3.324
 8557TIP3    H225615   4.971   2.692   3.336
 8558TIP3   OH225616   6.992   3.148   5.478
 8558TIP3    H125617   7.026   3.224   5.430
 8558TIP3    H225618   7.032   3.073   5.434
 8559TIP3   OH225619   8.042   4.773   0.557
 8559TIP3    H125620   8.136   4.768   0.542
 8559TIP3    H225621   8.032   4.832   0.631
 8560TIP3   OH225622   7.578   6.264   3.263
 8560TIP3    H125623   7.606   6.172   3.258
 8560TIP3    H225624   7.598   6.300   3.177
 8561TIP3   OH225625   0.781   4.198   0.177
 8561TIP3    H125626   0.706   4.167   0.229
 8561TIP3    H225627   0.789   4.291   0.202
 8562TIP3   OH225628   4.944   1.176   1.337
 8562TIP3    H125629   4.963   1.267   1.359
 8562TIP3    H225630   4.881   1.182   1.265
 8563TIP3   OH225631  -0.004   5.714   5.254
 8563TIP3    H125632   0.071   5.705   5.195
 8563TIP3    H225633   0.033   5.702   5.341
 8564TIP3   OH225634   7.942   4.778   4.598
 8564TIP3    H125635   7.877   4.726   4.645
 8564TIP3    H225636   8.015   4.718   4.582
 8565TIP3   OH225637   5.997   1.237   2.078
 8565TIP3    H125638   6.052   1.211   2.152
 8565TIP3    H225639   6.022   1.327   2.060
 8566TIP3   OH225640   3.380   6.532   0.133
 8566TIP3    H125641   3.427   6.565   0.056
 8566TIP3    H225642   3.292   6.511   0.101
 8567TIP3   OH225643   6.095   5.410   3.431
 8567TIP3    H125644   6.141   5.337   3.390
 8567TIP3    H225645   6.040   5.446   3.362
 8568TIP3   OH225646   6.260   7.276   4.237
 8568TIP3    H125647   6.202   7.339   4.280
 8568TIP3    H225648   6.258   7.300   4.145
 8569TIP3   OH225649   7.434   1.278   2.351
 8569TIP3    H125650   7.486   1.201   2.373
 8569TIP3    H225651   7.354   1.241   2.311
 8570TIP3   OH225652   2.858   1.150   4.648
 8570TIP3    H125653   2.949   1.173   4.630
 8570TIP3    H225654   2.859   1.117   4.738
 8571TIP3   OH225655   3.255   6.297   1.185
 8571TIP3    H125656   3.232   6.344   1.105
 8571TIP3    H225657   3.285   6.211   1.155
 8572TIP3   OH225658   3.060   4.639   5.902
 8572TIP3    H125659   3.001   4.564   5.893
 8572TIP3    H225660   3.004   4.715   5.887
 8573TIP3   OH225661   4.097   5.812   1.662
 8573TIP3    H125662   4.170   5.873   1.674
 8573TIP3    H225663   4.038   5.857   1.601
 8574TIP3   OH225664   1.224   2.178   3.212
 8574TIP3    H125665   1.282   2.146   3.144
 8574TIP3    H225666   1.282   2.218   3.277
 8575TIP3   OH225667   5.955   4.866   2.523
 8575TIP3    H125668   5.947   4.771   2.511
 8575TIP3    H225669   6.049   4.882   2.530
 8576TIP3   OH225670   3.897   3.768   1.330
 8576TIP3    H125671   3.907   3.804   1.418
 8576TIP3    H225672   3.843   3.690   1.342
 8577TIP3   OH225673   2.248   6.832   2.323
 8577TIP3    H125674   2.266   6.911   2.272
 8577TIP3    H225675   2.325   6.821   2.379
 8578TIP3   OH225676   2.078   0.435   5.257
 8578TIP3    H125677   2.078   0.396   5.345
 8578TIP3    H225678   2.171   0.450   5.239
 8579TIP3   OH225679   4.904   5.472   1.162
 8579TIP3    H125680   4.818   5.442   1.191
 8579TIP3    H225681   4.961   5.460   1.238
 8580TIP3   OH225682   4.935   5.369   0.640
 8580TIP3    H125683   4.861   5.396   0.587
 8580TIP3    H225684   4.930   5.423   0.719
 8581TIP3   OH225685   4.140   7.113   2.315
 8581TIP3    H125686   4.111   7.130   2.225
 8581TIP3    H225687   4.068   7.145   2.370
 8582TIP3   OH225688   7.926   3.901   4.003
 8582TIP3    H125689   7.929   3.806   4.011
 8582TIP3    H225690   7.906   3.933   4.091
 8583TIP3   OH225691   1.688   7.720   1.315
 8583TIP3    H125692   1.770   7.677   1.339
 8583TIP3    H225693   1.649   7.662   1.250
 8584TIP3   OH225694   2.796   2.459   2.234
 8584TIP3    H125695   2.718   2.415   2.269
 8584TIP3    H225696   2.769   2.490   2.148
 8585TIP3   OH225697   0.543   2.815   3.996
 8585TIP3    H125698   0.590   2.805   3.913
 8585TIP3    H225699   0.500   2.899   3.990
 8586TIP3   OH225700   0.667   5.727   4.798
 8586TIP3    H125701   0.730   5.799   4.790
 8586TIP3    H225702   0.602   5.745   4.731
 8587TIP3   OH225703   1.964   0.648   0.703
 8587TIP3    H125704   1.877   0.641   0.662
 8587TIP3    H225705   2.015   0.576   0.664
 8588TIP3   OH225706   0.914   6.074   3.855
 8588TIP3    H125707   0.942   6.109   3.771
 8588TIP3    H225708   0.820   6.091   3.859
 8589TIP3   OH225709   3.982   2.504   5.676
 8589TIP3    H125710   4.016   2.416   5.657
 8589TIP3    H225711   3.958   2.539   5.590
 8590TIP3   OH225712   7.965   2.678   1.875
 8590TIP3    H125713   8.027   2.607   1.892
 8590TIP3    H225714   7.996   2.719   1.794
 8591TIP3   OH225715   3.860   0.349   2.617
 8591TIP3    H125716   3.848   0.423   2.676
 8591TIP3    H225717   3.787   0.290   2.637
 8592TIP3   OH225718  -0.011   5.198   3.905
 8592TIP3    H125719   0.078   5.177   3.934
 8592TIP3    H225720  -0.046   5.115   3.873
 8593TIP3   OH225721   3.020   2.605   3.172
 8593TIP3    H125722   3.021   2.701   3.171
 8593TIP3    H225723   2.986   2.583   3.259
 8594TIP3   OH225724   1.283   4.317   3.753
 8594TIP3    H125725   1.197   4.280   3.776
 8594TIP3    H225726   1.345   4.246   3.770
 8595TIP3   OH225727   4.913   3.975   5.353
 8595TIP3    H125728   4.842   3.921   5.320
 8595TIP3    H225729   4.881   4.009   5.437
 8596TIP3   OH225730   3.978   2.435   0.016
 8596TIP3    H125731   3.952   2.367   0.078
 8596TIP3    H225732   3.923   2.419  -0.061
 8597TIP3   OH225733   8.235   2.302   6.435
 8597TIP3    H125734   8.321   2.296   6.476
 8597TIP3    H225735   8.180   2.344   6.502
 8598TIP3   OH225736   0.149   4.047   0.740
 8598TIP3    H125737   0.163   3.966   0.789
 8598TIP3    H225738   0.054   4.051   0.727
 8599TIP3   OH225739   4.517   3.779   3.304
 8599TIP3    H125740   4.576   3.818   3.369
 8599TIP3    H225741   4.539   3.824   3.222
 8600TIP3   OH225742   2.449   6.793   2.725
 8600TIP3    H125743   2.514   6.853   2.763
 8600TIP3    H225744   2.416   6.744   2.800
 8601TIP3   OH225745   2.482   6.295   5.758
 8601TIP3    H125746   2.519   6.366   5.810
 8601TIP3    H225747   2.404   6.268   5.805
 8602TIP3   OH225748   1.890   7.655   3.486
 8602TIP3    H125749   1.819   7.714   3.512
 8602TIP3    H225750   1.931   7.699   3.411
 8603TIP3   OH225751   1.336   1.805   2.147
 8603TIP3    H125752   1.368   1.869   2.083
 8603TIP3    H225753   1.265   1.760   2.101
 8604TIP3   OH225754   0.655   2.214   6.117
 8604TIP3    H125755   0.627   2.171   6.037
 8604TIP3    H225756   0.713   2.284   6.088
 8605TIP3   OH225757   7.091   3.232   1.496
 8605TIP3    H125758   7.124   3.183   1.421
 8605TIP3    H225759   7.062   3.164   1.558
 8606TIP3   OH225760   2.310   1.059   3.730
 8606TIP3    H125761   2.251   1.056   3.654
 8606TIP3    H225762   2.303   0.972   3.770
 8607TIP3   OH225763   3.344   0.748   2.220
 8607TIP3    H125764   3.347   0.754   2.316
 8607TIP3    H225765   3.253   0.770   2.198
 8608TIP3   OH225766   3.222   1.178   4.732
 8608TIP3    H125767   3.284   1.233   4.780
 8608TIP3    H225768   3.159   1.150   4.798
 8609TIP3   OH225769   4.213   0.856   3.625
 8609TIP3    H125770   4.162   0.782   3.591
 8609TIP3    H225771   4.184   0.931   3.572
 8610TIP3   OH225772   6.109   4.173  -0.018
 8610TIP3    H125773   6.038   4.174   0.046
 8610TIP3    H225774   6.100   4.088  -0.062
 8611TIP3   OH225775   2.989   0.580   4.258
 8611TIP3    H125776   3.060   0.635   4.225
 8611TIP3    H225777   2.912   0.637   4.258
 8612TIP3   OH225778   1.784   4.398   4.929
 8612TIP3    H125779   1.711   4.344   4.959
 8612TIP3    H225780   1.843   4.402   5.004
 8613TIP3   OH225781   7.693   1.492   1.924
 8613TIP3    H125782   7.783   1.462   1.933
 8613TIP3    H225783   7.640   1.413   1.928
 8614TIP3   OH225784   2.909   4.425   1.832
 8614TIP3    H125785   2.938   4.454   1.745
 8614TIP3    H225786   2.985   4.441   1.888
 8615TIP3   OH225787   4.645   6.082   0.375
 8615TIP3    H125788   4.719   6.080   0.315
 8615TIP3    H225789   4.568   6.072   0.320
 8616TIP3   OH225790   5.267   5.306   5.202
 8616TIP3    H125791   5.265   5.326   5.108
 8616TIP3    H225792   5.200   5.239   5.213
 8617TIP3   OH225793   5.909   5.571   6.079
 8617TIP3    H125794   5.821   5.580   6.118
 8617TIP3    H225795   5.952   5.505   6.133
 8618TIP3   OH225796   2.445   1.641   5.964
 8618TIP3    H125797   2.444   1.705   6.035
 8618TIP3    H225798   2.533   1.603   5.966
 8619TIP3   OH225799   2.142   5.771   1.540
 8619TIP3    H125800   2.109   5.847   1.492
 8619TIP3    H225801   2.158   5.803   1.629
 8620TIP3   OH225802   2.848   6.616   2.649
 8620TIP3    H125803   2.924   6.590   2.700
 8620TIP3    H225804   2.863   6.709   2.629
 8621TIP3   OH225805   2.427   7.556   0.124
 8621TIP3    H125806   2.427   7.637   0.175
 8621TIP3    H225807   2.495   7.569   0.058
 8622TIP3   OH225808   0.662   2.245   4.120
 8622TIP3    H125809   0.605   2.169   4.106
 8622TIP3    H225810   0.700   2.229   4.207
 8623TIP3   OH225811   5.264   7.190   3.937
 8623TIP3    H125812   5.332   7.253   3.914
 8623TIP3    H225813   5.250   7.202   4.031
 8624TIP3   OH225814   2.023   5.009   6.231
 8624TIP3    H125815   1.927   5.006   6.227
 8624TIP3    H225816   2.041   5.042   6.319
 8625TIP3   OH225817   0.976   3.147   1.827
 8625TIP3    H125818   1.012   3.235   1.840
 8625TIP3    H225819   0.883   3.161   1.809
 8626TIP3   OH225820   7.600   6.856   0.158
 8626TIP3    H125821   7.580   6.838   0.066
 8626TIP3    H225822   7.628   6.772   0.193
 8627TIP3   OH225823   3.663   3.581   2.288
 8627TIP3    H125824   3.660   3.532   2.370
 8627TIP3    H225825   3.633   3.669   2.311
 8628TIP3   OH225826   0.284   7.054   5.666
 8628TIP3    H125827   0.203   7.041   5.616
 8628TIP3    H225828   0.256   7.096   5.747
 8629TIP3   OH225829   0.950   0.181   1.867
 8629TIP3    H125830   0.993   0.266   1.875
 8629TIP3    H225831   0.912   0.165   1.954
 8630TIP3   OH225832   6.585   2.867   3.269
 8630TIP3    H125833   6.663   2.839   3.220
 8630TIP3    H225834   6.558   2.948   3.225
 8631TIP3   OH225835   6.404   1.293   6.015
 8631TIP3    H125836   6.389   1.294   6.109
 8631TIP3    H225837   6.322   1.324   5.977
 8632TIP3   OH225838   2.021   5.712   3.103
 8632TIP3    H125839   1.957   5.645   3.077
 8632TIP3    H225840   2.066   5.734   3.022
 8633TIP3   OH225841   4.904   7.174   1.269
 8633TIP3    H125842   4.919   7.151   1.177
 8633TIP3    H225843   4.849   7.253   1.265
 8634TIP3   OH225844   2.598   1.622   1.576
 8634TIP3    H125845   2.529   1.576   1.624
 8634TIP3    H225846   2.646   1.671   1.643
 8635TIP3   OH225847   3.906   3.800   0.825
 8635TIP3    H125848   4.001   3.818   0.824
 8635TIP3    H225849   3.866   3.887   0.818
 8636TIP3   OH225850   1.139   1.083   4.767
 8636TIP3    H125851   1.059   1.131   4.748
 8636TIP3    H225852   1.145   1.083   4.862
 8637TIP3   OH225853   7.047   5.324   0.425
 8637TIP3    H125854   7.045   5.418   0.408
 8637TIP3    H225855   7.117   5.314   0.490
 8638TIP3   OH225856   1.328   0.539   4.087
 8638TIP3    H125857   1.417   0.532   4.123
 8638TIP3    H225858   1.273   0.553   4.164
 8639TIP3   OH225859   0.406   3.070   0.666
 8639TIP3    H125860   0.328   3.119   0.692
 8639TIP3    H225861   0.384   2.979   0.682
 8640TIP3   OH225862   7.477   1.893   1.522
 8640TIP3    H125863   7.571   1.879   1.534
 8640TIP3    H225864   7.457   1.850   1.439
 8641TIP3   OH225865   1.671   3.768   6.645
 8641TIP3    H125866   1.725   3.693   6.673
 8641TIP3    H225867   1.601   3.728   6.594
 8642TIP3   OH225868   5.523   5.738   5.633
 8642TIP3    H125869   5.542   5.727   5.726
 8642TIP3    H225870   5.503   5.831   5.623
 8643TIP3   OH225871   5.569   1.591   2.758
 8643TIP3    H125872   5.555   1.505   2.717
 8643TIP3    H225873   5.519   1.652   2.704
 8644TIP3   OH225874   7.031   0.997   4.314
 8644TIP3    H125875   7.068   1.027   4.397
 8644TIP3    H225876   6.946   0.960   4.338
 8645TIP3   OH225877   2.578   3.676   0.200
 8645TIP3    H125878   2.529   3.758   0.207
 8645TIP3    H225879   2.662   3.694   0.241
 8646TIP3   OH225880   0.596   4.728   1.020
 8646TIP3    H125881   0.661   4.745   0.951
 8646TIP3    H225882   0.644   4.678   1.086
 8647TIP3   OH225883   1.256   0.926   6.651
 8647TIP3    H125884   1.233   0.903   6.741
 8647TIP3    H225885   1.308   0.852   6.620
 8648TIP3   OH225886   4.358   3.594   5.714
 8648TIP3    H125887   4.370   3.604   5.619
 8648TIP3    H225888   4.396   3.508   5.734
 8649TIP3   OH225889   4.176   2.406   6.400
 8649TIP3    H125890   4.235   2.385   6.473
 8649TIP3    H225891   4.118   2.474   6.434
 8650TIP3   OH225892   3.455   2.440   0.984
 8650TIP3    H125893   3.420   2.522   1.019
 8650TIP3    H225894   3.384   2.406   0.929
 8651TIP3   OH225895   6.411   0.849   0.106
 8651TIP3    H125896   6.355   0.772   0.115
 8651TIP3    H225897   6.494   0.824   0.145
 8652TIP3   OH225898   6.205   7.011   4.710
 8652TIP3    H125899   6.138   6.949   4.683
 8652TIP3    H225900   6.247   7.039   4.629
 8653TIP3   OH225901   4.706   7.350   3.901
 8653TIP3    H125902   4.680   7.282   3.964
 8653TIP3    H225903   4.701   7.307   3.816
 8654TIP3   OH225904   7.079   6.852   3.088
 8654TIP3    H125905   7.174   6.857   3.077
 8654TIP3    H225906   7.057   6.762   3.064
 8655TIP3   OH225907   1.819   2.472   0.518
 8655TIP3    H125908   1.821   2.516   0.433
 8655TIP3    H225909   1.802   2.541   0.581
 8656TIP3   OH225910   0.552   6.875   1.404
 8656TIP3    H125911   0.608   6.859   1.480
 8656TIP3    H225912   0.553   6.793   1.355
 8657TIP3   OH225913   6.031   0.889   2.028
 8657TIP3    H125914   5.978   0.881   1.949
 8657TIP3    H225915   5.983   0.838   2.094
 8658TIP3   OH225916   3.216   1.806   0.494
 8658TIP3    H125917   3.269   1.795   0.414
 8658TIP3    H225918   3.134   1.761   0.475
 8659TIP3   OH225919   0.637   1.809   4.466
 8659TIP3    H125920   0.561   1.815   4.524
 8659TIP3    H225921   0.712   1.806   4.525
 8660TIP3   OH225922   3.100   2.885   0.903
 8660TIP3    H125923   3.055   2.925   0.829
 8660TIP3    H225924   3.182   2.851   0.865
 8661TIP3   OH225925   0.165   3.227   0.747
 8661TIP3    H125926   0.093   3.183   0.701
 8661TIP3    H225927   0.134   3.316   0.760
 8662TIP3   OH225928   7.267   0.118   3.942
 8662TIP3    H125929   7.249   0.115   4.036
 8662TIP3    H225930   7.274   0.027   3.916
 8663TIP3   OH225931   1.181   5.165   6.063
 8663TIP3    H125932   1.148   5.142   6.150
 8663TIP3    H225933   1.260   5.112   6.052
 8664TIP3   OH225934   5.119   5.447   0.419
 8664TIP3    H125935   5.068   5.389   0.476
 8664TIP3    H225936   5.091   5.423   0.330
 8665TIP3   OH225937   4.845   6.131   0.876
 8665TIP3    H125938   4.908   6.086   0.933
 8665TIP3    H225939   4.792   6.060   0.840
 8666TIP3   OH225940   0.352   2.691   0.175
 8666TIP3    H125941   0.293   2.729   0.109
 8666TIP3    H225942   0.354   2.756   0.246
 8667TIP3   OH225943   5.454   4.107   0.153
 8667TIP3    H125944   5.367   4.129   0.187
 8667TIP3    H225945   5.481   4.186   0.106
 8668TIP3   OH225946   0.576   1.936   5.947
 8668TIP3    H125947   0.577   1.879   5.870
 8668TIP3    H225948   0.496   1.989   5.936
 8669TIP3   OH225949   3.899   5.249   3.587
 8669TIP3    H125950   3.870   5.158   3.596
 8669TIP3    H225951   3.876   5.290   3.670
 8670TIP3   OH225952   3.751   4.346   2.129
 8670TIP3    H125953   3.815   4.319   2.195
 8670TIP3    H225954   3.786   4.428   2.095
 8671TIP3   OH225955   4.864   0.824   2.525
 8671TIP3    H125956   4.861   0.914   2.558
 8671TIP3    H225957   4.798   0.778   2.577
 8672TIP3   OH225958   1.192   3.605   5.296
 8672TIP3    H125959   1.206   3.683   5.241
 8672TIP3    H225960   1.251   3.617   5.370
 8673TIP3   OH225961   4.208   5.508   5.366
 8673TIP3    H125962   4.201   5.457   5.446
 8673TIP3    H225963   4.204   5.599   5.395
 8674TIP3   OH225964   5.110   7.026   3.350
 8674TIP3    H125965   5.026   6.987   3.377
 8674TIP3    H225966   5.175   6.984   3.407
 8675TIP3   OH225967   6.299   0.596   0.126
 8675TIP3    H125968   6.231   0.574   0.063
 8675TIP3    H225969   6.373   0.540   0.102
 8676TIP3   OH225970   5.334   2.525   5.050
 8676TIP3    H125971   5.427   2.511   5.067
 8676TIP3    H225972   5.299   2.553   5.135
 8677TIP3   OH225973   6.433   1.447   4.191
 8677TIP3    H125974   6.377   1.501   4.246
 8677TIP3    H225975   6.374   1.383   4.152
 8678TIP3   OH225976   4.086   0.255   4.465
 8678TIP3    H125977   4.178   0.251   4.491
 8678TIP3    H225978   4.038   0.251   4.548
 8679TIP3   OH225979   5.884   4.571   6.595
 8679TIP3    H125980   5.816   4.590   6.530
 8679TIP3    H225981   5.916   4.657   6.623
 8680TIP3   OH225982   0.132   1.734   4.964
 8680TIP3    H125983   0.045   1.764   4.988
 8680TIP3    H225984   0.188   1.759   5.038
 8681TIP3   OH225985   1.092   4.643   5.270
 8681TIP3    H125986   0.997   4.631   5.276
 8681TIP3    H225987   1.122   4.644   5.360
 8682TIP3   OH225988   4.487   3.737   3.967
 8682TIP3    H125989   4.424   3.679   4.009
 8682TIP3    H225990   4.452   3.752   3.879
 8683TIP3   OH225991   2.809   2.825   4.820
 8683TIP3    H125992   2.731   2.811   4.874
 8683TIP3    H225993   2.882   2.825   4.883
 8684TIP3   OH225994   1.194   5.188   3.908
 8684TIP3    H125995   1.278   5.232   3.898
 8684TIP3    H225996   1.156   5.190   3.820
 8685TIP3   OH225997   4.763   1.271   6.258
 8685TIP3    H125998   4.710   1.345   6.229
 8685TIP3    H225999   4.717   1.237   6.335
 8686TIP3   OH226000   0.082   3.618   3.954
 8686TIP3    H126001   0.132   3.658   3.883
 8686TIP3    H226002   0.085   3.682   4.025
 8687TIP3   OH226003   6.158   1.634   3.142
 8687TIP3    H126004   6.197   1.550   3.166
 8687TIP3    H226005   6.232   1.687   3.112
 8688TIP3   OH226006   7.356   3.434   5.643
 8688TIP3    H126007   7.270   3.468   5.667
 8688TIP3    H226008   7.418   3.498   5.677
 8689TIP3   OH226009   1.014   5.295   5.612
 8689TIP3    H126010   0.995   5.388   5.623
 8689TIP3    H226011   0.979   5.255   5.692
 8690TIP3   OH226012   1.419   1.404   1.822
 8690TIP3    H126013   1.353   1.442   1.881
 8690TIP3    H226014   1.503   1.428   1.861
 8691TIP3   OH226015   2.058   3.150   1.125
 8691TIP3    H126016   1.986   3.087   1.133
 8691TIP3    H226017   2.088   3.140   1.034
 8692TIP3   OH226018   0.024   0.470   1.975
 8692TIP3    H126019   0.062   0.508   1.896
 8692TIP3    H226020   0.091   0.412   2.010
 8693TIP3   OH226021   1.862   1.433   0.084
 8693TIP3    H126022   1.930   1.461   0.146
 8693TIP3    H226023   1.869   1.494   0.011
 8694TIP3   OH226024   3.572   6.149   0.595
 8694TIP3    H126025   3.490   6.178   0.634
 8694TIP3    H226026   3.553   6.144   0.501
 8695TIP3   OH226027   1.812   1.837   5.776
 8695TIP3    H126028   1.799   1.853   5.682
 8695TIP3    H226029   1.810   1.924   5.816
 8696TIP3   OH226030   4.395   1.298   4.976
 8696TIP3    H126031   4.310   1.269   5.009
 8696TIP3    H226032   4.458   1.241   5.019
 8697TIP3   OH226033   3.770   4.244   3.415
 8697TIP3    H126034   3.727   4.275   3.494
 8697TIP3    H226035   3.850   4.202   3.445
 8698TIP3   OH226036   0.907   4.585   3.833
 8698TIP3    H126037   0.856   4.653   3.877
 8698TIP3    H226038   0.868   4.577   3.746
 8699TIP3   OH226039   1.816   1.004   0.235
 8699TIP3    H126040   1.794   1.017   0.143
 8699TIP3    H226041   1.802   1.089   0.276
 8700TIP3   OH226042   5.843   2.094   0.449
 8700TIP3    H126043   5.819   2.087   0.541
 8700TIP3    H226044   5.884   2.010   0.428
 8701TIP3   OH226045   4.973   7.415   2.061
 8701TIP3    H126046   5.062   7.383   2.073
 8701TIP3    H226047   4.961   7.480   2.130
 8702TIP3   OH226048   1.524   2.625   1.141
 8702TIP3    H126049   1.504   2.583   1.056
 8702TIP3    H226050   1.619   2.635   1.140
 8703TIP3   OH226051   7.496   3.235   1.858
 8703TIP3    H126052   7.402   3.255   1.864
 8703TIP3    H226053   7.510   3.169   1.926
 8704TIP3   OH226054   5.796   5.016   4.959
 8704TIP3    H126055   5.834   5.065   5.032
 8704TIP3    H226056   5.871   4.991   4.906
 8705TIP3   OH226057   1.099   7.746   1.591
 8705TIP3    H126058   1.087   7.745   1.496
 8705TIP3    H226059   1.014   7.774   1.625
 8706TIP3   OH226060   8.132   0.454   6.223
 8706TIP3    H126061   8.211   0.463   6.276
 8706TIP3    H226062   8.164   0.451   6.133
 8707TIP3   OH226063   3.529   2.231   5.102
 8707TIP3    H126064   3.558   2.143   5.127
 8707TIP3    H226065   3.448   2.244   5.150
 8708TIP3   OH226066   3.675   2.711   3.142
 8708TIP3    H126067   3.621   2.700   3.220
 8708TIP3    H226068   3.616   2.751   3.078
 8709TIP3   OH226069   7.523   1.033   0.370
 8709TIP3    H126070   7.594   1.065   0.425
 8709TIP3    H226071   7.544   0.942   0.353
 8710TIP3   OH226072   5.816   4.499   3.306
 8710TIP3    H126073   5.791   4.517   3.215
 8710TIP3    H226074   5.739   4.455   3.343
 8711TIP3   OH226075   6.767   6.334   1.529
 8711TIP3    H126076   6.844   6.385   1.503
 8711TIP3    H226077   6.719   6.321   1.447
 8712TIP3   OH226078   5.311   3.293   4.565
 8712TIP3    H126079   5.266   3.372   4.595
 8712TIP3    H226080   5.255   3.221   4.595
 8713TIP3   OH226081   7.896   4.415   5.189
 8713TIP3    H126082   7.844   4.458   5.257
 8713TIP3    H226083   7.945   4.347   5.236
 8714TIP3   OH226084   5.717   6.481   2.962
 8714TIP3    H126085   5.673   6.565   2.971
 8714TIP3    H226086   5.679   6.441   2.884
 8715TIP3   OH226087   5.241   6.710   1.758
 8715TIP3    H126088   5.231   6.634   1.816
 8715TIP3    H226089   5.152   6.740   1.742
 8716TIP3   OH226090   2.790   1.113   2.695
 8716TIP3    H126091   2.705   1.100   2.653
 8716TIP3    H226092   2.792   1.049   2.765
 8717TIP3   OH226093   3.488   4.489   5.408
 8717TIP3    H126094   3.395   4.512   5.414
 8717TIP3    H226095   3.526   4.516   5.491
 8718TIP3   OH226096   2.109   2.692   2.430
 8718TIP3    H126097   2.113   2.601   2.460
 8718TIP3    H226098   2.196   2.727   2.445
 8719TIP3   OH226099   7.333   5.957   0.067
 8719TIP3    H126100   7.407   6.018   0.065
 8719TIP3    H226101   7.353   5.896   0.138
 8720TIP3   OH226102   1.528   2.213   4.721
 8720TIP3    H126103   1.443   2.240   4.685
 8720TIP3    H226104   1.506   2.153   4.792
 8721TIP3   OH226105   1.120   3.756   3.055
 8721TIP3    H126106   1.166   3.803   3.125
 8721TIP3    H226107   1.032   3.743   3.089
 8722TIP3   OH226108   6.891   1.215   6.441
 8722TIP3    H126109   6.955   1.253   6.500
 8722TIP3    H226110   6.924   1.127   6.421
 8723TIP3   OH226111   7.148   0.182   5.048
 8723TIP3    H126112   7.231   0.165   5.005
 8723TIP3    H226113   7.134   0.276   5.036
 8724TIP3   OH226114   1.648   0.121   1.057
 8724TIP3    H126115   1.662   0.153   0.968
 8724TIP3    H226116   1.618   0.031   1.046
 8725TIP3   OH226117   0.889   2.842   3.010
 8725TIP3    H126118   0.978   2.835   2.974
 8725TIP3    H226119   0.878   2.935   3.028
 8726TIP3   OH226120   4.010   6.158   4.850
 8726TIP3    H126121   3.915   6.164   4.846
 8726TIP3    H226122   4.036   6.218   4.919
 8727TIP3   OH226123   1.940   5.633   2.231
 8727TIP3    H126124   2.020   5.581   2.221
 8727TIP3    H226125   1.870   5.576   2.198
 8728TIP3   OH226126   1.504   0.274   4.023
 8728TIP3    H126127   1.434   0.210   4.008
 8728TIP3    H226128   1.460   0.359   4.016
 8729TIP3   OH226129   1.191   3.911   2.172
 8729TIP3    H126130   1.170   3.890   2.081
 8729TIP3    H226131   1.236   3.833   2.204
 8730TIP3   OH226132   2.533   2.011   0.792
 8730TIP3    H126133   2.607   2.030   0.735
 8730TIP3    H226134   2.560   1.936   0.844
 8731TIP3   OH226135   6.547   6.348   3.713
 8731TIP3    H126136   6.473   6.306   3.669
 8731TIP3    H226137   6.507   6.418   3.765
 8732TIP3   OH226138   7.606   0.898   2.872
 8732TIP3    H126139   7.613   0.818   2.818
 8732TIP3    H226140   7.513   0.907   2.890
 8733TIP3   OH226141   7.804   2.404   0.918
 8733TIP3    H126142   7.749   2.342   0.870
 8733TIP3    H226143   7.748   2.436   0.989
 8734TIP3   OH226144   5.515   0.532   0.594
 8734TIP3    H126145   5.449   0.520   0.663
 8734TIP3    H226146   5.598   0.510   0.637
 8735TIP3   OH226147   6.893   7.269   2.594
 8735TIP3    H126148   6.985   7.250   2.611
 8735TIP3    H226149   6.846   7.207   2.649
 8736TIP3   OH226150   3.617   4.309   4.751
 8736TIP3    H126151   3.546   4.367   4.780
 8736TIP3    H226152   3.591   4.282   4.663
 8737TIP3   OH226153   5.572   2.019   6.436
 8737TIP3    H126154   5.598   2.006   6.527
 8737TIP3    H226155   5.605   1.941   6.391
 8738TIP3   OH226156   4.376   2.501   2.189
 8738TIP3    H126157   4.406   2.506   2.280
 8738TIP3    H226158   4.308   2.433   2.190
 8739TIP3   OH226159   6.332   3.938   3.571
 8739TIP3    H126160   6.270   3.984   3.628
 8739TIP3    H226161   6.277   3.880   3.519
 8740TIP3   OH226162   3.882   5.977   2.683
 8740TIP3    H126163   3.963   5.969   2.734
 8740TIP3    H226164   3.905   6.036   2.612
 8741TIP3   OH226165   6.791   0.483   1.693
 8741TIP3    H126166   6.698   0.467   1.675
 8741TIP3    H226167   6.799   0.578   1.691
 8742TIP3   OH226168   3.535   1.361   3.637
 8742TIP3    H126169   3.458   1.416   3.656
 8742TIP3    H226170   3.557   1.323   3.722
 8743TIP3   OH226171   4.469   6.235   5.322
 8743TIP3    H126172   4.391   6.215   5.270
 8743TIP3    H226173   4.538   6.181   5.283
 8744TIP3   OH226174   5.105   5.169   0.628
 8744TIP3    H126175   5.070   5.087   0.663
 8744TIP3    H226176   5.030   5.228   0.626
 8745TIP3   OH226177   2.688   0.671   6.554
 8745TIP3    H126178   2.624   0.737   6.530
 8745TIP3    H226179   2.756   0.719   6.601
 8746TIP3   OH226180   7.531   5.816   0.203
 8746TIP3    H126181   7.519   5.724   0.181
 8746TIP3    H226182   7.626   5.827   0.209
 8747TIP3   OH226183   1.863   4.856   3.232
 8747TIP3    H126184   1.956   4.868   3.208
 8747TIP3    H226185   1.846   4.764   3.215
 8748TIP3   OH226186   5.603   6.356   6.297
 8748TIP3    H126187   5.616   6.268   6.331
 8748TIP3    H226188   5.559   6.344   6.213
 8749TIP3   OH226189   5.089   2.598   2.859
 8749TIP3    H126190   5.089   2.686   2.896
 8749TIP3    H226191   5.045   2.608   2.774
 8750TIP3   OH226192   5.658   2.937   1.471
 8750TIP3    H126193   5.604   2.999   1.521
 8750TIP3    H226194   5.598   2.867   1.447
 8751TIP3   OH226195   1.598   2.965   6.293
 8751TIP3    H126196   1.521   2.911   6.276
 8751TIP3    H226197   1.564   3.038   6.346
 8752TIP3   OH226198   6.863   3.770   2.696
 8752TIP3    H126199   6.863   3.856   2.653
 8752TIP3    H226200   6.846   3.791   2.788
 8753TIP3   OH226201   5.301   7.722   4.968
 8753TIP3    H126202   5.363   7.691   4.903
 8753TIP3    H226203   5.235   7.653   4.974
 8754TIP3   OH226204   0.300   3.657   4.456
 8754TIP3    H126205   0.393   3.635   4.451
 8754TIP3    H226206   0.274   3.633   4.544
 8755TIP3   OH226207   7.991   2.306   4.451
 8755TIP3    H126208   8.050   2.374   4.421
 8755TIP3    H226209   8.005   2.233   4.390
 8756TIP3   OH226210   3.120   4.050   3.688
 8756TIP3    H126211   3.201   4.080   3.648
 8756TIP3    H226212   3.057   4.048   3.615
 8757TIP3   OH226213   1.602   2.034   3.677
 8757TIP3    H126214   1.623   2.011   3.767
 8757TIP3    H226215   1.514   2.072   3.682
 8758TIP3   OH226216   6.394   0.026   4.597
 8758TIP3    H126217   6.337   0.085   4.548
 8758TIP3    H226218   6.352   0.018   4.682
 8759TIP3   OH226219   2.744   6.812   1.959
 8759TIP3    H126220   2.736   6.900   1.994
 8759TIP3    H226221   2.778   6.825   1.870
 8760TIP3   OH226222   7.973   2.221   5.996
 8760TIP3    H126223   7.900   2.249   5.941
 8760TIP3    H226224   7.998   2.300   6.044
 8761TIP3   OH226225   1.223   6.001   6.369
 8761TIP3    H126226   1.177   6.074   6.327
 8761TIP3    H226227   1.204   5.926   6.312
 8762TIP3   OH226228   6.588   0.380   4.607
 8762TIP3    H126229   6.631   0.299   4.577
 8762TIP3    H226230   6.653   0.449   4.589
 8763TIP3   OH226231   5.786   2.999   3.029
 8763TIP3    H126232   5.749   2.912   3.047
 8763TIP3    H226233   5.771   3.012   2.935
 8764TIP3   OH226234   8.023   4.833   3.937
 8764TIP3    H126235   8.006   4.923   3.911
 8764TIP3    H226236   7.980   4.825   4.022
 8765TIP3   OH226237   2.984   2.073   4.516
 8765TIP3    H126238   3.050   2.011   4.547
 8765TIP3    H226239   2.938   2.100   4.596
 8766TIP3   OH226240   1.912   3.062   0.095
 8766TIP3    H126241   1.902   3.156   0.108
 8766TIP3    H226242   1.839   3.037   0.039
 8767TIP3   OH226243   4.382   6.185   4.986
 8767TIP3    H126244   4.403   6.092   4.981
 8767TIP3    H226245   4.431   6.225   4.915
 8768TIP3   OH226246   5.221   7.798   5.961
 8768TIP3    H126247   5.137   7.758   5.941
 8768TIP3    H226248   5.211   7.831   6.050
 8769TIP3   OH226249   3.499   6.482   5.520
 8769TIP3    H126250   3.440   6.431   5.465
 8769TIP3    H226251   3.470   6.464   5.609
 8770TIP3   OH226252   3.973   0.917   6.197
 8770TIP3    H126253   4.021   0.948   6.274
 8770TIP3    H226254   3.892   0.968   6.197
 8771TIP3   OH226255   1.913   1.531   5.476
 8771TIP3    H126256   1.951   1.454   5.434
 8771TIP3    H226257   1.985   1.594   5.480
 8772TIP3   OH226258   3.111   3.061   0.665
 8772TIP3    H126259   3.156   2.994   0.613
 8772TIP3    H226260   3.181   3.118   0.697
 8773TIP3   OH226261   3.490   3.866   1.218
 8773TIP3    H126262   3.443   3.896   1.296
 8773TIP3    H226263   3.532   3.785   1.244
 8774TIP3   OH226264   4.077   4.345   0.415
 8774TIP3    H126265   4.070   4.307   0.502
 8774TIP3    H226266   4.033   4.430   0.422
 8775TIP3   OH226267   0.351   7.815   6.401
 8775TIP3    H126268   0.385   7.735   6.362
 8775TIP3    H226269   0.283   7.785   6.461
 8776TIP3   OH226270   4.526   2.397   1.016
 8776TIP3    H126271   4.512   2.462   1.085
 8776TIP3    H226272   4.594   2.435   0.961
 8777TIP3   OH226273   0.503   2.030   4.117
 8777TIP3    H126274   0.446   1.958   4.093
 8777TIP3    H226275   0.492   2.039   4.212
 8778TIP3   OH226276   5.908   2.926   4.277
 8778TIP3    H126277   5.914   2.949   4.369
 8778TIP3    H226278   5.823   2.960   4.249
 8779TIP3   OH226279   7.168   7.569   1.894
 8779TIP3    H126280   7.109   7.590   1.821
 8779TIP3    H226281   7.124   7.605   1.971
 8780TIP3   OH226282   2.254   5.023   2.219
 8780TIP3    H126283   2.230   5.039   2.128
 8780TIP3    H226284   2.232   4.931   2.235
 8781TIP3   OH226285   2.412   5.406   2.409
 8781TIP3    H126286   2.350   5.432   2.341
 8781TIP3    H226287   2.497   5.440   2.379
 8782TIP3   OH226288   4.637   3.484   0.525
 8782TIP3    H126289   4.547   3.508   0.548
 8782TIP3    H226290   4.682   3.477   0.610
 8783TIP3   OH226291   7.178   2.585   0.795
 8783TIP3    H126292   7.132   2.652   0.846
 8783TIP3    H226293   7.111   2.548   0.738
 8784TIP3   OH226294   6.557   0.427   4.003
 8784TIP3    H126295   6.488   0.485   4.033
 8784TIP3    H226296   6.587   0.465   3.920
 8785TIP3   OH226297   0.218   3.908   2.387
 8785TIP3    H126298   0.294   3.961   2.413
 8785TIP3    H226299   0.256   3.828   2.352
 8786TIP3   OH226300   7.070   7.498   5.161
 8786TIP3    H126301   7.073   7.457   5.248
 8786TIP3    H226302   7.024   7.435   5.107
 8787TIP3   OH226303   0.091   7.081   4.379
 8787TIP3    H126304   0.180   7.085   4.415
 8787TIP3    H226305   0.038   7.050   4.452
 8788TIP3   OH226306   5.218   7.374   1.133
 8788TIP3    H126307   5.134   7.420   1.133
 8788TIP3    H226308   5.196   7.284   1.109
 8789TIP3   OH226309   2.803   1.381   2.750
 8789TIP3    H126310   2.796   1.295   2.710
 8789TIP3    H226311   2.719   1.396   2.792
 8790TIP3   OH226312   6.280   5.042   3.926
 8790TIP3    H126313   6.337   5.101   3.877
 8790TIP3    H226314   6.193   5.081   3.919
 8791TIP3   OH226315   5.987   4.461   4.576
 8791TIP3    H126316   5.926   4.393   4.548
 8791TIP3    H226317   5.940   4.543   4.561
 8792TIP3   OH226318   2.470   6.385   1.859
 8792TIP3    H126319   2.555   6.429   1.864
 8792TIP3    H226320   2.473   6.320   1.929
 8793TIP3   OH226321   2.054   0.811   4.045
 8793TIP3    H126322   2.038   0.905   4.033
 8793TIP3    H226323   2.016   0.770   3.968
 8794TIP3   OH226324   6.562   5.934   1.175
 8794TIP3    H126325   6.569   5.932   1.271
 8794TIP3    H226326   6.640   5.887   1.144
 8795TIP3   OH226327   3.256   1.018   1.227
 8795TIP3    H126328   3.167   1.049   1.246
 8795TIP3    H226329   3.262   1.023   1.131
 8796TIP3   OH226330   5.231   5.563   4.387
 8796TIP3    H126331   5.212   5.477   4.424
 8796TIP3    H226332   5.146   5.602   4.369
 8797TIP3   OH226333   1.971   0.000   1.646
 8797TIP3    H126334   2.034   0.071   1.642
 8797TIP3    H226335   1.981  -0.036   1.735
 8798TIP3   OH226336   2.986   4.566   1.602
 8798TIP3    H126337   3.024   4.634   1.657
 8798TIP3    H226338   2.952   4.614   1.526
 8799TIP3   OH226339   2.126   3.977   0.967
 8799TIP3    H126340   2.159   4.006   0.882
 8799TIP3    H226341   2.205   3.959   1.018
 8800TIP3   OH226342   6.160   3.310   0.566
 8800TIP3    H126343   6.226   3.375   0.541
 8800TIP3    H226344   6.206   3.251   0.626
 8801TIP3   OH226345   1.564   7.645   6.661
 8801TIP3    H126346   1.636   7.598   6.704
 8801TIP3    H226347   1.547   7.720   6.717
 8802TIP3   OH226348   6.509   7.220   6.504
 8802TIP3    H126349   6.488   7.305   6.542
 8802TIP3    H226350   6.579   7.185   6.559
 8803TIP3   OH226351   7.700   0.978   2.152
 8803TIP3    H126352   7.776   0.979   2.210
 8803TIP3    H226353   7.723   0.913   2.084
 8804TIP3   OH226354   4.750   5.809   5.549
 8804TIP3    H126355   4.689   5.847   5.487
 8804TIP3    H226356   4.832   5.856   5.535
 8805TIP3   OH226357   3.544   4.993   6.085
 8805TIP3    H126358   3.561   5.078   6.127
 8805TIP3    H226359   3.453   4.974   6.106
 8806TIP3   OH226360   2.489   3.319   4.199
 8806TIP3    H126361   2.484   3.244   4.259
 8806TIP3    H226362   2.398   3.337   4.175
 8807TIP3   OH226363   5.126   3.811   4.690
 8807TIP3    H126364   5.152   3.900   4.713
 8807TIP3    H226365   5.071   3.783   4.763
 8808TIP3   OH226366   3.890   2.015   6.773
 8808TIP3    H126367   3.815   1.956   6.778
 8808TIP3    H226368   3.952   1.970   6.715
 8809TIP3   OH226369   0.615   0.257   4.921
 8809TIP3    H126370   0.688   0.296   4.871
 8809TIP3    H226371   0.586   0.327   4.979
 8810TIP3   OH226372   4.119   0.053   6.555
 8810TIP3    H126373   4.200   0.102   6.568
 8810TIP3    H226374   4.058   0.090   6.618
 8811TIP3   OH226375   3.630   0.058   2.315
 8811TIP3    H126376   3.577   0.137   2.324
 8811TIP3    H226377   3.721   0.089   2.315
 8812TIP3   OH226378   5.449   0.408   5.443
 8812TIP3    H126379   5.364   0.394   5.400
 8812TIP3    H226380   5.491   0.476   5.391
 8813TIP3   OH226381   1.028   7.380   3.645
 8813TIP3    H126382   1.028   7.440   3.570
 8813TIP3    H226383   1.090   7.311   3.621
 8814TIP3   OH226384   8.028   5.718   5.307
 8814TIP3    H126385   8.014   5.675   5.391
 8814TIP3    H226386   8.123   5.713   5.293
 8815TIP3   OH226387   3.910   5.629   2.226
 8815TIP3    H126388   3.957   5.564   2.174
 8815TIP3    H226389   3.919   5.599   2.316
 8816TIP3   OH226390   7.107   1.770   2.304
 8816TIP3    H126391   7.013   1.768   2.322
 8816TIP3    H226392   7.114   1.809   2.217
 8817TIP3   OH226393   4.921   7.216   4.323
 8817TIP3    H126394   4.857   7.270   4.369
 8817TIP3    H226395   4.934   7.260   4.239
 8818TIP3   OH226396   5.901   0.534   2.326
 8818TIP3    H126397   5.866   0.617   2.292
 8818TIP3    H226398   5.968   0.509   2.263
 8819TIP3   OH226399   4.400   3.020   0.737
 8819TIP3    H126400   4.375   3.047   0.825
 8819TIP3    H226401   4.319   2.991   0.696
 8820TIP3   OH226402   5.459   4.061   2.028
 8820TIP3    H126403   5.378   4.075   2.077
 8820TIP3    H226404   5.445   4.106   1.945
 8821TIP3   OH226405   7.205   2.638   6.064
 8821TIP3    H126406   7.164   2.693   6.131
 8821TIP3    H226407   7.288   2.610   6.104
 8822TIP3   OH226408   6.950   3.786   1.888
 8822TIP3    H126409   6.861   3.814   1.907
 8822TIP3    H226410   7.003   3.823   1.960
 8823TIP3   OH226411   1.307   1.827   3.784
 8823TIP3    H126412   1.300   1.735   3.811
 8823TIP3    H226413   1.372   1.828   3.715
 8824TIP3   OH226414   3.950   2.617   6.406
 8824TIP3    H126415   3.907   2.602   6.322
 8824TIP3    H226416   3.996   2.700   6.395
 8825TIP3   OH226417   7.693   1.737   2.325
 8825TIP3    H126418   7.647   1.661   2.289
 8825TIP3    H226419   7.624   1.789   2.367
 8826TIP3   OH226420   1.806   5.150   0.976
 8826TIP3    H126421   1.881   5.167   1.032
 8826TIP3    H226422   1.731   5.181   1.026
 8827TIP3   OH226423   0.763   6.899   2.487
 8827TIP3    H126424   0.730   6.963   2.425
 8827TIP3    H226425   0.848   6.932   2.514
 8828TIP3   OH226426   4.169   0.693   3.956
 8828TIP3    H126427   4.171   0.612   3.904
 8828TIP3    H226428   4.128   0.667   4.039
 8829TIP3   OH226429   5.183   0.957   3.322
 8829TIP3    H126430   5.248   0.972   3.253
 8829TIP3    H226431   5.140   0.875   3.298
 8830TIP3   OH226432   2.315   1.939   5.190
 8830TIP3    H126433   2.372   1.996   5.242
 8830TIP3    H226434   2.341   1.850   5.216
 8831TIP3   OH226435   5.024   5.759   0.784
 8831TIP3    H126436   5.114   5.726   0.790
 8831TIP3    H226437   4.971   5.692   0.827
 8832TIP3   OH226438   1.118   6.959   2.204
 8832TIP3    H126439   1.065   7.003   2.270
 8832TIP3    H226440   1.190   6.919   2.254
 8833TIP3   OH226441   7.629   5.200   1.648
 8833TIP3    H126442   7.608   5.263   1.579
 8833TIP3    H226443   7.722   5.181   1.634
 8834TIP3   OH226444   0.392   0.817   2.637
 8834TIP3    H126445   0.479   0.836   2.603
 8834TIP3    H226446   0.406   0.749   2.702
 8835TIP3   OH226447   0.866   2.522   0.981
 8835TIP3    H126448   0.848   2.561   0.896
 8835TIP3    H226449   0.859   2.428   0.967
 8836TIP3   OH226450   2.090   5.516   5.238
 8836TIP3    H126451   2.119   5.607   5.231
 8836TIP3    H226452   2.147   5.478   5.305
 8837TIP3   OH226453   1.001   4.808   4.744
 8837TIP3    H126454   0.999   4.756   4.825
 8837TIP3    H226455   1.090   4.842   4.740
 8838TIP3   OH226456   3.671   6.866   1.476
 8838TIP3    H126457   3.682   6.961   1.474
 8838TIP3    H226458   3.676   6.839   1.384
 8839TIP3   OH226459   5.394   1.957   5.266
 8839TIP3    H126460   5.300   1.938   5.270
 8839TIP3    H226461   5.405   2.011   5.187
 8840TIP3   OH226462   7.823   4.955   2.486
 8840TIP3    H126463   7.738   4.954   2.442
 8840TIP3    H226464   7.887   4.962   2.415
 8841TIP3   OH226465   6.168   0.593   5.474
 8841TIP3    H126466   6.091   0.649   5.485
 8841TIP3    H226467   6.223   0.640   5.411
 8842TIP3   OH226468   2.387   0.714   4.469
 8842TIP3    H126469   2.342   0.751   4.393
 8842TIP3    H226470   2.478   0.742   4.459
 8843TIP3   OH226471   3.968   0.141   0.657
 8843TIP3    H126472   3.972   0.142   0.561
 8843TIP3    H226473   3.942   0.230   0.680
 8844TIP3   OH226474   0.182   6.199   5.588
 8844TIP3    H126475   0.236   6.212   5.510
 8844TIP3    H226476   0.235   6.143   5.645
 8845TIP3   OH226477   0.448   3.238   6.758
 8845TIP3    H126478   0.437   3.174   6.688
 8845TIP3    H226479   0.524   3.290   6.732
 8846TIP3   OH226480   3.182   3.792   3.482
 8846TIP3    H126481   3.170   3.848   3.558
 8846TIP3    H226482   3.190   3.853   3.408
 8847TIP3   OH226483   8.033   5.484   3.591
 8847TIP3    H126484   7.957   5.502   3.535
 8847TIP3    H226485   8.061   5.570   3.622
 8848TIP3   OH226486   3.468   4.683   5.143
 8848TIP3    H126487   3.521   4.621   5.093
 8848TIP3    H226488   3.533   4.734   5.193
 8849TIP3   OH226489   7.922   4.625   5.576
 8849TIP3    H126490   7.868   4.692   5.535
 8849TIP3    H226491   7.862   4.575   5.631
 8850TIP3   OH226492   1.411   3.980   0.461
 8850TIP3    H126493   1.454   3.939   0.537
 8850TIP3    H226494   1.397   3.908   0.400
 8851TIP3   OH226495   6.134   7.423   6.344
 8851TIP3    H126496   6.196   7.349   6.338
 8851TIP3    H226497   6.109   7.426   6.436
 8852TIP3   OH226498   2.851   3.650   2.364
 8852TIP3    H126499   2.767   3.606   2.378
 8852TIP3    H226500   2.909   3.580   2.333
 8853TIP3   OH226501   4.595   3.656   4.861
 8853TIP3    H126502   4.680   3.699   4.867
 8853TIP3    H226503   4.538   3.720   4.819
 8854TIP3   OH226504   2.754   7.697   2.476
 8854TIP3    H126505   2.848   7.700   2.458
 8854TIP3    H226506   2.714   7.738   2.399
 8855TIP3   OH226507   7.795   2.221   0.114
 8855TIP3    H126508   7.784   2.211   0.209
 8855TIP3    H226509   7.872   2.277   0.104
 8856TIP3   OH226510   5.775   6.522   6.105
 8856TIP3    H126511   5.695   6.485   6.068
 8856TIP3    H226512   5.778   6.489   6.195
 8857TIP3   OH226513   7.786   1.718   1.365
 8857TIP3    H126514   7.809   1.785   1.429
 8857TIP3    H226515   7.820   1.751   1.282
 8858TIP3   OH226516   5.930   3.852   4.050
 8858TIP3    H126517   5.906   3.867   3.959
 8858TIP3    H226518   5.915   3.759   4.065
 8859TIP3   OH226519   5.628   4.469   3.948
 8859TIP3    H126520   5.552   4.412   3.959
 8859TIP3    H226521   5.660   4.449   3.860
 8860TIP3   OH226522   5.093   2.451   3.096
 8860TIP3    H126523   5.157   2.486   3.034
 8860TIP3    H226524   5.059   2.527   3.142
 8861TIP3   OH226525   1.461   0.266   6.069
 8861TIP3    H126526   1.452   0.270   6.164
 8861TIP3    H226527   1.372   0.279   6.036
 8862TIP3   OH226528   3.112   6.489   4.487
 8862TIP3    H126529   3.128   6.436   4.565
 8862TIP3    H226530   3.105   6.578   4.520
 8863TIP3   OH226531   0.958   2.239   3.548
 8863TIP3    H126532   1.042   2.231   3.594
 8863TIP3    H226533   0.929   2.328   3.569
 8864TIP3   OH226534   7.257   5.604   4.249
 8864TIP3    H126535   7.165   5.587   4.228
 8864TIP3    H226536   7.305   5.565   4.177
 8865TIP3   OH226537   4.465   0.994   0.703
 8865TIP3    H126538   4.452   0.953   0.618
 8865TIP3    H226539   4.382   0.980   0.749
 8866TIP3   OH226540   7.806   3.671   2.303
 8866TIP3    H126541   7.894   3.634   2.303
 8866TIP3    H226542   7.797   3.713   2.217
 8867TIP3   OH226543   2.473   3.154   1.394
 8867TIP3    H126544   2.518   3.171   1.312
 8867TIP3    H226545   2.380   3.164   1.374
 8868TIP3   OH226546   6.930   0.635   6.168
 8868TIP3    H126547   6.905   0.714   6.216
 8868TIP3    H226548   7.025   0.641   6.158
 8869TIP3   OH226549   3.835   6.253   6.324
 8869TIP3    H126550   3.888   6.184   6.364
 8869TIP3    H226551   3.869   6.262   6.236
 8870TIP3   OH226552   1.550   4.854   5.264
 8870TIP3    H126553   1.572   4.931   5.212
 8870TIP3    H226554   1.503   4.796   5.203
 8871TIP3   OH226555   6.319   0.525   6.538
 8871TIP3    H126556   6.224   0.529   6.554
 8871TIP3    H226557   6.338   0.604   6.488
 8872TIP3   OH226558   3.568   5.374   5.812
 8872TIP3    H126559   3.546   5.467   5.809
 8872TIP3    H226560   3.524   5.341   5.890
 8873TIP3   OH226561   4.179   6.831   2.831
 8873TIP3    H126562   4.247   6.763   2.834
 8873TIP3    H226563   4.148   6.837   2.922
 8874TIP3   OH226564   4.524   3.670   2.720
 8874TIP3    H126565   4.541   3.756   2.681
 8874TIP3    H226566   4.600   3.653   2.775
 8875TIP3   OH226567   7.989   2.713   4.232
 8875TIP3    H126568   7.901   2.728   4.197
 8875TIP3    H226569   7.988   2.753   4.319
 8876TIP3   OH226570   7.072   1.598   3.280
 8876TIP3    H126571   7.016   1.525   3.254
 8876TIP3    H226572   7.128   1.562   3.349
 8877TIP3   OH226573   6.070   2.598   1.602
 8877TIP3    H126574   6.040   2.688   1.598
 8877TIP3    H226575   6.034   2.556   1.524
 8878TIP3   OH226576   1.944   0.317   6.646
 8878TIP3    H126577   2.001   0.328   6.569
 8878TIP3    H226578   1.923   0.224   6.647
 8879TIP3   OH226579   0.583   1.359   3.066
 8879TIP3    H126580   0.589   1.401   2.980
 8879TIP3    H226581   0.561   1.430   3.126
 8880TIP3   OH226582   3.134   7.195   6.487
 8880TIP3    H126583   3.140   7.106   6.452
 8880TIP3    H226584   3.078   7.241   6.425
 8881TIP3   OH226585   3.604   4.470   3.591
 8881TIP3    H126586   3.670   4.471   3.660
 8881TIP3    H226587   3.559   4.554   3.600
 8882TIP3   OH226588   5.824   4.517   0.563
 8882TIP3    H126589   5.732   4.532   0.540
 8882TIP3    H226590   5.865   4.602   0.552
 8883TIP3   OH226591   3.584   7.559   3.409
 8883TIP3    H126592   3.564   7.466   3.405
 8883TIP3    H226593   3.620   7.580   3.322
 8884TIP3   OH226594   4.740   2.163   4.618
 8884TIP3    H126595   4.667   2.215   4.585
 8884TIP3    H226596   4.760   2.101   4.547
 8885TIP3   OH226597   5.881   5.973   1.147
 8885TIP3    H126598   5.966   5.976   1.189
 8885TIP3    H226599   5.829   5.912   1.200
 8886TIP3   OH226600   7.301   1.776   3.334
 8886TIP3    H126601   7.267   1.706   3.389
 8886TIP3    H226602   7.259   1.856   3.367
 8887TIP3   OH226603   1.886   1.129   5.867
 8887TIP3    H126604   1.816   1.141   5.802
 8887TIP3    H226605   1.933   1.213   5.866
 8888TIP3   OH226606   7.582   1.316   5.524
 8888TIP3    H126607   7.619   1.345   5.607
 8888TIP3    H226608   7.649   1.260   5.485
 8889TIP3   OH226609   6.408   3.582   2.682
 8889TIP3    H126610   6.399   3.529   2.761
 8889TIP3    H226611   6.502   3.602   2.677
 8890TIP3   OH226612   7.216   6.692   5.550
 8890TIP3    H126613   7.215   6.687   5.455
 8890TIP3    H226614   7.181   6.607   5.578
 8891TIP3   OH226615   5.290   4.932   0.896
 8891TIP3    H126616   5.380   4.911   0.871
 8891TIP3    H226617   5.286   5.027   0.893
 8892TIP3   OH226618   0.419   3.871   4.159
 8892TIP3    H126619   0.476   3.948   4.165
 8892TIP3    H226620   0.362   3.890   4.084
 8893TIP3   OH226621   4.547   5.322   4.681
 8893TIP3    H126622   4.601   5.399   4.699
 8893TIP3    H226623   4.476   5.326   4.745
 8894TIP3   OH226624   5.253   0.477   0.781
 8894TIP3    H126625   5.200   0.404   0.749
 8894TIP3    H226626   5.231   0.482   0.874
 8895TIP3   OH226627   3.900   5.236   3.215
 8895TIP3    H126628   3.979   5.186   3.234
 8895TIP3    H226629   3.924   5.290   3.139
 8896TIP3   OH226630   7.021   4.452   3.307
 8896TIP3    H126631   7.105   4.421   3.274
 8896TIP3    H226632   6.960   4.439   3.234
 8897TIP3   OH226633   2.354   2.583   3.172
 8897TIP3    H126634   2.288   2.556   3.107
 8897TIP3    H226635   2.321   2.547   3.254
 8898TIP3   OH226636   8.020   6.879   0.371
 8898TIP3    H126637   8.104   6.837   0.351
 8898TIP3    H226638   7.989   6.833   0.449
 8899TIP3   OH226639   2.434   6.395   3.379
 8899TIP3    H126640   2.380   6.379   3.302
 8899TIP3    H226641   2.424   6.489   3.396
 8900TIP3   OH226642   0.153   6.305   1.480
 8900TIP3    H126643   0.202   6.227   1.507
 8900TIP3    H226644   0.076   6.306   1.538
 8901TIP3   OH226645   6.692   4.775   4.762
 8901TIP3    H126646   6.782   4.800   4.739
 8901TIP3    H226647   6.691   4.773   4.857
 8902TIP3   OH226648   5.749   3.811   3.292
 8902TIP3    H126649   5.781   3.895   3.261
 8902TIP3    H226650   5.824   3.753   3.287
 8903TIP3   OH226651   2.374   0.318   0.435
 8903TIP3    H126652   2.455   0.354   0.472
 8903TIP3    H226653   2.326   0.285   0.510
 8904TIP3   OH226654   2.700   4.323   1.647
 8904TIP3    H126655   2.753   4.353   1.721
 8904TIP3    H226656   2.760   4.270   1.595
 8905TIP3   OH226657   1.403   2.526   4.219
 8905TIP3    H126658   1.382   2.556   4.307
 8905TIP3    H226659   1.319   2.524   4.173
 8906TIP3   OH226660   2.136   7.798   6.154
 8906TIP3    H126661   2.155   7.797   6.248
 8906TIP3    H226662   2.159   7.886   6.125
 8907TIP3   OH226663   1.234   2.079   3.826
 8907TIP3    H126664   1.253   1.985   3.824
 8907TIP3    H226665   1.298   2.115   3.887
 8908TIP3   OH226666   7.043   4.009   6.366
 8908TIP3    H126667   6.969   3.968   6.321
 8908TIP3    H226668   7.118   3.988   6.311
 8909TIP3   OH226669   7.099   3.237   3.478
 8909TIP3    H126670   7.105   3.326   3.513
 8909TIP3    H226671   7.162   3.235   3.406
 8910TIP3   OH226672   2.582   0.944   5.904
 8910TIP3    H126673   2.659   0.888   5.898
 8910TIP3    H226674   2.608   1.026   5.861
 8911TIP3   OH226675   2.625   2.095   0.415
 8911TIP3    H126676   2.701   2.041   0.394
 8911TIP3    H226677   2.661   2.174   0.456
 8912TIP3   OH226678   3.004   2.748   0.467
 8912TIP3    H126679   2.967   2.722   0.551
 8912TIP3    H226680   3.074   2.810   0.490
 8913TIP3   OH226681   7.279   4.430   3.208
 8913TIP3    H126682   7.342   4.446   3.137
 8913TIP3    H226683   7.311   4.351   3.251
 8914TIP3   OH226684   5.895   7.565   6.304
 8914TIP3    H126685   5.829   7.504   6.336
 8914TIP3    H226686   5.978   7.517   6.310
 8915TIP3   OH226687   7.556   2.460   2.862
 8915TIP3    H126688   7.561   2.505   2.778
 8915TIP3    H226689   7.638   2.483   2.906
 8916TIP3   OH226690   5.830   1.631   2.844
 8916TIP3    H126691   5.738   1.648   2.824
 8916TIP3    H226692   5.830   1.603   2.936
 8917TIP3   OH226693   2.852   0.210   6.461
 8917TIP3    H126694   2.865   0.123   6.424
 8917TIP3    H226695   2.909   0.213   6.538
 8918TIP3   OH226696   6.406   5.368   1.697
 8918TIP3    H126697   6.456   5.338   1.621
 8918TIP3    H226698   6.332   5.416   1.660
 8919TIP3   OH226699   2.586   5.655   6.396
 8919TIP3    H126700   2.606   5.742   6.431
 8919TIP3    H226701   2.553   5.606   6.472
 8920TIP3   OH226702   4.662   5.431   5.070
 8920TIP3    H126703   4.612   5.458   4.994
 8920TIP3    H226704   4.748   5.405   5.035
 8921TIP3   OH226705   3.749   0.878   4.618
 8921TIP3    H126706   3.828   0.854   4.667
 8921TIP3    H226707   3.677   0.846   4.672
 8922TIP3   OH226708   6.998   7.097   1.853
 8922TIP3    H126709   6.906   7.122   1.866
 8922TIP3    H226710   7.021   7.049   1.932
 8923TIP3   OH226711   1.157   1.693   3.216
 8923TIP3    H126712   1.128   1.775   3.175
 8923TIP3    H226713   1.089   1.673   3.280
 8924TIP3   OH226714   0.719   6.751   1.195
 8924TIP3    H126715   0.627   6.728   1.191
 8924TIP3    H226716   0.749   6.719   1.280
 8925TIP3   OH226717   2.213   4.562   5.802
 8925TIP3    H126718   2.216   4.658   5.812
 8925TIP3    H226719   2.233   4.547   5.710
 8926TIP3   OH226720   1.109   4.788   0.474
 8926TIP3    H126721   1.189   4.772   0.423
 8926TIP3    H226722   1.085   4.879   0.452
 8927TIP3   OH226723   3.619   2.726   6.266
 8927TIP3    H126724   3.620   2.632   6.286
 8927TIP3    H226725   3.654   2.731   6.177
 8928TIP3   OH226726   7.544   5.553   2.336
 8928TIP3    H126727   7.473   5.556   2.272
 8928TIP3    H226728   7.597   5.630   2.316
 8929TIP3   OH226729   6.687   5.476   4.246
 8929TIP3    H126730   6.668   5.512   4.333
 8929TIP3    H226731   6.650   5.387   4.249
 8930TIP3   OH226732   5.215   6.942   6.262
 8930TIP3    H126733   5.169   6.861   6.283
 8930TIP3    H226734   5.278   6.918   6.194
 8931TIP3   OH226735   2.236   6.570   4.788
 8931TIP3    H126736   2.171   6.611   4.731
 8931TIP3    H226737   2.185   6.523   4.853
 8932TIP3   OH226738   6.328   2.144   3.628
 8932TIP3    H126739   6.250   2.195   3.606
 8932TIP3    H226740   6.355   2.177   3.714
 8933TIP3   OH226741   2.570   4.362   4.454
 8933TIP3    H126742   2.581   4.451   4.487
 8933TIP3    H226743   2.475   4.351   4.446
 8934TIP3   OH226744   1.076   0.367   1.367
 8934TIP3    H126745   1.172   0.372   1.369
 8934TIP3    H226746   1.054   0.313   1.443
 8935TIP3   OH226747   3.487   0.940   3.554
 8935TIP3    H126748   3.411   0.937   3.612
 8935TIP3    H226749   3.473   1.017   3.499
 8936TIP3   OH226750   3.260   3.270   6.740
 8936TIP3    H126751   3.191   3.311   6.689
 8936TIP3    H226752   3.214   3.216   6.805
 8937TIP3   OH226753   2.068   6.761   4.276
 8937TIP3    H126754   2.010   6.719   4.213
 8937TIP3    H226755   2.028   6.743   4.362
 8938TIP3   OH226756   0.918   2.738   0.417
 8938TIP3    H126757   0.888   2.787   0.340
 8938TIP3    H226758   0.993   2.687   0.385
 8939TIP3   OH226759   0.460   6.126   0.316
 8939TIP3    H126760   0.543   6.091   0.284
 8939TIP3    H226761   0.450   6.089   0.404
 8940TIP3   OH226762   6.738   1.636   2.096
 8940TIP3    H126763   6.717   1.700   2.029
 8940TIP3    H226764   6.762   1.688   2.173
 8941TIP3   OH226765   0.540   3.370   2.023
 8941TIP3    H126766   0.549   3.390   2.116
 8941TIP3    H226767   0.544   3.275   2.018
 8942TIP3   OH226768   7.111   5.185   6.389
 8942TIP3    H126769   7.082   5.119   6.326
 8942TIP3    H226770   7.081   5.268   6.352
 8943TIP3   OH226771   3.162   3.377   1.213
 8943TIP3    H126772   3.123   3.358   1.128
 8943TIP3    H226773   3.226   3.307   1.226
 8944TIP3   OH226774   6.899   3.057   1.158
 8944TIP3    H126775   6.988   3.058   1.194
 8944TIP3    H226776   6.908   3.015   1.073
 8945TIP3   OH226777   4.169   4.404   1.615
 8945TIP3    H126778   4.134   4.382   1.702
 8945TIP3    H226779   4.176   4.320   1.570
 8946TIP3   OH226780   7.078   7.090   6.082
 8946TIP3    H126781   7.029   7.008   6.081
 8946TIP3    H226782   7.012   7.158   6.090
 8947TIP3   OH226783   2.098   3.406   2.520
 8947TIP3    H126784   2.008   3.433   2.502
 8947TIP3    H226785   2.148   3.438   2.445
 8948TIP3   OH226786   3.391   3.627   2.555
 8948TIP3    H126787   3.361   3.546   2.515
 8948TIP3    H226788   3.480   3.609   2.583
 8949TIP3   OH226789   4.467   6.878   5.279
 8949TIP3    H126790   4.423   6.841   5.355
 8949TIP3    H226791   4.399   6.928   5.234
 8950TIP3   OH226792   3.460   3.342   2.639
 8950TIP3    H126793   3.509   3.346   2.722
 8950TIP3    H226794   3.528   3.337   2.572
 8951TIP3   OH226795   7.944   1.707   4.924
 8951TIP3    H126796   7.971   1.689   4.834
 8951TIP3    H226797   8.026   1.722   4.971
 8952TIP3   OH226798   7.466   5.556   4.595
 8952TIP3    H126799   7.456   5.552   4.690
 8952TIP3    H226800   7.557   5.583   4.581
 8953TIP3   OH226801   3.864   7.311   2.120
 8953TIP3    H126802   3.859   7.305   2.216
 8953TIP3    H226803   3.776   7.286   2.091
 8954TIP3   OH226804   0.689   7.449   4.709
 8954TIP3    H126805   0.620   7.507   4.743
 8954TIP3    H226806   0.752   7.443   4.781
 8955TIP3   OH226807   7.075   6.432   4.695
 8955TIP3    H126808   7.056   6.429   4.601
 8955TIP3    H226809   6.990   6.450   4.735
 8956TIP3   OH226810   6.631   2.034   4.072
 8956TIP3    H126811   6.673   2.059   3.990
 8956TIP3    H226812   6.539   2.022   4.048
 8957TIP3   OH226813   4.592   5.622   1.215
 8957TIP3    H126814   4.529   5.651   1.282
 8957TIP3    H226815   4.551   5.544   1.176
 8958TIP3   OH226816   4.382   4.587   5.394
 8958TIP3    H126817   4.404   4.500   5.363
 8958TIP3    H226818   4.305   4.574   5.450
 8959TIP3   OH226819   4.703   5.114   5.737
 8959TIP3    H126820   4.658   5.074   5.663
 8959TIP3    H226821   4.681   5.058   5.812
 8960TIP3   OH226822   2.271   1.387   1.126
 8960TIP3    H126823   2.221   1.366   1.047
 8960TIP3    H226824   2.315   1.469   1.104
 8961TIP3   OH226825   3.931   5.063   5.082
 8961TIP3    H126826   3.969   5.030   5.001
 8961TIP3    H226827   3.856   5.116   5.054
 8962TIP3   OH226828   6.630   5.099   2.080
 8962TIP3    H126829   6.541   5.134   2.077
 8962TIP3    H226830   6.659   5.096   1.989
 8963TIP3   OH226831   5.606   2.363   3.279
 8963TIP3    H126832   5.680   2.321   3.321
 8963TIP3    H226833   5.539   2.367   3.347
 8964TIP3   OH226834   6.533   5.402   4.630
 8964TIP3    H126835   6.614   5.366   4.593
 8964TIP3    H226836   6.533   5.494   4.602
 8965TIP3   OH226837   1.537   4.429   5.350
 8965TIP3    H126838   1.628   4.447   5.325
 8965TIP3    H226839   1.492   4.512   5.335
 8966TIP3   OH226840   0.114   3.797   4.742
 8966TIP3    H126841   0.074   3.731   4.797
 8966TIP3    H226842   0.097   3.880   4.787
 8967TIP3   OH226843   0.456   0.644   0.281
 8967TIP3    H126844   0.525   0.624   0.345
 8967TIP3    H226845   0.375   0.645   0.333
 8968TIP3   OH226846   1.100   6.607   5.332
 8968TIP3    H126847   1.059   6.693   5.342
 8968TIP3    H226848   1.159   6.600   5.407
 8969TIP3   OH226849   5.504   6.538   5.273
 8969TIP3    H126850   5.559   6.473   5.230
 8969TIP3    H226851   5.448   6.572   5.203
 8970TIP3   OH226852   0.694   7.383   6.170
 8970TIP3    H126853   0.676   7.422   6.256
 8970TIP3    H226854   0.611   7.392   6.123
 8971TIP3   OH226855   1.441   2.470   3.627
 8971TIP3    H126856   1.528   2.431   3.642
 8971TIP3    H226857   1.391   2.447   3.706
 8972TIP3   OH226858   3.987   4.231   6.225
 8972TIP3    H126859   4.038   4.261   6.301
 8972TIP3    H226860   3.961   4.142   6.248
 8973TIP3   OH226861   4.703   6.776   3.689
 8973TIP3    H126862   4.612   6.800   3.671
 8973TIP3    H226863   4.733   6.841   3.752
 8974TIP3   OH226864   0.461   0.960   3.225
 8974TIP3    H126865   0.416   1.034   3.185
 8974TIP3    H226866   0.397   0.889   3.223
 8975TIP3   OH226867   3.396   2.266   4.769
 8975TIP3    H126868   3.409   2.290   4.677
 8975TIP3    H226869   3.406   2.171   4.771
 8976TIP3   OH226870   3.776   7.827   4.045
 8976TIP3    H126871   3.852   7.867   4.087
 8976TIP3    H226872   3.812   7.766   3.981
 8977TIP3   OH226873   6.307   1.975   4.360
 8977TIP3    H126874   6.391   2.011   4.330
 8977TIP3    H226875   6.241   2.035   4.324
 8978TIP3   OH226876   6.264   6.126   4.253
 8978TIP3    H126877   6.216   6.043   4.245
 8978TIP3    H226878   6.317   6.116   4.331
 8979TIP3   OH226879   5.019   4.896   5.575
 8979TIP3    H126880   5.040   4.955   5.502
 8979TIP3    H226881   5.060   4.937   5.651
 8980TIP3   OH226882   1.865   2.254   5.406
 8980TIP3    H126883   1.788   2.197   5.412
 8980TIP3    H226884   1.907   2.230   5.324
 8981TIP3   OH226885   2.650   1.646   5.339
 8981TIP3    H126886   2.580   1.680   5.284
 8981TIP3    H226887   2.697   1.585   5.282
 8982TIP3   OH226888   3.450   6.320   0.300
 8982TIP3    H126889   3.360   6.287   0.306
 8982TIP3    H226890   3.442   6.408   0.264
 8983TIP3   OH226891   3.350   3.532   3.683
 8983TIP3    H126892   3.258   3.520   3.659
 8983TIP3    H226893   3.348   3.588   3.760
 8984TIP3   OH226894   7.315   2.400   6.473
 8984TIP3    H126895   7.355   2.388   6.559
 8984TIP3    H226896   7.363   2.340   6.416
 8985TIP3   OH226897   7.872   0.816   1.498
 8985TIP3    H126898   7.864   0.890   1.437
 8985TIP3    H226899   7.924   0.851   1.571
 8986TIP3   OH226900   1.685   2.166   0.005
 8986TIP3    H126901   1.683   2.116   0.087
 8986TIP3    H226902   1.656   2.254   0.031
 8987TIP3   OH226903   5.702   7.583   1.271
 8987TIP3    H126904   5.697   7.676   1.250
 8987TIP3    H226905   5.772   7.550   1.215
 8988TIP3   OH226906   5.616   3.289   5.424
 8988TIP3    H126907   5.640   3.349   5.494
 8988TIP3    H226908   5.553   3.229   5.464
 8989TIP3   OH226909   8.086   2.326   4.946
 8989TIP3    H126910   8.132   2.318   5.030
 8989TIP3    H226911   8.149   2.372   4.889
 8990TIP3   OH226912   8.099   2.158   0.666
 8990TIP3    H126913   8.126   2.156   0.758
 8990TIP3    H226914   8.003   2.165   0.670
 8991TIP3   OH226915   1.388   2.397   1.583
 8991TIP3    H126916   1.375   2.449   1.504
 8991TIP3    H226917   1.405   2.309   1.551
 8992TIP3   OH226918   7.357   2.565   3.326
 8992TIP3    H126919   7.374   2.482   3.370
 8992TIP3    H226920   7.413   2.629   3.370
 8993TIP3   OH226921   3.784   6.836   6.332
 8993TIP3    H126922   3.748   6.921   6.309
 8993TIP3    H226923   3.864   6.828   6.279
 8994TIP3   OH226924   2.534   4.195   5.318
 8994TIP3    H126925   2.607   4.171   5.261
 8994TIP3    H226926   2.478   4.117   5.319
 8995TIP3   OH226927   7.142   3.618   6.494
 8995TIP3    H126928   7.164   3.529   6.465
 8995TIP3    H226929   7.166   3.619   6.586
 8996TIP3   OH226930   7.317   4.033   5.606
 8996TIP3    H126931   7.326   4.082   5.524
 8996TIP3    H226932   7.319   4.100   5.675
 8997TIP3   OH226933   3.298   6.367   3.943
 8997TIP3    H126934   3.218   6.418   3.956
 8997TIP3    H226935   3.267   6.276   3.934
 8998TIP3   OH226936   1.625   0.665   2.911
 8998TIP3    H126937   1.640   0.742   2.966
 8998TIP3    H226938   1.535   0.639   2.929
 8999TIP3   OH226939   5.565   4.934   4.341
 8999TIP3    H126940   5.513   4.925   4.261
 8999TIP3    H226941   5.654   4.950   4.310
 9000TIP3   OH226942   4.421   4.505   4.244
 9000TIP3    H126943   4.380   4.589   4.267
 9000TIP3    H226944   4.405   4.496   4.150
 9001TIP3   OH226945   4.370   2.527   5.297
 9001TIP3    H126946   4.421   2.449   5.278
 9001TIP3    H226947   4.292   2.519   5.242
 9002TIP3   OH226948   5.967   2.730   0.368
 9002TIP3    H126949   6.037   2.792   0.390
 9002TIP3    H226950   5.943   2.753   0.278
 9003TIP3   OH226951   7.979   7.288   1.619
 9003TIP3    H126952   8.034   7.258   1.546
 9003TIP3    H226953   8.029   7.264   1.698
 9004TIP3   OH226954   0.841   6.913   4.546
 9004TIP3    H126955   0.879   6.888   4.462
 9004TIP3    H226956   0.782   6.985   4.525
 9005TIP3   OH226957   6.859   5.318   1.045
 9005TIP3    H126958   6.873   5.413   1.048
 9005TIP3    H226959   6.944   5.282   1.019
 9006TIP3   OH226960   4.414   4.643   1.921
 9006TIP3    H126961   4.401   4.720   1.866
 9006TIP3    H226962   4.418   4.570   1.858
 9007TIP3   OH226963   0.614   3.922   4.979
 9007TIP3    H126964   0.655   3.998   5.019
 9007TIP3    H226965   0.539   3.902   5.034
 9008TIP3   OH226966   3.571   5.962   5.155
 9008TIP3    H126967   3.484   5.937   5.186
 9008TIP3    H226968   3.631   5.903   5.201
 9009TIP3   OH226969   7.728   1.966   5.163
 9009TIP3    H126970   7.754   2.056   5.144
 9009TIP3    H226971   7.779   1.942   5.240
 9010TIP3   OH226972   6.202   0.151   4.457
 9010TIP3    H126973   6.113   0.166   4.487
 9010TIP3    H226974   6.221   0.226   4.399
 9011TIP3   OH226975   3.639   3.920   2.301
 9011TIP3    H126976   3.587   3.996   2.327
 9011TIP3    H226977   3.645   3.926   2.206
 9012TIP3   OH226978   7.332   1.704   4.585
 9012TIP3    H126979   7.401   1.752   4.630
 9012TIP3    H226980   7.303   1.764   4.515
 9013TIP3   OH226981   6.956   5.559   6.573
 9013TIP3    H126982   7.048   5.580   6.593
 9013TIP3    H226983   6.953   5.464   6.574
 9014TIP3   OH226984   2.794   4.428   3.510
 9014TIP3    H126985   2.765   4.368   3.579
 9014TIP3    H226986   2.863   4.381   3.464
 9015TIP3   OH226987   2.584   6.504   1.383
 9015TIP3    H126988   2.519   6.437   1.358
 9015TIP3    H226989   2.588   6.562   1.308
 9016TIP3   OH226990   3.142   3.601   0.559
 9016TIP3    H126991   3.136   3.543   0.635
 9016TIP3    H226992   3.073   3.571   0.500
 9017TIP3   OH226993   3.443   5.248   4.969
 9017TIP3    H126994   3.385   5.321   4.944
 9017TIP3    H226995   3.447   5.193   4.891
 9018TIP3   OH226996   6.032   6.596   0.499
 9018TIP3    H126997   6.041   6.685   0.533
 9018TIP3    H226998   5.939   6.587   0.478
 9019TIP3   OH226999   2.745   1.945   6.484
 9019TIP3    H127000   2.658   1.986   6.480
 9019TIP3    H227001   2.778   1.969   6.571
 9020TIP3   OH227002   4.055   1.483   3.997
 9020TIP3    H127003   4.142   1.472   4.035
 9020TIP3    H227004   4.071   1.507   3.906
 9021TIP3   OH227005   6.089   0.831   2.445
 9021TIP3    H127006   6.055   0.780   2.518
 9021TIP3    H227007   6.137   0.903   2.486
 9022TIP3   OH227008   3.994   6.332   0.251
 9022TIP3    H127009   3.980   6.311   0.344
 9022TIP3    H227010   3.907   6.322   0.212
 9023TIP3   OH227011   4.508   1.007   6.358
 9023TIP3    H127012   4.562   1.085   6.368
 9023TIP3    H227013   4.556   0.938   6.405
 9024TIP3   OH227014   2.019   1.989   1.671
 9024TIP3    H127015   1.983   1.912   1.715
 9024TIP3    H227016   2.077   1.953   1.604
 9025TIP3   OH227017   2.712   7.778   5.484
 9025TIP3    H127018   2.624   7.745   5.502
 9025TIP3    H227019   2.735   7.829   5.562
 9026TIP3   OH227020   2.733   7.840   2.909
 9026TIP3    H127021   2.765   7.753   2.885
 9026TIP3    H227022   2.669   7.823   2.978
 9027TIP3   OH227023   4.812   2.948   1.108
 9027TIP3    H127024   4.879   3.015   1.125
 9027TIP3    H227025   4.769   2.977   1.027
 9028TIP3   OH227026   2.412   5.201   3.667
 9028TIP3    H127027   2.404   5.158   3.582
 9028TIP3    H227028   2.365   5.143   3.727
 9029TIP3   OH227029   4.726   6.349   3.522
 9029TIP3    H127030   4.746   6.415   3.456
 9029TIP3    H227031   4.806   6.343   3.575
 9030TIP3   OH227032   3.584   5.587   6.392
 9030TIP3    H127033   3.625   5.537   6.321
 9030TIP3    H227034   3.574   5.675   6.356
 9031TIP3   OH227035   1.687   6.244   3.749
 9031TIP3    H127036   1.694   6.248   3.845
 9031TIP3    H227037   1.628   6.170   3.733
 9032TIP3   OH227038   2.752   0.339   4.306
 9032TIP3    H127039   2.835   0.334   4.257
 9032TIP3    H227040   2.739   0.432   4.322
 9033TIP3   OH227041   4.379   2.233   1.427
 9033TIP3    H127042   4.413   2.154   1.385
 9033TIP3    H227043   4.383   2.214   1.521
 9034TIP3   OH227044   3.479   4.935   3.781
 9034TIP3    H127045   3.548   4.983   3.736
 9034TIP3    H227046   3.403   4.994   3.780
 9035TIP3   OH227047   4.665   5.653   0.580
 9035TIP3    H127048   4.611   5.601   0.639
 9035TIP3    H227049   4.613   5.731   0.561
 9036TIP3   OH227050   4.091   6.663   3.069
 9036TIP3    H127051   4.063   6.590   3.124
 9036TIP3    H227052   4.087   6.629   2.980
 9037TIP3   OH227053   6.377   6.147   3.581
 9037TIP3    H127054   6.366   6.101   3.498
 9037TIP3    H227055   6.383   6.077   3.647
 9038TIP3   OH227056   1.206   6.019   0.033
 9038TIP3    H127057   1.271   5.952   0.056
 9038TIP3    H227058   1.253   6.101   0.042
 9039TIP3   OH227059   4.674   5.828   0.171
 9039TIP3    H127060   4.611   5.784   0.115
 9039TIP3    H227061   4.707   5.758   0.229
 9040TIP3   OH227062   5.834   7.019   1.304
 9040TIP3    H127063   5.786   7.069   1.238
 9040TIP3    H227064   5.834   6.929   1.271
 9041TIP3   OH227065   3.011   6.632   0.161
 9041TIP3    H127066   3.059   6.715   0.158
 9041TIP3    H227067   3.067   6.569   0.116
 9042TIP3   OH227068   4.082   3.881   2.283
 9042TIP3    H127069   4.051   3.827   2.356
 9042TIP3    H227070   4.145   3.826   2.237
 9043TIP3   OH227071   5.720   3.057   2.024
 9043TIP3    H127072   5.799   3.003   2.029
 9043TIP3    H227073   5.748   3.136   1.978
 9044TIP3   OH227074   1.436   5.842   1.524
 9044TIP3    H127075   1.434   5.768   1.586
 9044TIP3    H227076   1.463   5.917   1.577
 9045TIP3   OH227077   1.332   7.007   4.194
 9045TIP3    H127078   1.360   7.062   4.121
 9045TIP3    H227079   1.243   6.978   4.171
 9046TIP3   OH227080   0.158   6.101   2.517
 9046TIP3    H127081   0.150   6.172   2.581
 9046TIP3    H227082   0.242   6.060   2.536
 9047TIP3   OH227083   2.208   1.778   0.421
 9047TIP3    H127084   2.283   1.837   0.424
 9047TIP3    H227085   2.135   1.832   0.452
 9048TIP3   OH227086   2.450   1.002   4.183
 9048TIP3    H127087   2.475   1.087   4.221
 9048TIP3    H227088   2.361   1.016   4.151
 9049TIP3   OH227089   7.280   5.151   2.431
 9049TIP3    H127090   7.192   5.183   2.413
 9049TIP3    H227091   7.321   5.222   2.480
 9050TIP3   OH227092   4.069   4.406   0.074
 9050TIP3    H127093   4.099   4.333   0.019
 9050TIP3    H227094   4.042   4.364   0.156
 9051TIP3   OH227095   3.156   7.002   0.919
 9051TIP3    H127096   3.090   7.042   0.976
 9051TIP3    H227097   3.153   6.909   0.941
 9052TIP3   OH227098   2.905   6.123   2.786
 9052TIP3    H127099   2.988   6.150   2.824
 9052TIP3    H227100   2.848   6.199   2.794
 9053TIP3   OH227101   1.200   5.879   1.196
 9053TIP3    H127102   1.127   5.940   1.196
 9053TIP3    H227103   1.190   5.829   1.277
 9054TIP3   OH227104   1.529   5.504   3.038
 9054TIP3    H127105   1.571   5.424   3.069
 9054TIP3    H227106   1.509   5.486   2.947
 9055TIP3   OH227107   5.124   6.730   3.781
 9055TIP3    H127108   5.159   6.783   3.710
 9055TIP3    H227109   5.066   6.667   3.738
 9056TIP3   OH227110   6.830   2.290   1.203
 9056TIP3    H127111   6.839   2.375   1.247
 9056TIP3    H227112   6.882   2.300   1.123
 9057TIP3   OH227113   0.789   0.916   2.398
 9057TIP3    H127114   0.726   0.896   2.329
 9057TIP3    H227115   0.760   0.999   2.435
 9058TIP3   OH227116   4.511   4.715   4.731
 9058TIP3    H127117   4.532   4.778   4.662
 9058TIP3    H227118   4.560   4.636   4.707
 9059TIP3   OH227119   2.269   6.733   1.567
 9059TIP3    H127120   2.338   6.717   1.631
 9059TIP3    H227121   2.217   6.653   1.566
 9060TIP3   OH227122   4.584   3.524   3.333
 9060TIP3    H127123   4.544   3.610   3.318
 9060TIP3    H227124   4.521   3.477   3.387
 9061TIP3   OH227125   0.039   4.876   5.852
 9061TIP3    H127126  -0.036   4.828   5.818
 9061TIP3    H227127   0.115   4.834   5.811
 9062TIP3   OH227128   2.839   7.415   3.842
 9062TIP3    H127129   2.807   7.499   3.875
 9062TIP3    H227130   2.850   7.429   3.748
 9063TIP3   OH227131   5.582   1.876   0.367
 9063TIP3    H127132   5.544   1.963   0.375
 9063TIP3    H227133   5.674   1.892   0.345
 9064TIP3   OH227134   2.814   4.834   2.640
 9064TIP3    H127135   2.814   4.794   2.553
 9064TIP3    H227136   2.907   4.842   2.662
 9065TIP3   OH227137   4.097   6.413   4.543
 9065TIP3    H127138   4.100   6.421   4.448
 9065TIP3    H227139   4.014   6.371   4.561
 9066TIP3   OH227140   5.810   7.718   3.243
 9066TIP3    H127141   5.763   7.729   3.326
 9066TIP3    H227142   5.811   7.805   3.204
 9067TIP3   OH227143   7.587   5.593   4.243
 9067TIP3    H127144   7.548   5.530   4.183
 9067TIP3    H227145   7.529   5.595   4.318
 9068TIP3   OH227146   7.576   4.513   3.396
 9068TIP3    H127147   7.670   4.515   3.379
 9068TIP3    H227148   7.538   4.477   3.316
 9069TIP3   OH227149   1.221   3.289   1.211
 9069TIP3    H127150   1.208   3.380   1.235
 9069TIP3    H227151   1.250   3.292   1.120
 9070TIP3   OH227152   2.835   4.672   3.379
 9070TIP3    H127153   2.759   4.694   3.325
 9070TIP3    H227154   2.816   4.584   3.411
 9071TIP3   OH227155   3.266   7.132   3.258
 9071TIP3    H127156   3.283   7.217   3.300
 9071TIP3    H227157   3.260   7.070   3.331
 9072TIP3   OH227158   7.615   5.088   2.300
 9072TIP3    H127159   7.633   4.996   2.281
 9072TIP3    H227160   7.542   5.111   2.242
 9073TIP3   OH227161   6.045   5.353   2.453
 9073TIP3    H127162   6.135   5.320   2.443
 9073TIP3    H227163   6.036   5.369   2.546
 9074TIP3   OH227164   0.361   1.226   3.157
 9074TIP3    H127165   0.438   1.282   3.141
 9074TIP3    H227166   0.315   1.270   3.228
 9075TIP3   OH227167   7.240   3.638   6.762
 9075TIP3    H127168   7.277   3.725   6.775
 9075TIP3    H227169   7.167   3.633   6.824
 9076TIP3   OH227170   3.185   2.617   6.633
 9076TIP3    H127171   3.203   2.670   6.555
 9076TIP3    H227172   3.193   2.526   6.602
 9077TIP3   OH227173   2.671   7.686   0.745
 9077TIP3    H127174   2.618   7.650   0.675
 9077TIP3    H227175   2.755   7.707   0.704
 9078TIP3   OH227176   3.884   0.300   3.986
 9078TIP3    H127177   3.853   0.214   3.956
 9078TIP3    H227178   3.897   0.289   4.080
 9079TIP3   OH227179   5.734   2.545   6.221
 9079TIP3    H127180   5.701   2.622   6.175
 9079TIP3    H227181   5.658   2.511   6.268
 9080TIP3   OH227182   4.770   3.348   0.847
 9080TIP3    H127183   4.808   3.432   0.821
 9080TIP3    H227184   4.681   3.370   0.874
 9081TIP3   OH227185   3.941   3.409   3.669
 9081TIP3    H127186   3.882   3.474   3.705
 9081TIP3    H227187   4.028   3.434   3.701
 9082TIP3   OH227188   3.321   0.737   0.745
 9082TIP3    H127189   3.411   0.723   0.775
 9082TIP3    H227190   3.272   0.662   0.777
 9083TIP3   OH227191   1.593   2.032   2.760
 9083TIP3    H127192   1.538   1.958   2.787
 9083TIP3    H227193   1.583   2.096   2.829
 9084TIP3   OH227194   7.767   0.417   2.892
 9084TIP3    H127195   7.859   0.430   2.866
 9084TIP3    H227196   7.719   0.418   2.809
 9085TIP3   OH227197   7.156   4.827   1.779
 9085TIP3    H127198   7.098   4.762   1.819
 9085TIP3    H227199   7.103   4.865   1.709
 9086TIP3   OH227200   6.191   5.525   0.179
 9086TIP3    H127201   6.155   5.566   0.100
 9086TIP3    H227202   6.191   5.595   0.244
 9087TIP3   OH227203   0.129   4.895   0.152
 9087TIP3    H127204   0.196   4.832   0.181
 9087TIP3    H227205   0.171   4.980   0.163
 9088TIP3   OH227206   5.972   0.926   4.198
 9088TIP3    H127207   5.935   0.986   4.263
 9088TIP3    H227208   5.896   0.899   4.145
 9089TIP3   OH227209   7.973   0.967   4.743
 9089TIP3    H127210   8.039   0.918   4.693
 9089TIP3    H227211   8.004   1.057   4.742
 9090TIP3   OH227212   7.999   7.653   5.579
 9090TIP3    H127213   7.993   7.740   5.619
 9090TIP3    H227214   8.038   7.598   5.648
 9091TIP3   OH227215   3.193   1.952   1.100
 9091TIP3    H127216   3.262   2.007   1.062
 9091TIP3    H227217   3.151   2.009   1.165
 9092TIP3   OH227218   0.525   3.887   6.022
 9092TIP3    H127219   0.616   3.874   5.993
 9092TIP3    H227220   0.479   3.914   5.942
 9093TIP3   OH227221   6.511   6.328   1.941
 9093TIP3    H127222   6.445   6.258   1.942
 9093TIP3    H227223   6.528   6.344   1.848
 9094TIP3   OH227224   3.057   2.000   6.791
 9094TIP3    H127225   3.092   1.989   6.703
 9094TIP3    H227226   3.135   2.004   6.848
 9095TIP3   OH227227   3.980   1.978   0.203
 9095TIP3    H127228   3.991   1.944   0.292
 9095TIP3    H227229   3.984   1.901   0.147
 9096TIP3   OH227230   7.679   2.775   0.700
 9096TIP3    H127231   7.754   2.786   0.642
 9096TIP3    H227232   7.716   2.741   0.782
 9097TIP3   OH227233   7.006   1.520   0.522
 9097TIP3    H127234   6.936   1.577   0.554
 9097TIP3    H227235   6.980   1.497   0.433
 9098TIP3   OH227236   3.987   1.702   0.685
 9098TIP3    H127237   4.063   1.734   0.732
 9098TIP3    H227238   4.017   1.622   0.642
 9099TIP3   OH227239   2.258   2.084   4.954
 9099TIP3    H127240   2.243   2.019   4.886
 9099TIP3    H227241   2.282   2.034   5.032
 9100TIP3   OH227242   8.202   0.981   0.894
 9100TIP3    H127243   8.257   1.015   0.965
 9100TIP3    H227244   8.193   0.888   0.913
 9101TIP3   OH227245   3.699   6.343   5.944
 9101TIP3    H127246   3.764   6.374   6.007
 9101TIP3    H227247   3.640   6.418   5.932
 9102TIP3   OH227248   4.812   7.414   1.412
 9102TIP3    H127249   4.744   7.436   1.348
 9102TIP3    H227250   4.855   7.497   1.432
 9103TIP3   OH227251   4.150   3.078   4.010
 9103TIP3    H127252   4.204   3.106   4.083
 9103TIP3    H227253   4.073   3.038   4.051
 9104TIP3   OH227254   6.300   2.349   0.582
 9104TIP3    H127255   6.291   2.362   0.488
 9104TIP3    H227256   6.379   2.296   0.592
 9105TIP3   OH227257   4.817   3.440   2.471
 9105TIP3    H127258   4.880   3.490   2.419
 9105TIP3    H227259   4.846   3.451   2.561
 9106TIP3   OH227260   7.384   5.327   2.603
 9106TIP3    H127261   7.358   5.389   2.671
 9106TIP3    H227262   7.477   5.311   2.618
 9107TIP3   OH227263   5.209   4.767   2.519
 9107TIP3    H127264   5.250   4.833   2.575
 9107TIP3    H227265   5.186   4.815   2.439
 9108TIP3   OH227266   7.529   2.661   5.271
 9108TIP3    H127267   7.458   2.596   5.271
 9108TIP3    H227268   7.489   2.740   5.306
 9109TIP3   OH227269   4.124   4.554   5.509
 9109TIP3    H127270   4.089   4.547   5.420
 9109TIP3    H227271   4.090   4.638   5.541
 9110TIP3   OH227272   4.042   3.233   0.138
 9110TIP3    H127273   4.130   3.206   0.111
 9110TIP3    H227274   4.026   3.185   0.219
 9111TIP3   OH227275   0.705   0.607   2.572
 9111TIP3    H127276   0.746   0.570   2.651
 9111TIP3    H227277   0.775   0.607   2.507
 9112TIP3   OH227278   2.044   1.368   4.504
 9112TIP3    H127279   2.080   1.454   4.525
 9112TIP3    H227280   2.119   1.317   4.473
 9113TIP3   OH227281   4.820   4.226   6.642
 9113TIP3    H127282   4.729   4.256   6.642
 9113TIP3    H227283   4.838   4.203   6.551
 9114TIP3   OH227284   2.584   3.607   5.678
 9114TIP3    H127285   2.529   3.677   5.643
 9114TIP3    H227286   2.525   3.553   5.730
 9115TIP3   OH227287   1.380   7.501   2.256
 9115TIP3    H127288   1.410   7.460   2.175
 9115TIP3    H227289   1.376   7.429   2.320
 9116TIP3   OH227290   4.592   4.891   0.289
 9116TIP3    H127291   4.561   4.824   0.350
 9116TIP3    H227292   4.600   4.970   0.343
 9117TIP3   OH227293   1.462   6.198   2.345
 9117TIP3    H127294   1.394   6.136   2.317
 9117TIP3    H227295   1.415   6.263   2.396
 9118TIP3   OH227296   5.690   4.295   4.262
 9118TIP3    H127297   5.657   4.377   4.297
 9118TIP3    H227298   5.695   4.310   4.167
 9119TIP3   OH227299   4.974   4.456   2.445
 9119TIP3    H127300   4.993   4.377   2.494
 9119TIP3    H227301   5.056   4.478   2.401
 9120TIP3   OH227302   5.669   4.198   2.310
 9120TIP3    H127303   5.729   4.198   2.385
 9120TIP3    H227304   5.604   4.264   2.332
 9121TIP3   OH227305   2.926   5.744   5.279
 9121TIP3    H127306   2.850   5.728   5.334
 9121TIP3    H227307   2.995   5.688   5.316
 9122TIP3   OH227308   7.373   6.020   5.426
 9122TIP3    H127309   7.440   6.055   5.485
 9122TIP3    H227310   7.366   5.927   5.451
 9123TIP3   OH227311   3.587   1.230   3.885
 9123TIP3    H127312   3.660   1.290   3.896
 9123TIP3    H227313   3.590   1.173   3.962
 9124TIP3   OH227314   2.938   7.328   4.260
 9124TIP3    H127315   3.004   7.289   4.318
 9124TIP3    H227316   2.965   7.419   4.253
 9125TIP3   OH227317   0.966   7.351   5.648
 9125TIP3    H127318   0.950   7.284   5.714
 9125TIP3    H227319   0.884   7.357   5.599
 9126TIP3   OH227320   5.217   6.387   3.631
 9126TIP3    H127321   5.254   6.416   3.714
 9126TIP3    H227322   5.135   6.343   3.655
 9127TIP3   OH227323   3.614   5.340   0.691
 9127TIP3    H127324   3.640   5.432   0.695
 9127TIP3    H227325   3.697   5.292   0.683
 9128TIP3   OH227326   0.843   2.917   2.270
 9128TIP3    H127327   0.936   2.902   2.289
 9128TIP3    H227328   0.841   2.939   2.177
 9129TIP3   OH227329   0.830   0.044   5.934
 9129TIP3    H127330   0.812   0.060   6.026
 9129TIP3    H227331   0.772   0.104   5.887
 9130TIP3   OH227332   0.497   7.196   3.317
 9130TIP3    H127333   0.539   7.282   3.318
 9130TIP3    H227334   0.407   7.213   3.346
 9131TIP3   OH227335   4.720   4.146   0.413
 9131TIP3    H127336   4.661   4.122   0.484
 9131TIP3    H227337   4.772   4.218   0.448
 9132TIP3   OH227338   4.869   2.281   2.467
 9132TIP3    H127339   4.958   2.257   2.493
 9132TIP3    H227340   4.813   2.232   2.528
 9133TIP3   OH227341   4.539   7.405   2.775
 9133TIP3    H127342   4.629   7.374   2.782
 9133TIP3    H227343   4.531   7.472   2.843
 9134TIP3   OH227344   2.235   3.637   6.487
 9134TIP3    H127345   2.289   3.692   6.545
 9134TIP3    H227346   2.169   3.697   6.452
 9135TIP3   OH227347   1.145   0.323   3.572
 9135TIP3    H127348   1.146   0.333   3.477
 9135TIP3    H227349   1.209   0.387   3.603
 9136TIP3   OH227350   1.966   3.701   4.759
 9136TIP3    H127351   1.904   3.672   4.693
 9136TIP3    H227352   1.957   3.637   4.830
 9137TIP3   OH227353   1.930   5.400   3.318
 9137TIP3    H127354   1.928   5.495   3.327
 9137TIP3    H227355   2.016   5.380   3.281
 9138TIP3   OH227356   7.530   4.844   2.078
 9138TIP3    H127357   7.434   4.848   2.086
 9138TIP3    H227358   7.547   4.870   1.987
 9139TIP3   OH227359   4.899   5.954   5.369
 9139TIP3    H127360   4.961   6.025   5.354
 9139TIP3    H227361   4.943   5.876   5.336
 9140TIP3   OH227362   6.198   0.823   0.976
 9140TIP3    H127363   6.266   0.785   0.921
 9140TIP3    H227364   6.195   0.915   0.951
 9141TIP3   OH227365   7.096   1.928   6.242
 9141TIP3    H127366   7.157   1.899   6.309
 9141TIP3    H227367   7.114   2.022   6.231
 9142TIP3   OH227368   2.349   6.425   3.747
 9142TIP3    H127369   2.314   6.424   3.836
 9142TIP3    H227370   2.444   6.420   3.758
 9143TIP3   OH227371   5.041   3.948   6.516
 9143TIP3    H127372   4.972   3.986   6.462
 9143TIP3    H227373   5.028   3.987   6.603
 9144TIP3   OH227374   8.065   2.675   3.124
 9144TIP3    H127375   8.112   2.754   3.097
 9144TIP3    H227376   8.130   2.625   3.173
 9145TIP3   OH227377   4.446   5.686   5.951
 9145TIP3    H127378   4.358   5.658   5.924
 9145TIP3    H227379   4.498   5.681   5.871
 9146TIP3   OH227380   3.257   2.225   2.801
 9146TIP3    H127381   3.295   2.300   2.755
 9146TIP3    H227382   3.243   2.257   2.890
 9147TIP3   OH227383   6.869   6.688   1.991
 9147TIP3    H127384   6.822   6.621   2.040
 9147TIP3    H227385   6.812   6.709   1.917
 9148TIP3   OH227386   1.367   7.128   4.496
 9148TIP3    H127387   1.322   7.046   4.475
 9148TIP3    H227388   1.374   7.175   4.413
 9149TIP3   OH227389   6.348   5.441   5.975
 9149TIP3    H127390   6.424   5.396   6.012
 9149TIP3    H227391   6.356   5.531   6.009
 9150TIP3   OH227392   0.382   4.624   4.727
 9150TIP3    H127393   0.420   4.711   4.716
 9150TIP3    H227394   0.293   4.640   4.758
 9151TIP3   OH227395   2.526   5.454   5.419
 9151TIP3    H127396   2.525   5.400   5.340
 9151TIP3    H227397   2.563   5.537   5.390
 9152TIP3   OH227398   3.148   3.991   6.096
 9152TIP3    H127399   3.147   4.069   6.151
 9152TIP3    H227400   3.230   3.996   6.047
 9153TIP3   OH227401   1.566   5.409   1.883
 9153TIP3    H127402   1.510   5.331   1.882
 9153TIP3    H227403   1.513   5.477   1.842
 9154TIP3   OH227404   4.190   0.168   6.180
 9154TIP3    H127405   4.248   0.151   6.105
 9154TIP3    H227406   4.227   0.246   6.221
 9155TIP3   OH227407   3.516   3.200   6.219
 9155TIP3    H127408   3.558   3.148   6.288
 9155TIP3    H227409   3.426   3.170   6.217
 9156TIP3   OH227410   3.390   6.492   5.980
 9156TIP3    H127411   3.319   6.540   6.022
 9156TIP3    H227412   3.367   6.492   5.887
 9157TIP3   OH227413   1.679   1.839   3.335
 9157TIP3    H127414   1.683   1.848   3.240
 9157TIP3    H227415   1.662   1.746   3.350
 9158TIP3   OH227416   0.169   5.361   1.637
 9158TIP3    H127417   0.246   5.306   1.623
 9158TIP3    H227418   0.157   5.361   1.732
 9159TIP3   OH227419   0.025   3.514   3.109
 9159TIP3    H127420   0.070   3.466   3.040
 9159TIP3    H227421   0.091   3.572   3.145
 9160TIP3   OH227422   1.640   7.143   6.708
 9160TIP3    H127423   1.657   7.148   6.614
 9160TIP3    H227424   1.558   7.191   6.719
 9161TIP3   OH227425   5.164   6.871   4.922
 9161TIP3    H127426   5.130   6.892   4.835
 9161TIP3    H227427   5.243   6.924   4.931
 9162TIP3   OH227428   7.099   6.847   5.766
 9162TIP3    H127429   7.029   6.791   5.800
 9162TIP3    H227430   7.138   6.797   5.695
 9163TIP3   OH227431   2.272   3.070   4.911
 9163TIP3    H127432   2.299   3.092   5.001
 9163TIP3    H227433   2.351   3.081   4.859
 9164TIP3   OH227434   8.224   5.095   4.696
 9164TIP3    H127435   8.286   5.164   4.718
 9164TIP3    H227436   8.232   5.032   4.767
 9165TIP3   OH227437   4.308   4.833   2.978
 9165TIP3    H127438   4.249   4.886   2.925
 9165TIP3    H227439   4.371   4.895   3.014
 9166TIP3   OH227440   0.677   0.136   4.235
 9166TIP3    H127441   0.700   0.200   4.168
 9166TIP3    H227442   0.748   0.072   4.233
 9167TIP3   OH227443   1.954   0.146   3.506
 9167TIP3    H127444   2.042   0.124   3.478
 9167TIP3    H227445   1.904   0.153   3.425
 9168TIP3   OH227446   2.745   2.543   6.317
 9168TIP3    H127447   2.715   2.552   6.226
 9168TIP3    H227448   2.830   2.585   6.318
 9169TIP3   OH227449   4.967   6.586   2.928
 9169TIP3    H127450   4.931   6.506   2.968
 9169TIP3    H227451   5.030   6.619   2.993
 9170TIP3   OH227452   0.678   5.026   5.625
 9170TIP3    H127453   0.767   5.028   5.658
 9170TIP3    H227454   0.667   4.939   5.588
 9171TIP3   OH227455   5.024   2.656   5.673
 9171TIP3    H127456   5.018   2.600   5.596
 9171TIP3    H227457   5.099   2.623   5.722
 9172TIP3   OH227458   5.850   7.694   6.660
 9172TIP3    H127459   5.791   7.712   6.587
 9172TIP3    H227460   5.854   7.777   6.708
 9173TIP3   OH227461   0.086   2.927   6.077
 9173TIP3    H127462   0.071   3.013   6.040
 9173TIP3    H227463   0.127   2.944   6.162
 9174TIP3   OH227464   6.774   5.063   5.152
 9174TIP3    H127465   6.784   4.998   5.221
 9174TIP3    H227466   6.859   5.108   5.149
 9175TIP3   OH227467   1.175   1.873   4.760
 9175TIP3    H127468   1.083   1.859   4.738
 9175TIP3    H227469   1.189   1.819   4.838
 9176TIP3   OH227470   4.786   6.093   2.289
 9176TIP3    H127471   4.739   6.014   2.313
 9176TIP3    H227472   4.869   6.061   2.252
 9177TIP3   OH227473   3.013   0.262   6.673
 9177TIP3    H127474   2.978   0.323   6.738
 9177TIP3    H227475   3.101   0.243   6.704
 9178TIP3   OH227476   4.337   6.488   5.848
 9178TIP3    H127477   4.251   6.445   5.840
 9178TIP3    H227478   4.318   6.572   5.890
 9179TIP3   OH227479   5.330   5.857   0.362
 9179TIP3    H127480   5.425   5.864   0.354
 9179TIP3    H227481   5.301   5.947   0.378
 9180TIP3   OH227482   6.034   5.018   0.946
 9180TIP3    H127483   6.114   5.025   0.998
 9180TIP3    H227484   6.043   5.085   0.878
 9181TIP3   OH227485   5.384   3.006   4.226
 9181TIP3    H127486   5.359   3.089   4.186
 9181TIP3    H227487   5.307   2.951   4.216
 9182TIP3   OH227488   5.314   5.679   3.842
 9182TIP3    H127489   5.256   5.645   3.909
 9182TIP3    H227490   5.281   5.641   3.760
 9183TIP3   OH227491   2.557   2.506   5.465
 9183TIP3    H127492   2.507   2.502   5.384
 9183TIP3    H227493   2.640   2.547   5.440
 9184TIP3   OH227494   0.431   6.093   2.605
 9184TIP3    H127495   0.463   6.102   2.515
 9184TIP3    H227496   0.511   6.087   2.658
 9185TIP3   OH227497   6.832   0.513   5.201
 9185TIP3    H127498   6.824   0.554   5.287
 9185TIP3    H227499   6.842   0.420   5.220
 9186TIP3   OH227500   3.257   1.054   3.181
 9186TIP3    H127501   3.214   1.028   3.263
 9186TIP3    H227502   3.228   0.989   3.118
 9187TIP3   OH227503   0.790   1.638   4.098
 9187TIP3    H127504   0.751   1.566   4.047
 9187TIP3    H227505   0.853   1.594   4.156
 9188TIP3   OH227506   3.653   3.362   3.192
 9188TIP3    H127507   3.738   3.383   3.229
 9188TIP3    H227508   3.659   3.269   3.169
 9189TIP3   OH227509   0.675   3.003   0.420
 9189TIP3    H127510   0.671   3.063   0.495
 9189TIP3    H227511   0.762   3.017   0.383
 9190TIP3   OH227512   3.221   5.781   1.726
 9190TIP3    H127513   3.250   5.778   1.635
 9190TIP3    H227514   3.143   5.726   1.728
 9191TIP3   OH227515   2.390   5.579   5.845
 9191TIP3    H127516   2.390   5.515   5.774
 9191TIP3    H227517   2.304   5.569   5.887
 9192TIP3   OH227518   7.767   4.985   3.159
 9192TIP3    H127519   7.799   4.899   3.134
 9192TIP3    H227520   7.815   5.006   3.239
 9193TIP3   OH227521   5.651   3.629   5.116
 9193TIP3    H127522   5.727   3.581   5.150
 9193TIP3    H227523   5.678   3.658   5.029
 9194TIP3   OH227524   4.947   0.148   0.416
 9194TIP3    H127525   4.937   0.175   0.507
 9194TIP3    H227526   4.911   0.222   0.366
 9195TIP3   OH227527   3.115   0.554   2.048
 9195TIP3    H127528   3.129   0.643   2.016
 9195TIP3    H227529   3.193   0.505   2.020
 9196TIP3   OH227530   3.164   0.147   2.139
 9196TIP3    H127531   3.151   0.080   2.207
 9196TIP3    H227532   3.077   0.183   2.123
 9197TIP3   OH227533   2.012   2.901   1.600
 9197TIP3    H127534   1.997   2.995   1.590
 9197TIP3    H227535   1.930   2.861   1.571
 9198TIP3   OH227536   0.419   3.638   5.702
 9198TIP3    H127537   0.488   3.614   5.641
 9198TIP3    H227538   0.407   3.732   5.689
 9199TIP3   OH227539   5.804   5.470   6.523
 9199TIP3    H127540   5.779   5.489   6.614
 9199TIP3    H227541   5.828   5.377   6.524
 9200TIP3   OH227542   6.322   4.896   2.201
 9200TIP3    H127543   6.332   4.846   2.120
 9200TIP3    H227544   6.227   4.901   2.215
 9201TIP3   OH227545   0.815   0.902   6.805
 9201TIP3    H127546   0.812   0.843   6.880
 9201TIP3    H227547   0.794   0.846   6.730
 9202TIP3   OH227548   4.822   3.958   0.248
 9202TIP3    H127549   4.803   4.042   0.290
 9202TIP3    H227550   4.886   3.979   0.180
 9203TIP3   OH227551   3.185   4.038   0.615
 9203TIP3    H127552   3.243   3.970   0.581
 9203TIP3    H227553   3.244   4.105   0.648
 9204TIP3   OH227554   1.179   6.059   2.200
 9204TIP3    H127555   1.205   6.111   2.124
 9204TIP3    H227556   1.086   6.041   2.187
 9205TIP3   OH227557   8.096   4.424   2.002
 9205TIP3    H127558   8.058   4.340   1.979
 9205TIP3    H227559   8.151   4.406   2.078
 9206TIP3   OH227560   5.515   3.289   6.721
 9206TIP3    H127561   5.588   3.349   6.736
 9206TIP3    H227562   5.549   3.203   6.747
 9207TIP3   OH227563   0.581   3.870   1.484
 9207TIP3    H127564   0.625   3.883   1.568
 9207TIP3    H227565   0.622   3.792   1.447
 9208TIP3   OH227566   4.404   6.380   1.998
 9208TIP3    H127567   4.457   6.369   2.077
 9208TIP3    H227568   4.448   6.327   1.932
 9209TIP3   OH227569   2.462   5.095   4.975
 9209TIP3    H127570   2.424   5.025   4.922
 9209TIP3    H227571   2.548   5.111   4.936
 9210TIP3   OH227572   5.837   0.528   1.017
 9210TIP3    H127573   5.801   0.449   1.056
 9210TIP3    H227574   5.804   0.600   1.071
 9211TIP3   OH227575   6.814   1.776   2.323
 9211TIP3    H127576   6.730   1.737   2.349
 9211TIP3    H227577   6.801   1.870   2.330
 9212TIP3   OH227578   7.509   3.073   2.604
 9212TIP3    H127579   7.445   3.119   2.659
 9212TIP3    H227580   7.480   2.982   2.604
 9213TIP3   OH227581   3.648   4.636   3.042
 9213TIP3    H127582   3.740   4.661   3.040
 9213TIP3    H227583   3.613   4.681   3.120
 9214TIP3   OH227584   5.455   6.684   3.029
 9214TIP3    H127585   5.412   6.611   3.074
 9214TIP3    H227586   5.454   6.755   3.093
 9215TIP3   OH227587   4.151   4.121   2.163
 9215TIP3    H127588   4.139   4.037   2.208
 9215TIP3    H227589   4.088   4.118   2.091
 9216TIP3   OH227590   4.765   7.721   5.460
 9216TIP3    H127591   4.754   7.802   5.410
 9216TIP3    H227592   4.790   7.656   5.395
 9217TIP3   OH227593   3.751   6.673   4.363
 9217TIP3    H127594   3.803   6.748   4.391
 9217TIP3    H227595   3.661   6.699   4.379
 9218TIP3   OH227596   3.255   0.211   5.783
 9218TIP3    H127597   3.195   0.228   5.710
 9218TIP3    H227598   3.212   0.251   5.859
 9219TIP3   OH227599   2.946   3.934   0.271
 9219TIP3    H127600   2.940   3.888   0.188
 9219TIP3    H227601   2.996   4.013   0.251
 9220TIP3   OH227602   4.397   2.081   1.999
 9220TIP3    H127603   4.471   2.022   1.987
 9220TIP3    H227604   4.412   2.122   2.085
 9221TIP3   OH227605   5.017   0.069   6.380
 9221TIP3    H127606   4.982   0.052   6.467
 9221TIP3    H227607   5.049   0.159   6.385
 9222TIP3   OH227608   2.649   2.540   3.471
 9222TIP3    H127609   2.594   2.462   3.475
 9222TIP3    H227610   2.613   2.598   3.538
 9223TIP3   OH227611   7.683   3.762   4.079
 9223TIP3    H127612   7.770   3.728   4.099
 9223TIP3    H227613   7.671   3.743   3.986
 9224TIP3   OH227614   3.379   0.681   3.635
 9224TIP3    H127615   3.299   0.649   3.677
 9224TIP3    H227616   3.351   0.758   3.586
 9225TIP3   OH227617   4.116   7.175   6.525
 9225TIP3    H127618   4.051   7.245   6.517
 9225TIP3    H227619   4.119   7.135   6.438
 9226TIP3   OH227620   7.921   0.490   0.453
 9226TIP3    H127621   7.848   0.460   0.506
 9226TIP3    H227622   7.976   0.540   0.514
 9227TIP3   OH227623   4.157   0.421   2.198
 9227TIP3    H127624   4.081   0.363   2.206
 9227TIP3    H227625   4.162   0.465   2.283
 9228TIP3   OH227626   2.806   3.447   1.797
 9228TIP3    H127627   2.810   3.455   1.893
 9228TIP3    H227628   2.801   3.537   1.766
 9229TIP3   OH227629   4.640   6.079   5.186
 9229TIP3    H127630   4.647   6.024   5.108
 9229TIP3    H227631   4.722   6.065   5.233
 9230TIP3   OH227632   3.404   4.810   2.186
 9230TIP3    H127633   3.424   4.725   2.148
 9230TIP3    H227634   3.481   4.833   2.237
 9231TIP3   OH227635   2.740   5.126   4.872
 9231TIP3    H127636   2.755   5.220   4.863
 9231TIP3    H227637   2.795   5.100   4.947
 9232TIP3   OH227638   1.764   0.769   5.299
 9232TIP3    H127639   1.668   0.774   5.292
 9232TIP3    H227640   1.790   0.704   5.234
 9233TIP3   OH227641   6.896   2.862   2.522
 9233TIP3    H127642   6.914   2.956   2.530
 9233TIP3    H227643   6.890   2.831   2.612
 9234TIP3   OH227644   1.758   2.139   0.294
 9234TIP3    H127645   1.797   2.222   0.322
 9234TIP3    H227646   1.824   2.098   0.239
 9235TIP3   OH227647   3.553   4.849   4.062
 9235TIP3    H127648   3.533   4.895   3.981
 9235TIP3    H227649   3.537   4.914   4.131
 9236TIP3   OH227650   1.282   0.998   0.982
 9236TIP3    H127651   1.308   1.011   1.073
 9236TIP3    H227652   1.234   1.078   0.959
 9237TIP3   OH227653   3.675   1.752   0.436
 9237TIP3    H127654   3.720   1.704   0.366
 9237TIP3    H227655   3.646   1.833   0.393
 9238TIP3   OH227656   5.342   4.564   6.291
 9238TIP3    H127657   5.340   4.650   6.333
 9238TIP3    H227658   5.300   4.577   6.206
 9239TIP3   OH227659   4.556   6.997   0.751
 9239TIP3    H127660   4.593   6.954   0.829
 9239TIP3    H227661   4.470   6.956   0.739
 9240TIP3   OH227662   5.143   5.544   1.673
 9240TIP3    H127663   5.155   5.449   1.675
 9240TIP3    H227664   5.064   5.559   1.724
 9241TIP3   OH227665   2.676   1.787   1.045
 9241TIP3    H127666   2.685   1.698   1.079
 9241TIP3    H227667   2.689   1.779   0.951
 9242TIP3   OH227668   7.521   1.533   2.220
 9242TIP3    H127669   7.537   1.449   2.177
 9242TIP3    H227670   7.429   1.553   2.200
 9243TIP3   OH227671   0.322   3.679   0.752
 9243TIP3    H127672   0.261   3.643   0.817
 9243TIP3    H227673   0.400   3.702   0.804
 9244TIP3   OH227674   5.006   1.374   6.372
 9244TIP3    H127675   5.092   1.333   6.382
 9244TIP3    H227676   4.946   1.301   6.354
 9245TIP3   OH227677   4.594   6.683   6.623
 9245TIP3    H127678   4.554   6.596   6.614
 9245TIP3    H227679   4.569   6.711   6.711
 9246TIP3   OH227680   4.402   7.544   0.427
 9246TIP3    H127681   4.394   7.449   0.416
 9246TIP3    H227682   4.461   7.571   0.357
 9247TIP3   OH227683   3.583   5.637   1.528
 9247TIP3    H127684   3.644   5.572   1.564
 9247TIP3    H227685   3.604   5.717   1.575
 9248TIP3   OH227686   4.941   3.891   3.727
 9248TIP3    H127687   4.897   3.834   3.664
 9248TIP3    H227688   4.891   3.879   3.808
 9249TIP3   OH227689   0.438   2.595   5.151
 9249TIP3    H127690   0.379   2.630   5.217
 9249TIP3    H227691   0.474   2.672   5.107
 9250TIP3   OH227692   4.350   0.445   1.191
 9250TIP3    H127693   4.315   0.417   1.107
 9250TIP3    H227694   4.409   0.374   1.217
 9251TIP3   OH227695   8.114   5.797   4.566
 9251TIP3    H127696   8.056   5.739   4.516
 9251TIP3    H227697   8.200   5.784   4.527
 9252TIP3   OH227698   8.010   5.695   4.836
 9252TIP3    H127699   8.068   5.718   4.764
 9252TIP3    H227700   7.973   5.611   4.812
 9253TIP3   OH227701   1.289   4.833   2.111
 9253TIP3    H127702   1.370   4.868   2.075
 9253TIP3    H227703   1.227   4.906   2.108
 9254TIP3   OH227704   6.739   6.864   3.154
 9254TIP3    H127705   6.659   6.908   3.123
 9254TIP3    H227706   6.751   6.791   3.093
 9255TIP3   OH227707   3.688   7.058   2.122
 9255TIP3    H127708   3.777   7.022   2.125
 9255TIP3    H227709   3.632   6.980   2.116
 9256TIP3   OH227710   0.786   5.007   5.066
 9256TIP3    H127711   0.834   4.941   5.015
 9256TIP3    H227712   0.708   4.962   5.097
 9257TIP3   OH227713   1.696   6.171   0.279
 9257TIP3    H127714   1.608   6.178   0.314
 9257TIP3    H227715   1.753   6.163   0.356
 9258TIP3   OH227716   5.242   0.461   3.468
 9258TIP3    H127717   5.252   0.384   3.412
 9258TIP3    H227718   5.267   0.430   3.555
 9259TIP3   OH227719   7.918   2.120   5.031
 9259TIP3    H127720   7.984   2.156   4.973
 9259TIP3    H227721   7.964   2.055   5.084
 9260TIP3   OH227722   1.657   2.571   4.565
 9260TIP3    H127723   1.723   2.571   4.496
 9260TIP3    H227724   1.574   2.558   4.520
 9261TIP3   OH227725   4.957   7.481   0.033
 9261TIP3    H127726   4.953   7.396  -0.013
 9261TIP3    H227727   5.036   7.523  -0.001
 9262TIP3   OH227728   4.325   2.032   4.062
 9262TIP3    H127729   4.283   2.065   3.982
 9262TIP3    H227730   4.266   2.059   4.132
 9263TIP3   OH227731   7.097   0.113   3.554
 9263TIP3    H127732   7.095   0.208   3.568
 9263TIP3    H227733   7.006   0.089   3.542
 9264TIP3   OH227734   0.535   0.388   2.625
 9264TIP3    H127735   0.588   0.322   2.581
 9264TIP3    H227736   0.562   0.471   2.586
 9265TIP3   OH227737   2.043   7.117   1.250
 9265TIP3    H127738   2.041   7.056   1.324
 9265TIP3    H227739   1.976   7.182   1.272
 9266TIP3   OH227740   3.904   6.116   1.698
 9266TIP3    H127741   3.900   6.109   1.602
 9266TIP3    H227742   3.963   6.189   1.715
 9267TIP3   OH227743   6.399   6.614   2.667
 9267TIP3    H127744   6.477   6.558   2.667
 9267TIP3    H227745   6.329   6.558   2.700
 9268TIP3   OH227746   8.125   5.653   2.321
 9268TIP3    H127747   8.217   5.665   2.347
 9268TIP3    H227748   8.128   5.592   2.248
 9269TIP3   OH227749   1.473   5.388   3.556
 9269TIP3    H127750   1.555   5.437   3.566
 9269TIP3    H227751   1.470   5.367   3.462
 9270TIP3   OH227752   5.980   1.741   4.456
 9270TIP3    H127753   5.919   1.780   4.518
 9270TIP3    H227754   5.929   1.675   4.409
 9271TIP3   OH227755   4.492   0.921   2.081
 9271TIP3    H127756   4.473   0.913   1.988
 9271TIP3    H227757   4.438   0.994   2.111
 9272TIP3   OH227758   3.130   7.768   6.653
 9272TIP3    H127759   3.169   7.825   6.719
 9272TIP3    H227760   3.054   7.730   6.697
 9273TIP3   OH227761   6.271   2.397   0.317
 9273TIP3    H127762   6.177   2.410   0.307
 9273TIP3    H227763   6.293   2.335   0.247
 9274TIP3   OH227764   7.044   2.405   1.055
 9274TIP3    H127765   7.034   2.497   1.030
 9274TIP3    H227766   7.112   2.372   0.996
 9275TIP3   OH227767   8.073   0.160   5.555
 9275TIP3    H127768   8.034   0.218   5.620
 9275TIP3    H227769   8.063   0.072   5.593
 9276TIP3   OH227770   0.432   7.010   4.203
 9276TIP3    H127771   0.358   6.951   4.191
 9276TIP3    H227772   0.407   7.090   4.159
 9277TIP3   OH227773   5.041   4.497   0.610
 9277TIP3    H127774   5.114   4.558   0.608
 9277TIP3    H227775   4.964   4.550   0.589
 9278TIP3   OH227776   7.157   7.847   6.475
 9278TIP3    H127777   7.203   7.834   6.393
 9278TIP3    H227778   7.190   7.778   6.533
 9279TIP3   OH227779   7.744   3.010   4.158
 9279TIP3    H127780   7.785   3.055   4.232
 9279TIP3    H227781   7.725   3.080   4.095
 9280TIP3   OH227782   2.536   0.020   2.633
 9280TIP3    H127783   2.449   0.003   2.669
 9280TIP3    H227784   2.578   0.076   2.697
 9281TIP3   OH227785   5.646   5.020   6.628
 9281TIP3    H127786   5.561   4.999   6.590
 9281TIP3    H227787   5.675   4.938   6.667
 9282TIP3   OH227788   1.778   5.577   4.044
 9282TIP3    H127789   1.718   5.650   4.062
 9282TIP3    H227790   1.753   5.510   4.106
 9283TIP3   OH227791   6.337   5.310   5.722
 9283TIP3    H127792   6.244   5.317   5.741
 9283TIP3    H227793   6.379   5.304   5.809
 9284TIP3   OH227794   2.593   0.468   0.525
 9284TIP3    H127795   2.625   0.390   0.570
 9284TIP3    H227796   2.640   0.540   0.567
 9285TIP3   OH227797   4.575   0.736   2.900
 9285TIP3    H127798   4.555   0.710   2.990
 9285TIP3    H227799   4.651   0.794   2.908
 9286TIP3   OH227800   1.033   0.910   6.128
 9286TIP3    H127801   1.093   0.882   6.058
 9286TIP3    H227802   1.044   1.005   6.133
 9287TIP3   OH227803   7.861   4.675   1.839
 9287TIP3    H127804   7.820   4.613   1.780
 9287TIP3    H227805   7.950   4.642   1.851
 9288TIP3   OH227806   7.230   1.822   6.635
 9288TIP3    H127807   7.143   1.787   6.657
 9288TIP3    H227808   7.224   1.916   6.652
 9289TIP3   OH227809   2.432   3.501   5.334
 9289TIP3    H127810   2.514   3.542   5.306
 9289TIP3    H227811   2.387   3.569   5.383
 9290TIP3   OH227812   6.825   6.585   4.847
 9290TIP3    H127813   6.788   6.602   4.761
 9290TIP3    H227814   6.749   6.569   4.903
 9291TIP3   OH227815   2.612   4.142   1.411
 9291TIP3    H127816   2.663   4.065   1.438
 9291TIP3    H227817   2.637   4.210   1.473
 9292TIP3   OH227818   7.905   2.565   2.909
 9292TIP3    H127819   7.961   2.604   2.977
 9292TIP3    H227820   7.827   2.621   2.908
 9293TIP3   OH227821   1.809   1.338   4.711
 9293TIP3    H127822   1.823   1.387   4.630
 9293TIP3    H227823   1.841   1.396   4.780
 9294TIP3   OH227824   3.884   6.592   0.522
 9294TIP3    H127825   3.853   6.503   0.536
 9294TIP3    H227826   3.979   6.587   0.533
 9295TIP3   OH227827   3.410   3.944   4.677
 9295TIP3    H127828   3.456   3.878   4.729
 9295TIP3    H227829   3.318   3.936   4.704
 9296TIP3   OH227830   7.116   6.081   6.131
 9296TIP3    H127831   7.098   6.174   6.116
 9296TIP3    H227832   7.113   6.042   6.044
 9297TIP3   OH227833   4.836   1.130   1.951
 9297TIP3    H127834   4.824   1.076   2.029
 9297TIP3    H227835   4.875   1.211   1.984
 9298TIP3   OH227836   6.485   5.607   5.082
 9298TIP3    H127837   6.569   5.629   5.122
 9298TIP3    H227838   6.499   5.520   5.043
 9299TIP3   OH227839   6.432   0.064   0.419
 9299TIP3    H127840   6.516   0.094   0.453
 9299TIP3    H227841   6.367   0.121   0.460
 9300TIP3   OH227842   1.405   2.801   1.997
 9300TIP3    H127843   1.415   2.861   1.923
 9300TIP3    H227844   1.311   2.795   2.010
 9301TIP3   OH227845   2.473   2.048   4.560
 9301TIP3    H127846   2.548   2.063   4.617
 9301TIP3    H227847   2.421   2.128   4.567
 9302TIP3   OH227848   7.424   7.120   1.320
 9302TIP3    H127849   7.411   7.164   1.236
 9302TIP3    H227850   7.338   7.084   1.342
 9303TIP3   OH227851   2.246   1.404   4.171
 9303TIP3    H127852   2.257   1.365   4.084
 9303TIP3    H227853   2.244   1.330   4.231
 9304TIP3   OH227854   6.448   7.339   1.707
 9304TIP3    H127855   6.378   7.404   1.711
 9304TIP3    H227856   6.419   7.278   1.638
 9305TIP3   OH227857   7.401   2.007   4.882
 9305TIP3    H127858   7.352   1.999   4.800
 9305TIP3    H227859   7.492   1.990   4.858
 9306TIP3   OH227860   7.569   4.842   3.335
 9306TIP3    H127861   7.650   4.808   3.373
 9306TIP3    H227862   7.588   4.852   3.242
 9307TIP3   OH227863   0.643   7.518   2.621
 9307TIP3    H127864   0.662   7.459   2.548
 9307TIP3    H227865   0.730   7.540   2.656
 9308TIP3   OH227866   3.669   5.208   1.605
 9308TIP3    H127867   3.586   5.197   1.559
 9308TIP3    H227868   3.703   5.293   1.575
 9309TIP3   OH227869   1.170   3.804   5.108
 9309TIP3    H127870   1.121   3.879   5.075
 9309TIP3    H227871   1.169   3.741   5.036
 9310TIP3   OH227872   5.893   3.839   0.465
 9310TIP3    H127873   5.977   3.855   0.506
 9310TIP3    H227874   5.868   3.751   0.494
 9311TIP3   OH227875   6.627   5.849   4.418
 9311TIP3    H127876   6.720   5.859   4.400
 9311TIP3    H227877   6.613   5.894   4.502
 9312TIP3   OH227878   6.927   0.372   6.465
 9312TIP3    H127879   6.879   0.390   6.384
 9312TIP3    H227880   6.904   0.282   6.487
 9313TIP3   OH227881   2.069   0.432   3.853
 9313TIP3    H127882   2.163   0.428   3.834
 9313TIP3    H227883   2.059   0.382   3.934
 9314TIP3   OH227884   0.260   6.021   2.825
 9314TIP3    H127885   0.296   6.022   2.737
 9314TIP3    H227886   0.196   6.092   2.825
 9315TIP3   OH227887   2.975   5.265   5.955
 9315TIP3    H127888   3.043   5.263   5.887
 9315TIP3    H227889   2.896   5.289   5.908
 9316TIP3   OH227890   4.874   1.378   2.045
 9316TIP3    H127891   4.875   1.334   2.130
 9316TIP3    H227892   4.919   1.461   2.061
 9317TIP3   OH227893   2.674   3.315   0.170
 9317TIP3    H127894   2.584   3.318   0.202
 9317TIP3    H227895   2.687   3.223   0.145
 9318TIP3   OH227896   2.494   2.452   3.763
 9318TIP3    H127897   2.443   2.452   3.844
 9318TIP3    H227898   2.501   2.545   3.740
 9319TIP3   OH227899   7.748   6.369   5.774
 9319TIP3    H127900   7.752   6.428   5.849
 9319TIP3    H227901   7.806   6.296   5.797
 9320TIP3   OH227902   7.464   2.221   6.040
 9320TIP3    H127903   7.525   2.160   5.998
 9320TIP3    H227904   7.508   2.306   6.034
 9321TIP3   OH227905   6.551   7.071   2.033
 9321TIP3    H127906   6.607   7.067   2.111
 9321TIP3    H227907   6.601   7.121   1.970
 9322TIP3   OH227908   1.355   7.236   2.385
 9322TIP3    H127909   1.418   7.206   2.450
 9322TIP3    H227910   1.393   7.211   2.301
 9323TIP3   OH227911   7.722   4.949   0.204
 9323TIP3    H127912   7.781   4.879   0.233
 9323TIP3    H227913   7.781   5.018   0.172
 9324TIP3   OH227914   4.713   3.194   5.871
 9324TIP3    H127915   4.667   3.111   5.860
 9324TIP3    H227916   4.737   3.197   5.964
 9325TIP3   OH227917   5.083   1.991   4.496
 9325TIP3    H127918   5.006   1.937   4.473
 9325TIP3    H227919   5.046   2.064   4.546
 9326TIP3   OH227920   0.181   5.553   6.158
 9326TIP3    H127921   0.161   5.464   6.185
 9326TIP3    H227922   0.273   5.551   6.134
 9327TIP3   OH227923   0.324   2.202   2.662
 9327TIP3    H127924   0.269   2.207   2.584
 9327TIP3    H227925   0.324   2.291   2.697
 9328TIP3   OH227926   8.008   5.622   4.374
 9328TIP3    H127927   8.041   5.681   4.306
 9328TIP3    H227928   7.967   5.550   4.326
 9329TIP3   OH227929   5.846   1.438   4.269
 9329TIP3    H127930   5.757   1.411   4.247
 9329TIP3    H227931   5.857   1.414   4.361
 9330TIP3   OH227932   7.511   4.024   1.406
 9330TIP3    H127933   7.604   4.045   1.414
 9330TIP3    H227934   7.485   3.999   1.494
 9331TIP3   OH227935   7.747   5.278   4.862
 9331TIP3    H127936   7.827   5.227   4.870
 9331TIP3    H227937   7.774   5.359   4.818
 9332TIP3   OH227938   6.376   5.710   5.773
 9332TIP3    H127939   6.360   5.644   5.840
 9332TIP3    H227940   6.388   5.792   5.822
 9333TIP3   OH227941   3.637   5.281   1.024
 9333TIP3    H127942   3.690   5.233   1.088
 9333TIP3    H227943   3.691   5.286   0.946
 9334TIP3   OH227944   4.663   0.753   4.335
 9334TIP3    H127945   4.579   0.717   4.363
 9334TIP3    H227946   4.681   0.709   4.252
 9335TIP3   OH227947   0.695   2.107   3.664
 9335TIP3    H127948   0.734   2.044   3.725
 9335TIP3    H227949   0.770   2.156   3.629
 9336TIP3   OH227950   0.444   5.990   1.318
 9336TIP3    H127951   0.537   6.011   1.321
 9336TIP3    H227952   0.430   5.958   1.229
 9337TIP3   OH227953   2.737   5.296   3.305
 9337TIP3    H127954   2.683   5.247   3.243
 9337TIP3    H227955   2.689   5.377   3.321
 9338TIP3   OH227956   2.635   7.025   5.700
 9338TIP3    H127957   2.714   6.985   5.735
 9338TIP3    H227958   2.666   7.100   5.649
 9339TIP3   OH227959   2.806   0.588   4.696
 9339TIP3    H127960   2.836   0.663   4.645
 9339TIP3    H227961   2.801   0.622   4.786
 9340TIP3   OH227962   5.359   0.698   0.433
 9340TIP3    H127963   5.268   0.669   0.422
 9340TIP3    H227964   5.402   0.626   0.480
 9341TIP3   OH227965   6.093   1.905   2.065
 9341TIP3    H127966   6.019   1.846   2.055
 9341TIP3    H227967   6.119   1.896   2.157
 9342TIP3   OH227968   0.190   4.499   4.924
 9342TIP3    H127969   0.194   4.415   4.879
 9342TIP3    H227970   0.125   4.487   4.993
 9343TIP3   OH227971   7.749   0.164   6.345
 9343TIP3    H127972   7.717   0.074   6.334
 9343TIP3    H227973   7.689   0.203   6.409
 9344TIP3   OH227974   4.929   0.978   5.670
 9344TIP3    H127975   4.876   1.052   5.639
 9344TIP3    H227976   4.942   0.924   5.592
 9345TIP3   OH227977   6.176   4.332   5.689
 9345TIP3    H127978   6.211   4.383   5.616
 9345TIP3    H227979   6.134   4.257   5.648
 9346TIP3   OH227980   5.390   0.195   1.078
 9346TIP3    H127981   5.424   0.281   1.053
 9346TIP3    H227982   5.376   0.150   0.995
 9347TIP3   OH227983   1.605   2.307   4.278
 9347TIP3    H127984   1.536   2.368   4.250
 9347TIP3    H227985   1.558   2.231   4.312
 9348TIP3   OH227986   7.179   5.584   2.113
 9348TIP3    H127987   7.149   5.581   2.204
 9348TIP3    H227988   7.268   5.621   2.119
 9349TIP3   OH227989   0.454   6.499   3.641
 9349TIP3    H127990   0.382   6.559   3.619
 9349TIP3    H227991   0.432   6.418   3.595
 9350TIP3   OH227992   3.432   1.951   4.257
 9350TIP3    H127993   3.348   1.981   4.224
 9350TIP3    H227994   3.472   1.904   4.184
 9351TIP3   OH227995   7.210   2.157   4.140
 9351TIP3    H127996   7.130   2.152   4.087
 9351TIP3    H227997   7.196   2.232   4.198
 9352TIP3   OH227998   3.485   6.973   3.012
 9352TIP3    H127999   3.511   6.956   2.921
 9352TIP3    H228000   3.389   6.976   3.009
 9353TIP3   OH228001   3.258   6.427   3.166
 9353TIP3    H128002   3.246   6.397   3.256
 9353TIP3    H228003   3.170   6.448   3.135
 9354TIP3   OH228004   7.399   6.402   3.458
 9354TIP3    H128005   7.447   6.352   3.392
 9354TIP3    H228006   7.462   6.417   3.528
 9355TIP3   OH228007   6.135   2.248   2.679
 9355TIP3    H128008   6.171   2.169   2.721
 9355TIP3    H228009   6.059   2.271   2.732
 9356TIP3   OH228010   5.042   1.584   5.698
 9356TIP3    H128011   5.005   1.646   5.635
 9356TIP3    H228012   5.013   1.498   5.667
 9357TIP3   OH228013   2.305   7.057   2.142
 9357TIP3    H128014   2.258   7.140   2.151
 9357TIP3    H228015   2.336   7.057   2.051
 9358TIP3   OH228016   7.673   3.549   6.257
 9358TIP3    H128017   7.764   3.539   6.230
 9358TIP3    H228018   7.656   3.643   6.251
 9359TIP3   OH228019   5.584   7.529   6.041
 9359TIP3    H128020   5.585   7.614   6.085
 9359TIP3    H228021   5.544   7.547   5.956
 9360TIP3   OH228022   5.501   7.752   3.161
 9360TIP3    H128023   5.586   7.708   3.150
 9360TIP3    H228024   5.489   7.799   3.078
 9361TIP3   OH228025   5.036   4.443   5.750
 9361TIP3    H128026   5.082   4.525   5.733
 9361TIP3    H228027   4.958   4.447   5.696
 9362TIP3   OH228028   0.210   5.933   6.215
 9362TIP3    H128029   0.198   5.878   6.137
 9362TIP3    H228030   0.305   5.947   6.220
 9363TIP3   OH228031   4.618   3.411   4.120
 9363TIP3    H128032   4.582   3.412   4.208
 9363TIP3    H228033   4.664   3.495   4.112
 9364TIP3   OH228034   4.175   3.595   3.419
 9364TIP3    H128035   4.212   3.628   3.338
 9364TIP3    H228036   4.090   3.639   3.426
 9365TIP3   OH228037   7.253   0.578   0.097
 9365TIP3    H128038   7.263   0.565   0.192
 9365TIP3    H228039   7.285   0.497   0.058
 9366TIP3   OH228040   2.797   4.560   5.271
 9366TIP3    H128041   2.874   4.552   5.216
 9366TIP3    H228042   2.804   4.648   5.310
 9367TIP3   OH228043   1.523   7.645   3.755
 9367TIP3    H128044   1.576   7.709   3.803
 9367TIP3    H228045   1.556   7.560   3.784
 9368TIP3   OH228046   3.371   4.914   4.359
 9368TIP3    H128047   3.407   5.000   4.338
 9368TIP3    H228048   3.277   4.929   4.367
 9369TIP3   OH228049   1.592   4.768   3.087
 9369TIP3    H128050   1.578   4.806   3.000
 9369TIP3    H228051   1.664   4.705   3.074
 9370TIP3   OH228052   0.850   3.965   0.058
 9370TIP3    H128053   0.791   3.890   0.063
 9370TIP3    H228054   0.815   4.028   0.120
 9371TIP3   OH228055   2.006   4.481   0.221
 9371TIP3    H128056   2.061   4.446   0.291
 9371TIP3    H228057   1.983   4.404   0.168
 9372TIP3   OH228058   3.477   4.451   2.920
 9372TIP3    H128059   3.523   4.414   2.844
 9372TIP3    H228060   3.540   4.513   2.958
 9373TIP3   OH228061   5.106   7.121   6.090
 9373TIP3    H128062   5.109   7.040   6.141
 9373TIP3    H228063   5.193   7.159   6.099
 9374TIP3   OH228064   2.436   1.444   1.672
 9374TIP3    H128065   2.499   1.380   1.706
 9374TIP3    H228066   2.397   1.401   1.596
 9375TIP3   OH228067   3.982   5.096   2.452
 9375TIP3    H128068   3.968   5.008   2.488
 9375TIP3    H228069   3.965   5.086   2.358
 9376TIP3   OH228070   7.142   3.603   4.065
 9376TIP3    H128071   7.138   3.514   4.099
 9376TIP3    H228072   7.195   3.651   4.129
 9377TIP3   OH228073   2.477   6.654   3.896
 9377TIP3    H128074   2.539   6.581   3.887
 9377TIP3    H228075   2.425   6.650   3.816
 9378TIP3   OH228076   1.851   7.505   4.715
 9378TIP3    H128077   1.880   7.478   4.627
 9378TIP3    H228078   1.823   7.596   4.703
 9379TIP3   OH228079   0.248   7.036   4.837
 9379TIP3    H128080   0.240   6.963   4.899
 9379TIP3    H228081   0.315   7.093   4.875
 9380TIP3   OH228082   1.958   5.446   0.884
 9380TIP3    H128083   2.033   5.422   0.830
 9380TIP3    H228084   1.962   5.386   0.959
 9381TIP3   OH228085   7.240   0.257   6.044
 9381TIP3    H128086   7.298   0.261   5.968
 9381TIP3    H228087   7.254   0.340   6.090
 9382TIP3   OH228088   5.471   0.348   4.173
 9382TIP3    H128089   5.376   0.357   4.174
 9382TIP3    H228090   5.487   0.260   4.138
 9383TIP3   OH228091   2.318   2.757   0.225
 9383TIP3    H128092   2.321   2.686   0.288
 9383TIP3    H228093   2.226   2.783   0.223
 9384TIP3   OH228094   0.733   7.579   0.717
 9384TIP3    H128095   0.755   7.507   0.775
 9384TIP3    H228096   0.729   7.657   0.773
 9385TIP3   OH228097   0.899   7.835   4.723
 9385TIP3    H128098   0.971   7.853   4.783
 9385TIP3    H228099   0.916   7.747   4.690
 9386TIP3   OH228100   6.221   7.368   0.074
 9386TIP3    H128101   6.298   7.387   0.020
 9386TIP3    H228102   6.183   7.290   0.034
 9387TIP3   OH228103   5.287   5.867   4.137
 9387TIP3    H128104   5.256   5.778   4.119
 9387TIP3    H228105   5.373   5.854   4.177
 9388TIP3   OH228106   1.355   0.981   6.181
 9388TIP3    H128107   1.430   1.000   6.125
 9388TIP3    H228108   1.286   0.954   6.120
 9389TIP3   OH228109   1.512   3.029   4.743
 9389TIP3    H128110   1.574   2.970   4.700
 9389TIP3    H228111   1.500   2.991   4.830
 9390TIP3   OH228112   6.775   2.549   6.580
 9390TIP3    H128113   6.711   2.479   6.587
 9390TIP3    H228114   6.800   2.550   6.488
 9391TIP3   OH228115   2.955   2.968   1.166
 9391TIP3    H128116   2.881   2.953   1.106
 9391TIP3    H228117   2.936   2.912   1.241
 9392TIP3   OH228118   7.178   0.618   6.140
 9392TIP3    H128119   7.253   0.621   6.199
 9392TIP3    H228120   7.201   0.677   6.068
 9393TIP3   OH228121   5.685   2.463   1.515
 9393TIP3    H128122   5.659   2.547   1.554
 9393TIP3    H228123   5.773   2.478   1.481
 9394TIP3   OH228124   6.126   6.772   4.600
 9394TIP3    H128125   6.172   6.710   4.655
 9394TIP3    H228126   6.177   6.774   4.519
 9395TIP3   OH228127   3.828   2.674   2.387
 9395TIP3    H128128   3.879   2.679   2.468
 9395TIP3    H228129   3.890   2.639   2.323
 9396TIP3   OH228130   4.298   0.435   0.914
 9396TIP3    H128131   4.383   0.395   0.893
 9396TIP3    H228132   4.320   0.525   0.938
 9397TIP3   OH228133   8.058   3.707   5.768
 9397TIP3    H128134   8.077   3.636   5.830
 9397TIP3    H228135   7.965   3.698   5.749
 9398TIP3   OH228136   7.558   4.447   4.041
 9398TIP3    H128137   7.511   4.464   4.123
 9398TIP3    H228138   7.622   4.518   4.036
 9399TIP3   OH228139   1.492   0.448   0.690
 9399TIP3    H128140   1.411   0.404   0.666
 9399TIP3    H228141   1.559   0.407   0.635
 9400TIP3   OH228142   3.566   0.783   1.497
 9400TIP3    H128143   3.660   0.767   1.506
 9400TIP3    H228144   3.535   0.714   1.439
 9401TIP3   OH228145   6.490   1.086   5.341
 9401TIP3    H128146   6.488   1.113   5.249
 9401TIP3    H228147   6.468   1.166   5.390
 9402TIP3   OH228148   0.485   2.799   0.493
 9402TIP3    H128149   0.529   2.877   0.460
 9402TIP3    H228150   0.544   2.727   0.471
 9403TIP3   OH228151   3.531   3.621   4.590
 9403TIP3    H128152   3.521   3.664   4.505
 9403TIP3    H228153   3.454   3.566   4.598
 9404TIP3   OH228154   2.701   6.565   4.664
 9404TIP3    H128155   2.726   6.548   4.573
 9404TIP3    H228156   2.781   6.550   4.714
 9405TIP3   OH228157   4.256   0.828   3.272
 9405TIP3    H128158   4.344   0.814   3.308
 9405TIP3    H228159   4.259   0.916   3.234
 9406TIP3   OH228160   4.198   5.835   6.389
 9406TIP3    H128161   4.246   5.837   6.471
 9406TIP3    H228162   4.264   5.814   6.323
 9407TIP3   OH228163   1.311   6.419   0.086
 9407TIP3    H128164   1.287   6.459   0.002
 9407TIP3    H228165   1.363   6.342   0.063
 9408TIP3   OH228166   2.163   1.694   3.974
 9408TIP3    H128167   2.225   1.707   4.045
 9408TIP3    H228168   2.114   1.776   3.968
 9409TIP3   OH228169   3.269   6.058   0.794
 9409TIP3    H128170   3.194   6.014   0.754
 9409TIP3    H228171   3.290   6.130   0.733
 9410TIP3   OH228172   0.299   0.700   4.963
 9410TIP3    H128173   0.370   0.639   4.947
 9410TIP3    H228174   0.251   0.663   5.037
 9411TIP3   OH228175   3.572   2.164   4.354
 9411TIP3    H128176   3.521   2.089   4.324
 9411TIP3    H228177   3.609   2.201   4.274
 9412TIP3   OH228178   6.149   5.078   5.375
 9412TIP3    H128179   6.198   5.077   5.457
 9412TIP3    H228180   6.076   5.138   5.392
 9413TIP3   OH228181   0.058   2.997   6.454
 9413TIP3    H128182  -0.018   3.008   6.397
 9413TIP3    H228183   0.034   2.924   6.512
 9414TIP3   OH228184   7.636   7.682   4.909
 9414TIP3    H128185   7.626   7.624   4.984
 9414TIP3    H228186   7.647   7.769   4.946
 9415TIP3   OH228187   4.825   2.557   2.430
 9415TIP3    H128188   4.859   2.474   2.463
 9415TIP3    H228189   4.801   2.538   2.339
 9416TIP3   OH228190   3.271   5.764   0.876
 9416TIP3    H128191   3.277   5.674   0.845
 9416TIP3    H228192   3.177   5.780   0.883
 9417TIP3   OH228193   2.869   7.021   5.114
 9417TIP3    H128194   2.824   6.960   5.055
 9417TIP3    H228195   2.879   7.101   5.064
 9418TIP3   OH228196   4.382   0.042   2.830
 9418TIP3    H128197   4.396   0.130   2.864
 9418TIP3    H228198   4.343  -0.006   2.904
 9419TIP3   OH228199   2.884   3.752   0.090
 9419TIP3    H128200   2.854   3.661   0.091
 9419TIP3    H228201   2.953   3.753   0.024
 9420TIP3   OH228202   0.207   3.111   1.942
 9420TIP3    H128203   0.237   3.066   1.863
 9420TIP3    H228204   0.205   3.043   2.009
 9421TIP3   OH228205   1.609   4.307   6.183
 9421TIP3    H128206   1.700   4.322   6.211
 9421TIP3    H228207   1.557   4.366   6.237
 9422TIP3   OH228208   6.844   1.714   4.209
 9422TIP3    H128209   6.861   1.624   4.235
 9422TIP3    H228210   6.772   1.742   4.266
 9423TIP3   OH228211   2.950   1.127   0.730
 9423TIP3    H128212   2.967   1.181   0.653
 9423TIP3    H228213   3.030   1.075   0.741
 9424TIP3   OH228214   2.866   1.579   3.411
 9424TIP3    H128215   2.937   1.519   3.436
 9424TIP3    H228216   2.786   1.538   3.443
 9425TIP3   OH228217   6.703   6.837   5.031
 9425TIP3    H128218   6.707   6.903   5.100
 9425TIP3    H228219   6.744   6.878   4.955
 9426TIP3   OH228220   7.010   4.285   1.738
 9426TIP3    H128221   6.953   4.328   1.675
 9426TIP3    H228222   6.976   4.196   1.746
 9427TIP3   OH228223   0.972   5.532   0.682
 9427TIP3    H128224   0.987   5.529   0.777
 9427TIP3    H228225   0.941   5.621   0.666
 9428TIP3   OH228226   1.312   5.795   6.595
 9428TIP3    H128227   1.333   5.713   6.550
 9428TIP3    H228228   1.234   5.828   6.551
 9429TIP3   OH228229   3.661   2.220   5.931
 9429TIP3    H128230   3.634   2.151   5.870
 9429TIP3    H228231   3.592   2.287   5.924
 9430TIP3   OH228232   4.534   2.708   0.083
 9430TIP3    H128233   4.589   2.750   0.017
 9430TIP3    H228234   4.589   2.703   0.161
 9431TIP3   OH228235   7.028   1.075   0.323
 9431TIP3    H128236   7.080   1.020   0.381
 9431TIP3    H228237   6.952   1.099   0.375
 9432TIP3   OH228238   1.825   3.576   4.343
 9432TIP3    H128239   1.802   3.495   4.296
 9432TIP3    H228240   1.915   3.595   4.315
 9433TIP3   OH228241   1.292   3.143   2.297
 9433TIP3    H128242   1.198   3.135   2.285
 9433TIP3    H228243   1.329   3.067   2.252
 9434TIP3   OH228244   5.898   1.842   2.266
 9434TIP3    H128245   5.847   1.777   2.313
 9434TIP3    H228246   5.921   1.907   2.332
 9435TIP3   OH228247   0.407   1.532   5.863
 9435TIP3    H128248   0.339   1.581   5.909
 9435TIP3    H228249   0.484   1.541   5.919
 9436TIP3   OH228250   4.589   5.339   3.505
 9436TIP3    H128251   4.544   5.416   3.469
 9436TIP3    H228252   4.682   5.363   3.505
 9437TIP3   OH228253   1.375   5.025   0.435
 9437TIP3    H128254   1.415   4.988   0.514
 9437TIP3    H228255   1.368   4.952   0.375
 9438TIP3   OH228256   6.509   2.246   6.106
 9438TIP3    H128257   6.425   2.275   6.070
 9438TIP3    H228258   6.485   2.189   6.179
 9439TIP3   OH228259   6.783   7.135   1.540
 9439TIP3    H128260   6.799   7.189   1.463
 9439TIP3    H228261   6.708   7.081   1.517
 9440TIP3   OH228262   0.164   4.273   4.462
 9440TIP3    H128263   0.147   4.348   4.406
 9440TIP3    H228264   0.252   4.244   4.439
 9441TIP3   OH228265   5.853   0.143   0.849
 9441TIP3    H128266   5.832   0.050   0.855
 9441TIP3    H228267   5.939   0.151   0.890
 9442TIP3   OH228268   2.006   0.164   6.006
 9442TIP3    H128269   2.052   0.210   6.075
 9442TIP3    H228270   1.916   0.154   6.038
 9443TIP3   OH228271   5.204   0.147   0.313
 9443TIP3    H128272   5.125   0.162   0.365
 9443TIP3    H228273   5.215   0.052   0.312
 9444TIP3   OH228274   3.466   2.192   2.348
 9444TIP3    H128275   3.391   2.159   2.298
 9444TIP3    H228276   3.458   2.287   2.343
 9445TIP3   OH228277   1.196   2.061   5.509
 9445TIP3    H128278   1.125   2.084   5.448
 9445TIP3    H228279   1.180   1.970   5.531
 9446TIP3   OH228280   5.697   4.377   5.492
 9446TIP3    H128281   5.696   4.289   5.530
 9446TIP3    H228282   5.743   4.367   5.409
 9447TIP3   OH228283   5.350   2.630   5.731
 9447TIP3    H128284   5.417   2.636   5.663
 9447TIP3    H228285   5.323   2.538   5.731
 9448TIP3   OH228286   0.460   0.184   3.436
 9448TIP3    H128287   0.371   0.184   3.402
 9448TIP3    H228288   0.506   0.117   3.385
 9449TIP3   OH228289   5.317   1.637   3.189
 9449TIP3    H128290   5.235   1.672   3.223
 9449TIP3    H228291   5.294   1.596   3.106
 9450TIP3   OH228292   4.244   1.051   6.605
 9450TIP3    H128293   4.192   1.080   6.680
 9450TIP3    H228294   4.307   1.121   6.590
 9451TIP3   OH228295   6.245   6.564   0.328
 9451TIP3    H128296   6.161   6.541   0.368
 9451TIP3    H228297   6.230   6.558   0.234
 9452TIP3   OH228298   6.873   2.818   6.425
 9452TIP3    H128299   6.798   2.847   6.373
 9452TIP3    H228300   6.893   2.730   6.393
 9453TIP3   OH228301   4.312   0.398   6.356
 9453TIP3    H128302   4.400   0.388   6.320
 9453TIP3    H228303   4.324   0.451   6.435
 9454TIP3   OH228304   6.553   1.211   3.430
 9454TIP3    H128305   6.502   1.234   3.352
 9454TIP3    H228306   6.571   1.295   3.473
 9455TIP3   OH228307   7.355   0.305   4.193
 9455TIP3    H128308   7.325   0.233   4.248
 9455TIP3    H228309   7.394   0.368   4.255
 9456TIP3   OH228310   7.002   7.302   1.665
 9456TIP3    H128311   7.054   7.256   1.732
 9456TIP3    H228312   6.924   7.248   1.655
 9457TIP3   OH228313   1.396   5.372   0.135
 9457TIP3    H128314   1.416   5.336   0.221
 9457TIP3    H228315   1.402   5.298   0.076
 9458TIP3   OH228316   2.547   3.677   2.830
 9458TIP3    H128317   2.571   3.614   2.898
 9458TIP3    H228318   2.497   3.626   2.767
 9459TIP3   OH228319   3.214   1.460   3.263
 9459TIP3    H128320   3.265   1.405   3.204
 9459TIP3    H228321   3.252   1.547   3.254
 9460TIP3   OH228322   4.562   3.915   2.577
 9460TIP3    H128323   4.652   3.945   2.562
 9460TIP3    H228324   4.509   3.962   2.513
 9461TIP3   OH228325   2.976   4.172   0.845
 9461TIP3    H128326   3.067   4.201   0.849
 9461TIP3    H228327   2.954   4.173   0.752
 9462TIP3   OH228328   0.565   1.621   1.638
 9462TIP3    H128329   0.591   1.554   1.574
 9462TIP3    H228330   0.529   1.692   1.585
 9463TIP3   OH228331   7.476   3.423   2.551
 9463TIP3    H128332   7.511   3.390   2.634
 9463TIP3    H228333   7.385   3.394   2.550
 9464TIP3   OH228334   6.709   6.209   0.594
 9464TIP3    H128335   6.782   6.233   0.538
 9464TIP3    H228336   6.631   6.230   0.542
 9465TIP3   OH228337   1.028   1.967   3.198
 9465TIP3    H128338   1.089   2.041   3.197
 9465TIP3    H228339   0.954   1.998   3.251
 9466TIP3   OH228340   1.029   5.642   0.954
 9466TIP3    H128341   0.982   5.645   1.038
 9466TIP3    H228342   1.072   5.727   0.948
 9467TIP3   OH228343   1.376   3.830   4.898
 9467TIP3    H128344   1.413   3.828   4.986
 9467TIP3    H228345   1.353   3.739   4.879
 9468TIP3   OH228346   4.163   0.805   2.889
 9468TIP3    H128347   4.175   0.713   2.911
 9468TIP3    H228348   4.090   0.834   2.944
 9469TIP3   OH228349   4.773   3.013   0.028
 9469TIP3    H128350   4.770   3.080  -0.041
 9469TIP3    H228351   4.767   3.063   0.109
 9470TIP3   OH228352   7.444   5.542   6.232
 9470TIP3    H128353   7.422   5.458   6.272
 9470TIP3    H228354   7.389   5.606   6.278
 9471TIP3   OH228355   4.943   2.548   1.717
 9471TIP3    H128356   4.886   2.523   1.644
 9471TIP3    H228357   4.914   2.494   1.790
 9472TIP3   OH228358   2.831   7.636   4.536
 9472TIP3    H128359   2.753   7.691   4.542
 9472TIP3    H228360   2.804   7.552   4.572
 9473TIP3   OH228361   3.327   3.689   4.132
 9473TIP3    H128362   3.284   3.606   4.149
 9473TIP3    H228363   3.255   3.752   4.124
 9474TIP3   OH228364   0.513   0.869   4.556
 9474TIP3    H128365   0.582   0.859   4.491
 9474TIP3    H228366   0.432   0.861   4.506
 9475TIP3   OH228367   7.266   5.191   5.440
 9475TIP3    H128368   7.269   5.246   5.362
 9475TIP3    H228369   7.257   5.102   5.406
 9476TIP3   OH228370   3.446   3.545   0.600
 9476TIP3    H128371   3.476   3.573   0.513
 9476TIP3    H228372   3.368   3.492   0.583
 9477TIP3   OH228373   5.415   2.699   4.848
 9477TIP3    H128374   5.391   2.652   4.769
 9477TIP3    H228375   5.366   2.656   4.918
 9478TIP3   OH228376   4.027   7.000   5.827
 9478TIP3    H128377   4.022   6.906   5.812
 9478TIP3    H228378   3.944   7.023   5.868
 9479TIP3   OH228379   3.378   5.215   6.470
 9479TIP3    H128380   3.340   5.153   6.532
 9479TIP3    H228381   3.407   5.288   6.524
 9480TIP3   OH228382   1.532   6.321   5.697
 9480TIP3    H128383   1.581   6.392   5.739
 9480TIP3    H228384   1.572   6.312   5.611
 9481TIP3   OH228385   2.001   3.246   6.022
 9481TIP3    H128386   1.956   3.175   6.068
 9481TIP3    H228387   1.939   3.274   5.954
 9482TIP3   OH228388   6.589   1.261   3.037
 9482TIP3    H128389   6.524   1.331   3.032
 9482TIP3    H228390   6.605   1.236   2.946
 9483TIP3   OH228391   4.073   2.446   4.022
 9483TIP3    H128392   4.119   2.494   3.952
 9483TIP3    H228393   4.143   2.413   4.078
 9484TIP3   OH228394   4.183   5.180   5.147
 9484TIP3    H128395   4.097   5.137   5.150
 9484TIP3    H228396   4.170   5.257   5.092
 9485TIP3   OH228397   8.023   1.453   5.899
 9485TIP3    H128398   7.956   1.412   5.844
 9485TIP3    H228399   7.976   1.522   5.946
 9486TIP3   OH228400   3.466   6.885   3.294
 9486TIP3    H128401   3.451   6.927   3.209
 9486TIP3    H228402   3.524   6.811   3.274
 9487TIP3   OH228403   5.007   5.946   0.997
 9487TIP3    H128404   4.977   5.893   0.923
 9487TIP3    H228405   5.004   5.887   1.072
 9488TIP3   OH228406   5.274   6.126   0.443
 9488TIP3    H128407   5.220   6.180   0.385
 9488TIP3    H228408   5.359   6.170   0.444
 9489TIP3   OH228409   0.853   0.520   6.574
 9489TIP3    H128410   0.931   0.479   6.537
 9489TIP3    H228411   0.854   0.495   6.666
 9490TIP3   OH228412   0.644   5.229   4.741
 9490TIP3    H128413   0.691   5.154   4.776
 9490TIP3    H228414   0.552   5.204   4.743
 9491TIP3   OH228415   1.505   5.172   4.807
 9491TIP3    H128416   1.594   5.183   4.841
 9491TIP3    H228417   1.469   5.260   4.805
 9492TIP3   OH228418   4.690   6.690   5.508
 9492TIP3    H128419   4.706   6.777   5.473
 9492TIP3    H228420   4.765   6.672   5.564
 9493TIP3   OH228421   6.687   1.012   5.041
 9493TIP3    H128422   6.777   1.038   5.022
 9493TIP3    H228423   6.635   1.089   5.017
 9494TIP3   OH228424   2.076   1.391   5.132
 9494TIP3    H128425   2.032   1.366   5.213
 9494TIP3    H228426   2.167   1.408   5.158
 9495TIP3   OH228427   6.424   0.739   0.832
 9495TIP3    H128428   6.502   0.708   0.878
 9495TIP3    H228429   6.453   0.753   0.742
 9496TIP3   OH228430   4.523   2.286   5.283
 9496TIP3    H128431   4.607   2.332   5.281
 9496TIP3    H228432   4.532   2.222   5.353
 9497TIP3   OH228433   6.514   0.129   0.179
 9497TIP3    H128434   6.482   0.086   0.258
 9497TIP3    H228435   6.602   0.094   0.166
 9498TIP3   OH228436   2.370   0.754   6.026
 9498TIP3    H128437   2.410   0.681   5.979
 9498TIP3    H228438   2.342   0.716   6.109
 9499TIP3   OH228439   3.826   0.079   6.197
 9499TIP3    H128440   3.832   0.063   6.291
 9499TIP3    H228441   3.811  -0.008   6.159
 9500TIP3   OH228442   7.445   1.583   4.266
 9500TIP3    H128443   7.372   1.639   4.291
 9500TIP3    H228444   7.440   1.577   4.171
 9501TIP3   OH228445   3.079   7.005   4.467
 9501TIP3    H128446   3.153   6.959   4.429
 9501TIP3    H228447   3.096   7.006   4.561
 9502TIP3   OH228448   7.232   5.504   4.509
 9502TIP3    H128449   7.316   5.538   4.540
 9502TIP3    H228450   7.209   5.561   4.435
 9503TIP3   OH228451   8.011   2.747   1.585
 9503TIP3    H128452   8.019   2.842   1.596
 9503TIP3    H228453   8.089   2.721   1.536
 9504TIP3   OH228454   5.933   0.475   5.572
 9504TIP3    H128455   5.898   0.482   5.660
 9504TIP3    H228456   6.015   0.525   5.575
 9505TIP3   OH228457   1.736  -0.032   2.691
 9505TIP3    H128458   1.802  -0.083   2.739
 9505TIP3    H228459   1.786   0.036   2.646
 9506TIP3   OH228460   0.992   0.996   3.680
 9506TIP3    H128461   0.918   1.040   3.638
 9506TIP3    H228462   0.981   1.015   3.773
 9507TIP3   OH228463   6.657   2.733   1.569
 9507TIP3    H128464   6.625   2.795   1.634
 9507TIP3    H228465   6.585   2.724   1.506
 9508TIP3   OH228466   8.119   2.200   5.737
 9508TIP3    H128467   8.210   2.208   5.764
 9508TIP3    H228468   8.069   2.199   5.818
 9509TIP3   OH228469   8.101   6.442   1.935
 9509TIP3    H128470   8.171   6.497   1.900
 9509TIP3    H228471   8.143   6.356   1.948
 9510TIP3   OH228472   6.107   1.630   1.820
 9510TIP3    H128473   6.173   1.619   1.752
 9510TIP3    H228474   6.089   1.724   1.821
 9511TIP3   OH228475   2.469   1.915   4.327
 9511TIP3    H128476   2.490   1.952   4.413
 9511TIP3    H228477   2.442   1.990   4.274
 9512TIP3   OH228478   6.630   1.726   6.323
 9512TIP3    H128479   6.653   1.645   6.277
 9512TIP3    H228480   6.648   1.707   6.415
 9513TIP3   OH228481   3.093   5.752   3.025
 9513TIP3    H128482   3.140   5.801   2.957
 9513TIP3    H228483   3.137   5.667   3.028
 9514TIP3   OH228484   2.874   4.778   6.168
 9514TIP3    H128485   2.778   4.780   6.172
 9514TIP3    H228486   2.897   4.853   6.113
 9515TIP3   OH228487   3.951   3.997   6.382
 9515TIP3    H128488   4.031   4.002   6.434
 9515TIP3    H228489   3.964   3.921   6.324
 9516TIP3   OH228490   1.146   5.143   1.161
 9516TIP3    H128491   1.209   5.188   1.217
 9516TIP3    H228492   1.197   5.077   1.114
 9517TIP3   OH228493   3.309   5.665   6.695
 9517TIP3    H128494   3.216   5.646   6.684
 9517TIP3    H228495   3.332   5.715   6.617
 9518TIP3   OH228496   7.537   6.954   3.431
 9518TIP3    H128497   7.501   7.031   3.387
 9518TIP3    H228498   7.536   6.977   3.524
 9519TIP3   OH228499   0.629   1.864   2.893
 9519TIP3    H128500   0.666   1.924   2.828
 9519TIP3    H228501   0.566   1.918   2.942
 9520TIP3   OH228502   3.167   5.201   5.479
 9520TIP3    H128503   3.249   5.196   5.528
 9520TIP3    H228504   3.128   5.285   5.505
 9521TIP3   OH228505   5.626   7.103   3.368
 9521TIP3    H128506   5.715   7.108   3.334
 9521TIP3    H228507   5.604   7.194   3.391
 9522TIP3   OH228508   4.258   7.232   1.660
 9522TIP3    H128509   4.218   7.309   1.619
 9522TIP3    H228510   4.317   7.197   1.594
 9523TIP3   OH228511   7.927   0.777   5.417
 9523TIP3    H128512   7.971   0.852   5.458
 9523TIP3    H228513   7.994   0.709   5.414
 9524TIP3   OH228514   4.160   2.802   4.414
 9524TIP3    H128515   4.109   2.834   4.339
 9524TIP3    H228516   4.097   2.799   4.486
 9525TIP3   OH228517   7.900   6.143   4.504
 9525TIP3    H128518   7.949   6.176   4.428
 9525TIP3    H228519   7.834   6.210   4.521
 9526TIP3   OH228520   5.807   6.078   3.386
 9526TIP3    H128521   5.820   6.054   3.478
 9526TIP3    H228522   5.759   6.161   3.390
 9527TIP3   OH228523   7.657   0.204   1.051
 9527TIP3    H128524   7.724   0.220   0.985
 9527TIP3    H228525   7.700   0.225   1.134
 9528TIP3   OH228526   4.337   6.687   2.373
 9528TIP3    H128527   4.293   6.683   2.288
 9528TIP3    H228528   4.270   6.660   2.436
 9529TIP3   OH228529   5.811   4.643   1.393
 9529TIP3    H128530   5.861   4.689   1.326
 9529TIP3    H228531   5.838   4.551   1.384
 9530TIP3   OH228532   1.527   4.994   4.331
 9530TIP3    H128533   1.501   5.027   4.417
 9530TIP3    H228534   1.522   4.899   4.339
 9531TIP3   OH228535   3.208   0.450   3.166
 9531TIP3    H128536   3.277   0.449   3.100
 9531TIP3    H228537   3.173   0.361   3.166
 9532TIP3   OH228538   1.599   4.718   6.083
 9532TIP3    H128539   1.518   4.745   6.124
 9532TIP3    H228540   1.572   4.669   6.005
 9533TIP3   OH228541   7.303   2.044   2.214
 9533TIP3    H128542   7.282   2.019   2.124
 9533TIP3    H228543   7.222   2.029   2.262
 9534TIP3   OH228544   2.351   5.461   4.655
 9534TIP3    H128545   2.290   5.446   4.726
 9534TIP3    H228546   2.408   5.531   4.686
 9535TIP3   OH228547   5.425   6.251   2.164
 9535TIP3    H128548   5.444   6.310   2.091
 9535TIP3    H228549   5.436   6.305   2.242
 9536TIP3   OH228550   7.347   7.296   0.556
 9536TIP3    H128551   7.252   7.305   0.564
 9536TIP3    H228552   7.367   7.208   0.588
 9537TIP3   OH228553   3.679   2.408   4.774
 9537TIP3    H128554   3.604   2.355   4.801
 9537TIP3    H228555   3.668   2.490   4.821
 9538TIP3   OH228556   1.903   4.998   5.247
 9538TIP3    H128557   1.929   4.909   5.224
 9538TIP3    H228558   1.809   5.002   5.229
 9539TIP3   OH228559   0.779   4.686   3.096
 9539TIP3    H128560   0.722   4.681   3.019
 9539TIP3    H228561   0.868   4.690   3.061
 9540TIP3   OH228562   2.335   5.699   2.543
 9540TIP3    H128563   2.263   5.762   2.545
 9540TIP3    H228564   2.294   5.615   2.560
 9541TIP3   OH228565   3.857   7.600   0.716
 9541TIP3    H128566   3.857   7.606   0.621
 9541TIP3    H228567   3.947   7.576   0.739
 9542TIP3   OH228568   5.098   1.593   1.581
 9542TIP3    H128569   5.171   1.539   1.611
 9542TIP3    H228570   5.124   1.621   1.493
 9543TIP3   OH228571   2.918   3.493   5.436
 9543TIP3    H128572   2.950   3.435   5.505
 9543TIP3    H228573   2.977   3.569   5.439
 9544TIP3   OH228574   7.000   4.982   0.381
 9544TIP3    H128575   6.916   5.025   0.399
 9544TIP3    H228576   6.977   4.903   0.333
 9545TIP3   OH228577   4.912   0.794   0.402
 9545TIP3    H128578   4.836   0.798   0.343
 9545TIP3    H228579   4.987   0.780   0.344
 9546TIP3   OH228580   8.007   3.837   4.975
 9546TIP3    H128581   7.941   3.784   4.929
 9546TIP3    H228582   8.026   3.909   4.915
 9547TIP3   OH228583   4.609   1.760   0.511
 9547TIP3    H128584   4.664   1.796   0.441
 9547TIP3    H228585   4.535   1.720   0.466
 9548TIP3   OH228586   6.424   6.755   3.224
 9548TIP3    H128587   6.465   6.807   3.156
 9548TIP3    H228588   6.382   6.682   3.177
 9549TIP3   OH228589   6.189   2.202   3.905
 9549TIP3    H128590   6.179   2.150   3.984
 9549TIP3    H228591   6.175   2.140   3.833
 9550TIP3   OH228592   7.422   3.926   0.721
 9550TIP3    H128593   7.386   4.015   0.714
 9550TIP3    H228594   7.421   3.907   0.815
 9551TIP3   OH228595   3.812   5.774   1.124
 9551TIP3    H128596   3.802   5.818   1.040
 9551TIP3    H228597   3.727   5.785   1.167
 9552TIP3   OH228598   6.812   5.565   4.938
 9552TIP3    H128599   6.825   5.483   4.891
 9552TIP3    H228600   6.802   5.539   5.030
 9553TIP3   OH228601   4.376   7.295   2.301
 9553TIP3    H128602   4.294   7.273   2.256
 9553TIP3    H228603   4.394   7.385   2.276
 9554TIP3   OH228604   4.365   5.607   4.633
 9554TIP3    H128605   4.382   5.669   4.561
 9554TIP3    H228606   4.443   5.614   4.689
 9555TIP3   OH228607   2.304   4.337   5.920
 9555TIP3    H128608   2.256   4.288   5.853
 9555TIP3    H228609   2.307   4.427   5.886
 9556TIP3   OH228610   2.164   7.253   3.091
 9556TIP3    H128611   2.141   7.216   3.005
 9556TIP3    H228612   2.088   7.234   3.146
 9557TIP3   OH228613   1.592   3.886   5.207
 9557TIP3    H128614   1.602   3.980   5.197
 9557TIP3    H228615   1.646   3.863   5.282
 9558TIP3   OH228616   5.557   0.335   3.569
 9558TIP3    H128617   5.651   0.341   3.588
 9558TIP3    H228618   5.552   0.312   3.476
 9559TIP3   OH228619   8.243   7.174   4.161
 9559TIP3    H128620   8.278   7.120   4.232
 9559TIP3    H228621   8.233   7.261   4.201
 9560TIP3   OH228622   4.009   1.671   3.124
 9560TIP3    H128623   4.061   1.686   3.203
 9560TIP3    H228624   3.925   1.711   3.142
 9561TIP3   OH228625   7.887   5.501   1.568
 9561TIP3    H128626   7.792   5.500   1.553
 9561TIP3    H228627   7.907   5.414   1.602
 9562TIP3   OH228628   8.111   1.620   0.112
 9562TIP3    H128629   8.181   1.679   0.141
 9562TIP3    H228630   8.143   1.532   0.133
 9563TIP3   OH228631   2.085   4.210   6.419
 9563TIP3    H128632   2.076   4.138   6.356
 9563TIP3    H228633   2.174   4.201   6.453
 9564TIP3   OH228634   4.916   5.403   2.669
 9564TIP3    H128635   4.879   5.320   2.698
 9564TIP3    H228636   4.910   5.400   2.573
 9565TIP3   OH228637   0.705   0.748   6.519
 9565TIP3    H128638   0.718   0.743   6.425
 9565TIP3    H228639   0.746   0.668   6.553
 9566TIP3   OH228640   4.580   6.045   5.843
 9566TIP3    H128641   4.492   6.016   5.865
 9566TIP3    H228642   4.602   5.995   5.764
 9567TIP3   OH228643   1.849   7.525   4.399
 9567TIP3    H128644   1.866   7.614   4.431
 9567TIP3    H228645   1.919   7.472   4.436
 9568TIP3   OH228646   3.508   6.623   3.233
 9568TIP3    H128647   3.414   6.631   3.219
 9568TIP3    H228648   3.516   6.589   3.322
 9569TIP3   OH228649   5.719   3.783   4.622
 9569TIP3    H128650   5.668   3.862   4.640
 9569TIP3    H228651   5.793   3.788   4.682
 9570TIP3   OH228652   1.511   6.038   3.727
 9570TIP3    H128653   1.448   6.095   3.771
 9570TIP3    H228654   1.462   5.960   3.704
 9571TIP3   OH228655   4.316   1.428   4.132
 9571TIP3    H128656   4.331   1.522   4.135
 9571TIP3    H228657   4.402   1.390   4.119
 9572TIP3   OH228658   4.505   3.684   1.283
 9572TIP3    H128659   4.516   3.777   1.302
 9572TIP3    H228660   4.565   3.667   1.211
 9573TIP3   OH228661   2.351   7.729   1.536
 9573TIP3    H128662   2.391   7.708   1.621
 9573TIP3    H228663   2.425   7.756   1.482
 9574TIP3   OH228664   1.973   7.438   4.982
 9574TIP3    H128665   2.045   7.391   4.941
 9574TIP3    H228666   1.926   7.479   4.909
 9575TIP3   OH228667   1.684   1.408   5.542
 9575TIP3    H128668   1.773   1.441   5.530
 9575TIP3    H228669   1.657   1.381   5.455
 9576TIP3   OH228670   4.282   0.268   6.610
 9576TIP3    H128671   4.270   0.299   6.699
 9576TIP3    H228672   4.220   0.319   6.558
 9577TIP3   OH228673   5.229   7.454   6.096
 9577TIP3    H128674   5.212   7.424   6.006
 9577TIP3    H228675   5.247   7.373   6.145
 9578TIP3   OH228676   5.527   1.479   1.265
 9578TIP3    H128677   5.610   1.485   1.313
 9578TIP3    H228678   5.462   1.457   1.332
 9579TIP3   OH228679   0.221   7.488   1.499
 9579TIP3    H128680   0.185   7.566   1.540
 9579TIP3    H228681   0.157   7.419   1.519
 9580TIP3   OH228682   1.347   2.924   5.283
 9580TIP3    H128683   1.326   2.833   5.304
 9580TIP3    H228684   1.390   2.958   5.361
 9581TIP3   OH228685   1.059   4.528   1.828
 9581TIP3    H128686   0.973   4.550   1.862
 9581TIP3    H228687   1.106   4.493   1.904
 9582TIP3   OH228688   5.394   1.706   6.332
 9582TIP3    H128689   5.483   1.740   6.326
 9582TIP3    H228690   5.368   1.691   6.241
 9583TIP3   OH228691   2.728   6.634   5.422
 9583TIP3    H128692   2.652   6.685   5.451
 9583TIP3    H228693   2.733   6.562   5.485
 9584TIP3   OH228694   8.137   7.101   0.469
 9584TIP3    H128695   8.069   7.147   0.518
 9584TIP3    H228696   8.101   7.015   0.452
 9585TIP3   OH228697   5.990   4.448   2.192
 9585TIP3    H128698   5.954   4.370   2.235
 9585TIP3    H228699   5.994   4.514   2.260
 9586TIP3   OH228700   1.774   2.639   3.427
 9586TIP3    H128701   1.759   2.703   3.357
 9586TIP3    H228702   1.690   2.634   3.472
 9587TIP3   OH228703   6.174   3.542   0.946
 9587TIP3    H128704   6.180   3.564   1.039
 9587TIP3    H228705   6.219   3.458   0.939
 9588TIP3   OH228706   0.799   0.761   5.236
 9588TIP3    H128707   0.753   0.696   5.182
 9588TIP3    H228708   0.888   0.761   5.201
 9589TIP3   OH228709   0.568   2.275   0.438
 9589TIP3    H128710   0.480   2.302   0.410
 9589TIP3    H228711   0.625   2.299   0.365
 9590TIP3   OH228712   8.177   2.148   2.546
 9590TIP3    H128713   8.123   2.169   2.471
 9590TIP3    H228714   8.229   2.228   2.561
 9591TIP3   OH228715   6.792   3.660   5.629
 9591TIP3    H128716   6.763   3.577   5.592
 9591TIP3    H228717   6.887   3.660   5.616
 9592TIP3   OH228718   3.445   2.002   1.758
 9592TIP3    H128719   3.425   2.060   1.684
 9592TIP3    H228720   3.377   1.935   1.755
 9593TIP3   OH228721   2.617   0.465   3.164
 9593TIP3    H128722   2.694   0.505   3.203
 9593TIP3    H228723   2.571   0.425   3.238
 9594TIP3   OH228724   0.825   2.149   3.026
 9594TIP3    H128725   0.808   2.130   3.118
 9594TIP3    H228726   0.920   2.143   3.017
 9595TIP3   OH228727   2.037   4.517   5.531
 9595TIP3    H128728   2.006   4.585   5.591
 9595TIP3    H228729   2.110   4.557   5.484
 9596TIP3   OH228730   0.200   1.413   2.397
 9596TIP3    H128731   0.274   1.472   2.412
 9596TIP3    H228732   0.180   1.422   2.304
 9597TIP3   OH228733   6.318   4.654   1.061
 9597TIP3    H128734   6.373   4.660   0.983
 9597TIP3    H228735   6.372   4.691   1.131
 9598TIP3   OH228736   5.899   0.533   5.251
 9598TIP3    H128737   5.927   0.482   5.327
 9598TIP3    H228738   5.980   0.561   5.209
 9599TIP3   OH228739   1.926   7.236   3.685
 9599TIP3    H128740   1.936   7.142   3.667
 9599TIP3    H228741   1.945   7.245   3.778
 9600TIP3   OH228742   3.837   2.057   6.386
 9600TIP3    H128743   3.791   2.102   6.315
 9600TIP3    H228744   3.930   2.078   6.371
 9601TIP3   OH228745   4.560   7.655   3.329
 9601TIP3    H128746   4.566   7.624   3.419
 9601TIP3    H228747   4.651   7.665   3.301
 9602TIP3   OH228748   7.813   6.188   5.363
 9602TIP3    H128749   7.890   6.138   5.337
 9602TIP3    H228750   7.742   6.152   5.308
 9603TIP3   OH228751   5.459   1.643   0.427
 9603TIP3    H128752   5.481   1.587   0.352
 9603TIP3    H228753   5.494   1.729   0.404
 9604TIP3   OH228754   7.214   0.930   2.874
 9604TIP3    H128755   7.196   1.005   2.817
 9604TIP3    H228756   7.129   0.889   2.887
 9605TIP3   OH228757   1.508   2.400   3.112
 9605TIP3    H128758   1.498   2.490   3.143
 9605TIP3    H228759   1.488   2.346   3.188
 9606TIP3   OH228760   1.463   3.280   6.273
 9606TIP3    H128761   1.515   3.287   6.193
 9606TIP3    H228762   1.401   3.210   6.256
 9607TIP3   OH228763   8.123   2.917   3.932
 9607TIP3    H128764   8.216   2.934   3.943
 9607TIP3    H228765   8.117   2.821   3.927
 9608TIP3   OH228766   7.719   4.823   5.453
 9608TIP3    H128767   7.625   4.804   5.460
 9608TIP3    H228768   7.744   4.788   5.368
 9609TIP3   OH228769   7.575   4.243   5.675
 9609TIP3    H128770   7.561   4.170   5.736
 9609TIP3    H228771   7.493   4.291   5.676
 9610TIP3   OH228772   3.772   6.425   4.470
 9610TIP3    H128773   3.769   6.517   4.444
 9610TIP3    H228774   3.683   6.393   4.456
 9611TIP3   OH228775   2.415   3.428   1.922
 9611TIP3    H128776   2.453   3.485   1.989
 9611TIP3    H228777   2.419   3.479   1.841
 9612TIP3   OH228778   7.916   7.447   0.614
 9612TIP3    H128779   7.903   7.437   0.708
 9612TIP3    H228780   7.848   7.393   0.574
 9613TIP3   OH228781   3.652   4.486   5.088
 9613TIP3    H128782   3.745   4.470   5.076
 9613TIP3    H228783   3.629   4.436   5.167
 9614TIP3   OH228784   7.083   5.435   5.621
 9614TIP3    H128785   7.087   5.503   5.688
 9614TIP3    H228786   7.154   5.375   5.642
 9615TIP3   OH228787   8.321   5.984   0.168
 9615TIP3    H128788   8.285   5.979   0.079
 9615TIP3    H228789   8.411   6.015   0.155
 9616TIP3   OH228790   3.978   0.435   1.751
 9616TIP3    H128791   4.042   0.427   1.822
 9616TIP3    H228792   4.024   0.406   1.673
 9617TIP3   OH228793   7.965   3.371   4.438
 9617TIP3    H128794   7.981   3.418   4.520
 9617TIP3    H228795   7.901   3.425   4.392
 9618TIP3   OH228796   7.917   5.835   2.085
 9618TIP3    H128797   7.856   5.766   2.111
 9618TIP3    H228798   7.951   5.868   2.168
 9619TIP3   OH228799   1.341   2.642   3.128
 9619TIP3    H128800   1.280   2.714   3.147
 9619TIP3    H228801   1.317   2.573   3.191
 9620TIP3   OH228802   5.007   3.230   1.434
 9620TIP3    H128803   5.021   3.324   1.433
 9620TIP3    H228804   5.093   3.193   1.454
 9621TIP3   OH228805   0.519   6.695   1.820
 9621TIP3    H128806   0.444   6.674   1.764
 9621TIP3    H228807   0.493   6.774   1.867
 9622TIP3   OH228808   1.053   1.866   2.791
 9622TIP3    H128809   0.967   1.880   2.752
 9622TIP3    H228810   1.053   1.921   2.870
 9623TIP3   OH228811   5.989   2.876   2.551
 9623TIP3    H128812   6.005   2.921   2.467
 9623TIP3    H228813   6.043   2.924   2.613
 9624TIP3   OH228814   2.144   4.810   3.842
 9624TIP3    H128815   2.078   4.756   3.799
 9624TIP3    H228816   2.127   4.798   3.936
 9625TIP3   OH228817   3.711   1.531   4.719
 9625TIP3    H128818   3.729   1.437   4.717
 9625TIP3    H228819   3.754   1.561   4.800
 9626TIP3   OH228820   5.976   3.249   2.413
 9626TIP3    H128821   6.011   3.229   2.501
 9626TIP3    H228822   5.999   3.340   2.399
 9627TIP3   OH228823   3.499   7.554   2.960
 9627TIP3    H128824   3.438   7.535   3.032
 9627TIP3    H228825   3.580   7.511   2.986
 9628TIP3   OH228826   1.337   0.515   3.663
 9628TIP3    H128827   1.301   0.595   3.700
 9628TIP3    H228828   1.428   0.538   3.641
 9629TIP3   OH228829   1.965   2.000   0.203
 9629TIP3    H128830   2.047   1.995   0.252
 9629TIP3    H228831   1.975   1.936   0.132
 9630TIP3   OH228832   7.662   4.779   5.873
 9630TIP3    H128833   7.609   4.808   5.799
 9630TIP3    H228834   7.603   4.781   5.947
 9631TIP3   OH228835   6.421   0.493   2.212
 9631TIP3    H128836   6.368   0.414   2.198
 9631TIP3    H228837   6.359   0.565   2.199
 9632TIP3   OH228838   0.403   2.782   3.534
 9632TIP3    H128839   0.496   2.758   3.535
 9632TIP3    H228840   0.361   2.714   3.588
 9633TIP3   OH228841   5.874   0.595   0.484
 9633TIP3    H128842   5.790   0.639   0.498
 9633TIP3    H228843   5.919   0.649   0.420
 9634TIP3   OH228844   3.236   2.590   5.078
 9634TIP3    H128845   3.238   2.598   4.983
 9634TIP3    H228846   3.328   2.576   5.102
 9635TIP3   OH228847   5.961   6.441   2.092
 9635TIP3    H128848   5.954   6.503   2.019
 9635TIP3    H228849   5.891   6.466   2.152
 9636TIP3   OH228850   0.944   4.178   1.736
 9636TIP3    H128851   0.988   4.164   1.820
 9636TIP3    H228852   1.011   4.159   1.671
 9637TIP3   OH228853   7.625   3.763   4.344
 9637TIP3    H128854   7.650   3.767   4.252
 9637TIP3    H228855   7.658   3.845   4.381
 9638TIP3   OH228856   1.988   1.998   5.964
 9638TIP3    H128857   1.988   2.086   5.926
 9638TIP3    H228858   2.070   1.959   5.934
 9639TIP3   OH228859   0.355   1.070   3.684
 9639TIP3    H128860   0.313   1.007   3.625
 9639TIP3    H228861   0.358   1.025   3.768
 9640TIP3   OH228862   3.548   3.358   4.889
 9640TIP3    H128863   3.513   3.330   4.804
 9640TIP3    H228864   3.515   3.293   4.951
 9641TIP3   OH228865   2.940   1.252   0.479
 9641TIP3    H128866   2.967   1.297   0.399
 9641TIP3    H228867   2.845   1.260   0.480
 9642TIP3   OH228868   6.209   6.987   1.692
 9642TIP3    H128869   6.208   7.037   1.774
 9642TIP3    H228870   6.121   6.998   1.655
 9643TIP3   OH228871   4.108   5.318   0.350
 9643TIP3    H128872   4.138   5.276   0.431
 9643TIP3    H228873   4.017   5.291   0.341
 9644TIP3   OH228874   0.169   3.288   4.797
 9644TIP3    H128875   0.096   3.349   4.786
 9644TIP3    H228876   0.199   3.302   4.887
 9645TIP3   OH228877   1.297   3.020   4.533
 9645TIP3    H128878   1.300   3.106   4.492
 9645TIP3    H228879   1.371   3.019   4.594
 9646TIP3   OH228880   5.708   6.531   2.191
 9646TIP3    H128881   5.624   6.495   2.165
 9646TIP3    H228882   5.707   6.622   2.160
 9647TIP3   OH228883   3.377   3.086   2.855
 9647TIP3    H128884   3.284   3.104   2.840
 9647TIP3    H228885   3.395   3.122   2.942
 9648TIP3   OH228886   1.002   1.933   5.919
 9648TIP3    H128887   1.055   2.012   5.930
 9648TIP3    H228888   0.960   1.921   6.005
 9649TIP3   OH228889   6.734   2.443   3.862
 9649TIP3    H128890   6.786   2.417   3.786
 9649TIP3    H228891   6.664   2.496   3.827
 9650TIP3   OH228892   3.783   4.717   6.069
 9650TIP3    H128893   3.781   4.624   6.045
 9650TIP3    H228894   3.717   4.757   6.012
 9651TIP3   OH228895   3.431   6.205   3.276
 9651TIP3    H128896   3.515   6.239   3.306
 9651TIP3    H228897   3.408   6.260   3.201
 9652TIP3   OH228898   2.538   5.597   1.298
 9652TIP3    H128899   2.524   5.591   1.203
 9652TIP3    H228900   2.464   5.649   1.329
 9653TIP3   OH228901   5.595   0.621   5.325
 9653TIP3    H128902   5.670   0.646   5.380
 9653TIP3    H228903   5.560   0.704   5.294
 9654TIP3   OH228904   2.860   3.148   2.690
 9654TIP3    H128905   2.835   3.057   2.677
 9654TIP3    H228906   2.818   3.195   2.618
 9655TIP3   OH228907   5.875   5.104   1.975
 9655TIP3    H128908   5.932   5.179   1.957
 9655TIP3    H228909   5.799   5.118   1.919
 9656TIP3   OH228910   3.400   3.260   0.706
 9656TIP3    H128911   3.481   3.214   0.686
 9656TIP3    H228912   3.353   3.262   0.623
 9657TIP3   OH228913   3.897   0.951   2.223
 9657TIP3    H128914   3.831   0.924   2.160
 9657TIP3    H228915   3.976   0.964   2.171
 9658TIP3   OH228916   5.570   6.997   0.508
 9658TIP3    H128917   5.571   7.047   0.426
 9658TIP3    H228918   5.524   7.054   0.570
 9659TIP3   OH228919   4.468   1.023   6.070
 9659TIP3    H128920   4.478   1.016   6.165
 9659TIP3    H228921   4.552   0.993   6.035
 9660TIP3   OH228922   6.064   1.909   1.788
 9660TIP3    H128923   6.073   1.928   1.881
 9660TIP3    H228924   6.010   1.980   1.754
 9661TIP3   OH228925   4.978   7.324   0.669
 9661TIP3    H128926   5.057   7.313   0.616
 9661TIP3    H228927   4.907   7.326   0.605
 9662TIP3   OH228928   2.033   5.379   4.280
 9662TIP3    H128929   2.013   5.356   4.189
 9662TIP3    H228930   2.051   5.295   4.322
 9663TIP3   OH228931   5.314   6.497   4.462
 9663TIP3    H128932   5.309   6.406   4.492
 9663TIP3    H228933   5.255   6.545   4.521
 9664TIP3   OH228934   1.567   2.585   5.984
 9664TIP3    H128935   1.652   2.618   5.953
 9664TIP3    H228936   1.555   2.503   5.937
 9665TIP3   OH228937   7.033   2.699   3.730
 9665TIP3    H128938   7.030   2.792   3.754
 9665TIP3    H228939   6.942   2.675   3.715
 9666TIP3   OH228940   6.792   5.440   5.174
 9666TIP3    H128941   6.847   5.365   5.152
 9666TIP3    H228942   6.718   5.403   5.222
 9667TIP3   OH228943   6.261   2.695   2.969
 9667TIP3    H128944   6.330   2.761   2.967
 9667TIP3    H228945   6.287   2.635   3.040
 9668TIP3   OH228946   6.091   4.932   3.243
 9668TIP3    H128947   6.173   4.885   3.260
 9668TIP3    H228948   6.022   4.869   3.265
 9669TIP3   OH228949   4.229   2.707   2.029
 9669TIP3    H128950   4.138   2.702   1.999
 9669TIP3    H228951   4.229   2.662   2.113
 9670TIP3   OH228952   2.678   1.213   3.196
 9670TIP3    H128953   2.661   1.167   3.113
 9670TIP3    H228954   2.768   1.243   3.189
 9671TIP3   OH228955   5.226   0.701   6.457
 9671TIP3    H128956   5.315   0.667   6.463
 9671TIP3    H228957   5.229   0.783   6.507
 9672TIP3   OH228958   6.039   5.199   4.773
 9672TIP3    H128959   6.000   5.113   4.756
 9672TIP3    H228960   6.126   5.194   4.734
 9673TIP3   OH228961   4.253   1.235   5.464
 9673TIP3    H128962   4.319   1.185   5.511
 9673TIP3    H228963   4.302   1.306   5.422
 9674TIP3   OH228964   3.003   6.690   3.321
 9674TIP3    H128965   2.919   6.710   3.282
 9674TIP3    H228966   3.065   6.694   3.248
 9675TIP3   OH228967   7.579   0.546   3.479
 9675TIP3    H128968   7.637   0.580   3.546
 9675TIP3    H228969   7.555   0.622   3.427
 9676TIP3   OH228970   7.889   4.298   5.768
 9676TIP3    H128971   7.844   4.382   5.774
 9676TIP3    H228972   7.958   4.303   5.835
 9677TIP3   OH228973   1.277   1.622   2.971
 9677TIP3    H128974   1.257   1.529   2.983
 9677TIP3    H228975   1.248   1.664   3.052
 9678TIP3   OH228976   1.091   5.742   1.882
 9678TIP3    H128977   1.079   5.675   1.815
 9678TIP3    H228978   1.003   5.773   1.902
 9679TIP3   OH228979   5.588   6.137   3.800
 9679TIP3    H128980   5.595   6.104   3.890
 9679TIP3    H228981   5.564   6.229   3.810
 9680TIP3   OH228982   7.925   1.442   1.485
 9680TIP3    H128983   7.834   1.449   1.455
 9680TIP3    H228984   7.929   1.497   1.563
 9681TIP3   OH228985   2.269   2.457   5.593
 9681TIP3    H128986   2.345   2.399   5.586
 9681TIP3    H228987   2.224   2.448   5.509
 9682TIP3   OH228988   4.965   4.783   3.928
 9682TIP3    H128989   4.886   4.730   3.941
 9682TIP3    H228990   5.029   4.722   3.893
 9683TIP3   OH228991   0.658   5.542   1.464
 9683TIP3    H128992   0.610   5.596   1.528
 9683TIP3    H228993   0.661   5.455   1.504
 9684TIP3   OH228994   7.862   7.108   0.594
 9684TIP3    H128995   7.790   7.146   0.543
 9684TIP3    H228996   7.833   7.115   0.685
 9685TIP3   OH228997   2.979   6.121   4.459
 9685TIP3    H128998   2.929   6.048   4.495
 9685TIP3    H228999   2.983   6.185   4.530
 9686TIP3   OH229000   4.014   3.148   5.855
 9686TIP3    H129001   4.002   3.133   5.948
 9686TIP3    H229002   3.925   3.151   5.819
 9687TIP3   OH229003   2.607   6.668   2.176
 9687TIP3    H129004   2.651   6.717   2.106
 9687TIP3    H229005   2.627   6.716   2.256
 9688TIP3   OH229006   3.790   7.557   4.521
 9688TIP3    H129007   3.809   7.597   4.436
 9688TIP3    H229008   3.698   7.533   4.517
 9689TIP3   OH229009   2.543   6.059   1.880
 9689TIP3    H129010   2.549   6.107   1.963
 9689TIP3    H229011   2.627   6.015   1.872
 9690TIP3   OH229012   7.029   4.921   3.985
 9690TIP3    H129013   7.034   5.010   4.020
 9690TIP3    H229014   7.109   4.913   3.932
 9691TIP3   OH229015   6.083   0.405   0.618
 9691TIP3    H129016   6.036   0.472   0.568
 9691TIP3    H229017   6.107   0.449   0.700
 9692TIP3   OH229018   8.124   5.719   3.640
 9692TIP3    H129019   8.068   5.748   3.712
 9692TIP3    H229020   8.213   5.731   3.672
 9693TIP3   OH229021   0.810   3.085   0.038
 9693TIP3    H129022   0.899   3.111   0.014
 9693TIP3    H229023   0.814   3.071   0.133
 9694TIP3   OH229024   1.317   3.832   2.877
 9694TIP3    H129025   1.260   3.789   2.941
 9694TIP3    H229026   1.401   3.787   2.886
 9695TIP3   OH229027   3.721   0.947   0.650
 9695TIP3    H129028   3.658   0.878   0.670
 9695TIP3    H229029   3.676   1.028   0.675
 9696TIP3   OH229030   1.095   1.133   4.140
 9696TIP3    H129031   1.134   1.182   4.068
 9696TIP3    H229032   1.159   1.138   4.211
 9697TIP3   OH229033   7.639   6.365   0.469
 9697TIP3    H129034   7.584   6.297   0.508
 9697TIP3    H229035   7.694   6.395   0.542
 9698TIP3   OH229036   0.416   5.285   2.084
 9698TIP3    H129037   0.459   5.257   2.164
 9698TIP3    H229038   0.374   5.368   2.107
 9699TIP3   OH229039   0.060   5.174   5.592
 9699TIP3    H129040   0.077   5.256   5.544
 9699TIP3    H229041   0.100   5.188   5.678
 9700TIP3   OH229042   1.062   1.918   3.491
 9700TIP3    H129043   1.057   1.836   3.442
 9700TIP3    H229044   0.979   1.924   3.538
 9701TIP3   OH229045   4.832   1.121   6.715
 9701TIP3    H129046   4.887   1.107   6.792
 9701TIP3    H229047   4.764   1.182   6.745
 9702TIP3   OH229048   0.876   5.757   0.572
 9702TIP3    H129049   0.814   5.788   0.506
 9702TIP3    H229050   0.846   5.799   0.653
 9703TIP3   OH229051   1.283   3.520   3.316
 9703TIP3    H129052   1.354   3.584   3.312
 9703TIP3    H229053   1.294   3.466   3.237
 9704TIP3   OH229054   0.564   1.484   2.145
 9704TIP3    H129055   0.594   1.518   2.061
 9704TIP3    H229056   0.567   1.560   2.204
 9705TIP3   OH229057   1.483   1.499   6.117
 9705TIP3    H129058   1.512   1.440   6.186
 9705TIP3    H229059   1.535   1.579   6.129
 9706TIP3   OH229060   3.768   3.899   1.857
 9706TIP3    H129061   3.677   3.873   1.867
 9706TIP3    H229062   3.818   3.829   1.899
 9707TIP3   OH229063   2.218   0.511   6.658
 9707TIP3    H129064   2.167   0.503   6.739
 9707TIP3    H229065   2.304   0.541   6.687
 9708TIP3   OH229066   7.969   2.661   6.696
 9708TIP3    H129067   7.880   2.667   6.663
 9708TIP3    H229068   7.965   2.693   6.786
 9709TIP3   OH229069   5.514   6.222   0.523
 9709TIP3    H129070   5.575   6.296   0.522
 9709TIP3    H229071   5.483   6.218   0.613
 9710TIP3   OH229072   4.037   7.370   3.776
 9710TIP3    H129073   4.066   7.448   3.823
 9710TIP3    H229074   3.941   7.374   3.780
 9711TIP3   OH229075   5.881   0.045   1.195
 9711TIP3    H129076   5.908   0.005   1.278
 9711TIP3    H229077   5.957   0.039   1.138
 9712TIP3   OH229078   6.383   2.394   2.802
 9712TIP3    H129079   6.368   2.388   2.897
 9712TIP3    H229080   6.310   2.346   2.763
 9713TIP3   OH229081   6.278   6.431   5.032
 9713TIP3    H129082   6.222   6.359   5.004
 9713TIP3    H229083   6.365   6.392   5.042
 9714TIP3   OH229084   3.780   1.263   5.582
 9714TIP3    H129085   3.781   1.212   5.663
 9714TIP3    H229086   3.769   1.354   5.611
 9715TIP3   OH229087   3.758   7.706   3.572
 9715TIP3    H129088   3.826   7.747   3.518
 9715TIP3    H229089   3.709   7.651   3.510
 9716TIP3   OH229090   7.026   4.151   1.459
 9716TIP3    H129091   7.097   4.092   1.482
 9716TIP3    H229092   6.952   4.093   1.441
 9717TIP3   OH229093   5.102   4.264   6.709
 9717TIP3    H129094   5.013   4.241   6.682
 9717TIP3    H229095   5.124   4.202   6.778
 9718TIP3   OH229096   7.407   7.238   5.822
 9718TIP3    H129097   7.425   7.145   5.810
 9718TIP3    H229098   7.371   7.244   5.910
 9719TIP3   OH229099   3.970   6.356   4.291
 9719TIP3    H129100   3.958   6.318   4.204
 9719TIP3    H229101   3.884   6.392   4.314
 9720TIP3   OH229102   1.494   1.092   0.860
 9720TIP3    H129103   1.411   1.058   0.894
 9720TIP3    H229104   1.484   1.187   0.865
 9721TIP3   OH229105   3.684   2.509   5.636
 9721TIP3    H129106   3.768   2.487   5.677
 9721TIP3    H229107   3.630   2.543   5.707
 9722TIP3   OH229108   3.155   1.231   3.687
 9722TIP3    H129109   3.136   1.322   3.713
 9722TIP3    H229110   3.184   1.188   3.767
 9723TIP3   OH229111   5.738   5.571   0.214
 9723TIP3    H129112   5.815   5.598   0.264
 9723TIP3    H229113   5.689   5.653   0.200
 9724TIP3   OH229114   1.218   5.093   5.645
 9724TIP3    H129115   1.289   5.141   5.687
 9724TIP3    H229116   1.152   5.160   5.625
 9725TIP3   OH229117   7.598   0.519   4.974
 9725TIP3    H129118   7.572   0.540   4.885
 9725TIP3    H229119   7.694   0.512   4.970
 9726TIP3   OH229120   2.906   2.137   2.829
 9726TIP3    H129121   2.913   2.181   2.744
 9726TIP3    H229122   2.813   2.147   2.852
 9727TIP3   OH229123   0.054   1.959   0.204
 9727TIP3    H129124   0.118   2.029   0.187
 9727TIP3    H229125   0.020   1.979   0.291
 9728TIP3   OH229126   1.627   1.663   0.397
 9728TIP3    H129127   1.597   1.595   0.337
 9728TIP3    H229128   1.558   1.669   0.463
 9729TIP3   OH229129   1.413   2.502   5.225
 9729TIP3    H129130   1.382   2.550   5.149
 9729TIP3    H229131   1.438   2.569   5.288
 9730TIP3   OH229132   7.584   6.535   6.356
 9730TIP3    H129133   7.575   6.626   6.330
 9730TIP3    H229134   7.506   6.517   6.409
 9731TIP3   OH229135   2.467   3.457   1.453
 9731TIP3    H129136   2.526   3.523   1.417
 9731TIP3    H229137   2.486   3.378   1.402
 9732TIP3   OH229138   0.845   4.539   4.664
 9732TIP3    H129139   0.791   4.530   4.743
 9732TIP3    H229140   0.876   4.629   4.665
 9733TIP3   OH229141   2.748   5.098   5.410
 9733TIP3    H129142   2.800   5.174   5.386
 9733TIP3    H229143   2.705   5.123   5.492
 9734TIP3   OH229144   5.324   5.169   4.239
 9734TIP3    H129145   5.308   5.213   4.156
 9734TIP3    H229146   5.330   5.076   4.216
 9735TIP3   OH229147   0.209   4.528   6.017
 9735TIP3    H129148   0.119   4.505   6.041
 9735TIP3    H229149   0.207   4.532   5.921
 9736TIP3   OH229150   5.693   6.770   5.733
 9736TIP3    H129151   5.705   6.862   5.709
 9736TIP3    H229152   5.664   6.728   5.652
 9737TIP3   OH229153   1.991   3.432   5.610
 9737TIP3    H129154   2.047   3.440   5.533
 9737TIP3    H229155   1.902   3.434   5.575
 9738TIP3   OH229156   2.015   4.796   5.615
 9738TIP3    H129157   2.098   4.826   5.652
 9738TIP3    H229158   1.950   4.858   5.647
 9739TIP3   OH229159   3.217   1.623   2.636
 9739TIP3    H129160   3.228   1.712   2.603
 9739TIP3    H229161   3.135   1.625   2.685
 9740TIP3   OH229162   2.556   1.593   0.633
 9740TIP3    H129163   2.638   1.626   0.668
 9740TIP3    H229164   2.552   1.502   0.663
 9741TIP3   OH229165   1.224   1.137   0.032
 9741TIP3    H129166   1.255   1.201  -0.031
 9741TIP3    H229167   1.242   1.176   0.117
 9742TIP3   OH229168   5.400   3.051   2.367
 9742TIP3    H129169   5.320   3.003   2.393
 9742TIP3    H229170   5.374   3.101   2.290
 9743TIP3   OH229171   3.616   3.245   1.578
 9743TIP3    H129172   3.628   3.313   1.512
 9743TIP3    H229173   3.528   3.211   1.562
 9744TIP3   OH229174   3.281   6.008   2.396
 9744TIP3    H129175   3.358   6.061   2.420
 9744TIP3    H229176   3.241   5.985   2.480
 9745TIP3   OH229177   7.675   6.342   3.023
 9745TIP3    H129178   7.653   6.435   3.013
 9745TIP3    H229179   7.734   6.323   2.950
 9746TIP3   OH229180   1.456   7.407   5.000
 9746TIP3    H129181   1.478   7.473   5.066
 9746TIP3    H229182   1.390   7.352   5.043
 9747TIP3   OH229183   4.542   6.732   4.817
 9747TIP3    H129184   4.511   6.666   4.879
 9747TIP3    H229185   4.620   6.769   4.859
 9748TIP3   OH229186   1.017   4.004   2.454
 9748TIP3    H129187   1.026   3.957   2.536
 9748TIP3    H229188   1.067   3.953   2.391
 9749TIP3   OH229189   2.330   5.498   4.329
 9749TIP3    H129190   2.419   5.462   4.338
 9749TIP3    H229191   2.295   5.499   4.417
 9750TIP3   OH229192   1.674   3.460   6.316
 9750TIP3    H129193   1.621   3.428   6.243
 9750TIP3    H229194   1.639   3.547   6.334
 9751TIP3   OH229195   4.124   0.484   4.973
 9751TIP3    H129196   4.056   0.482   4.905
 9751TIP3    H229197   4.167   0.569   4.962
 9752TIP3   OH229198   0.969   7.788   0.580
 9752TIP3    H129199   0.960   7.864   0.637
 9752TIP3    H229200   1.003   7.719   0.637
 9753TIP3   OH229201   6.671   5.129   4.900
 9753TIP3    H129202   6.594   5.186   4.897
 9753TIP3    H229203   6.666   5.088   4.986
 9754TIP3   OH229204   5.756   4.923   3.684
 9754TIP3    H129205   5.806   4.965   3.613
 9754TIP3    H229206   5.670   4.908   3.646
 9755TIP3   OH229207   5.624   7.192   1.948
 9755TIP3    H129208   5.594   7.264   1.893
 9755TIP3    H229209   5.554   7.180   2.012
 9756TIP3   OH229210   1.492   6.938   0.291
 9756TIP3    H129211   1.477   7.003   0.223
 9756TIP3    H229212   1.551   6.874   0.250
 9757TIP3   OH229213   3.311   1.859   2.533
 9757TIP3    H129214   3.386   1.918   2.530
 9757TIP3    H229215   3.235   1.916   2.526
 9758TIP3   OH229216   6.870   5.334   4.825
 9758TIP3    H129217   6.791   5.283   4.838
 9758TIP3    H229218   6.922   5.283   4.763
 9759TIP3   OH229219   6.737   0.584   6.499
 9759TIP3    H129220   6.793   0.661   6.490
 9759TIP3    H229221   6.796   0.514   6.524
 9760TIP3   OH229222   4.407   0.977   1.815
 9760TIP3    H129223   4.311   0.966   1.815
 9760TIP3    H229224   4.426   1.014   1.729
 9761TIP3   OH229225   3.949   6.161  -0.066
 9761TIP3    H129226   3.946   6.253  -0.040
 9761TIP3    H229227   3.880   6.119  -0.014
 9762TIP3   OH229228   5.225   3.629   2.690
 9762TIP3    H129229   5.294   3.589   2.638
 9762TIP3    H229230   5.270   3.688   2.750
 9763TIP3   OH229231   0.629   1.749   2.482
 9763TIP3    H129232   0.648   1.658   2.505
 9763TIP3    H229233   0.572   1.743   2.406
 9764TIP3   OH229234   2.543   5.498   0.306
 9764TIP3    H129235   2.576   5.476   0.219
 9764TIP3    H229236   2.474   5.562   0.289
 9765TIP3   OH229237   3.421   6.668   1.374
 9765TIP3    H129238   3.377   6.583   1.378
 9765TIP3    H229239   3.505   6.653   1.416
 9766TIP3   OH229240   0.862   3.406   5.219
 9766TIP3    H129241   0.877   3.334   5.280
 9766TIP3    H229242   0.778   3.443   5.247
 9767TIP3   OH229243   1.199   6.605   0.290
 9767TIP3    H129244   1.226   6.685   0.244
 9767TIP3    H229245   1.226   6.534   0.233
 9768TIP3   OH229246   2.585   2.644   0.209
 9768TIP3    H129247   2.655   2.637   0.144
 9768TIP3    H229248   2.541   2.726   0.189
 9769TIP3   OH229249   5.200   7.095   1.389
 9769TIP3    H129250   5.182   7.067   1.299
 9769TIP3    H229251   5.146   7.172   1.402
 9770TIP3   OH229252   4.095   3.395   2.104
 9770TIP3    H129253   4.131   3.461   2.044
 9770TIP3    H229254   4.005   3.424   2.120
 9771TIP3   OH229255   6.798   1.176   4.113
 9771TIP3    H129256   6.886   1.193   4.147
 9771TIP3    H229257   6.803   1.087   4.077
 9772TIP3   OH229258   0.163   3.524   1.702
 9772TIP3    H129259   0.259   3.531   1.704
 9772TIP3    H229260   0.146   3.432   1.681
 9773TIP3   OH229261   3.366   7.745   2.525
 9773TIP3    H129262   3.430   7.723   2.593
 9773TIP3    H229263   3.352   7.839   2.535
 9774TIP3   OH229264   5.141   2.842   2.991
 9774TIP3    H129265   5.066   2.874   2.941
 9774TIP3    H229266   5.116   2.853   3.082
 9775TIP3   OH229267   4.495   4.360   1.364
 9775TIP3    H129268   4.448   4.346   1.282
 9775TIP3    H229269   4.565   4.421   1.342
 9776TIP3   OH229270   3.596   4.315   0.701
 9776TIP3    H129271   3.548   4.357   0.772
 9776TIP3    H229272   3.622   4.387   0.643
 9777TIP3   OH229273   2.994   4.955   0.637
 9777TIP3    H129274   2.926   5.018   0.661
 9777TIP3    H229275   3.037   4.994   0.560
 9778TIP3   OH229276   5.155   1.031   1.317
 9778TIP3    H129277   5.077   1.086   1.323
 9778TIP3    H229278   5.136   0.956   1.374
 9779TIP3   OH229279   6.258   4.999   4.920
 9779TIP3    H129280   6.303   4.985   4.837
 9779TIP3    H229281   6.307   5.071   4.961
 9780TIP3   OH229282   5.577   7.723   0.012
 9780TIP3    H129283   5.664   7.741  -0.022
 9780TIP3    H229284   5.540   7.658  -0.049
 9781TIP3   OH229285   2.986   3.383   3.242
 9781TIP3    H129286   3.060   3.443   3.233
 9781TIP3    H229287   2.942   3.387   3.158
 9782TIP3   OH229288   5.793   6.157   4.258
 9782TIP3    H129289   5.739   6.149   4.336
 9782TIP3    H229290   5.865   6.095   4.273
 9783TIP3   OH229291   0.100   1.345   2.983
 9783TIP3    H129292   0.146   1.428   2.970
 9783TIP3    H229293   0.168   1.282   3.006
 9784TIP3   OH229294   4.062   0.044   5.574
 9784TIP3    H129295   4.069   0.139   5.575
 9784TIP3    H229296   4.032   0.021   5.662
 9785TIP3   OH229297   1.438   7.835   1.255
 9785TIP3    H129298   1.461   7.847   1.163
 9785TIP3    H229299   1.522   7.828   1.300
 9786TIP3   OH229300   2.616   0.107   6.643
 9786TIP3    H129301   2.563   0.144   6.713
 9786TIP3    H229302   2.678   0.177   6.621
 9787TIP3   OH229303   0.706   7.557   3.829
 9787TIP3    H129304   0.715   7.640   3.876
 9787TIP3    H229305   0.771   7.562   3.759
 9788TIP3   OH229306   1.461   3.426   5.848
 9788TIP3    H129307   1.528   3.376   5.894
 9788TIP3    H229308   1.379   3.380   5.867
 9789TIP3   OH229309   7.184   7.390   3.159
 9789TIP3    H129310   7.240   7.315   3.139
 9789TIP3    H229311   7.114   7.353   3.212
 9790TIP3   OH229312   6.979   1.893   4.036
 9790TIP3    H129313   6.952   1.853   4.118
 9790TIP3    H229314   6.990   1.986   4.057
 9791TIP3   OH229315   3.506   4.809   3.270
 9791TIP3    H129316   3.518   4.852   3.185
 9791TIP3    H229317   3.592   4.813   3.311
 9792TIP3   OH229318   6.528   0.832   1.513
 9792TIP3    H129319   6.497   0.916   1.480
 9792TIP3    H229320   6.448   0.787   1.541
 9793TIP3   OH229321   4.338   2.199   0.987
 9793TIP3    H129322   4.311   2.202   0.895
 9793TIP3    H229323   4.392   2.277   0.998
 9794TIP3   OH229324   4.482   1.866   4.552
 9794TIP3    H129325   4.554   1.890   4.611
 9794TIP3    H229326   4.460   1.947   4.507
 9795TIP3   OH229327   4.713   4.959   1.987
 9795TIP3    H129328   4.736   4.929   1.899
 9795TIP3    H229329   4.623   4.991   1.979
 9796TIP3   OH229330   3.998   5.193   2.157
 9796TIP3    H129331   3.903   5.195   2.165
 9796TIP3    H229332   4.026   5.282   2.177
 9797TIP3   OH229333   3.371   4.506   2.577
 9797TIP3    H129334   3.427   4.519   2.501
 9797TIP3    H229335   3.412   4.434   2.625
 9798TIP3   OH229336   6.120   7.513   6.067
 9798TIP3    H129337   6.084   7.467   6.143
 9798TIP3    H229338   6.173   7.584   6.104
 9799TIP3   OH229339   6.981   7.401   2.340
 9799TIP3    H129340   7.044   7.350   2.392
 9799TIP3    H229341   6.896   7.367   2.367
 9800TIP3   OH229342   5.137   4.229   0.609
 9800TIP3    H129343   5.045   4.202   0.603
 9800TIP3    H229344   5.136   4.323   0.595
 9801TIP3   OH229345   1.056   7.564   3.449
 9801TIP3    H129346   1.020   7.532   3.367
 9801TIP3    H229347   1.138   7.606   3.425
 9802TIP3   OH229348   5.024   2.884   5.151
 9802TIP3    H129349   5.071   2.967   5.142
 9802TIP3    H229350   5.087   2.817   5.122
 9803TIP3   OH229351   3.951   4.816   2.173
 9803TIP3    H129352   3.998   4.790   2.252
 9803TIP3    H229353   4.019   4.827   2.107
 9804TIP3   OH229354   2.350   2.735   6.202
 9804TIP3    H129355   2.435   2.778   6.192
 9804TIP3    H229356   2.292   2.783   6.143
 9805TIP3   OH229357   7.613   2.533   0.481
 9805TIP3    H129358   7.580   2.617   0.513
 9805TIP3    H229359   7.652   2.553   0.397
 9806TIP3   OH229360   3.151   4.887   5.467
 9806TIP3    H129361   3.116   4.976   5.461
 9806TIP3    H229362   3.239   4.893   5.430
 9807TIP3   OH229363   4.295   1.323   5.878
 9807TIP3    H129364   4.390   1.330   5.865
 9807TIP3    H229365   4.258   1.341   5.791
 9808TIP3   OH229366   7.609   1.249   4.031
 9808TIP3    H129367   7.538   1.261   3.968
 9808TIP3    H229368   7.592   1.163   4.070
 9809TIP3   OH229369   4.749   5.172   6.199
 9809TIP3    H129370   4.838   5.144   6.219
 9809TIP3    H229371   4.705   5.092   6.170
 9810TIP3   OH229372   5.010   7.080   3.947
 9810TIP3    H129373   5.008   7.004   4.005
 9810TIP3    H229374   5.103   7.091   3.926
 9811TIP3   OH229375   0.745   2.473   3.137
 9811TIP3    H129376   0.834   2.439   3.129
 9811TIP3    H229377   0.690   2.395   3.141
 9812TIP3   OH229378   4.135   7.728   4.452
 9812TIP3    H129379   4.089   7.722   4.536
 9812TIP3    H229380   4.066   7.751   4.389
 9813TIP3   OH229381   1.510   6.479   3.742
 9813TIP3    H129382   1.502   6.523   3.826
 9813TIP3    H229383   1.539   6.390   3.764
 9814TIP3   OH229384   2.555   7.756   3.116
 9814TIP3    H129385   2.462   7.777   3.127
 9814TIP3    H229386   2.578   7.708   3.195
 9815TIP3   OH229387   8.121   6.463   5.933
 9815TIP3    H129388   8.126   6.375   5.895
 9815TIP3    H229389   8.212   6.488   5.949
 9816TIP3   OH229390   2.148   7.153  -0.023
 9816TIP3    H129391   2.144   7.225   0.040
 9816TIP3    H229392   2.234   7.160  -0.063
 9817TIP3   OH229393   1.726   7.386   2.626
 9817TIP3    H129394   1.636   7.356   2.644
 9817TIP3    H229395   1.723   7.480   2.639
 9818TIP3   OH229396   3.543   2.014   5.788
 9818TIP3    H129397   3.478   1.960   5.834
 9818TIP3    H229398   3.490   2.074   5.735
 9819TIP3   OH229399   6.525   5.667   0.758
 9819TIP3    H129400   6.484   5.622   0.831
 9819TIP3    H229401   6.554   5.597   0.700
 9820TIP3   OH229402   3.899   1.887   4.873
 9820TIP3    H129403   3.953   1.907   4.797
 9820TIP3    H229404   3.950   1.919   4.948
 9821TIP3   OH229405   4.538   0.696   6.407
 9821TIP3    H129406   4.602   0.766   6.419
 9821TIP3    H229407   4.591   0.616   6.403
 9822TIP3   OH229408   6.098   5.925   0.128
 9822TIP3    H129409   6.142   5.891   0.205
 9822TIP3    H229410   6.166   5.932   0.061
 9823TIP3   OH229411   6.982   3.894   2.153
 9823TIP3    H129412   7.068   3.923   2.185
 9823TIP3    H229413   6.921   3.959   2.186
 9824TIP3   OH229414   1.360   0.221   0.869
 9824TIP3    H129415   1.321   0.140   0.903
 9824TIP3    H229416   1.453   0.200   0.858
 9825TIP3   OH229417   1.447   0.417   3.059
 9825TIP3    H129418   1.525   0.366   3.035
 9825TIP3    H229419   1.386   0.401   2.987
 9826TIP3   OH229420   4.942   3.587   3.929
 9826TIP3    H129421   5.010   3.620   3.870
 9826TIP3    H229422   4.956   3.492   3.930
 9827TIP3   OH229423   0.881   6.435   5.335
 9827TIP3    H129424   0.899   6.400   5.422
 9827TIP3    H229425   0.943   6.507   5.324
 9828TIP3   OH229426   3.535   0.054   3.396
 9828TIP3    H129427   3.462   0.010   3.353
 9828TIP3    H229428   3.562   0.122   3.335
 9829TIP3   OH229429   1.335   6.072   1.692
 9829TIP3    H129430   1.338   6.019   1.771
 9829TIP3    H229431   1.269   6.029   1.637
 9830TIP3   OH229432   6.355   0.221   3.067
 9830TIP3    H129433   6.274   0.170   3.070
 9830TIP3    H229434   6.340   0.294   3.127
 9831TIP3   OH229435   2.185   1.169   1.899
 9831TIP3    H129436   2.212   1.201   1.812
 9831TIP3    H229437   2.267   1.154   1.945
 9832TIP3   OH229438   0.660   7.150   0.103
 9832TIP3    H129439   0.725   7.079   0.108
 9832TIP3    H229440   0.707   7.227   0.134
 9833TIP3   OH229441   3.893   3.990   0.218
 9833TIP3    H129442   3.870   3.939   0.296
 9833TIP3    H229443   3.985   3.968   0.203
 9834TIP3   OH229444   1.925   4.726   5.252
 9834TIP3    H129445   1.931   4.658   5.184
 9834TIP3    H229446   1.929   4.678   5.334
 9835TIP3   OH229447   5.177   7.774   0.512
 9835TIP3    H129448   5.115   7.838   0.548
 9835TIP3    H229449   5.130   7.734   0.439
 9836TIP3   OH229450   2.228   4.394   5.276
 9836TIP3    H129451   2.242   4.486   5.257
 9836TIP3    H229452   2.314   4.353   5.260
 9837TIP3   OH229453   6.798   5.009   2.279
 9837TIP3    H129454   6.714   5.026   2.234
 9837TIP3    H229455   6.785   5.043   2.367
 9838TIP3   OH229456   1.922   3.293   4.901
 9838TIP3    H129457   1.926   3.210   4.949
 9838TIP3    H229458   1.932   3.269   4.809
 9839TIP3   OH229459   3.764   5.173   4.654
 9839TIP3    H129460   3.826   5.239   4.683
 9839TIP3    H229461   3.702   5.220   4.599
 9840TIP3   OH229462   5.124   4.285   4.957
 9840TIP3    H129463   5.208   4.298   5.001
 9840TIP3    H229464   5.071   4.239   5.022
 9841TIP3   OH229465   5.520   7.223   1.612
 9841TIP3    H129466   5.531   7.292   1.547
 9841TIP3    H229467   5.527   7.268   1.696
 9842TIP3   OH229468   2.840   1.014   1.595
 9842TIP3    H129469   2.852   1.030   1.502
 9842TIP3    H229470   2.873   0.925   1.608
 9843TIP3   OH229471   3.581   2.865   2.075
 9843TIP3    H129472   3.618   2.811   2.006
 9843TIP3    H229473   3.487   2.850   2.071
 9844TIP3   OH229474   4.380   2.176   1.741
 9844TIP3    H129475   4.294   2.217   1.744
 9844TIP3    H229476   4.398   2.152   1.832
 9845TIP3   OH229477   1.553   2.720   4.106
 9845TIP3    H129478   1.519   2.645   4.156
 9845TIP3    H229479   1.523   2.705   4.017
 9846TIP3   OH229480   5.057   0.094   4.738
 9846TIP3    H129481   5.133   0.087   4.796
 9846TIP3    H229482   5.066   0.021   4.677
 9847TIP3   OH229483   4.523   6.742   6.373
 9847TIP3    H129484   4.533   6.837   6.383
 9847TIP3    H229485   4.564   6.706   6.452
 9848TIP3   OH229486   0.211   5.303   0.990
 9848TIP3    H129487   0.240   5.262   0.908
 9848TIP3    H229488   0.124   5.337   0.971
 9849TIP3   OH229489   5.931   6.650   4.975
 9849TIP3    H129490   5.919   6.570   4.924
 9849TIP3    H229491   5.877   6.715   4.931
 9850TIP3   OH229492   3.069   4.365   5.482
 9850TIP3    H129493   3.072   4.344   5.576
 9850TIP3    H229494   2.984   4.334   5.453
 9851TIP3   OH229495   2.255   0.707   1.904
 9851TIP3    H129496   2.295   0.627   1.939
 9851TIP3    H229497   2.268   0.772   1.974
 9852TIP3   OH229498   4.296   2.438   0.294
 9852TIP3    H129499   4.390   2.456   0.295
 9852TIP3    H229500   4.274   2.427   0.201
 9853TIP3   OH229501   2.733   1.964   1.247
 9853TIP3    H129502   2.683   1.919   1.179
 9853TIP3    H229503   2.688   2.048   1.257
 9854TIP3   OH229504   0.468   4.229   2.099
 9854TIP3    H129505   0.514   4.248   2.182
 9854TIP3    H229506   0.493   4.302   2.042
 9855TIP3   OH229507   1.394   0.398   4.658
 9855TIP3    H129508   1.434   0.370   4.740
 9855TIP3    H229509   1.461   0.378   4.592
 9856TIP3   OH229510   5.502   3.310   4.792
 9856TIP3    H129511   5.447   3.308   4.871
 9856TIP3    H229512   5.441   3.294   4.720
 9857TIP3   OH229513   0.910   3.397   1.376
 9857TIP3    H129514   0.982   3.433   1.324
 9857TIP3    H229515   0.850   3.360   1.311
 9858TIP3   OH229516   7.377   3.018   0.663
 9858TIP3    H129517   7.448   3.049   0.719
 9858TIP3    H229518   7.404   3.040   0.574
 9859TIP3   OH229519   1.958   4.680   3.703
 9859TIP3    H129520   1.942   4.739   3.629
 9859TIP3    H229521   1.892   4.705   3.768
 9860TIP3   OH229522   3.952   7.219   5.663
 9860TIP3    H129523   3.891   7.177   5.602
 9860TIP3    H229524   4.003   7.147   5.699
 9861TIP3   OH229525   5.952   1.818   3.175
 9861TIP3    H129526   6.024   1.864   3.132
 9861TIP3    H229527   5.987   1.730   3.191
 9862TIP3   OH229528   7.592   1.405   4.421
 9862TIP3    H129529   7.677   1.383   4.383
 9862TIP3    H229530   7.551   1.463   4.357
 9863TIP3   OH229531   0.441   4.870   0.789
 9863TIP3    H129532   0.455   4.894   0.881
 9863TIP3    H229533   0.349   4.842   0.785
 9864TIP3   OH229534   2.752   4.072   6.292
 9864TIP3    H129535   2.823   4.010   6.310
 9864TIP3    H229536   2.717   4.044   6.208
 9865TIP3   OH229537   8.218   7.032   3.927
 9865TIP3    H129538   8.157   6.988   3.987
 9865TIP3    H229539   8.292   7.056   3.982
 9866TIP3   OH229540   4.883   6.142   3.882
 9866TIP3    H129541   4.804   6.128   3.935
 9866TIP3    H229542   4.941   6.069   3.905
 9867TIP3   OH229543   0.163   1.663   3.503
 9867TIP3    H129544   0.084   1.649   3.557
 9867TIP3    H229545   0.236   1.651   3.565
 9868TIP3   OH229546   2.529   7.200   6.278
 9868TIP3    H129547   2.485   7.167   6.200
 9868TIP3    H229548   2.466   7.187   6.349
 9869TIP3   OH229549   5.207   5.424   3.135
 9869TIP3    H129550   5.282   5.447   3.190
 9869TIP3    H229551   5.234   5.446   3.046
 9870TIP3   OH229552   1.081   1.155   6.833
 9870TIP3    H129553   0.998   1.197   6.811
 9870TIP3    H229554   1.057   1.067   6.862
 9871TIP3   OH229555   4.449   0.722   5.153
 9871TIP3    H129556   4.475   0.813   5.135
 9871TIP3    H229557   4.368   0.710   5.104
 9872TIP3   OH229558   4.158   5.984   4.176
 9872TIP3    H129559   4.188   5.893   4.177
 9872TIP3    H229560   4.209   6.025   4.106
 9873TIP3   OH229561   0.363   4.890   6.277
 9873TIP3    H129562   0.281   4.868   6.233
 9873TIP3    H229563   0.421   4.816   6.257
 9874TIP3   OH229564   6.910   3.881   0.628
 9874TIP3    H129565   6.974   3.942   0.665
 9874TIP3    H229566   6.935   3.796   0.664
 9875TIP3   OH229567   2.555   7.237   0.663
 9875TIP3    H129568   2.618   7.238   0.591
 9875TIP3    H229569   2.470   7.232   0.621
 9876TIP3   OH229570   6.659   6.930   6.592
 9876TIP3    H129571   6.752   6.944   6.576
 9876TIP3    H229572   6.632   7.005   6.645
 9877TIP3   OH229573   7.956   1.975   5.714
 9877TIP3    H129574   8.014   1.901   5.698
 9877TIP3    H229575   8.014   2.051   5.719
 9878TIP3   OH229576   4.067   3.501   0.156
 9878TIP3    H129577   4.044   3.410   0.170
 9878TIP3    H229578   4.016   3.528   0.080
 9879TIP3   OH229579   1.574   0.882   2.638
 9879TIP3    H129580   1.640   0.944   2.606
 9879TIP3    H229581   1.538   0.842   2.559
 9880TIP3   OH229582   3.617   4.907   4.524
 9880TIP3    H129583   3.707   4.880   4.542
 9880TIP3    H229584   3.618   5.002   4.532
 9881TIP3   OH229585   0.633   4.850   4.750
 9881TIP3    H129586   0.563   4.888   4.802
 9881TIP3    H229587   0.649   4.765   4.791
 9882TIP3   OH229588   4.350   6.816   0.724
 9882TIP3    H129589   4.265   6.825   0.766
 9882TIP3    H229590   4.334   6.761   0.648
 9883TIP3   OH229591   5.397   1.390   5.855
 9883TIP3    H129592   5.342   1.342   5.793
 9883TIP3    H229593   5.403   1.333   5.931
 9884TIP3   OH229594   7.457   0.086   6.493
 9884TIP3    H129595   7.451  -0.007   6.517
 9884TIP3    H229596   7.434   0.087   6.400
 9885TIP3   OH229597   1.141   1.834   1.441
 9885TIP3    H129598   1.109   1.889   1.370
 9885TIP3    H229599   1.081   1.759   1.442
 9886TIP3   OH229600   2.096   5.508   2.554
 9886TIP3    H129601   2.107   5.458   2.473
 9886TIP3    H229602   2.009   5.547   2.546
 9887TIP3   OH229603   6.575   4.319   5.302
 9887TIP3    H129604   6.662   4.296   5.268
 9887TIP3    H229605   6.567   4.267   5.382
 9888TIP3   OH229606   5.054   6.208   4.249
 9888TIP3    H129607   5.119   6.182   4.185
 9888TIP3    H229608   4.991   6.136   4.250
 9889TIP3   OH229609   1.052   1.822   4.035
 9889TIP3    H129610   0.985   1.754   4.038
 9889TIP3    H229611   1.007   1.902   4.061
 9890TIP3   OH229612   1.033   5.172   3.678
 9890TIP3    H129613   1.049   5.102   3.615
 9890TIP3    H229614   1.060   5.251   3.633
 9891TIP3   OH229615   1.388   5.808   4.857
 9891TIP3    H129616   1.393   5.724   4.811
 9891TIP3    H229617   1.408   5.873   4.790
 9892TIP3   OH229618   6.004   2.580   5.408
 9892TIP3    H129619   6.049   2.520   5.349
 9892TIP3    H229620   5.949   2.524   5.462
 9893TIP3   OH229621   3.597   2.985   2.704
 9893TIP3    H129622   3.522   3.032   2.741
 9893TIP3    H229623   3.586   2.895   2.735
 9894TIP3   OH229624   5.079   7.165   0.178
 9894TIP3    H129625   4.988   7.174   0.206
 9894TIP3    H229626   5.078   7.188   0.084
 9895TIP3   OH229627   1.263   2.999   5.786
 9895TIP3    H129628   1.171   2.983   5.808
 9895TIP3    H229629   1.261   3.025   5.694
 9896TIP3   OH229630   6.009   1.534   6.003
 9896TIP3    H129631   5.930   1.586   5.986
 9896TIP3    H229632   6.024   1.542   6.097
 9897TIP3   OH229633   7.441   6.139   4.459
 9897TIP3    H129634   7.482   6.069   4.509
 9897TIP3    H229635   7.366   6.166   4.513
 9898TIP3   OH229636   5.140   1.689   1.320
 9898TIP3    H129637   5.131   1.634   1.242
 9898TIP3    H229638   5.217   1.743   1.303
 9899TIP3   OH229639   2.865   2.382   4.745
 9899TIP3    H129640   2.865   2.440   4.669
 9899TIP3    H229641   2.933   2.418   4.803
 9900TIP3   OH229642   3.553   4.971   3.038
 9900TIP3    H129643   3.534   5.064   3.053
 9900TIP3    H229644   3.516   4.953   2.952
 9901TIP3   OH229645   2.837   5.318  -0.010
 9901TIP3    H129646   2.827   5.255   0.061
 9901TIP3    H229647   2.769   5.384   0.007
 9902TIP3   OH229648   2.699   4.459   1.998
 9902TIP3    H129649   2.709   4.535   2.054
 9902TIP3    H229650   2.777   4.458   1.942
 9903TIP3   OH229651   2.140   7.266   4.788
 9903TIP3    H129652   2.147   7.175   4.817
 9903TIP3    H229653   2.230   7.298   4.786
 9904TIP3   OH229654   0.384   5.940   0.519
 9904TIP3    H129655   0.301   5.930   0.472
 9904TIP3    H229656   0.387   5.864   0.578
 9905TIP3   OH229657   1.636   3.278   5.621
 9905TIP3    H129658   1.566   3.309   5.679
 9905TIP3    H229659   1.650   3.350   5.560
 9906TIP3   OH229660   8.218   2.487   5.614
 9906TIP3    H129661   8.160   2.546   5.565
 9906TIP3    H229662   8.221   2.407   5.561
 9907TIP3   OH229663   3.105   5.140   1.209
 9907TIP3    H129664   3.193   5.118   1.179
 9907TIP3    H229665   3.081   5.218   1.158
 9908TIP3   OH229666   3.418   5.827   1.918
 9908TIP3    H129667   3.493   5.851   1.865
 9908TIP3    H229668   3.353   5.794   1.856
 9909TIP3   OH229669   6.952   6.154   5.239
 9909TIP3    H129670   7.032   6.111   5.208
 9909TIP3    H229671   6.894   6.153   5.163
 9910TIP3   OH229672   0.822   2.477   3.659
 9910TIP3    H129673   0.779   2.559   3.684
 9910TIP3    H229674   0.751   2.417   3.639
 9911TIP3   OH229675   4.109   5.537   4.154
 9911TIP3    H129676   4.136   5.445   4.148
 9911TIP3    H229677   4.078   5.559   4.066
 9912TIP3   OH229678   2.103   1.322   0.910
 9912TIP3    H129679   2.025   1.268   0.923
 9912TIP3    H229680   2.073   1.393   0.853
 9913TIP3   OH229681   1.038   1.122   0.918
 9913TIP3    H129682   0.971   1.146   0.983
 9913TIP3    H229683   1.000   1.048   0.870
 9914TIP3   OH229684   5.245   5.935   5.162
 9914TIP3    H129685   5.155   5.902   5.171
 9914TIP3    H229686   5.288   5.911   5.245
 9915TIP3   OH229687   6.014   3.451   1.878
 9915TIP3    H129688   6.036   3.526   1.933
 9915TIP3    H229689   5.982   3.490   1.796
 9916TIP3   OH229690   1.732   7.315   2.028
 9916TIP3    H129691   1.780   7.243   2.068
 9916TIP3    H229692   1.771   7.325   1.941
 9917TIP3   OH229693   3.449   3.819   1.807
 9917TIP3    H129694   3.493   3.735   1.793
 9917TIP3    H229695   3.478   3.846   1.894
 9918TIP3   OH229696   5.997   6.428   6.756
 9918TIP3    H129697   5.975   6.485   6.830
 9918TIP3    H229698   6.055   6.362   6.793
 9919TIP3   OH229699   7.366   7.196   3.009
 9919TIP3    H129700   7.456   7.190   3.039
 9919TIP3    H229701   7.345   7.108   2.977
 9920TIP3   OH229702   4.162   3.132   6.199
 9920TIP3    H129703   4.235   3.163   6.253
 9920TIP3    H229704   4.106   3.208   6.187
 9921TIP3   OH229705   2.075   0.977   0.339
 9921TIP3    H129706   2.102   0.887   0.323
 9921TIP3    H229707   1.982   0.979   0.319
 9922TIP3   OH229708   4.555   4.126   6.633
 9922TIP3    H129709   4.527   4.045   6.591
 9922TIP3    H229710   4.501   4.132   6.712
 9923TIP3   OH229711   3.411   7.256   2.763
 9923TIP3    H129712   3.413   7.225   2.854
 9923TIP3    H229713   3.353   7.194   2.719
 9924TIP3   OH229714   0.382   0.457   4.056
 9924TIP3    H129715   0.445   0.506   4.004
 9924TIP3    H229716   0.406   0.366   4.043
 9925TIP3   OH229717   2.290   5.372   6.006
 9925TIP3    H129718   2.280   5.359   6.100
 9925TIP3    H229719   2.371   5.422   5.997
 9926TIP3   OH229720   1.546   1.356   4.817
 9926TIP3    H129721   1.492   1.312   4.752
 9926TIP3    H229722   1.634   1.358   4.778
 9927TIP3   OH229723   3.811   2.032   5.691
 9927TIP3    H129724   3.726   2.015   5.731
 9927TIP3    H229725   3.842   1.947   5.662
 9928TIP3   OH229726   6.120   6.472   6.431
 9928TIP3    H129727   6.034   6.512   6.439
 9928TIP3    H229728   6.103   6.378   6.435
 9929TIP3   OH229729   1.857   1.298   1.313
 9929TIP3    H129730   1.828   1.291   1.222
 9929TIP3    H229731   1.951   1.311   1.308
 9930TIP3   OH229732   6.298   2.679   2.387
 9930TIP3    H129733   6.272   2.668   2.479
 9930TIP3    H229734   6.386   2.643   2.382
 9931TIP3   OH229735   1.839   4.271   3.292
 9931TIP3    H129736   1.913   4.309   3.340
 9931TIP3    H229737   1.805   4.204   3.351
 9932TIP3   OH229738   4.997   0.671   1.096
 9932TIP3    H129739   4.943   0.673   1.017
 9932TIP3    H229740   5.053   0.748   1.088
 9933TIP3   OH229741   1.509   6.640   6.660
 9933TIP3    H129742   1.479   6.583   6.589
 9933TIP3    H229743   1.604   6.647   6.647
 9934TIP3   OH229744   1.206   2.653   1.598
 9934TIP3    H129745   1.252   2.726   1.557
 9934TIP3    H229746   1.275   2.601   1.639
 9935TIP3   OH229747   5.601   2.751   3.073
 9935TIP3    H129748   5.570   2.842   3.076
 9935TIP3    H229749   5.533   2.704   3.024
 9936TIP3   OH229750   2.877   0.194   1.821
 9936TIP3    H129751   2.929   0.180   1.742
 9936TIP3    H229752   2.795   0.232   1.790
 9937TIP3   OH229753   1.686   2.469   4.819
 9937TIP3    H129754   1.606   2.417   4.821
 9937TIP3    H229755   1.699   2.489   4.726
 9938TIP3   OH229756   6.771   1.048   1.080
 9938TIP3    H129757   6.748   0.958   1.105
 9938TIP3    H229758   6.864   1.044   1.059
 9939TIP3   OH229759   7.602   6.578   2.921
 9939TIP3    H129760   7.520   6.624   2.903
 9939TIP3    H229761   7.650   6.581   2.839
 9940TIP3   OH229762   5.813   6.484   5.171
 9940TIP3    H129763   5.872   6.537   5.116
 9940TIP3    H229764   5.805   6.533   5.252
 9941TIP3   OH229765   3.486   5.437   6.598
 9941TIP3    H129766   3.441   5.489   6.665
 9941TIP3    H229767   3.510   5.500   6.530
 9942TIP3   OH229768   1.468   1.370   3.213
 9942TIP3    H129769   1.411   1.398   3.284
 9942TIP3    H229770   1.432   1.286   3.184
 9943TIP3   OH229771   1.416   0.918   0.142
 9943TIP3    H129772   1.424   0.972   0.221
 9943TIP3    H229773   1.410   0.981   0.070
 9944TIP3   OH229774   5.011   3.558   6.390
 9944TIP3    H129775   4.960   3.608   6.453
 9944TIP3    H229776   5.076   3.620   6.356
 9945TIP3   OH229777   7.832   7.452   0.887
 9945TIP3    H129778   7.743   7.420   0.874
 9945TIP3    H229779   7.820   7.540   0.922
 9946TIP3   OH229780   2.793   3.127   4.515
 9946TIP3    H129781   2.712   3.078   4.531
 9946TIP3    H229782   2.789   3.152   4.423
 9947TIP3   OH229783   7.834   5.702   5.571
 9947TIP3    H129784   7.887   5.777   5.600
 9947TIP3    H229785   7.778   5.682   5.645
 9948TIP3   OH229786   7.954   1.206   2.217
 9948TIP3    H129787   7.990   1.293   2.236
 9948TIP3    H229788   7.872   1.203   2.266
 9949TIP3   OH229789   2.048   4.154   3.887
 9949TIP3    H129790   2.008   4.161   3.801
 9949TIP3    H229791   2.140   4.176   3.872
 9950TIP3   OH229792   8.343   1.007   2.845
 9950TIP3    H129793   8.406   0.995   2.774
 9950TIP3    H229794   8.294   1.086   2.820
 9951TIP3   OH229795   7.346   7.689   3.546
 9951TIP3    H129796   7.355   7.784   3.553
 9951TIP3    H229797   7.300   7.675   3.463
 9952TIP3   OH229798   0.857   2.021   1.583
 9952TIP3    H129799   0.920   2.076   1.537
 9952TIP3    H229800   0.855   2.055   1.673
 9953TIP3   OH229801   6.335   5.232   1.235
 9953TIP3    H129802   6.326   5.211   1.328
 9953TIP3    H229803   6.416   5.188   1.208
 9954TIP3   OH229804   3.986   6.095   2.103
 9954TIP3    H129805   3.986   6.069   2.011
 9954TIP3    H229806   4.056   6.159   2.110
 9955TIP3   OH229807   0.198   1.427   4.944
 9955TIP3    H129808   0.155   1.507   4.972
 9955TIP3    H229809   0.134   1.384   4.887
 9956TIP3   OH229810   6.067   0.439   6.430
 9956TIP3    H129811   5.986   0.399   6.462
 9956TIP3    H229812   6.072   0.413   6.338
 9957TIP3   OH229813   4.369   1.448   0.914
 9957TIP3    H129814   4.327   1.467   0.998
 9957TIP3    H229815   4.460   1.431   0.937
 9958TIP3   OH229816   4.928   4.952   4.794
 9958TIP3    H129817   5.000   5.006   4.827
 9958TIP3    H229818   4.921   4.879   4.856
 9959TIP3   OH229819   6.187   5.524   1.660
 9959TIP3    H129820   6.142   5.539   1.576
 9959TIP3    H229821   6.142   5.582   1.722
 9960TIP3   OH229822   4.739   2.784   1.321
 9960TIP3    H129823   4.768   2.846   1.254
 9960TIP3    H229824   4.787   2.811   1.400
 9961TIP3   OH229825   0.411   7.191   4.990
 9961TIP3    H129826   0.394   7.137   5.067
 9961TIP3    H229827   0.363   7.272   5.007
 9962TIP3   OH229828   1.583   5.758   3.348
 9962TIP3    H129829   1.587   5.725   3.258
 9962TIP3    H229830   1.668   5.801   3.362
 9963TIP3   OH229831   4.457   0.668   2.158
 9963TIP3    H129832   4.453   0.763   2.143
 9963TIP3    H229833   4.498   0.660   2.245
 9964TIP3   OH229834   2.484   5.058   6.456
 9964TIP3    H129835   2.524   4.974   6.479
 9964TIP3    H229836   2.491   5.110   6.536
 9965TIP3   OH229837   0.627   3.711   4.591
 9965TIP3    H129838   0.564   3.692   4.661
 9965TIP3    H229839   0.693   3.766   4.633
 9966TIP3   OH229840   4.361   4.976   5.739
 9966TIP3    H129841   4.308   4.896   5.745
 9966TIP3    H229842   4.426   4.956   5.672
 9967TIP3   OH229843   3.563   2.067   0.580
 9967TIP3    H129844   3.595   2.062   0.490
 9967TIP3    H229845   3.629   2.117   0.627
 9968TIP3   OH229846   6.832   5.033   6.145
 9968TIP3    H129847   6.778   5.041   6.066
 9968TIP3    H229848   6.775   5.063   6.216
 9969TIP3   OH229849   7.651   1.299   2.826
 9969TIP3    H129850   7.597   1.244   2.768
 9969TIP3    H229851   7.593   1.371   2.852
 9970TIP3   OH229852   4.917   3.075   4.848
 9970TIP3    H129853   4.836   3.120   4.825
 9970TIP3    H229854   4.897   2.982   4.835
 9971TIP3   OH229855   0.102   7.020   5.959
 9971TIP3    H129856   0.131   6.955   5.895
 9971TIP3    H229857   0.007   7.023   5.947
 9972TIP3   OH229858   0.537   4.001   6.273
 9972TIP3    H129859   0.507   3.948   6.347
 9972TIP3    H229860   0.528   3.943   6.197
 9973TIP3   OH229861   4.946   4.748   4.956
 9973TIP3    H129862   4.911   4.660   4.968
 9973TIP3    H229863   5.024   4.751   5.011
 9974TIP3   OH229864   6.948   1.470   1.994
 9974TIP3    H129865   6.889   1.515   2.055
 9974TIP3    H229866   7.030   1.462   2.042
 9975TIP3   OH229867   1.322   2.280   1.865
 9975TIP3    H129868   1.374   2.360   1.856
 9975TIP3    H229869   1.279   2.269   1.781
 9976TIP3   OH229870   7.481   6.085   0.777
 9976TIP3    H129871   7.423   6.058   0.848
 9976TIP3    H229872   7.544   6.014   0.768
 9977TIP3   OH229873   4.693   7.870   5.974
 9977TIP3    H129874   4.685   7.828   5.888
 9977TIP3    H229875   4.764   7.823   6.017
 9978TIP3   OH229876   4.473   6.380   3.414
 9978TIP3    H129877   4.491   6.428   3.333
 9978TIP3    H229878   4.559   6.363   3.452
 9979TIP3   OH229879   1.884   6.288   2.776
 9979TIP3    H129880   1.885   6.281   2.680
 9979TIP3    H229881   1.827   6.362   2.794
 9980TIP3   OH229882   4.697   4.496   5.947
 9980TIP3    H129883   4.655   4.573   5.987
 9980TIP3    H229884   4.785   4.497   5.983
 9981TIP3   OH229885   2.341   3.143   1.945
 9981TIP3    H129886   2.312   3.105   1.863
 9981TIP3    H229887   2.343   3.237   1.930
 9982TIP3   OH229888   0.575   6.253   4.730
 9982TIP3    H129889   0.667   6.236   4.708
 9982TIP3    H229890   0.564   6.347   4.713
 9983TIP3   OH229891   6.409   7.388   5.973
 9983TIP3    H129892   6.441   7.336   5.900
 9983TIP3    H229893   6.317   7.406   5.951
 9984TIP3   OH229894   7.753   5.146   4.214
 9984TIP3    H129895   7.735   5.106   4.299
 9984TIP3    H229896   7.765   5.073   4.154
 9985TIP3   OH229897   0.295   1.733   0.578
 9985TIP3    H129898   0.309   1.811   0.524
 9985TIP3    H229899   0.221   1.688   0.538
 9986TIP3   OH229900   3.109   4.214   3.938
 9986TIP3    H129901   3.139   4.167   3.861
 9986TIP3    H229902   3.015   4.225   3.925
 9987TIP3   OH229903   6.184   4.926   6.460
 9987TIP3    H129904   6.222   4.839   6.470
 9987TIP3    H229905   6.097   4.919   6.499
 9988TIP3   OH229906   3.682   3.052   5.340
 9988TIP3    H129907   3.684   3.089   5.428
 9988TIP3    H229908   3.617   3.104   5.293
 9989TIP3   OH229909   8.252   4.473   1.347
 9989TIP3    H129910   8.225   4.391   1.306
 9989TIP3    H229911   8.259   4.451   1.440
 9990TIP3   OH229912   2.460   2.468   5.222
 9990TIP3    H129913   2.477   2.400   5.157
 9990TIP3    H229914   2.502   2.546   5.186
 9991TIP3   OH229915   2.925   1.311   3.162
 9991TIP3    H129916   2.919   1.397   3.203
 9991TIP3    H229917   2.956   1.253   3.232
 9992TIP3   OH229918   1.418   4.533   0.483
 9992TIP3    H129919   1.352   4.512   0.417
 9992TIP3    H229920   1.427   4.452   0.533
 9993TIP3   OH229921   1.930   7.518   3.190
 9993TIP3    H129922   1.978   7.580   3.246
 9993TIP3    H229923   1.954   7.432   3.225
 9994TIP3   OH229924   5.988   3.630   3.473
 9994TIP3    H129925   5.911   3.585   3.438
 9994TIP3    H229926   5.966   3.646   3.565
 9995TIP3   OH229927   7.982   4.347   1.203
 9995TIP3    H129928   7.973   4.340   1.298
 9995TIP3    H229929   7.938   4.429   1.180
 9996TIP3   OH229930   0.566   3.814   0.618
 9996TIP3    H129931   0.516   3.863   0.683
 9996TIP3    H229932   0.614   3.881   0.569
 9997TIP3   OH229933   7.763   4.588   1.512
 9997TIP3    H129934   7.851   4.618   1.488
 9997TIP3    H229935   7.750   4.621   1.601
 9998TIP3   OH229936   0.392   7.122   4.450
 9998TIP3    H129937   0.390   7.098   4.358
 9998TIP3    H229938   0.437   7.049   4.493
 9999TIP3   OH229939   6.659   4.735   4.375
 9999TIP3    H129940   6.621   4.668   4.430
 9999TIP3    H229941   6.661   4.697   4.287
10000TIP3   OH229942   1.136   7.044   3.114
10000TIP3    H129943   1.062   7.037   3.174
10000TIP3    H229944   1.097   7.065   3.029
10001TIP3   OH229945   7.170   0.324   1.469
10001TIP3    H129946   7.083   0.362   1.486
10001TIP3    H229947   7.199   0.364   1.388
10002TIP3   OH229948   4.778   2.406   5.290
10002TIP3    H129949   4.808   2.472   5.353
10002TIP3    H229950   4.828   2.425   5.211
10003TIP3   OH229951   7.300   2.187   4.545
10003TIP3    H129952   7.234   2.121   4.526
10003TIP3    H229953   7.262   2.239   4.616
10004TIP3   OH229954   5.636   7.074   4.618
10004TIP3    H129955   5.729   7.069   4.639
10004TIP3    H229956   5.595   7.007   4.674
10005TIP3   OH229957   3.745   3.808   4.249
10005TIP3    H129958   3.661   3.795   4.294
10005TIP3    H229959   3.782   3.720   4.242
10006TIP3   OH229960   1.724   7.839   0.109
10006TIP3    H129961   1.805   7.827   0.159
10006TIP3    H229962   1.654   7.823   0.172
10007TIP3   OH229963   1.550   4.159   0.802
10007TIP3    H129964   1.476   4.186   0.748
10007TIP3    H229965   1.514   4.094   0.863
10008TIP3   OH229966   5.955   5.964   4.593
10008TIP3    H129967   5.998   5.891   4.638
10008TIP3    H229968   6.011   6.040   4.611
10009TIP3   OH229969   7.378   3.053   0.397
10009TIP3    H129970   7.420   3.063   0.311
10009TIP3    H229971   7.304   2.996   0.381
10010TIP3   OH229972   2.331   2.259   1.087
10010TIP3    H129973   2.291   2.341   1.118
10010TIP3    H229974   2.291   2.191   1.141
10011TIP3   OH229975   6.462   1.171   2.522
10011TIP3    H129976   6.467   1.076   2.524
10011TIP3    H229977   6.451   1.193   2.429
10012TIP3   OH229978   3.497   1.510   3.951
10012TIP3    H129979   3.463   1.444   4.011
10012TIP3    H229980   3.566   1.555   4.000
10013TIP3   OH229981   4.839   4.083   6.130
10013TIP3    H129982   4.923   4.122   6.107
10013TIP3    H229983   4.786   4.091   6.050
10014TIP3   OH229984   5.010   4.324   5.411
10014TIP3    H129985   4.965   4.397   5.369
10014TIP3    H229986   4.940   4.273   5.452
10015TIP3   OH229987   8.186   4.750   4.414
10015TIP3    H129988   8.195   4.724   4.322
10015TIP3    H229989   8.273   4.737   4.451
10016TIP3   OH229990   7.492   7.598   0.790
10016TIP3    H129991   7.553   7.649   0.843
10016TIP3    H229992   7.541   7.578   0.710
10017TIP3   OH229993   7.480   2.676   3.967
10017TIP3    H129994   7.389   2.671   3.995
10017TIP3    H229995   7.483   2.624   3.886
10018TIP3   OH229996   2.004   7.246   3.953
10018TIP3    H129997   1.955   7.301   4.015
10018TIP3    H229998   2.022   7.166   4.001
10019TIP3   OH229999   2.003   5.010   0.569
10019TIP3    H130000   2.023   4.985   0.659
10019TIP3    H230001   1.944   4.942   0.537
10020TIP3   OH230002   5.932   4.479   5.659
10020TIP3    H130003   5.965   4.395   5.690
10020TIP3    H230004   5.859   4.457   5.601
10021TIP3   OH230005   2.654   4.472   3.155
10021TIP3    H130006   2.564   4.497   3.135
10021TIP3    H230007   2.660   4.380   3.131
10022TIP3   OH230008   6.411   4.122   0.625
10022TIP3    H130009   6.324   4.161   0.636
10022TIP3    H230010   6.460   4.149   0.703
10023TIP3   OH230011   0.247   7.215   0.116
10023TIP3    H130012   0.265   7.132   0.160
10023TIP3    H230013   0.332   7.242   0.080
10024TIP3   OH230014   3.306   5.499   1.279
10024TIP3    H130015   3.348   5.434   1.223
10024TIP3    H230016   3.217   5.505   1.246
10025TIP3   OH230017   6.789   5.786   1.161
10025TIP3    H130018   6.845   5.833   1.223
10025TIP3    H230019   6.813   5.694   1.172
10026TIP3   OH230020   6.853   7.236   3.799
10026TIP3    H130021   6.814   7.207   3.881
10026TIP3    H230022   6.779   7.249   3.741
10027TIP3   OH230023   1.763   2.960   3.660
10027TIP3    H130024   1.728   2.878   3.627
10027TIP3    H230025   1.749   3.022   3.589
10028TIP3   OH230026   1.508  -0.007   5.538
10028TIP3    H130027   1.581  -0.049   5.492
10028TIP3    H230028   1.539   0.082   5.556
10029TIP3   OH230029   6.384   2.066   2.112
10029TIP3    H130030   6.333   2.147   2.112
10029TIP3    H230031   6.424   2.063   2.025
10030TIP3   OH230032   2.606   3.429   4.878
10030TIP3    H130033   2.645   3.497   4.824
10030TIP3    H230034   2.665   3.422   4.953
10031TIP3   OH230035   3.060   3.489   2.251
10031TIP3    H130036   3.051   3.579   2.217
10031TIP3    H230037   3.155   3.473   2.249
10032TIP3   OH230038   2.315   2.240   2.081
10032TIP3    H130039   2.252   2.248   2.009
10032TIP3    H230040   2.351   2.151   2.072
10033TIP3   OH230041   5.138   2.824   0.145
10033TIP3    H130042   5.161   2.901   0.197
10033TIP3    H230043   5.207   2.761   0.165
10034TIP3   OH230044   0.779   0.411   4.767
10034TIP3    H130045   0.863   0.367   4.755
10034TIP3    H230046   0.752   0.437   4.679
10035TIP3   OH230047   4.193   7.032   0.933
10035TIP3    H130048   4.113   7.059   0.979
10035TIP3    H230049   4.237   6.974   0.994
10036TIP3   OH230050   4.658   1.748   2.401
10036TIP3    H130051   4.588   1.734   2.466
10036TIP3    H230052   4.732   1.697   2.434
10037TIP3   OH230053   5.834   2.162   5.997
10037TIP3    H130054   5.745   2.195   5.987
10037TIP3    H230055   5.873   2.170   5.910
10038TIP3   OH230056   3.812   6.658   2.864
10038TIP3    H130057   3.788   6.636   2.774
10038TIP3    H230058   3.906   6.643   2.868
10039TIP3   OH230059   5.901   1.451   1.832
10039TIP3    H130060   5.978   1.508   1.836
10039TIP3    H230061   5.829   1.509   1.809
10040TIP3   OH230062   5.047   1.283   5.021
10040TIP3    H130063   5.115   1.323   4.968
10040TIP3    H230064   4.967   1.294   4.970
10041TIP3   OH230065   4.090   6.249   3.742
10041TIP3    H130066   4.010   6.292   3.773
10041TIP3    H230067   4.089   6.164   3.786
10042TIP3   OH230068   0.484   0.838   6.656
10042TIP3    H130069   0.491   0.934   6.657
10042TIP3    H230070   0.564   0.809   6.612
10043TIP3   OH230071   0.680   6.668   4.428
10043TIP3    H130072   0.752   6.651   4.488
10043TIP3    H230073   0.621   6.593   4.440
10044TIP3   OH230074   4.977   0.815   4.988
10044TIP3    H130075   4.994   0.860   4.905
10044TIP3    H230076   4.993   0.722   4.968
10045TIP3   OH230077   0.667   2.723   0.056
10045TIP3    H130078   0.609   2.715   0.133
10045TIP3    H230079   0.615   2.689  -0.016
10046TIP3   OH230080   8.121   4.763   3.560
10046TIP3    H130081   8.130   4.683   3.509
10046TIP3    H230082   8.158   4.741   3.646
10047TIP3   OH230083   4.557   7.442   1.647
10047TIP3    H130084   4.631   7.488   1.608
10047TIP3    H230085   4.591   7.406   1.729
10048TIP3   OH230086   1.181   4.054   5.987
10048TIP3    H130087   1.225   4.025   6.067
10048TIP3    H230088   1.251   4.072   5.925
10049TIP3   OH230089   6.046   0.052   0.565
10049TIP3    H130090   5.960   0.091   0.581
10049TIP3    H230091   6.043   0.027   0.472
10050TIP3   OH230092   2.305   6.609   5.109
10050TIP3    H130093   2.264   6.642   5.029
10050TIP3    H230094   2.395   6.642   5.105
10051TIP3   OH230095   8.264   1.544   4.689
10051TIP3    H130096   8.186   1.581   4.647
10051TIP3    H230097   8.234   1.523   4.778
10052TIP3   OH230098   6.194   0.253   2.199
10052TIP3    H130099   6.164   0.221   2.284
10052TIP3    H230100   6.241   0.178   2.161
10053TIP3   OH230101   0.093   4.796   5.238
10053TIP3    H130102   0.002   4.767   5.227
10053TIP3    H230103   0.094   4.839   5.324
10054TIP3   OH230104   5.655   1.870   3.650
10054TIP3    H130105   5.731   1.900   3.600
10054TIP3    H230106   5.692   1.818   3.722
10055TIP3   OH230107   6.206   3.987   5.693
10055TIP3    H130108   6.149   3.912   5.679
10055TIP3    H230109   6.157   4.043   5.753
10056TIP3   OH230110   6.295   7.194   6.344
10056TIP3    H130111   6.378   7.203   6.392
10056TIP3    H230112   6.235   7.153   6.407
10057TIP3   OH230113   1.933   7.108   1.984
10057TIP3    H130114   1.965   7.125   1.895
10057TIP3    H230115   2.006   7.131   2.041
10058TIP3   OH230116   1.850   0.386   1.470
10058TIP3    H130117   1.783   0.408   1.406
10058TIP3    H230118   1.933   0.397   1.424
10059TIP3   OH230119   0.228   3.834   0.979
10059TIP3    H130120   0.311   3.813   0.935
10059TIP3    H230121   0.252   3.897   1.047
10060TIP3   OH230122   6.345   6.984   4.095
10060TIP3    H130123   6.344   6.968   4.001
10060TIP3    H230124   6.420   7.043   4.108
10061TIP3   OH230125   6.388   4.300   1.710
10061TIP3    H130126   6.482   4.289   1.719
10061TIP3    H230127   6.376   4.347   1.628
10062TIP3   OH230128   3.891   5.075   4.107
10062TIP3    H130129   3.865   5.162   4.138
10062TIP3    H230130   3.926   5.090   4.019
10063TIP3   OH230131   2.469   5.969   1.604
10063TIP3    H130132   2.547   6.006   1.563
10063TIP3    H230133   2.490   5.963   1.697
10064TIP3   OH230134   3.927   1.226   4.417
10064TIP3    H130135   3.887   1.310   4.396
10064TIP3    H230136   3.946   1.186   4.333
10065TIP3   OH230137   3.314  -0.029   1.628
10065TIP3    H130138   3.307   0.040   1.563
10065TIP3    H230139   3.338  -0.107   1.579
10066TIP3   OH230140   3.892   6.376   3.912
10066TIP3    H130141   3.808   6.420   3.928
10066TIP3    H230142   3.886   6.294   3.961
10067TIP3   OH230143   0.579   5.355   4.388
10067TIP3    H130144   0.559   5.276   4.439
10067TIP3    H230145   0.674   5.365   4.396
10068TIP3   OH230146   3.964   6.461   6.771
10068TIP3    H130147   3.993   6.540   6.724
10068TIP3    H230148   3.914   6.411   6.706
10069TIP3   OH230149   0.565   6.835   2.162
10069TIP3    H130150   0.609   6.751   2.167
10069TIP3    H230151   0.497   6.830   2.229
10070TIP3   OH230152   1.025   3.218   6.766
10070TIP3    H130153   0.975   3.238   6.845
10070TIP3    H230154   0.980   3.141   6.729
10071TIP3   OH230155   1.594   4.728   1.970
10071TIP3    H130156   1.538   4.662   2.012
10071TIP3    H230157   1.617   4.690   1.885
10072TIP3   OH230158   0.899   5.755   3.067
10072TIP3    H130159   0.980   5.716   3.033
10072TIP3    H230160   0.929   5.817   3.133
10073TIP3   OH230161   2.671   4.042   5.600
10073TIP3    H130162   2.744   3.982   5.582
10073TIP3    H230163   2.643   4.072   5.514
10074TIP3   OH230164   2.124   5.378   6.560
10074TIP3    H130165   2.062   5.317   6.520
10074TIP3    H230166   2.078   5.413   6.636
10075TIP3   OH230167   2.420   1.607   4.444
10075TIP3    H130168   2.380   1.663   4.378
10075TIP3    H230169   2.463   1.668   4.504
10076TIP3   OH230170   0.307   2.435   3.435
10076TIP3    H130171   0.345   2.454   3.520
10076TIP3    H230172   0.360   2.486   3.373
10077TIP3   OH230173   4.749   0.760   3.812
10077TIP3    H130174   4.674   0.796   3.765
10077TIP3    H230175   4.819   0.757   3.747
10078TIP3   OH230176   8.083   3.716   1.666
10078TIP3    H130177   8.157   3.716   1.604
10078TIP3    H230178   8.045   3.804   1.657
10079TIP3   OH230179   1.303   7.451   5.573
10079TIP3    H130180   1.226   7.495   5.611
10079TIP3    H230181   1.306   7.481   5.483
10080TIP3   OH230182   2.142   5.670   6.051
10080TIP3    H130183   2.220   5.630   6.090
10080TIP3    H230184   2.093   5.704   6.125
10081TIP3   OH230185   3.952   1.906   0.497
10081TIP3    H130186   3.861   1.903   0.468
10081TIP3    H230187   3.953   1.857   0.579
10082TIP3   OH230188   1.619   7.768   1.585
10082TIP3    H130189   1.619   7.750   1.491
10082TIP3    H230190   1.700   7.817   1.600
10083TIP3   OH230191   2.617   2.908   4.023
10083TIP3    H130192   2.674   2.865   3.959
10083TIP3    H230193   2.657   2.888   4.108
10084TIP3   OH230194   6.672   3.451   1.684
10084TIP3    H130195   6.680   3.464   1.779
10084TIP3    H230196   6.762   3.451   1.652
10085TIP3   OH230197   2.970   6.035   1.572
10085TIP3    H130198   3.020   5.997   1.643
10085TIP3    H230199   3.035   6.083   1.520
10086TIP3   OH230200   2.164   1.347   6.239
10086TIP3    H130201   2.089   1.296   6.271
10086TIP3    H230202   2.125   1.429   6.209
10087TIP3   OH230203   6.075   5.048   0.549
10087TIP3    H130204   5.992   5.003   0.533
10087TIP3    H230205   6.121   5.042   0.465
10088TIP3   OH230206   3.396   2.147   5.595
10088TIP3    H130207   3.463   2.197   5.548
10088TIP3    H230208   3.314   2.190   5.571
10089TIP3   OH230209   5.973   7.300   0.862
10089TIP3    H130210   6.052   7.277   0.813
10089TIP3    H230211   5.906   7.240   0.829
10090TIP3   OH230212   7.398   0.296   2.462
10090TIP3    H130213   7.389   0.231   2.532
10090TIP3    H230214   7.329   0.273   2.400
10091TIP3   OH230215   4.024   5.718   1.974
10091TIP3    H130216   4.005   5.671   2.055
10091TIP3    H230217   4.120   5.719   1.969
10092TIP3   OH230218   5.335   4.372   3.030
10092TIP3    H130219   5.297   4.371   3.118
10092TIP3    H230220   5.268   4.412   2.975
10093TIP3   OH230221   6.343   3.021   0.894
10093TIP3    H130222   6.368   2.928   0.891
10093TIP3    H230223   6.259   3.024   0.848
10094TIP3   OH230224   8.012   0.218   6.283
10094TIP3    H130225   7.922   0.194   6.301
10094TIP3    H230226   8.006   0.306   6.245
10095TIP3   OH230227   2.076   2.773   6.780
10095TIP3    H130228   2.104   2.795   6.691
10095TIP3    H230229   2.155   2.744   6.824
10096TIP3   OH230230   4.075   2.059   4.190
10096TIP3    H130231   4.048   1.996   4.257
10096TIP3    H230232   3.993   2.098   4.160
10097TIP3   OH230233   0.670   0.048   4.520
10097TIP3    H130234   0.680   0.079   4.430
10097TIP3    H230235   0.756   0.064   4.560
10098TIP3   OH230236   4.867  -0.029   1.586
10098TIP3    H130237   4.875   0.052   1.636
10098TIP3    H230238   4.957  -0.058   1.572
10099TIP3   OH230239   5.531   7.201   6.607
10099TIP3    H130240   5.485   7.235   6.530
10099TIP3    H230241   5.520   7.270   6.673
10100TIP3   OH230242   6.264   0.848   4.042
10100TIP3    H130243   6.313   0.894   4.110
10100TIP3    H230244   6.172   0.870   4.059
10101TIP3   OH230245   5.634   6.969   1.480
10101TIP3    H130246   5.660   7.036   1.416
10101TIP3    H230247   5.641   7.012   1.565
10102TIP3   OH230248   5.345   4.520   0.488
10102TIP3    H130249   5.388   4.435   0.481
10102TIP3    H230250   5.270   4.513   0.429
10103TIP3   OH230251   7.668   1.014   4.689
10103TIP3    H130252   7.653   1.108   4.701
10103TIP3    H230253   7.757   1.000   4.720
10104TIP3   OH230254   0.158   6.153   0.412
10104TIP3    H130255   0.088   6.157   0.477
10104TIP3    H230256   0.111   6.153   0.328
10105TIP3   OH230257   7.465   7.353   5.250
10105TIP3    H130258   7.376   7.329   5.225
10105TIP3    H230259   7.454   7.409   5.326
10106TIP3   OH230260   6.108   7.725   0.016
10106TIP3    H130261   6.066   7.704   0.100
10106TIP3    H230262   6.167   7.651   0.000
10107TIP3   OH230263   0.186   1.090   0.107
10107TIP3    H130264   0.236   1.123   0.182
10107TIP3    H230265   0.134   1.018   0.143
10108TIP3   OH230266   7.394   4.229   3.351
10108TIP3    H130267   7.329   4.189   3.408
10108TIP3    H230268   7.461   4.262   3.411
10109TIP3   OH230269   6.346   4.612   2.599
10109TIP3    H130270   6.270   4.560   2.574
10109TIP3    H230271   6.325   4.645   2.687
10110TIP3   OH230272   1.969   7.507   0.578
10110TIP3    H130273   1.900   7.499   0.644
10110TIP3    H230274   2.044   7.543   0.625
10111TIP3   OH230275   6.194   7.296   3.556
10111TIP3    H130276   6.205   7.385   3.522
10111TIP3    H230277   6.129   7.256   3.498
10112TIP3   OH230278   0.361   3.262   2.510
10112TIP3    H130279   0.356   3.190   2.447
10112TIP3    H230280   0.371   3.340   2.456
10113TIP3   OH230281   6.142   4.475   1.274
10113TIP3    H130282   6.055   4.493   1.311
10113TIP3    H230283   6.124   4.452   1.183
10114TIP3   OH230284   0.683   5.274   0.743
10114TIP3    H130285   0.681   5.283   0.838
10114TIP3    H230286   0.776   5.272   0.720
10115TIP3   OH230287   3.505   0.062   0.464
10115TIP3    H130288   3.574   0.016   0.512
10115TIP3    H230289   3.459  -0.007   0.417
10116TIP3   OH230290   1.736   1.716   2.482
10116TIP3    H130291   1.687   1.701   2.563
10116TIP3    H230292   1.674   1.695   2.412
10117TIP3   OH230293   0.060   0.724   2.765
10117TIP3    H130294  -0.026   0.705   2.728
10117TIP3    H230295   0.056   0.816   2.789
10118TIP3   OH230296   1.302   5.676   6.014
10118TIP3    H130297   1.326   5.749   5.956
10118TIP3    H230298   1.272   5.607   5.956
10119TIP3   OH230299   0.804   1.840   6.081
10119TIP3    H130300   0.726   1.886   6.048
10119TIP3    H230301   0.806   1.759   6.031
10120TIP3   OH230302   3.811   5.045   3.026
10120TIP3    H130303   3.833   5.093   3.106
10120TIP3    H230304   3.723   5.012   3.041
10121TIP3   OH230305   0.351   6.322   5.832
10121TIP3    H130306   0.423   6.288   5.885
10121TIP3    H230307   0.389   6.335   5.745
10122TIP3   OH230308   2.705   2.485   2.549
10122TIP3    H130309   2.688   2.549   2.618
10122TIP3    H230310   2.632   2.496   2.488
10123TIP3   OH230311   7.133   6.582   2.094
10123TIP3    H130312   7.112   6.592   2.187
10123TIP3    H230313   7.047   6.583   2.051
10124TIP3   OH230314   0.208   1.024   4.634
10124TIP3    H130315   0.233   0.932   4.628
10124TIP3    H230316   0.249   1.054   4.715
10125TIP3   OH230317   0.902   1.154   6.377
10125TIP3    H130318   0.968   1.224   6.380
10125TIP3    H230319   0.950   1.075   6.401
10126TIP3   OH230320   5.261   6.656   4.005
10126TIP3    H130321   5.210   6.597   4.060
10126TIP3    H230322   5.205   6.672   3.928
10127TIP3   OH230323   0.088   7.355   2.917
10127TIP3    H130324   0.164   7.336   2.971
10127TIP3    H230325   0.124   7.381   2.833
10128TIP3   OH230326   6.693   6.759   1.785
10128TIP3    H130327   6.750   6.823   1.742
10128TIP3    H230328   6.609   6.805   1.795
10129TIP3   OH230329   3.016   0.048   5.857
10129TIP3    H130330   3.037   0.010   5.943
10129TIP3    H230331   3.095   0.097   5.833
10130TIP3   OH230332   8.007   2.671   2.437
10130TIP3    H130333   8.073   2.728   2.476
10130TIP3    H230334   8.025   2.675   2.343
10131TIP3   OH230335   4.009   1.473   4.846
10131TIP3    H130336   4.053   1.509   4.769
10131TIP3    H230337   3.949   1.543   4.874
10132TIP3   OH230338   7.534   2.179   4.382
10132TIP3    H130339   7.452   2.180   4.431
10132TIP3    H230340   7.548   2.271   4.357
10133TIP3   OH230341   0.921   1.088   3.935
10133TIP3    H130342   0.980   1.085   4.010
10133TIP3    H230343   0.848   1.031   3.959
10134TIP3   OH230344   3.196   6.162   0.012
10134TIP3    H130345   3.280   6.151   0.056
10134TIP3    H230346   3.183   6.079  -0.036
10135TIP3   OH230347   0.228   3.330   5.054
10135TIP3    H130348   0.308   3.291   5.090
10135TIP3    H230349   0.157   3.286   5.100
10136TIP3   OH230350   2.116   3.558   6.101
10136TIP3    H130351   2.185   3.613   6.138
10136TIP3    H230352   2.163   3.494   6.047
10137TIP3   OH230353   8.036   3.623   3.799
10137TIP3    H130354   7.976   3.572   3.854
10137TIP3    H230355   8.111   3.642   3.855
10138TIP3   OH230356   2.997   4.227   4.228
10138TIP3    H130357   3.035   4.297   4.281
10138TIP3    H230358   2.998   4.260   4.138
10139TIP3   OH230359   2.275   2.979   5.437
10139TIP3    H130360   2.279   2.960   5.531
10139TIP3    H230361   2.183   2.970   5.414
10140TIP3   OH230362   7.342   1.716   5.533
10140TIP3    H130363   7.372   1.654   5.467
10140TIP3    H230364   7.249   1.728   5.515
10141TIP3   OH230365   5.431   5.963   3.641
10141TIP3    H130366   5.478   6.028   3.694
10141TIP3    H230367   5.434   5.999   3.552
10142TIP3   OH230368   4.752   1.173   1.597
10142TIP3    H130369   4.811   1.180   1.523
10142TIP3    H230370   4.761   1.083   1.627
10143TIP3   OH230371   7.758   0.284   3.124
10143TIP3    H130372   7.682   0.292   3.181
10143TIP3    H230373   7.737   0.339   3.049
10144TIP3   OH230374   7.184   1.370   4.850
10144TIP3    H130375   7.182   1.381   4.755
10144TIP3    H230376   7.108   1.419   4.882
10145TIP3   OH230377   4.061   1.042   5.431
10145TIP3    H130378   4.127   1.110   5.418
10145TIP3    H230379   3.978   1.088   5.431
10146TIP3   OH230380   0.364   6.367   0.404
10146TIP3    H130381   0.307   6.317   0.462
10146TIP3    H230382   0.410   6.301   0.352
10147TIP3   OH230383   4.017   3.307   2.773
10147TIP3    H130384   3.967   3.305   2.855
10147TIP3    H230385   4.032   3.215   2.752
10148TIP3   OH230386   2.000   3.917   2.845
10148TIP3    H130387   1.942   3.982   2.885
10148TIP3    H230388   2.022   3.953   2.760
10149TIP3   OH230389   6.404   1.721  -0.004
10149TIP3    H130390   6.494   1.702   0.023
10149TIP3    H230391   6.404   1.815  -0.024
10150TIP3   OH230392   5.382   2.838   0.385
10150TIP3    H130393   5.413   2.773   0.322
10150TIP3    H230394   5.455   2.851   0.444
10151TIP3   OH230395   0.877   3.807   6.305
10151TIP3    H130396   0.912   3.827   6.218
10151TIP3    H230397   0.914   3.874   6.362
10152TIP3   OH230398   4.841   4.276   3.508
10152TIP3    H130399   4.757   4.248   3.471
10152TIP3    H230400   4.822   4.363   3.545
10153TIP3   OH230401   1.949   0.725   6.705
10153TIP3    H130402   1.976   0.644   6.748
10153TIP3    H230403   1.858   0.738   6.732
10154TIP3   OH230404   3.248   2.244   5.209
10154TIP3    H130405   3.257   2.309   5.278
10154TIP3    H230406   3.203   2.170   5.251
10155TIP3   OH230407   7.329   5.789   1.149
10155TIP3    H130408   7.313   5.760   1.238
10155TIP3    H230409   7.424   5.786   1.139
10156TIP3   OH230410   6.694   5.583   3.583
10156TIP3    H130411   6.612   5.604   3.627
10156TIP3    H230412   6.748   5.542   3.650
10157TIP3   OH230413   6.288   0.453   3.246
10157TIP3    H130414   6.328   0.395   3.312
10157TIP3    H230415   6.257   0.528   3.296
10158TIP3   OH230416   7.620   7.697   1.430
10158TIP3    H130417   7.548   7.634   1.427
10158TIP3    H230418   7.592   7.761   1.496
10159TIP3   OH230419   3.650   5.462   2.243
10159TIP3    H130420   3.688   5.549   2.230
10159TIP3    H230421   3.594   5.449   2.166
10160TIP3   OH230422   4.845   6.577   4.892
10160TIP3    H130423   4.937   6.553   4.882
10160TIP3    H230424   4.802   6.497   4.922
10161TIP3   OH230425   2.452   7.454   4.575
10161TIP3    H130426   2.426   7.412   4.493
10161TIP3    H230427   2.460   7.382   4.637
10162TIP3   OH230428   6.455   7.169   5.828
10162TIP3    H130429   6.422   7.188   5.740
10162TIP3    H230430   6.548   7.192   5.824
10163TIP3   OH230431   6.759   0.858   0.426
10163TIP3    H130432   6.755   0.953   0.416
10163TIP3    H230433   6.781   0.844   0.518
10164TIP3   OH230434   6.153   0.216   1.104
10164TIP3    H130435   6.178   0.282   1.040
10164TIP3    H230436   6.151   0.263   1.187
10165TIP3   OH230437   6.154   2.405   1.270
10165TIP3    H130438   6.242   2.390   1.304
10165TIP3    H230439   6.157   2.372   1.180
10166TIP3   OH230440   3.484   3.843   3.271
10166TIP3    H130441   3.517   3.796   3.348
10166TIP3    H230442   3.539   3.921   3.266
10167TIP3   OH230443   2.610   5.105   3.883
10167TIP3    H130444   2.626   5.126   3.791
10167TIP3    H230445   2.601   5.010   3.884
10168TIP3   OH230446   0.760   1.454   6.711
10168TIP3    H130447   0.771   1.408   6.794
10168TIP3    H230448   0.749   1.384   6.646
10169TIP3   OH230449   2.325   0.072   0.004
10169TIP3    H130450   2.364   0.114   0.080
10169TIP3    H230451   2.376  -0.007  -0.010
10170TIP3   OH230452   3.479   2.367   3.842
10170TIP3    H130453   3.485   2.462   3.832
10170TIP3    H230454   3.556   2.333   3.796
10171TIP3   OH230455   3.587   2.275   1.704
10171TIP3    H130456   3.596   2.274   1.800
10171TIP3    H230457   3.577   2.183   1.680
10172TIP3   OH230458   0.427   6.175   6.149
10172TIP3    H130459   0.454   6.085   6.165
10172TIP3    H230460   0.477   6.201   6.071
10173TIP3   OH230461   2.646   6.976   0.814
10173TIP3    H130462   2.681   7.065   0.807
10173TIP3    H230463   2.719   6.919   0.787
10174TIP3   OH230464   5.993   6.465   3.010
10174TIP3    H130465   5.984   6.427   2.923
10174TIP3    H230466   5.904   6.468   3.045
10175TIP3   OH230467   4.527   5.811   5.034
10175TIP3    H130468   4.441   5.826   4.996
10175TIP3    H230469   4.515   5.827   5.128
10176TIP3   OH230470   1.483   1.345   5.889
10176TIP3    H130471   1.557   1.370   5.834
10176TIP3    H230472   1.479   1.414   5.955
10177TIP3   OH230473   3.651   0.947   4.364
10177TIP3    H130474   3.682   0.905   4.445
10177TIP3    H230475   3.626   0.874   4.308
10178TIP3   OH230476   3.980   1.203   5.816
10178TIP3    H130477   4.058   1.160   5.852
10178TIP3    H230478   3.917   1.203   5.888
10179TIP3   OH230479   5.614   6.461   4.334
10179TIP3    H130480   5.600   6.547   4.295
10179TIP3    H230481   5.538   6.410   4.307
10180TIP3   OH230482   6.746   6.847   4.282
10180TIP3    H130483   6.676   6.807   4.231
10180TIP3    H230484   6.812   6.778   4.290
10181TIP3   OH230485   0.863   0.947   1.279
10181TIP3    H130486   0.831   0.976   1.365
10181TIP3    H230487   0.945   0.902   1.298
10182TIP3   OH230488   5.569   6.495   0.610
10182TIP3    H130489   5.510   6.551   0.559
10182TIP3    H230490   5.540   6.506   0.700
10183TIP3   OH230491   6.017   7.662   0.310
10183TIP3    H130492   6.063   7.722   0.369
10183TIP3    H230493   5.934   7.705   0.292
10184TIP3   OH230494   0.389   7.647   2.628
10184TIP3    H130495   0.338   7.611   2.555
10184TIP3    H230496   0.467   7.592   2.634
10185TIP3   OH230497   4.647   0.957   5.329
10185TIP3    H130498   4.654   0.870   5.290
10185TIP3    H230499   4.725   0.965   5.384
10186TIP3   OH230500   7.703   5.445   1.089
10186TIP3    H130501   7.767   5.515   1.105
10186TIP3    H230502   7.668   5.426   1.176
10187TIP3   OH230503   0.525   6.642   5.098
10187TIP3    H130504   0.551   6.692   5.021
10187TIP3    H230505   0.498   6.557   5.063
10188TIP3   OH230506   0.437   5.707   0.692
10188TIP3    H130507   0.439   5.689   0.598
10188TIP3    H230508   0.462   5.624   0.733
10189TIP3   OH230509   0.462   4.007   2.491
10189TIP3    H130510   0.543   3.990   2.442
10189TIP3    H230511   0.474   4.097   2.524
10190TIP3   OH230512   2.404   4.555   3.088
10190TIP3    H130513   2.323   4.597   3.119
10190TIP3    H230514   2.398   4.558   2.993
10191TIP3   OH230515   2.292   3.967   0.366
10191TIP3    H130516   2.240   3.922   0.432
10191TIP3    H230517   2.231   4.028   0.325
10192TIP3   OH230518   3.167   7.429   4.932
10192TIP3    H130519   3.171   7.436   4.836
10192TIP3    H230520   3.159   7.519   4.962
10193TIP3   OH230521   7.147   2.788   1.015
10193TIP3    H130522   7.148   2.728   1.090
10193TIP3    H230523   7.232   2.832   1.018
10194TIP3   OH230524   5.172   1.851   2.681
10194TIP3    H130525   5.112   1.902   2.736
10194TIP3    H230526   5.147   1.760   2.698
10195TIP3   OH230527   7.227   4.617   2.629
10195TIP3    H130528   7.194   4.567   2.554
10195TIP3    H230529   7.197   4.706   2.612
10196TIP3   OH230530   1.132   5.410   0.492
10196TIP3    H130531   1.092   5.457   0.565
10196TIP3    H230532   1.095   5.322   0.499
10197TIP3   OH230533   2.844   1.509   0.293
10197TIP3    H130534   2.766   1.565   0.297
10197TIP3    H230535   2.811   1.424   0.263
10198TIP3   OH230536   1.371   1.060   2.040
10198TIP3    H130537   1.302   0.996   2.057
10198TIP3    H230538   1.406   1.080   2.127
10199TIP3   OH230539   2.540   4.400   6.098
10199TIP3    H130540   2.473   4.341   6.062
10199TIP3    H230541   2.561   4.460   6.027
10200TIP3   OH230542   6.484   0.393   1.609
10200TIP3    H130543   6.474   0.383   1.704
10200TIP3    H230544   6.395   0.383   1.574
10201TIP3   OH230545   3.992   2.547   0.588
10201TIP3    H130546   3.922   2.607   0.613
10201TIP3    H230547   3.974   2.467   0.639
10202TIP3   OH230548   3.346   4.549   0.617
10202TIP3    H130549   3.255   4.580   0.620
10202TIP3    H230550   3.398   4.630   0.613
10203TIP3   OH230551   1.680   5.337   3.216
10203TIP3    H130552   1.769   5.368   3.231
10203TIP3    H230553   1.691   5.244   3.193
10204TIP3   OH230554   7.903   1.564   4.160
10204TIP3    H130555   7.893   1.470   4.177
10204TIP3    H230556   7.828   1.605   4.204
10205TIP3   OH230557   8.314   0.566   5.006
10205TIP3    H130558   8.223   0.542   5.021
10205TIP3    H230559   8.351   0.491   4.959
10206TIP3   OH230560   7.661   7.511   0.188
10206TIP3    H130561   7.754   7.510   0.164
10206TIP3    H230562   7.628   7.426   0.159
10207TIP3   OH230563   2.364   3.739   4.737
10207TIP3    H130564   2.340   3.744   4.829
10207TIP3    H230565   2.336   3.823   4.700
10208TIP3   OH230566   7.715   3.390  -0.017
10208TIP3    H130567   7.796   3.359  -0.058
10208TIP3    H230568   7.739   3.472   0.025
10209TIP3   OH230569   6.172   3.702   6.213
10209TIP3    H130570   6.208   3.785   6.181
10209TIP3    H230571   6.083   3.724   6.241
10210TIP3   OH230572   7.681   2.746   2.900
10210TIP3    H130573   7.612   2.751   2.834
10210TIP3    H230574   7.750   2.803   2.867
10211TIP3   OH230575   2.087   1.428   1.931
10211TIP3    H130576   2.173   1.461   1.958
10211TIP3    H230577   2.099   1.334   1.921
10212TIP3   OH230578   0.714   2.391   2.428
10212TIP3    H130579   0.693   2.448   2.354
10212TIP3    H230580   0.722   2.451   2.502
10213TIP3   OH230581   6.701   7.139   3.978
10213TIP3    H130582   6.654   7.117   4.059
10213TIP3    H230583   6.748   7.059   3.956
10214TIP3   OH230584   4.624   2.315   1.316
10214TIP3    H130585   4.541   2.299   1.361
10214TIP3    H230586   4.657   2.228   1.294
10215TIP3   OH230587   5.752   3.443   4.794
10215TIP3    H130588   5.665   3.406   4.804
10215TIP3    H230589   5.765   3.449   4.699
10216TIP3   OH230590   0.441   1.860   1.609
10216TIP3    H130591   0.487   1.933   1.567
10216TIP3    H230592   0.355   1.859   1.569
10217TIP3   OH230593   1.745   4.515   5.715
10217TIP3    H130594   1.835   4.530   5.742
10217TIP3    H230595   1.703   4.601   5.721
10218TIP3   OH230596   5.405   2.736   3.847
10218TIP3    H130597   5.397   2.660   3.790
10218TIP3    H230598   5.319   2.778   3.845
10219TIP3   OH230599   3.260   0.961   2.577
10219TIP3    H130600   3.317   1.029   2.541
10219TIP3    H230601   3.172   0.987   2.550
10220TIP3   OH230602   1.208   0.129   6.320
10220TIP3    H130603   1.236   0.087   6.239
10220TIP3    H230604   1.263   0.207   6.327
10221TIP3   OH230605   0.774   0.042   5.038
10221TIP3    H130606   0.837  -0.002   4.981
10221TIP3    H230607   0.711   0.081   4.979
10222TIP3   OH230608   1.717   1.682   5.321
10222TIP3    H130609   1.791   1.633   5.358
10222TIP3    H230610   1.643   1.659   5.378
10223TIP3   OH230611   0.569   6.210   5.919
10223TIP3    H130612   0.594   6.124   5.885
10223TIP3    H230613   0.636   6.270   5.884
10224TIP3   OH230614   0.388   6.802   6.503
10224TIP3    H130615   0.479   6.788   6.529
10224TIP3    H230616   0.359   6.717   6.471
10225TIP3   OH230617   4.347   2.920   5.867
10225TIP3    H130618   4.297   2.840   5.884
10225TIP3    H230619   4.439   2.894   5.878
10226TIP3   OH230620   3.132   6.926   5.038
10226TIP3    H130621   3.056   6.952   5.090
10226TIP3    H230622   3.126   6.980   4.958
10227TIP3   OH230623   7.988   6.006   0.696
10227TIP3    H130624   7.899   6.013   0.732
10227TIP3    H230625   8.013   6.097   0.677
10228TIP3   OH230626   1.849   1.416   4.968
10228TIP3    H130627   1.764   1.447   5.001
10228TIP3    H230628   1.899   1.394   5.047
10229TIP3   OH230629   6.960   1.842   5.847
10229TIP3    H130630   6.953   1.776   5.916
10229TIP3    H230631   6.884   1.899   5.860
10230TIP3   OH230632   5.064   1.069   4.001
10230TIP3    H130633   5.149   1.026   4.014
10230TIP3    H230634   5.046   1.112   4.085
10231TIP3   OH230635   0.542   5.616   5.461
10231TIP3    H130636   0.470   5.571   5.504
10231TIP3    H230637   0.621   5.579   5.501
10232TIP3   OH230638   1.012   7.673   4.074
10232TIP3    H130639   0.996   7.748   4.017
10232TIP3    H230640   0.995   7.596   4.020
10233TIP3   OH230641   4.756   7.676   0.893
10233TIP3    H130642   4.850   7.661   0.893
10233TIP3    H230643   4.722   7.622   0.821
10234TIP3   OH230644   7.669   7.772   5.593
10234TIP3    H130645   7.726   7.721   5.535
10234TIP3    H230646   7.720   7.850   5.613
10235TIP3   OH230647   3.184   5.132   2.501
10235TIP3    H130648   3.248   5.200   2.523
10235TIP3    H230649   3.101   5.179   2.493
10236TIP3   OH230650   1.127   2.354   0.379
10236TIP3    H130651   1.071   2.289   0.337
10236TIP3    H230652   1.205   2.305   0.406
10237TIP3   OH230653   4.223   4.176   2.828
10237TIP3    H130654   4.286   4.115   2.864
10237TIP3    H230655   4.261   4.203   2.744
10238TIP3   OH230656   3.114   0.445   0.615
10238TIP3    H130657   3.023   0.416   0.613
10238TIP3    H230658   3.165   0.364   0.614
10239TIP3   OH230659   1.364   6.747   3.991
10239TIP3    H130660   1.446   6.700   3.980
10239TIP3    H230661   1.388   6.828   4.036
10240TIP3   OH230662   8.150   5.411   6.171
10240TIP3    H130663   8.127   5.501   6.196
10240TIP3    H230664   8.228   5.391   6.223
10241TIP3   OH230665   3.518   3.720   3.524
10241TIP3    H130666   3.562   3.709   3.608
10241TIP3    H230667   3.433   3.678   3.535
10242TIP3   OH230668   7.959   4.683   2.284
10242TIP3    H130669   7.964   4.778   2.284
10242TIP3    H230670   7.878   4.663   2.237
10243TIP3   OH230671   0.248   7.180   0.866
10243TIP3    H130672   0.169   7.147   0.825
10243TIP3    H230673   0.218   7.218   0.949
10244TIP3   OH230674   1.621   6.175   5.960
10244TIP3    H130675   1.623   6.214   5.873
10244TIP3    H230676   1.700   6.207   6.003
10245TIP3   OH230677   3.743   5.111   1.252
10245TIP3    H130678   3.791   5.057   1.189
10245TIP3    H230679   3.716   5.051   1.321
10246TIP3   OH230680   4.211   7.668   2.765
10246TIP3    H130681   4.200   7.618   2.684
10246TIP3    H230682   4.123   7.681   2.798
10247TIP3   OH230683   4.161   3.238   4.698
10247TIP3    H130684   4.069   3.255   4.682
10247TIP3    H230685   4.166   3.213   4.790
10248TIP3   OH230686   3.613   6.601   1.570
10248TIP3    H130687   3.678   6.538   1.539
10248TIP3    H230688   3.645   6.686   1.539
10249TIP3   OH230689   4.047   0.651   4.199
10249TIP3    H130690   4.032   0.727   4.256
10249TIP3    H230691   3.991   0.583   4.235
10250TIP3   OH230692   5.728   0.261   1.072
10250TIP3    H130693   5.709   0.231   0.983
10250TIP3    H230694   5.740   0.181   1.123
10251TIP3   OH230695   3.295   6.903   5.478
10251TIP3    H130696   3.217   6.851   5.499
10251TIP3    H230697   3.362   6.871   5.538
10252TIP3   OH230698   3.812   1.245   2.914
10252TIP3    H130699   3.722   1.212   2.911
10252TIP3    H230700   3.832   1.252   3.008
10253TIP3   OH230701   1.075   1.892   6.509
10253TIP3    H130702   1.010   1.834   6.548
10253TIP3    H230703   1.080   1.864   6.417
10254TIP3   OH230704   2.631   3.061   0.334
10254TIP3    H130705   2.641   3.045   0.240
10254TIP3    H230706   2.590   3.147   0.340
10255TIP3   OH230707   5.460   6.047   2.373
10255TIP3    H130708   5.380   6.061   2.322
10255TIP3    H230709   5.445   5.965   2.420
10256TIP3   OH230710   4.608   1.092   0.942
10256TIP3    H130711   4.602   1.096   0.846
10256TIP3    H230712   4.518   1.107   0.972
10257TIP3   OH230713   8.231   7.845   1.473
10257TIP3    H130714   8.184   7.781   1.526
10257TIP3    H230715   8.194   7.930   1.499
10258TIP3   OH230716   1.302   6.744   5.580
10258TIP3    H130717   1.348   6.711   5.502
10258TIP3    H230718   1.299   6.839   5.567
10259TIP3   OH230719   0.262   6.692   3.624
10259TIP3    H130720   0.168   6.680   3.639
10259TIP3    H230721   0.289   6.754   3.692
10260TIP3   OH230722   1.990   3.619   3.988
10260TIP3    H130723   1.900   3.611   3.959
10260TIP3    H230724   2.017   3.706   3.958
10261TIP3   OH230725   3.446   7.224   6.284
10261TIP3    H130726   3.428   7.180   6.367
10261TIP3    H230727   3.428   7.158   6.218
10262TIP3   OH230728   7.545   7.444   2.550
10262TIP3    H130729   7.530   7.358   2.588
10262TIP3    H230730   7.560   7.427   2.457
10263TIP3   OH230731   2.559   0.603   0.293
10263TIP3    H130732   2.552   0.573   0.384
10263TIP3    H230733   2.599   0.529   0.247
10264TIP3   OH230734   0.846   2.107   0.670
10264TIP3    H130735   0.937   2.093   0.642
10264TIP3    H230736   0.796   2.105   0.589
10265TIP3   OH230737   0.818   1.129   2.059
10265TIP3    H130738   0.840   1.199   2.121
10265TIP3    H230739   0.857   1.156   1.976
10266TIP3   OH230740   2.503   2.077   6.510
10266TIP3    H130741   2.433   2.048   6.452
10266TIP3    H230742   2.473   2.162   6.543
10267TIP3   OH230743   2.250   2.225   0.333
10267TIP3    H130744   2.157   2.234   0.350
10267TIP3    H230745   2.277   2.150   0.385
10268TIP3   OH230746   3.093   7.808   3.558
10268TIP3    H130747   3.156   7.855   3.614
10268TIP3    H230748   3.147   7.770   3.489
10269TIP3   OH230749   5.108   7.667   2.328
10269TIP3    H130750   5.171   7.715   2.273
10269TIP3    H230751   5.025   7.676   2.282
10270TIP3   OH230752   5.230   6.053   4.736
10270TIP3    H130753   5.316   6.094   4.726
10270TIP3    H230754   5.201   6.034   4.647
10271TIP3   OH230755   8.097   6.389   3.849
10271TIP3    H130756   8.144   6.306   3.863
10271TIP3    H230757   8.165   6.456   3.855
10272TIP3   OH230758   6.633   0.745   3.606
10272TIP3    H130759   6.598   0.735   3.518
10272TIP3    H230760   6.654   0.838   3.613
10273TIP3   OH230761   4.491   4.746   1.354
10273TIP3    H130762   4.495   4.826   1.406
10273TIP3    H230763   4.562   4.754   1.291
10274TIP3   OH230764   1.857   3.070   5.612
10274TIP3    H130765   1.786   3.134   5.610
10274TIP3    H230766   1.842   3.020   5.693
10275TIP3   OH230767   0.171   6.633   5.466
10275TIP3    H130768   0.126   6.593   5.541
10275TIP3    H230769   0.258   6.655   5.499
10276TIP3   OH230770   0.883   4.724   6.607
10276TIP3    H130771   0.859   4.813   6.581
10276TIP3    H230772   0.961   4.735   6.662
10277TIP3   OH230773   3.475   4.045   4.434
10277TIP3    H130774   3.430   4.005   4.508
10277TIP3    H230775   3.560   4.072   4.469
10278TIP3   OH230776   0.137   6.287   2.124
10278TIP3    H130777   0.199   6.323   2.188
10278TIP3    H230778   0.186   6.218   2.080
10279TIP3   OH230779   0.855   7.128   0.685
10279TIP3    H130780   0.806   7.052   0.655
10279TIP3    H230781   0.899   7.161   0.606
10280TIP3   OH230782   7.358   5.524   0.821
10280TIP3    H130783   7.349   5.541   0.727
10280TIP3    H230784   7.407   5.441   0.825
10281TIP3   OH230785   2.160   1.457   4.848
10281TIP3    H130786   2.187   1.383   4.795
10281TIP3    H230787   2.116   1.418   4.924
10282TIP3   OH230788   2.738   1.922   3.569
10282TIP3    H130789   2.756   1.962   3.655
10282TIP3    H230790   2.731   1.828   3.588
10283TIP3   OH230791   6.400   3.591   3.066
10283TIP3    H130792   6.448   3.674   3.065
10283TIP3    H230793   6.466   3.525   3.088
10284TIP3   OH230794   7.101   3.144   6.626
10284TIP3    H130795   7.188   3.106   6.637
10284TIP3    H230796   7.108   3.196   6.546
10285TIP3   OH230797   5.657   5.339   1.504
10285TIP3    H130798   5.669   5.427   1.540
10285TIP3    H230799   5.562   5.329   1.496
10286TIP3   OH230800   0.173   2.771   5.873
10286TIP3    H130801   0.149   2.832   5.803
10286TIP3    H230802   0.128   2.806   5.950
10287TIP3   OH230803   2.812   1.339   1.704
10287TIP3    H130804   2.758   1.281   1.651
10287TIP3    H230805   2.756   1.362   1.779
10288TIP3   OH230806   7.669   6.391   5.072
10288TIP3    H130807   7.762   6.371   5.065
10288TIP3    H230808   7.654   6.406   5.165
10289TIP3   OH230809   4.346   1.229   0.065
10289TIP3    H130810   4.303   1.143   0.071
10289TIP3    H230811   4.400   1.223  -0.014
10290TIP3   OH230812   6.379   6.273   1.659
10290TIP3    H130813   6.351   6.339   1.596
10290TIP3    H230814   6.303   6.215   1.668
10291TIP3   OH230815   2.717   4.863   0.399
10291TIP3    H130816   2.776   4.828   0.465
10291TIP3    H230817   2.630   4.857   0.439
10292TIP3   OH230818   7.546   1.397   3.535
10292TIP3    H130819   7.578   1.350   3.612
10292TIP3    H230820   7.614   1.461   3.516
10293TIP3   OH230821   5.704   4.796   4.740
10293TIP3    H130822   5.675   4.800   4.831
10293TIP3    H230823   5.775   4.860   4.735
10294TIP3   OH230824   8.130   6.237   2.810
10294TIP3    H130825   8.100   6.148   2.832
10294TIP3    H230826   8.057   6.276   2.763
10295TIP3   OH230827   6.620   3.192   2.307
10295TIP3    H130828   6.657   3.252   2.372
10295TIP3    H230829   6.526   3.193   2.326
10296TIP3   OH230830   3.531   4.657   5.955
10296TIP3    H130831   3.527   4.634   6.048
10296TIP3    H230832   3.511   4.575   5.909
10297TIP3   OH230833   0.206   0.253   1.440
10297TIP3    H130834   0.203   0.342   1.404
10297TIP3    H230835   0.212   0.266   1.535
10298TIP3   OH230836   0.990   5.536   2.329
10298TIP3    H130837   0.951   5.592   2.261
10298TIP3    H230838   0.932   5.544   2.404
10299TIP3   OH230839   0.809   2.285   1.305
10299TIP3    H130840   0.757   2.338   1.366
10299TIP3    H230841   0.756   2.207   1.289
10300TIP3   OH230842   4.120   3.580   4.525
10300TIP3    H130843   4.109   3.567   4.431
10300TIP3    H230844   4.097   3.672   4.540
10301TIP3   OH230845   5.897   2.160   1.307
10301TIP3    H130846   5.979   2.136   1.266
10301TIP3    H230847   5.833   2.162   1.236
10302TIP3   OH230848   6.198   3.844   3.231
10302TIP3    H130849   6.217   3.931   3.267
10302TIP3    H230850   6.199   3.786   3.307
10303TIP3   OH230851   1.100   1.354   6.393
10303TIP3    H130852   1.142   1.411   6.328
10303TIP3    H230853   1.163   1.350   6.465
10304TIP3   OH230854   0.616   4.089   3.633
10304TIP3    H130855   0.580   4.166   3.676
10304TIP3    H230856   0.578   4.015   3.680
10305TIP3   OH230857   0.334   4.775   0.307
10305TIP3    H130858   0.422   4.803   0.332
10305TIP3    H230859   0.313   4.705   0.369
10306TIP3   OH230860   1.457   7.591   2.952
10306TIP3    H130861   1.527   7.534   2.983
10306TIP3    H230862   1.477   7.606   2.860
10307TIP3   OH230863   6.976   1.303   0.669
10307TIP3    H130864   7.014   1.380   0.627
10307TIP3    H230865   6.975   1.324   0.762
10308TIP3   OH230866   5.558   7.566   0.797
10308TIP3    H130867   5.559   7.474   0.823
10308TIP3    H230868   5.628   7.606   0.849
10309TIP3   OH230869   2.075   2.974   5.876
10309TIP3    H130870   1.983   2.950   5.860
10309TIP3    H230871   2.087   3.056   5.828
10310TIP3   OH230872   7.753   4.342   5.467
10310TIP3    H130873   7.765   4.320   5.559
10310TIP3    H230874   7.805   4.277   5.420
10311TIP3   OH230875   7.394   1.719   2.757
10311TIP3    H130876   7.426   1.808   2.770
10311TIP3    H230877   7.324   1.727   2.692
10312TIP3   OH230878   2.776   1.365   0.881
10312TIP3    H130879   2.834   1.289   0.881
10312TIP3    H230880   2.823   1.431   0.932
10313TIP3   OH230881   6.341   4.154   3.787
10313TIP3    H130882   6.330   4.240   3.829
10313TIP3    H230883   6.349   4.174   3.694
10314TIP3   OH230884   2.871   1.680   1.278
10314TIP3    H130885   2.824   1.763   1.273
10314TIP3    H230886   2.850   1.647   1.366
10315TIP3   OH230887   1.619   2.321   5.173
10315TIP3    H130888   1.549   2.386   5.173
10315TIP3    H230889   1.675   2.347   5.099
10316TIP3   OH230890   2.562   1.133   3.625
10316TIP3    H130891   2.500   1.067   3.656
10316TIP3    H230892   2.511   1.213   3.618
10317TIP3   OH230893   2.832   4.931   3.313
10317TIP3    H130894   2.739   4.911   3.300
10317TIP3    H230895   2.869   4.850   3.348
10318TIP3   OH230896   5.777   0.558   1.947
10318TIP3    H130897   5.773   0.463   1.933
10318TIP3    H230898   5.685   0.584   1.959
10319TIP3   OH230899   3.090   3.364   1.795
10319TIP3    H130900   3.001   3.393   1.812
10319TIP3    H230901   3.089   3.269   1.810
10320TIP3   OH230902   0.305   0.591   2.895
10320TIP3    H130903   0.319   0.668   2.952
10320TIP3    H230904   0.224   0.611   2.848
10321TIP3   OH230905   3.585   1.024   2.598
10321TIP3    H130906   3.612   1.043   2.687
10321TIP3    H230907   3.567   0.930   2.598
10322TIP3   OH230908   5.206   4.293   5.917
10322TIP3    H130909   5.185   4.359   5.851
10322TIP3    H230910   5.277   4.331   5.968
10323TIP3   OH230911   3.768   4.293   0.982
10323TIP3    H130912   3.814   4.374   0.958
10323TIP3    H230913   3.833   4.224   0.968
10324TIP3   OH230914   0.074   0.888   4.961
10324TIP3    H130915   0.162   0.853   4.948
10324TIP3    H230916   0.020   0.843   4.896
10325TIP3   OH230917   3.367   1.203   4.176
10325TIP3    H130918   3.452   1.162   4.194
10325TIP3    H230919   3.382   1.296   4.190
10326TIP3   OH230920   3.406   2.286   0.584
10326TIP3    H130921   3.485   2.336   0.606
10326TIP3    H230922   3.437   2.196   0.574
10327TIP3   OH230923   5.543   5.751   6.568
10327TIP3    H130924   5.517   5.798   6.647
10327TIP3    H230925   5.545   5.818   6.500
10328TIP3   OH230926   2.895   0.145   2.885
10328TIP3    H130927   2.929   0.121   2.798
10328TIP3    H230928   2.923   0.235   2.898
10329TIP3   OH230929   7.667   6.532   5.553
10329TIP3    H130930   7.623   6.591   5.614
10329TIP3    H230931   7.698   6.460   5.608
10330TIP3   OH230932   8.172   2.816   5.328
10330TIP3    H130933   8.124   2.790   5.406
10330TIP3    H230934   8.105   2.846   5.267
10331TIP3   OH230935   1.478   2.484   0.901
10331TIP3    H130936   1.389   2.449   0.905
10331TIP3    H230937   1.518   2.439   0.827
10332TIP3   OH230938   6.989   7.647   2.540
10332TIP3    H130939   7.071   7.600   2.553
10332TIP3    H230940   6.967   7.630   2.448
10333TIP3   OH230941   1.718   3.632   0.941
10333TIP3    H130942   1.775   3.704   0.967
10333TIP3    H230943   1.694   3.652   0.850
10334TIP3   OH230944   4.500   6.271   4.740
10334TIP3    H130945   4.445   6.284   4.663
10334TIP3    H230946   4.580   6.319   4.720
10335TIP3   OH230947   2.584   6.047   1.249
10335TIP3    H130948   2.629   6.069   1.331
10335TIP3    H230949   2.532   5.970   1.271
10336TIP3   OH230950   1.537   1.765   4.208
10336TIP3    H130951   1.485   1.722   4.274
10336TIP3    H230952   1.474   1.817   4.157
10337TIP3   OH230953   2.893   3.301   1.524
10337TIP3    H130954   2.839   3.223   1.539
10337TIP3    H230955   2.899   3.343   1.610
10338TIP3   OH230956   0.077   7.762   5.661
10338TIP3    H130957   0.146   7.809   5.708
10338TIP3    H230958   0.090   7.670   5.685
10339TIP3   OH230959   3.658   2.169   0.841
10339TIP3    H130960   3.705   2.085   0.844
10339TIP3    H230961   3.690   2.217   0.918
10340TIP3   OH230962   7.918   7.185   0.118
10340TIP3    H130963   7.984   7.240   0.161
10340TIP3    H230964   7.907   7.226   0.032
10341TIP3   OH230965   6.682   3.491   4.754
10341TIP3    H130966   6.616   3.545   4.710
10341TIP3    H230967   6.762   3.507   4.704
10342TIP3   OH230968   2.872   2.800   4.227
10342TIP3    H130969   2.785   2.761   4.217
10342TIP3    H230970   2.924   2.758   4.159
10343TIP3   OH230971   3.414   4.609   3.996
10343TIP3    H130972   3.484   4.667   4.029
10343TIP3    H230973   3.430   4.604   3.902
10344TIP3   OH230974   7.866   2.067   1.014
10344TIP3    H130975   7.904   2.109   0.937
10344TIP3    H230976   7.772   2.073   1.000
10345TIP3   OH230977   3.017   0.463   4.843
10345TIP3    H130978   2.957   0.453   4.769
10345TIP3    H230979   2.960   0.467   4.920
10346TIP3   OH230980   3.398   4.401   4.963
10346TIP3    H130981   3.475   4.434   5.010
10346TIP3    H230982   3.351   4.349   5.028
10347TIP3   OH230983   6.669   1.010   3.595
10347TIP3    H130984   6.617   1.062   3.533
10347TIP3    H230985   6.742   1.068   3.617
10348TIP3   OH230986   5.570   4.823   0.835
10348TIP3    H130987   5.586   4.917   0.821
10348TIP3    H230988   5.597   4.808   0.926
10349TIP3   OH230989   1.581   2.695   0.250
10349TIP3    H130990   1.594   2.749   0.172
10349TIP3    H230991   1.663   2.704   0.299
10350TIP3   OH230992   6.606   6.463   6.195
10350TIP3    H130993   6.518   6.427   6.206
10350TIP3    H230994   6.620   6.518   6.272
10351TIP3   OH230995   0.621   3.966   2.803
10351TIP3    H130996   0.539   4.004   2.771
10351TIP3    H230997   0.603   3.945   2.895
10352TIP3   OH230998   0.778   3.036   4.627
10352TIP3    H130999   0.863   3.000   4.653
10352TIP3    H231000   0.796   3.127   4.602
10353TIP3   OH231001   4.985   3.390   3.174
10353TIP3    H131002   5.036   3.310   3.186
10353TIP3    H231003   5.050   3.461   3.173
10354TIP3   OH231004   4.667   2.072   0.737
10354TIP3    H131005   4.602   2.009   0.766
10354TIP3    H231006   4.699   2.113   0.818
10355TIP3   OH231007   5.251   1.383   4.885
10355TIP3    H131008   5.317   1.393   4.953
10355TIP3    H231009   5.270   1.452   4.822
10356TIP3   OH231010   2.018   5.241   3.981
10356TIP3    H131011   1.962   5.257   3.906
10356TIP3    H231012   2.073   5.319   3.987
10357TIP3   OH231013   3.792   1.109   6.000
10357TIP3    H131014   3.728   1.178   5.983
10357TIP3    H231015   3.773   1.080   6.089
10358TIP3   OH231016   4.686   5.875   2.422
10358TIP3    H131017   4.600   5.878   2.381
10358TIP3    H231018   4.673   5.823   2.502
10359TIP3   OH231019   7.045   5.058   1.349
10359TIP3    H131020   7.083   4.993   1.408
10359TIP3    H231021   7.084   5.039   1.264
10360TIP3   OH231022   0.899   6.731   0.759
10360TIP3    H131023   0.934   6.796   0.698
10360TIP3    H231024   0.831   6.778   0.807
10361TIP3   OH231025   0.082   0.330   4.309
10361TIP3    H131026   0.080   0.337   4.214
10361TIP3    H231027   0.105   0.239   4.326
10362TIP3   OH231028   5.775   2.272   0.251
10362TIP3    H131029   5.856   2.321   0.256
10362TIP3    H231030   5.794   2.190   0.298
10363TIP3   OH231031   1.729   4.925   6.394
10363TIP3    H131032   1.671   4.875   6.451
10363TIP3    H231033   1.814   4.921   6.437
10364TIP3   OH231034   3.553  -0.006   6.035
10364TIP3    H131035   3.647   0.015   6.036
10364TIP3    H231036   3.539  -0.053   6.118
10365TIP3   OH231037   6.882   4.916   0.769
10365TIP3    H131038   6.881   4.952   0.858
10365TIP3    H231039   6.824   4.840   0.774
10366TIP3   OH231040   1.760   1.156   3.219
10366TIP3    H131041   1.855   1.148   3.206
10366TIP3    H231042   1.731   1.214   3.148
10367TIP3   OH231043   2.987   3.285   4.647
10367TIP3    H131044   2.953   3.276   4.737
10367TIP3    H231045   2.947   3.212   4.600
10368TIP3   OH231046   5.161   4.200   4.105
10368TIP3    H131047   5.095   4.135   4.082
10368TIP3    H231048   5.125   4.246   4.180
10369TIP3   OH231049   3.071   5.850   3.558
10369TIP3    H131050   2.977   5.858   3.545
10369TIP3    H231051   3.105   5.822   3.473
10370TIP3   OH231052   1.215   4.831   5.793
10370TIP3    H131053   1.186   4.788   5.713
10370TIP3    H231054   1.193   4.923   5.780
10371TIP3   OH231055   4.140   6.434   4.827
10371TIP3    H131056   4.045   6.449   4.827
10371TIP3    H231057   4.166   6.447   4.735
10372TIP3   OH231058   1.951   7.215   3.290
10372TIP3    H131059   1.941   7.286   3.354
10372TIP3    H231060   1.890   7.148   3.318
10373TIP3   OH231061   0.247   1.706   1.758
10373TIP3    H131062   0.326   1.747   1.723
10373TIP3    H231063   0.185   1.706   1.685
10374TIP3   OH231064   1.998   6.467   0.342
10374TIP3    H131065   2.040   6.399   0.290
10374TIP3    H231066   1.932   6.421   0.394
10375TIP3   OH231067   5.869   7.122   5.030
10375TIP3    H131068   5.915   7.169   4.960
10375TIP3    H231069   5.938   7.081   5.081
10376TIP3   OH231070   6.015   2.518   3.720
10376TIP3    H131071   5.926   2.485   3.736
10376TIP3    H231072   6.001   2.596   3.665
10377TIP3   OH231073   1.889   2.767   0.527
10377TIP3    H131074   1.983   2.755   0.534
10377TIP3    H231075   1.868   2.837   0.588
10378TIP3   OH231076   0.202   2.683   4.714
10378TIP3    H131077   0.226   2.591   4.709
10378TIP3    H231078   0.247   2.724   4.640
10379TIP3   OH231079   3.681   4.919   5.176
10379TIP3    H131080   3.702   4.942   5.085
10379TIP3    H231081   3.656   5.003   5.216
10380TIP3   OH231082   4.457   5.089   1.936
10380TIP3    H131083   4.368   5.078   1.968
10380TIP3    H231084   4.462   5.031   1.859
10381TIP3   OH231085   5.949   7.037   1.553
10381TIP3    H131086   5.889   7.028   1.479
10381TIP3    H231087   5.954   7.131   1.569
10382TIP3   OH231088   1.176   5.795   0.522
10382TIP3    H131089   1.085   5.776   0.500
10382TIP3    H231090   1.173   5.876   0.573
10383TIP3   OH231091   4.951   6.034   3.591
10383TIP3    H131092   5.021   5.990   3.639
10383TIP3    H231093   4.982   6.124   3.580
10384TIP3   OH231094   2.557   1.342   0.721
10384TIP3    H131095   2.490   1.288   0.763
10384TIP3    H231096   2.633   1.335   0.779
10385TIP3   OH231097   4.923   7.336   4.072
10385TIP3    H131098   4.836   7.357   4.038
10385TIP3    H231099   4.953   7.263   4.017
10386TIP3   OH231100   0.552   0.248   2.207
10386TIP3    H131101   0.552   0.230   2.301
10386TIP3    H231102   0.467   0.219   2.177
10387TIP3   OH231103   6.606   7.525   3.779
10387TIP3    H131104   6.600   7.620   3.770
10387TIP3    H231105   6.585   7.491   3.692
10388TIP3   OH231106   5.241   7.426   4.237
10388TIP3    H131107   5.216   7.334   4.223
10388TIP3    H231108   5.167   7.463   4.285
10389TIP3   OH231109   0.335   1.871   4.463
10389TIP3    H131110   0.272   1.941   4.480
10389TIP3    H231111   0.389   1.905   4.392
10390TIP3   OH231112   2.398   6.901   5.786
10390TIP3    H131113   2.493   6.910   5.777
10390TIP3    H231114   2.363   6.979   5.742
10391TIP3   OH231115   0.713   7.128   3.468
10391TIP3    H131116   0.657   7.135   3.391
10391TIP3    H231117   0.751   7.040   3.462
10392TIP3   OH231118   6.920   4.632   1.676
10392TIP3    H131119   6.973   4.604   1.602
10392TIP3    H231120   6.896   4.723   1.654
10393TIP3   OH231121   7.205   6.600   2.397
10393TIP3    H131122   7.195   6.601   2.492
10393TIP3    H231123   7.237   6.511   2.378
10394TIP3   OH231124   2.746   5.096   4.597
10394TIP3    H131125   2.735   5.190   4.582
10394TIP3    H231126   2.730   5.085   4.691
10395TIP3   OH231127   4.564   3.732   3.015
10395TIP3    H131128   4.633   3.666   3.025
10395TIP3    H231129   4.608   3.805   2.971
10396TIP3   OH231130   6.434   3.512   5.883
10396TIP3    H131131   6.353   3.515   5.833
10396TIP3    H231132   6.460   3.419   5.882
10397TIP3   OH231133   3.045   0.731   2.730
10397TIP3    H131134   3.071   0.809   2.779
10397TIP3    H231135   2.959   0.752   2.695
10398TIP3   OH231136   0.040   1.818   3.086
10398TIP3    H131137   0.071   1.894   3.037
10398TIP3    H231138   0.118   1.782   3.128
10399TIP3   OH231139   2.924   2.110   4.816
10399TIP3    H131140   2.878   2.192   4.797
10399TIP3    H231141   3.008   2.137   4.853
10400TIP3   OH231142   1.126   2.517   0.639
10400TIP3    H131143   1.076   2.462   0.578
10400TIP3    H231144   1.213   2.522   0.599
10401TIP3   OH231145   3.304   2.637   3.565
10401TIP3    H131146   3.246   2.693   3.512
10401TIP3    H231147   3.273   2.548   3.548
10402TIP3   OH231148   2.167   2.231   2.942
10402TIP3    H131149   2.107   2.163   2.910
10402TIP3    H231150   2.149   2.236   3.036
10403TIP3   OH231151   0.984   7.305   4.134
10403TIP3    H131152   0.989   7.356   4.053
10403TIP3    H231153   0.892   7.311   4.159
10404TIP3   OH231154   4.403   0.475   0.492
10404TIP3    H131155   4.451   0.392   0.492
10404TIP3    H231156   4.452   0.531   0.552
10405TIP3   OH231157   4.359   5.437   2.899
10405TIP3    H131158   4.363   5.514   2.841
10405TIP3    H231159   4.395   5.366   2.847
10406TIP3   OH231160   7.630   3.019   0.838
10406TIP3    H131161   7.662   2.945   0.786
10406TIP3    H231162   7.682   3.094   0.808
10407TIP3   OH231163   1.183   1.263   5.852
10407TIP3    H131164   1.278   1.261   5.860
10407TIP3    H231165   1.167   1.303   5.766
10408TIP3   OH231166   3.761   5.815   0.839
10408TIP3    H131167   3.800   5.892   0.798
10408TIP3    H231168   3.667   5.825   0.826
10409TIP3   OH231169   5.578   7.253   6.068
10409TIP3    H131170   5.574   7.349   6.070
10409TIP3    H231171   5.495   7.226   6.029
10410TIP3   OH231172   5.148   6.404   1.606
10410TIP3    H131173   5.093   6.342   1.558
10410TIP3    H231174   5.087   6.454   1.661
10411TIP3   OH231175   5.135   5.106   6.651
10411TIP3    H131176   5.051   5.065   6.673
10411TIP3    H231177   5.200   5.054   6.699
10412TIP3   OH231178   2.489   7.817   4.254
10412TIP3    H131179   2.413   7.875   4.261
10412TIP3    H231180   2.452   7.730   4.247
10413TIP3   OH231181   6.261   3.444   4.961
10413TIP3    H131182   6.249   3.517   4.902
10413TIP3    H231183   6.182   3.442   5.015
10414TIP3   OH231184   7.442   5.186   4.218
10414TIP3    H131185   7.491   5.107   4.194
10414TIP3    H231186   7.401   5.164   4.302
10415TIP3   OH231187   4.841   1.210   6.001
10415TIP3    H131188   4.886   1.292   5.978
10415TIP3    H231189   4.847   1.207   6.097
10416TIP3   OH231190   2.730   2.142   2.384
10416TIP3    H131191   2.764   2.214   2.436
10416TIP3    H231192   2.722   2.069   2.446
10417TIP3   OH231193   0.069   1.495   6.221
10417TIP3    H131194   0.161   1.475   6.210
10417TIP3    H231195   0.023   1.420   6.185
10418TIP3   OH231196   3.076   0.667   6.779
10418TIP3    H131197   3.110   0.626   6.859
10418TIP3    H231198   3.007   0.726   6.810
10419TIP3   OH231199   5.393   1.040   1.724
10419TIP3    H131200   5.396   0.956   1.679
10419TIP3    H231201   5.437   1.024   1.808
10420TIP3   OH231202   5.899   3.004   2.311
10420TIP3    H131203   5.814   2.995   2.355
10420TIP3    H231204   5.926   3.094   2.330
10421TIP3   OH231205   6.975   6.806   0.301
10421TIP3    H131206   6.894   6.838   0.261
10421TIP3    H231207   6.952   6.790   0.393
10422TIP3   OH231208   5.337   0.280   3.143
10422TIP3    H131209   5.291   0.293   3.226
10422TIP3    H231210   5.423   0.246   3.168
10423TIP3   OH231211   7.069   3.283   4.810
10423TIP3    H131212   7.119   3.337   4.748
10423TIP3    H231213   7.123   3.206   4.824
10424TIP3   OH231214   7.606   0.607   6.386
10424TIP3    H131215   7.653   0.687   6.364
10424TIP3    H231216   7.592   0.563   6.301
10425TIP3   OH231217   4.713   6.988   5.460
10425TIP3    H131218   4.685   6.993   5.552
10425TIP3    H231219   4.632   6.971   5.411
10426TIP3   OH231220   1.150   2.922   0.222
10426TIP3    H131221   1.180   2.938   0.133
10426TIP3    H231222   1.064   2.880   0.211
10427TIP3   OH231223   8.108   1.218   4.719
10427TIP3    H131224   8.198   1.245   4.739
10427TIP3    H231225   8.085   1.267   4.640
10428TIP3   OH231226   6.797   0.233   3.567
10428TIP3    H131227   6.870   0.291   3.589
10428TIP3    H231228   6.754   0.275   3.493
10429TIP3   OH231229   4.840   7.770   2.222
10429TIP3    H131230   4.779   7.696   2.218
10429TIP3    H231231   4.831   7.814   2.138
10430TIP3   OH231232   2.271   6.239   0.905
10430TIP3    H131233   2.296   6.247   0.997
10430TIP3    H231234   2.353   6.253   0.857
10431TIP3   OH231235   2.173   5.964   2.599
10431TIP3    H131236   2.136   5.988   2.683
10431TIP3    H231237   2.124   6.015   2.535
10432TIP3   OH231238   4.202   1.925   1.892
10432TIP3    H131239   4.220   1.834   1.915
10432TIP3    H231240   4.273   1.974   1.933
10433TIP3   OH231241   4.472   5.604   5.554
10433TIP3    H131242   4.530   5.623   5.628
10433TIP3    H231243   4.459   5.509   5.559
10434TIP3   OH231244   5.109   2.195   2.607
10434TIP3    H131245   5.192   2.169   2.566
10434TIP3    H231246   5.112   2.157   2.695
10435TIP3   OH231247   0.323   1.828   5.608
10435TIP3    H131248   0.347   1.735   5.607
10435TIP3    H231249   0.355   1.862   5.525
10436TIP3   OH231250   5.572   7.702   5.559
10436TIP3    H131251   5.598   7.637   5.494
10436TIP3    H231252   5.654   7.742   5.588
10437TIP3   OH231253   0.533   1.498   4.098
10437TIP3    H131254   0.567   1.531   4.180
10437TIP3    H231255   0.608   1.457   4.055
10438TIP3   OH231256   6.351   4.318   3.569
10438TIP3    H131257   6.417   4.351   3.508
10438TIP3    H231258   6.279   4.381   3.563
10439TIP3   OH231259   0.702   6.715   4.907
10439TIP3    H131260   0.725   6.807   4.922
10439TIP3    H231261   0.772   6.665   4.949
10440TIP3   OH231262   0.960   7.327   6.378
10440TIP3    H131263   0.960   7.308   6.284
10440TIP3    H231264   1.052   7.323   6.404
10441TIP3   OH231265   3.659   7.666  -0.019
10441TIP3    H131266   3.635   7.608   0.053
10441TIP3    H231267   3.734   7.716   0.015
10442TIP3   OH231268   0.491   4.233   4.096
10442TIP3    H131269   0.538   4.315   4.079
10442TIP3    H231270   0.561   4.168   4.105
10443TIP3   OH231271   7.906   1.783   3.970
10443TIP3    H131272   7.995   1.774   4.003
10443TIP3    H231273   7.854   1.726   4.026
10444TIP3   OH231274   0.730   4.105   5.613
10444TIP3    H131275   0.721   4.157   5.693
10444TIP3    H231276   0.653   4.048   5.614
10445TIP3   OH231277   3.049   4.310   2.959
10445TIP3    H131278   2.973   4.357   2.925
10445TIP3    H231279   3.118   4.377   2.966
10446TIP3   OH231280   2.057   6.935   3.050
10446TIP3    H131281   2.054   6.934   2.954
10446TIP3    H231282   2.133   6.882   3.072
10447TIP3   OH231283   5.419   2.438   1.780
10447TIP3    H131284   5.355   2.495   1.738
10447TIP3    H231285   5.398   2.443   1.874
10448TIP3   OH231286   6.085   4.260   6.407
10448TIP3    H131287   6.106   4.311   6.486
10448TIP3    H231288   6.067   4.172   6.440
10449TIP3   OH231289   5.567   3.919   3.869
10449TIP3    H131290   5.481   3.931   3.830
10449TIP3    H231291   5.551   3.862   3.945
10450TIP3   OH231292   1.313   0.237   5.535
10450TIP3    H131293   1.343   0.300   5.600
10450TIP3    H231294   1.376   0.244   5.464
10451TIP3   OH231295   0.685   1.259   1.632
10451TIP3    H131296   0.683   1.180   1.578
10451TIP3    H231297   0.744   1.237   1.704
10452TIP3   OH231298   1.985   7.244   5.500
10452TIP3    H131299   2.053   7.312   5.504
10452TIP3    H231300   2.031   7.168   5.465
10453TIP3   OH231301   5.743   0.992   2.965
10453TIP3    H131302   5.680   1.045   3.015
10453TIP3    H231303   5.691   0.955   2.894
10454TIP3   OH231304   8.149   2.539   0.407
10454TIP3    H131305   8.071   2.506   0.452
10454TIP3    H231306   8.193   2.460   0.375
10455TIP3   OH231307   4.099   6.786   0.816
10455TIP3    H131308   4.062   6.703   0.845
10455TIP3    H231309   4.033   6.851   0.840
10456TIP3   OH231310   3.229   4.997   4.028
10456TIP3    H131311   3.257   5.021   3.939
10456TIP3    H231312   3.140   4.961   4.016
10457TIP3   OH231313   2.417   3.800   5.618
10457TIP3    H131314   2.331   3.759   5.625
10457TIP3    H231315   2.415   3.872   5.681
10458TIP3   OH231316   1.987   3.042   3.769
10458TIP3    H131317   1.896   3.015   3.758
10458TIP3    H231318   2.017   3.064   3.681
10459TIP3   OH231319   2.820   7.245   4.711
10459TIP3    H131320   2.808   7.269   4.619
10459TIP3    H231321   2.838   7.328   4.755
10460TIP3   OH231322   6.756   0.461   2.748
10460TIP3    H131323   6.671   0.505   2.743
10460TIP3    H231324   6.777   0.441   2.657
10461TIP3   OH231325   4.940   3.468   1.281
10461TIP3    H131326   4.980   3.475   1.194
10461TIP3    H231327   4.864   3.413   1.269
10462TIP3   OH231328   6.841   0.246   5.272
10462TIP3    H131329   6.900   0.173   5.290
10462TIP3    H231330   6.753   0.208   5.280
10463TIP3   OH231331   5.856   7.742   5.103
10463TIP3    H131332   5.924   7.809   5.102
10463TIP3    H231333   5.881   7.683   5.174
10464TIP3   OH231334   4.698   4.754   0.857
10464TIP3    H131335   4.698   4.840   0.898
10464TIP3    H231336   4.652   4.767   0.774
10465TIP3   OH231337   0.022   2.718   2.445
10465TIP3    H131338  -0.004   2.720   2.537
10465TIP3    H231339   0.000   2.630   2.415
10466TIP3   OH231340   4.344   4.321   2.608
10466TIP3    H131341   4.375   4.323   2.518
10466TIP3    H231342   4.283   4.395   2.614
10467TIP3   OH231343   3.562   4.815   6.639
10467TIP3    H131344   3.599   4.873   6.572
10467TIP3    H231345   3.552   4.870   6.716
10468TIP3   OH231346   5.438   2.075   1.679
10468TIP3    H131347   5.508   2.141   1.681
10468TIP3    H231348   5.473   2.001   1.728
10469TIP3   OH231349   2.378   2.003   0.491
10469TIP3    H131350   2.383   1.962   0.577
10469TIP3    H231351   2.465   2.041   0.477
10470TIP3   OH231352   4.303   3.581   1.702
10470TIP3    H131353   4.274   3.662   1.660
10470TIP3    H231354   4.398   3.582   1.695
10471TIP3   OH231355   4.910   4.851   0.602
10471TIP3    H131356   4.814   4.847   0.596
10471TIP3    H231357   4.926   4.900   0.683
10472TIP3   OH231358   1.971   5.458   1.979
10472TIP3    H131359   2.062   5.451   2.008
10472TIP3    H231360   1.943   5.368   1.964
10473TIP3   OH231361   8.152   4.164   4.224
10473TIP3    H131362   8.206   4.121   4.289
10473TIP3    H231363   8.068   4.177   4.267
10474TIP3   OH231364   6.576   4.527   5.671
10474TIP3    H131365   6.615   4.506   5.756
10474TIP3    H231366   6.650   4.538   5.612
10475TIP3   OH231367   4.031   0.876   1.179
10475TIP3    H131368   4.044   0.786   1.148
10475TIP3    H231369   4.032   0.929   1.100
10476TIP3   OH231370   6.955   3.405   0.050
10476TIP3    H131371   6.979   3.487   0.007
10476TIP3    H231372   6.860   3.400   0.044
10477TIP3   OH231373   3.723   1.983   1.782
10477TIP3    H131374   3.631   1.959   1.774
10477TIP3    H231375   3.768   1.901   1.800
10478TIP3   OH231376   6.329   1.554   3.597
10478TIP3    H131377   6.240   1.521   3.582
10478TIP3    H231378   6.356   1.515   3.680
10479TIP3   OH231379   1.486   4.930   0.672
10479TIP3    H131380   1.566   4.960   0.716
10479TIP3    H231381   1.487   4.835   0.682
10480TIP3   OH231382   3.153   5.181   3.218
10480TIP3    H131383   3.230   5.233   3.242
10480TIP3    H231384   3.091   5.197   3.289
10481TIP3   OH231385   0.720   6.742   3.797
10481TIP3    H131386   0.659   6.761   3.726
10481TIP3    H231387   0.804   6.725   3.752
10482TIP3   OH231388   7.441   3.397   1.330
10482TIP3    H131389   7.421   3.339   1.403
10482TIP3    H231390   7.528   3.369   1.300
10483TIP3   OH231391   4.758   1.833   0.295
10483TIP3    H131392   4.699   1.869   0.228
10483TIP3    H231393   4.820   1.780   0.246
10484TIP3   OH231394   0.823   1.627   0.344
10484TIP3    H131395   0.853   1.707   0.387
10484TIP3    H231396   0.753   1.657   0.285
10485TIP3   OH231397   5.096   3.398   6.625
10485TIP3    H131398   5.089   3.468   6.560
10485TIP3    H231399   5.052   3.323   6.584
10486TIP3   OH231400   8.109   5.913   6.788
10486TIP3    H131401   8.203   5.917   6.808
10486TIP3    H231402   8.097   5.980   6.720
10487TIP3   OH231403   0.731   3.490   0.400
10487TIP3    H131404   0.725   3.430   0.325
10487TIP3    H231405   0.644   3.530   0.406
10488TIP3   OH231406   5.123   6.578   4.980
10488TIP3    H131407   5.144   6.661   4.938
10488TIP3    H231408   5.060   6.601   5.049
10489TIP3   OH231409   0.340   0.175   4.974
10489TIP3    H131410   0.427   0.215   4.967
10489TIP3    H231411   0.342   0.102   4.913
10490TIP3   OH231412   4.740   4.453   2.856
10490TIP3    H131413   4.687   4.522   2.816
10490TIP3    H231414   4.830   4.483   2.847
10491TIP3   OH231415   2.254   6.790   6.022
10491TIP3    H131416   2.315   6.853   5.984
10491TIP3    H231417   2.175   6.798   5.967
10492TIP3   OH231418   1.850   1.801   3.087
10492TIP3    H131419   1.940   1.800   3.055
10492TIP3    H231420   1.823   1.709   3.085
10493TIP3   OH231421   3.128   5.913   0.573
10493TIP3    H131422   3.221   5.906   0.553
10493TIP3    H231423   3.092   5.963   0.499
10494TIP3   OH231424   6.379   7.799   2.205
10494TIP3    H131425   6.396   7.892   2.215
10494TIP3    H231426   6.430   7.773   2.129
10495TIP3   OH231427   8.026   6.653   5.651
10495TIP3    H131428   8.070   6.714   5.712
10495TIP3    H231429   8.044   6.566   5.687
10496TIP3   OH231430   3.528   7.461   4.852
10496TIP3    H131431   3.490   7.411   4.924
10496TIP3    H231432   3.548   7.396   4.785
10497TIP3   OH231433   6.733   5.717   6.480
10497TIP3    H131434   6.777   5.678   6.555
10497TIP3    H231435   6.650   5.749   6.515
10498TIP3   OH231436   6.447   6.313   5.362
10498TIP3    H131437   6.472   6.301   5.270
10498TIP3    H231438   6.353   6.296   5.363
10499TIP3   OH231439   3.218   6.765   0.665
10499TIP3    H131440   3.170   6.691   0.628
10499TIP3    H231441   3.187   6.841   0.616
10500TIP3   OH231442   7.835   5.301   2.277
10500TIP3    H131443   7.755   5.250   2.287
10500TIP3    H231444   7.826   5.374   2.339
10501TIP3   OH231445   4.898   2.178   3.360
10501TIP3    H131446   4.847   2.259   3.357
10501TIP3    H231447   4.923   2.163   3.269
10502TIP3   OH231448   0.043   0.902   6.560
10502TIP3    H131449   0.105   0.841   6.599
10502TIP3    H231450  -0.004   0.941   6.634
10503TIP3   OH231451   4.955   5.935   4.328
10503TIP3    H131452   4.880   5.934   4.388
10503TIP3    H231453   4.937   5.865   4.266
10504TIP3   OH231454   1.741   1.565   4.059
10504TIP3    H131455   1.727   1.574   4.153
10504TIP3    H231456   1.835   1.551   4.050
10505TIP3   OH231457   7.274   7.577   2.969
10505TIP3    H131458   7.263   7.523   2.891
10505TIP3    H231459   7.245   7.521   3.041
10506TIP3   OH231460   7.789   4.994   4.443
10506TIP3    H131461   7.840   4.955   4.513
10506TIP3    H231462   7.698   4.982   4.470
10507TIP3   OH231463   3.055   1.664   3.056
10507TIP3    H131464   2.964   1.686   3.077
10507TIP3    H231465   3.105   1.691   3.134
10508TIP3   OH231466   5.453   6.404   1.349
10508TIP3    H131467   5.373   6.364   1.314
10508TIP3    H231468   5.464   6.484   1.298
10509TIP3   OH231469   7.938   6.389   2.523
10509TIP3    H131470   7.884   6.449   2.472
10509TIP3    H231471   7.957   6.437   2.604
10510TIP3   OH231472   2.717   0.001   3.701
10510TIP3    H131473   2.682  -0.088   3.702
10510TIP3    H231474   2.726   0.022   3.608
10511TIP3   OH231475   0.358   1.395   6.630
10511TIP3    H131476   0.315   1.411   6.714
10511TIP3    H231477   0.292   1.352   6.577
10512TIP3   OH231478   6.711   0.724   5.045
10512TIP3    H131479   6.769   0.786   5.001
10512TIP3    H231480   6.769   0.658   5.081
10513TIP3   OH231481   3.948   2.456   5.396
10513TIP3    H131482   3.866   2.441   5.349
10513TIP3    H231483   4.010   2.395   5.357
10514TIP3   OH231484   2.691   4.693   2.122
10514TIP3    H131485   2.656   4.781   2.136
10514TIP3    H231486   2.780   4.697   2.159
10515TIP3   OH231487   5.935   7.560   5.645
10515TIP3    H131488   5.938   7.623   5.717
10515TIP3    H231489   5.991   7.488   5.672
10516TIP3   OH231490   1.347   6.841   4.962
10516TIP3    H131491   1.421   6.788   4.934
10516TIP3    H231492   1.355   6.845   5.057
10517TIP3   OH231493   7.068   6.614   5.001
10517TIP3    H131494   7.009   6.573   5.064
10517TIP3    H231495   7.010   6.648   4.933
10518TIP3   OH231496   1.493   4.493   2.092
10518TIP3    H131497   1.544   4.413   2.078
10518TIP3    H231498   1.471   4.491   2.185
10519TIP3   OH231499   7.824   7.408   2.599
10519TIP3    H131500   7.740   7.438   2.633
10519TIP3    H231501   7.833   7.453   2.515
10520TIP3   OH231502   2.433   1.650   3.488
10520TIP3    H131503   2.379   1.673   3.563
10520TIP3    H231504   2.519   1.632   3.525
10521TIP3   OH231505   7.769   5.488   3.445
10521TIP3    H131506   7.788   5.461   3.355
10521TIP3    H231507   7.676   5.472   3.457
10522TIP3   OH231508   7.803   7.111   5.800
10522TIP3    H131509   7.823   7.139   5.711
10522TIP3    H231510   7.788   7.192   5.848
10523TIP3   OH231511   6.893   7.685   2.859
10523TIP3    H131512   6.954   7.633   2.806
10523TIP3    H231513   6.935   7.692   2.945
10524TIP3   OH231514   2.378   6.031   5.052
10524TIP3    H131515   2.410   6.102   5.108
10524TIP3    H231516   2.284   6.030   5.068
10525TIP3   OH231517   7.228   3.206   5.891
10525TIP3    H131518   7.164   3.158   5.837
10525TIP3    H231519   7.208   3.298   5.876
10526TIP3   OH231520   0.573   6.091   5.311
10526TIP3    H131521   0.624   6.158   5.266
10526TIP3    H231522   0.636   6.021   5.329
10527TIP3   OH231523   3.125   3.637   5.353
10527TIP3    H131524   3.143   3.548   5.321
10527TIP3    H231525   3.190   3.650   5.422
10528TIP3   OH231526   2.514   7.746   2.611
10528TIP3    H131527   2.460   7.754   2.532
10528TIP3    H231528   2.597   7.711   2.579
10529TIP3   OH231529   7.931   1.378   1.924
10529TIP3    H131530   7.944   1.305   1.985
10529TIP3    H231531   8.012   1.428   1.930
10530TIP3   OH231532   2.798   6.066   3.495
10530TIP3    H131533   2.827   5.980   3.526
10530TIP3    H231534   2.706   6.052   3.470
10531TIP3   OH231535   3.042   3.371   6.604
10531TIP3    H131536   3.006   3.385   6.517
10531TIP3    H231537   3.081   3.456   6.628
10532TIP3   OH231538   5.928   7.179   5.340
10532TIP3    H131539   5.842   7.141   5.356
10532TIP3    H231540   5.988   7.122   5.389
10533TIP3   OH231541   6.036   7.225   1.772
10533TIP3    H131542   5.956   7.256   1.815
10533TIP3    H231543   6.086   7.184   1.842
10534TIP3   OH231544   0.996   4.672   5.012
10534TIP3    H131545   1.043   4.663   5.095
10534TIP3    H231546   0.935   4.599   5.011
10535TIP3   OH231547   7.029   5.904   1.354
10535TIP3    H131548   7.076   5.940   1.429
10535TIP3    H231549   6.972   5.975   1.324
10536TIP3   OH231550   0.119   4.926   1.111
10536TIP3    H131551   0.084   4.850   1.156
10536TIP3    H231552   0.137   4.896   1.022
10537TIP3   OH231553   7.399   7.549   0.265
10537TIP3    H131554   7.355   7.478   0.217
10537TIP3    H231555   7.484   7.557   0.221
10538TIP3   OH231556   3.965   1.518   2.484
10538TIP3    H131557   3.911   1.592   2.510
10538TIP3    H231558   4.015   1.550   2.408
10539TIP3   OH231559   0.803   5.029   0.882
10539TIP3    H131560   0.783   4.951   0.830
10539TIP3    H231561   0.877   5.002   0.937
10540TIP3   OH231562   6.978   5.747   2.217
10540TIP3    H131563   6.981   5.699   2.300
10540TIP3    H231564   7.034   5.697   2.158
10541TIP3   OH231565   6.063   7.198   4.857
10541TIP3    H131566   6.124   7.272   4.865
10541TIP3    H231567   6.116   7.126   4.825
10542TIP3   OH231568   4.885   4.845   1.505
10542TIP3    H131569   4.964   4.888   1.473
10542TIP3    H231570   4.883   4.760   1.460
10543TIP3   OH231571   1.812   2.677   5.916
10543TIP3    H131572   1.842   2.673   6.007
10543TIP3    H231573   1.884   2.638   5.866
10544TIP3   OH231574   5.749   5.310   5.298
10544TIP3    H131575   5.712   5.223   5.310
10544TIP3    H231576   5.685   5.357   5.246
10545TIP3   OH231577   1.094   4.358   0.555
10545TIP3    H131578   0.999   4.369   0.548
10545TIP3    H231579   1.110   4.268   0.525
10546TIP3   OH231580   2.057   1.506   1.218
10546TIP3    H131581   2.142   1.475   1.188
10546TIP3    H231582   2.077   1.583   1.271
10547TIP3   OH231583   5.696   2.429   0.486
10547TIP3    H131584   5.674   2.358   0.546
10547TIP3    H231585   5.742   2.386   0.414
10548TIP3   OH231586   1.039   2.147   1.406
10548TIP3    H131587   1.080   2.083   1.348
10548TIP3    H231588   0.981   2.198   1.349
10549TIP3   OH231589   3.035   0.680   5.765
10549TIP3    H131590   3.004   0.732   5.840
10549TIP3    H231591   3.122   0.650   5.792
10550TIP3   OH231592   5.825   7.236   3.184
10550TIP3    H131593   5.854   7.321   3.150
10550TIP3    H231594   5.781   7.194   3.110
10551TIP3   OH231595   8.180   4.032   0.562
10551TIP3    H131596   8.198   4.119   0.526
10551TIP3    H231597   8.101   4.045   0.615
10552TIP3   OH231598   4.752   3.902   2.191
10552TIP3    H131599   4.669   3.947   2.175
10552TIP3    H231600   4.727   3.814   2.218
10553TIP3   OH231601   3.716   3.406   0.133
10553TIP3    H131602   3.647   3.429   0.071
10553TIP3    H231603   3.672   3.356   0.201
10554TIP3   OH231604   3.718   2.512   0.970
10554TIP3    H131605   3.623   2.500   0.968
10554TIP3    H231606   3.746   2.469   1.050
10555TIP3   OH231607   6.735   5.502   5.439
10555TIP3    H131608   6.698   5.549   5.514
10555TIP3    H231609   6.760   5.571   5.378
10556TIP3   OH231610   1.983   6.826   3.824
10556TIP3    H131611   2.009   6.739   3.856
10556TIP3    H231612   1.993   6.883   3.900
10557TIP3   OH231613   7.904   6.737   3.477
10557TIP3    H131614   7.887   6.688   3.558
10557TIP3    H231615   7.864   6.684   3.408
10558TIP3   OH231616   7.606   5.773   6.453
10558TIP3    H131617   7.517   5.747   6.479
10558TIP3    H231618   7.663   5.709   6.496
10559TIP3   OH231619   6.750   4.303   2.651
10559TIP3    H131620   6.716   4.232   2.706
10559TIP3    H231621   6.677   4.365   2.646
10560TIP3   OH231622   2.838   2.730   6.784
10560TIP3    H131623   2.911   2.721   6.845
10560TIP3    H231624   2.838   2.648   6.734
10561TIP3   OH231625   5.053   5.030   4.114
10561TIP3    H131626   5.023   4.939   4.106
10561TIP3    H231627   4.974   5.083   4.104
10562TIP3   OH231628   0.186   0.284   5.174
10562TIP3    H131629   0.236   0.281   5.257
10562TIP3    H231630   0.237   0.228   5.115
10563TIP3   OH231631   1.179   0.044   4.263
10563TIP3    H131632   1.196   0.077   4.175
10563TIP3    H231633   1.259   0.065   4.312
10564TIP3   OH231634   7.712   1.688   5.784
10564TIP3    H131635   7.773   1.682   5.857
10564TIP3    H231636   7.653   1.613   5.795
10565TIP3   OH231637   6.741   3.133   1.617
10565TIP3    H131638   6.733   3.214   1.667
10565TIP3    H231639   6.658   3.087   1.632
10566TIP3   OH231640   7.495   6.795   2.716
10566TIP3    H131641   7.571   6.788   2.773
10566TIP3    H231642   7.531   6.810   2.628
10567TIP3   OH231643   1.017   4.908   6.190
10567TIP3    H131644   1.061   4.861   6.119
10567TIP3    H231645   0.986   4.839   6.248
10568TIP3   OH231646   8.221   6.337   4.398
10568TIP3    H131647   8.310   6.334   4.362
10568TIP3    H231648   8.230   6.391   4.477
10569TIP3   OH231649   1.610   5.145   6.292
10569TIP3    H131650   1.689   5.196   6.270
10569TIP3    H231651   1.636   5.054   6.277
10570TIP3   OH231652   7.213   2.658   3.944
10570TIP3    H131653   7.138   2.689   3.893
10570TIP3    H231654   7.175   2.594   4.004
10571TIP3   OH231655   8.078   0.871   3.286
10571TIP3    H131656   8.039   0.953   3.255
10571TIP3    H231657   8.013   0.804   3.264
10572TIP3   OH231658   7.205   4.901   3.431
10572TIP3    H131659   7.139   4.870   3.494
10572TIP3    H231660   7.265   4.827   3.422
10573TIP3   OH231661   1.680   0.237   4.223
10573TIP3    H131662   1.602   0.275   4.182
10573TIP3    H231663   1.752   0.291   4.190
10574TIP3   OH231664   2.672   2.929   0.554
10574TIP3    H131665   2.652   2.975   0.473
10574TIP3    H231666   2.696   2.841   0.526
10575TIP3   OH231667   2.992   4.586   3.841
10575TIP3    H131668   2.901   4.560   3.826
10575TIP3    H231669   3.007   4.655   3.776
10576TIP3   OH231670   5.784   6.627   0.407
10576TIP3    H131671   5.743   6.653   0.490
10576TIP3    H231672   5.774   6.704   0.351
10577TIP3   OH231673   1.744   7.559   6.418
10577TIP3    H131674   1.756   7.561   6.513
10577TIP3    H231675   1.682   7.629   6.400
10578TIP3   OH231676   6.779   4.135   1.117
10578TIP3    H131677   6.707   4.097   1.167
10578TIP3    H231678   6.802   4.069   1.052
10579TIP3   OH231679   0.253   3.635   2.725
10579TIP3    H131680   0.182   3.697   2.711
10579TIP3    H231681   0.220   3.552   2.691
10580TIP3   OH231682   4.112   2.375   5.183
10580TIP3    H131683   4.044   2.415   5.128
10580TIP3    H231684   4.150   2.306   5.128
10581TIP3   OH231685   2.671   2.227   4.620
10581TIP3    H131686   2.745   2.281   4.646
10581TIP3    H231687   2.618   2.218   4.699
10582TIP3   OH231688   6.873   0.049   3.039
10582TIP3    H131689   6.864   0.093   2.955
10582TIP3    H231690   6.899   0.118   3.100
10583TIP3   OH231691   0.490   3.000   3.001
10583TIP3    H131692   0.521   2.972   2.914
10583TIP3    H231693   0.561   3.053   3.036
10584TIP3   OH231694   6.592   7.016   5.441
10584TIP3    H131695   6.572   6.942   5.384
10584TIP3    H231696   6.647   6.979   5.510
10585TIP3   OH231697   6.627   4.806   2.781
10585TIP3    H131698   6.715   4.805   2.744
10585TIP3    H231699   6.612   4.715   2.809
10586TIP3   OH231700   3.199   6.738   0.925
10586TIP3    H131701   3.157   6.655   0.945
10586TIP3    H231702   3.188   6.749   0.831
10587TIP3   OH231703   3.340   6.061   1.077
10587TIP3    H131704   3.332   5.968   1.097
10587TIP3    H231705   3.303   6.070   0.988
10588TIP3   OH231706   7.621   1.766   0.975
10588TIP3    H131707   7.601   1.681   1.012
10588TIP3    H231708   7.542   1.790   0.926
10589TIP3   OH231709   2.312   4.328   0.649
10589TIP3    H131710   2.334   4.235   0.647
10589TIP3    H231711   2.397   4.372   0.658
10590TIP3   OH231712   6.982   3.349   5.087
10590TIP3    H131713   6.997   3.361   4.993
10590TIP3    H231714   7.069   3.349   5.126
10591TIP3   OH231715   0.988   7.643   2.462
10591TIP3    H131716   0.979   7.733   2.433
10591TIP3    H231717   1.078   7.618   2.439
10592TIP3   OH231718   7.932   5.397   0.265
10592TIP3    H131719   7.979   5.462   0.213
10592TIP3    H231720   7.904   5.445   0.343
10593TIP3   OH231721   3.130   0.186   3.241
10593TIP3    H131722   3.047   0.235   3.243
10593TIP3    H231723   3.103   0.095   3.231
10594TIP3   OH231724   6.248   2.683   1.348
10594TIP3    H131725   6.265   2.672   1.255
10594TIP3    H231726   6.276   2.600   1.388
10595TIP3   OH231727   6.712   1.069   2.186
10595TIP3    H131728   6.627   1.105   2.161
10595TIP3    H231729   6.767   1.146   2.205
10596TIP3   OH231730   1.105   3.161   0.025
10596TIP3    H131731   1.167   3.106  -0.024
10596TIP3    H231732   1.149   3.246   0.032
10597TIP3   OH231733   2.480   4.865   3.059
10597TIP3    H131734   2.560   4.861   3.008
10597TIP3    H231735   2.415   4.818   3.006
10598TIP3   OH231736   5.056   1.529   3.946
10598TIP3    H131737   5.029   1.468   3.877
10598TIP3    H231738   4.997   1.511   4.019
10599TIP3   OH231739   3.054   3.822   3.863
10599TIP3    H131740   3.129   3.763   3.870
10599TIP3    H231741   3.087   3.896   3.812
10600TIP3   OH231742   5.085   1.581   2.741
10600TIP3    H131743   5.031   1.538   2.807
10600TIP3    H231744   5.077   1.526   2.663
10601TIP3   OH231745   2.948   1.521   5.384
10601TIP3    H131746   2.895   1.589   5.425
10601TIP3    H231747   3.021   1.568   5.345
10602TIP3   OH231748   6.988   1.448   0.920
10602TIP3    H131749   6.903   1.490   0.909
10602TIP3    H231750   7.052   1.518   0.906
10603TIP3   OH231751   5.385   3.157   3.599
10603TIP3    H131752   5.394   3.062   3.595
10603TIP3    H231753   5.475   3.189   3.612
10604TIP3   OH231754   5.747   4.319   4.597
10604TIP3    H131755   5.675   4.352   4.543
10604TIP3    H231756   5.796   4.260   4.539
10605TIP3   OH231757   0.936   5.582   5.299
10605TIP3    H131758   0.973   5.607   5.214
10605TIP3    H231759   0.842   5.577   5.284
10606TIP3   OH231760   3.721   5.372   3.359
10606TIP3    H131761   3.647   5.396   3.303
10606TIP3    H231762   3.777   5.317   3.304
10607TIP3   OH231763   0.696   2.967   5.753
10607TIP3    H131764   0.673   3.060   5.758
10607TIP3    H231765   0.700   2.938   5.844
10608TIP3   OH231766   0.040   2.701   0.504
10608TIP3    H131767  -0.024   2.645   0.460
10608TIP3    H231768   0.011   2.704   0.595
10609TIP3   OH231769   5.651   1.517   6.674
10609TIP3    H131770   5.695   1.557   6.750
10609TIP3    H231771   5.572   1.569   6.661
10610TIP3   OH231772   2.599   3.829   2.346
10610TIP3    H131773   2.688   3.795   2.356
10610TIP3    H231774   2.611   3.921   2.323
10611TIP3   OH231775   7.835   1.324   5.670
10611TIP3    H131776   7.852   1.372   5.589
10611TIP3    H231777   7.912   1.269   5.682
10612TIP3   OH231778   2.604   0.994   3.383
10612TIP3    H131779   2.597   1.053   3.308
10612TIP3    H231780   2.578   1.048   3.458
10613TIP3   OH231781   4.335   3.854   6.693
10613TIP3    H131782   4.416   3.867   6.742
10613TIP3    H231783   4.344   3.766   6.655
10614TIP3   OH231784   5.211   5.155   4.707
10614TIP3    H131785   5.202   5.059   4.706
10614TIP3    H231786   5.303   5.170   4.686
10615TIP3   OH231787   8.025   0.489   2.788
10615TIP3    H131788   8.010   0.581   2.770
10615TIP3    H231789   8.099   0.488   2.849
10616TIP3   OH231790   6.984   4.230   5.876
10616TIP3    H131791   6.942   4.306   5.836
10616TIP3    H231792   7.078   4.250   5.873
10617TIP3   OH231793   6.375   6.397   4.036
10617TIP3    H131794   6.358   6.485   4.070
10617TIP3    H231795   6.330   6.395   3.952
10618TIP3   OH231796   8.248   3.111   0.912
10618TIP3    H131797   8.176   3.064   0.870
10618TIP3    H231798   8.327   3.067   0.881
10619TIP3   OH231799   2.009   2.896   2.581
10619TIP3    H131800   2.059   2.852   2.512
10619TIP3    H231801   2.042   2.986   2.580
10620TIP3   OH231802   8.132   4.441   4.475
10620TIP3    H131803   8.063   4.404   4.421
10620TIP3    H231804   8.199   4.469   4.414
10621TIP3   OH231805   1.218   3.438   2.858
10621TIP3    H131806   1.293   3.469   2.807
10621TIP3    H231807   1.197   3.352   2.821
10622TIP3   OH231808   0.650   0.518   6.053
10622TIP3    H131809   0.640   0.586   6.119
10622TIP3    H231810   0.634   0.562   5.969
10623TIP3   OH231811   5.094   5.731   2.756
10623TIP3    H131812   5.125   5.798   2.817
10623TIP3    H231813   5.166   5.718   2.695
10624TIP3   OH231814   4.153   7.596   3.916
10624TIP3    H131815   4.223   7.629   3.973
10624TIP3    H231816   4.123   7.672   3.868
10625TIP3   OH231817   2.693   0.643   2.043
10625TIP3    H131818   2.637   0.704   2.091
10625TIP3    H231819   2.691   0.563   2.095
10626TIP3   OH231820   7.678   1.221   3.735
10626TIP3    H131821   7.621   1.162   3.785
10626TIP3    H231822   7.740   1.255   3.799
10627TIP3   OH231823   3.328   4.594   2.003
10627TIP3    H131824   3.298   4.631   1.920
10627TIP3    H231825   3.417   4.563   1.984
10628TIP3   OH231826   5.540   6.745   4.949
10628TIP3    H131827   5.475   6.738   5.019
10628TIP3    H231828   5.529   6.664   4.899
10629TIP3   OH231829   7.409   6.449   4.528
10629TIP3    H131830   7.487   6.431   4.581
10629TIP3    H231831   7.352   6.374   4.543
10630TIP3   OH231832   2.697   1.764   0.238
10630TIP3    H131833   2.629   1.721   0.290
10630TIP3    H231834   2.698   1.716   0.156
10631TIP3   OH231835   0.209   6.079   1.039
10631TIP3    H131836   0.129   6.036   1.010
10631TIP3    H231837   0.196   6.094   1.132
10632TIP3   OH231838   2.917   5.008   1.829
10632TIP3    H131839   2.840   5.022   1.884
10632TIP3    H231840   2.969   5.087   1.840
10633TIP3   OH231841   3.899   5.084   5.354
10633TIP3    H131842   3.834   5.019   5.382
10633TIP3    H231843   3.897   5.081   5.259
10634TIP3   OH231844   3.752   7.022   5.790
10634TIP3    H131845   3.746   6.949   5.728
10634TIP3    H231846   3.667   7.064   5.787
10635TIP3   OH231847   7.024   6.488   4.170
10635TIP3    H131848   7.039   6.456   4.082
10635TIP3    H231849   7.015   6.583   4.160
10636TIP3   OH231850   2.605   6.764   0.178
10636TIP3    H131851   2.680   6.720   0.139
10636TIP3    H231852   2.551   6.692   0.212
10637TIP3   OH231853   5.610   0.133   2.389
10637TIP3    H131854   5.657   0.203   2.343
10637TIP3    H231855   5.679   0.073   2.418
10638TIP3   OH231856   8.206   1.874   6.284
10638TIP3    H131857   8.283   1.922   6.315
10638TIP3    H231858   8.191   1.807   6.350
10639TIP3   OH231859   3.178   3.576   3.198
10639TIP3    H131860   3.205   3.662   3.230
10639TIP3    H231861   3.235   3.559   3.123
10640TIP3   OH231862   3.393   4.974   0.398
10640TIP3    H131863   3.402   5.062   0.434
10640TIP3    H231864   3.442   4.918   0.458
10641TIP3   OH231865   8.263   3.554   6.336
10641TIP3    H131866   8.273   3.491   6.264
10641TIP3    H231867   8.205   3.621   6.301
10642TIP3   OH231868   2.646   0.751   0.573
10642TIP3    H131869   2.710   0.800   0.521
10642TIP3    H231870   2.571   0.810   0.581
10643TIP3   OH231871   8.092   2.906   1.248
10643TIP3    H131872   8.139   2.847   1.307
10643TIP3    H231873   8.134   2.892   1.163
10644TIP3   OH231874   2.917   2.275   1.945
10644TIP3    H131875   3.013   2.265   1.941
10644TIP3    H231876   2.892   2.236   2.028
10645TIP3   OH231877   2.483   4.857   0.196
10645TIP3    H131878   2.509   4.843   0.105
10645TIP3    H231879   2.517   4.944   0.217
10646TIP3   OH231880   2.662   4.584   1.500
10646TIP3    H131881   2.620   4.641   1.564
10646TIP3    H231882   2.703   4.515   1.552
10647TIP3   OH231883   3.650   1.653   1.905
10647TIP3    H131884   3.646   1.597   1.982
10647TIP3    H231885   3.743   1.667   1.889
10648TIP3   OH231886   6.934   3.058   3.594
10648TIP3    H131887   6.956   3.144   3.558
10648TIP3    H231888   6.903   3.007   3.519
10649TIP3   OH231889   1.429   4.420   3.403
10649TIP3    H131890   1.449   4.357   3.473
10649TIP3    H231891   1.373   4.485   3.445
10650TIP3   OH231892   3.050   2.125   0.472
10650TIP3    H131893   2.995   2.052   0.443
10650TIP3    H231894   3.102   2.148   0.395
10651TIP3   OH231895   0.268   1.703   2.800
10651TIP3    H131896   0.215   1.645   2.745
10651TIP3    H231897   0.254   1.790   2.764
10652TIP3   OH231898   5.510   1.613   2.354
10652TIP3    H131899   5.496   1.670   2.430
10652TIP3    H231900   5.437   1.633   2.295
10653TIP3   OH231901   0.873   0.357   1.055
10653TIP3    H131902   0.880   0.451   1.038
10653TIP3    H231903   0.811   0.350   1.127
10654TIP3   OH231904   5.174   4.533   2.284
10654TIP3    H131905   5.221   4.579   2.353
10654TIP3    H231906   5.140   4.603   2.228
10655TIP3   OH231907   2.603   0.868   4.384
10655TIP3    H131908   2.623   0.939   4.444
10655TIP3    H231909   2.544   0.906   4.320
10656TIP3   OH231910   6.287   4.761   3.336
10656TIP3    H131911   6.337   4.749   3.417
10656TIP3    H231912   6.212   4.702   3.346
10657TIP3   OH231913   0.650   5.729   5.243
10657TIP3    H131914   0.644   5.651   5.187
10657TIP3    H231915   0.624   5.697   5.329
10658TIP3   OH231916   7.887   2.198   5.352
10658TIP3    H131917   7.835   2.206   5.272
10658TIP3    H231918   7.896   2.103   5.365
10659TIP3   OH231919   7.775   0.968   4.175
10659TIP3    H131920   7.732   0.890   4.209
10659TIP3    H231921   7.791   1.022   4.252
10660TIP3   OH231922   3.302   1.986   6.259
10660TIP3    H131923   3.339   2.001   6.346
10660TIP3    H231924   3.343   1.905   6.229
10661TIP3   OH231925   5.888   4.369   2.928
10661TIP3    H131926   5.941   4.296   2.959
10661TIP3    H231927   5.798   4.341   2.940
10662TIP3   OH231928   2.714   5.261   3.609
10662TIP3    H131929   2.642   5.203   3.583
10662TIP3    H231930   2.781   5.249   3.542
10663TIP3   OH231931   5.198   1.901   6.263
10663TIP3    H131932   5.141   1.824   6.258
10663TIP3    H231933   5.284   1.865   6.286
10664TIP3   OH231934   3.312   4.734   6.458
10664TIP3    H131935   3.342   4.773   6.540
10664TIP3    H231936   3.230   4.692   6.480
10665TIP3   OH231937   4.244   1.966   0.445
10665TIP3    H131938   4.151   1.952   0.465
10665TIP3    H231939   4.290   1.906   0.505
10666TIP3   OH231940   7.952   1.576   6.342
10666TIP3    H131941   7.876   1.591   6.398
10666TIP3    H231942   8.025   1.620   6.386
10667TIP3   OH231943   3.082   1.733   1.640
10667TIP3    H131944   3.007   1.791   1.655
10667TIP3    H231945   3.044   1.646   1.632
10668TIP3   OH231946   7.140   0.284   0.234
10668TIP3    H131947   7.138   0.296   0.139
10668TIP3    H231948   7.201   0.351   0.265
10669TIP3   OH231949   5.979   0.405   3.172
10669TIP3    H131950   6.015   0.321   3.199
10669TIP3    H231951   5.949   0.391   3.082
10670TIP3   OH231952   5.071   5.766   4.920
10670TIP3    H131953   4.999   5.719   4.962
10670TIP3    H231954   5.148   5.746   4.974
10671TIP3   OH231955   5.415   6.413   0.860
10671TIP3    H131956   5.380   6.482   0.916
10671TIP3    H231957   5.337   6.369   0.826
10672TIP3   OH231958   7.136   4.050   3.873
10672TIP3    H131959   7.217   4.073   3.827
10672TIP3    H231960   7.150   4.081   3.963
10673TIP3   OH231961   1.834   1.495   3.177
10673TIP3    H131962   1.892   1.501   3.101
10673TIP3    H231963   1.893   1.501   3.252
10674TIP3   OH231964   7.663   4.796   0.448
10674TIP3    H131965   7.637   4.721   0.394
10674TIP3    H231966   7.627   4.777   0.535
10675TIP3   OH231967   1.797   5.100   3.113
10675TIP3    H131968   1.883   5.142   3.113
10675TIP3    H231969   1.812   5.014   3.151
10676TIP3   OH231970   3.842   5.703   3.331
10676TIP3    H131971   3.837   5.653   3.250
10676TIP3    H231972   3.898   5.650   3.388
10677TIP3   OH231973   7.260   2.344   0.902
10677TIP3    H131974   7.356   2.352   0.904
10677TIP3    H231975   7.234   2.389   0.822
10678TIP3   OH231976   1.269   7.317   1.257
10678TIP3    H131977   1.247   7.246   1.318
10678TIP3    H231978   1.302   7.272   1.179
10679TIP3   OH231979   4.971   7.476   1.122
10679TIP3    H131980   4.901   7.523   1.169
10679TIP3    H231981   4.927   7.438   1.046
10680TIP3   OH231982   6.484   2.363   4.095
10680TIP3    H131983   6.393   2.389   4.081
10680TIP3    H231984   6.509   2.320   4.013
10681TIP3   OH231985   7.401   2.111   5.685
10681TIP3    H131986   7.391   2.203   5.710
10681TIP3    H231987   7.334   2.066   5.736
10682TIP3   OH231988   4.064   2.773   2.815
10682TIP3    H131989   4.054   2.862   2.781
10682TIP3    H231990   4.016   2.774   2.897
10683TIP3   OH231991   2.047   4.368   0.726
10683TIP3    H131992   2.137   4.349   0.699
10683TIP3    H231993   2.039   4.463   0.715
10684TIP3   OH231994   6.268   3.501   1.533
10684TIP3    H131995   6.269   3.406   1.521
10684TIP3    H231996   6.313   3.515   1.617
10685TIP3   OH231997   8.000   3.000   1.712
10685TIP3    H131998   7.953   2.985   1.793
10685TIP3    H231999   7.968   3.085   1.681
10686TIP3   OH232000   2.453   2.434   0.637
10686TIP3    H132001   2.418   2.363   0.690
10686TIP3    H232002   2.532   2.398   0.597
10687TIP3   OH232003   7.527   7.033   1.985
10687TIP3    H132004   7.439   7.066   2.001
10687TIP3    H232005   7.521   6.939   1.999
10688TIP3   OH232006   0.759   7.201   3.775
10688TIP3    H132007   0.739   7.140   3.846
10688TIP3    H232008   0.837   7.248   3.805
10689TIP3   OH232009   7.637   1.748   1.993
10689TIP3    H132010   7.636   1.653   2.002
10689TIP3    H232011   7.677   1.779   2.074
10690TIP3   OH232012   8.016   1.171   1.147
10690TIP3    H132013   8.024   1.235   1.076
10690TIP3    H232014   8.002   1.087   1.102
10691TIP3   OH232015   1.606   3.687   5.601
10691TIP3    H132016   1.586   3.777   5.628
10691TIP3    H232017   1.629   3.642   5.683
10692TIP3   OH232018   2.855   1.449   3.724
10692TIP3    H132019   2.866   1.472   3.816
10692TIP3    H232020   2.945   1.440   3.691
10693TIP3   OH232021   2.291   7.030   2.628
10693TIP3    H132022   2.204   6.990   2.622
10693TIP3    H232023   2.352   6.957   2.618
10694TIP3   OH232024   5.994   4.440   6.190
10694TIP3    H132025   6.065   4.423   6.251
10694TIP3    H232026   5.917   4.400   6.229
10695TIP3   OH232027   4.929   2.294   6.014
10695TIP3    H132028   4.870   2.280   5.940
10695TIP3    H232029   4.987   2.218   6.014
10696TIP3   OH232030   4.572   5.155   5.131
10696TIP3    H132031   4.507   5.168   5.199
10696TIP3    H232032   4.605   5.243   5.112
10697TIP3   OH232033   7.009   5.749   4.423
10697TIP3    H132034   7.072   5.806   4.378
10697TIP3    H232035   6.942   5.731   4.357
10698TIP3   OH232036   0.586   1.204   1.037
10698TIP3    H132037   0.588   1.298   1.017
10698TIP3    H232038   0.678   1.179   1.045
10699TIP3   OH232039   7.425   4.787   6.036
10699TIP3    H132040   7.370   4.863   6.017
10699TIP3    H232041   7.393   4.754   6.120
10700TIP3   OH232042   4.445   2.801   2.536
10700TIP3    H132043   4.425   2.710   2.515
10700TIP3    H232044   4.362   2.837   2.567
10701TIP3   OH232045   4.309   7.739   5.734
10701TIP3    H132046   4.332   7.785   5.815
10701TIP3    H232047   4.344   7.651   5.746
10702TIP3   OH232048   2.973   6.044   0.378
10702TIP3    H132049   2.995   6.135   0.395
10702TIP3    H232050   2.920   6.046   0.299
10703TIP3   OH232051   3.639   6.049   1.534
10703TIP3    H132052   3.650   6.144   1.534
10703TIP3    H232053   3.551   6.036   1.498
10704TIP3   OH232054   1.859   4.998   2.351
10704TIP3    H132055   1.912   5.058   2.298
10704TIP3    H232056   1.804   5.056   2.403
10705TIP3   OH232057   6.952   5.080   4.380
10705TIP3    H132058   6.926   5.163   4.420
10705TIP3    H232059   6.878   5.057   4.323
10706TIP3   OH232060   7.002   2.149   1.387
10706TIP3    H132061   6.934   2.175   1.325
10706TIP3    H232062   6.994   2.211   1.459
10707TIP3   OH232063   8.201   2.185   1.430
10707TIP3    H132064   8.294   2.168   1.416
10707TIP3    H232065   8.199   2.271   1.472
10708TIP3   OH232066   5.792   4.162   3.405
10708TIP3    H132067   5.754   4.239   3.363
10708TIP3    H232068   5.825   4.109   3.332
10709TIP3   OH232069   3.629   3.890   4.873
10709TIP3    H132070   3.672   3.890   4.788
10709TIP3    H232071   3.629   3.982   4.900
10710TIP3   OH232072   4.287   6.000   0.599
10710TIP3    H132073   4.218   6.000   0.532
10710TIP3    H232074   4.241   6.021   0.680
10711TIP3   OH232075   4.106   1.015   2.445
10711TIP3    H132076   4.140   1.094   2.403
10711TIP3    H232077   4.012   1.029   2.450
10712TIP3   OH232078   5.411   6.070   3.052
10712TIP3    H132079   5.504   6.091   3.048
10712TIP3    H232080   5.392   6.029   2.968
10713TIP3   OH232081   4.210   1.271   1.741
10713TIP3    H132082   4.209   1.335   1.670
10713TIP3    H232083   4.117   1.254   1.758
10714TIP3   OH232084   7.266   5.666   1.400
10714TIP3    H132085   7.195   5.725   1.424
10714TIP3    H232086   7.233   5.579   1.419
10715TIP3   OH232087   5.548   5.883  -0.014
10715TIP3    H132088   5.640   5.887   0.011
10715TIP3    H232089   5.511   5.814   0.041
10716TIP3   OH232090   8.057   7.311   5.020
10716TIP3    H132091   7.988   7.361   5.063
10716TIP3    H232092   8.138   7.353   5.047
10717TIP3   OH232093   5.565   3.677   0.165
10717TIP3    H132094   5.496   3.673   0.099
10717TIP3    H232095   5.520   3.661   0.248
10718TIP3   OH232096   0.484   0.508   0.538
10718TIP3    H132097   0.394   0.534   0.519
10718TIP3    H232098   0.476   0.423   0.580
10719TIP3   OH232099   0.762   3.916   3.849
10719TIP3    H132100   0.672   3.921   3.881
10719TIP3    H232101   0.812   3.970   3.910
10720TIP3   OH232102   3.978   6.060   0.368
10720TIP3    H132103   3.921   6.102   0.304
10720TIP3    H232104   4.016   5.985   0.321
10721TIP3   OH232105   3.679   7.150   1.384
10721TIP3    H132106   3.684   7.245   1.368
10721TIP3    H232107   3.606   7.139   1.445
10722TIP3   OH232108   5.378   4.554   3.771
10722TIP3    H132109   5.380   4.460   3.791
10722TIP3    H232110   5.468   4.583   3.789
10723TIP3   OH232111   8.159   3.992   2.062
10723TIP3    H132112   8.218   4.031   2.126
10723TIP3    H232113   8.134   3.908   2.100
10724TIP3   OH232114   4.581   1.248   1.995
10724TIP3    H132115   4.663   1.200   1.978
10724TIP3    H232116   4.520   1.181   2.024
10725TIP3   OH232117   6.530   3.280   1.336
10725TIP3    H132118   6.522   3.371   1.305
10725TIP3    H232119   6.623   3.259   1.324
10726TIP3   OH232120   1.699   3.683   4.053
10726TIP3    H132121   1.761   3.687   4.126
10726TIP3    H232122   1.614   3.705   4.092
10727TIP3   OH232123   4.508   2.996   3.884
10727TIP3    H132124   4.589   2.971   3.928
10727TIP3    H232125   4.492   2.925   3.821
10728TIP3   OH232126   6.690   2.622   0.373
10728TIP3    H132127   6.732   2.696   0.418
10728TIP3    H232128   6.757   2.553   0.374
10729TIP3   OH232129   2.533   3.694   6.027
10729TIP3    H132130   2.591   3.626   5.991
10729TIP3    H232131   2.477   3.647   6.088
10730TIP3   OH232132   3.779   6.746   4.680
10730TIP3    H132133   3.687   6.745   4.653
10730TIP3    H232134   3.824   6.790   4.608
10731TIP3   OH232135   0.248   0.719   3.792
10731TIP3    H132136   0.307   0.727   3.717
10731TIP3    H232137   0.160   0.730   3.754
10732TIP3   OH232138   0.518   4.748   1.908
10732TIP3    H132139   0.435   4.740   1.955
10732TIP3    H232140   0.493   4.765   1.817
10733TIP3   OH232141   0.859   3.339   0.158
10733TIP3    H132142   0.771   3.312   0.184
10733TIP3    H232143   0.916   3.268   0.187
10734TIP3   OH232144   4.141   4.260   4.961
10734TIP3    H132145   4.200   4.206   4.908
10734TIP3    H232146   4.108   4.326   4.899
10735TIP3   OH232147   5.668   5.513   2.689
10735TIP3    H132148   5.690   5.431   2.645
10735TIP3    H232149   5.720   5.579   2.644
10736TIP3   OH232150   2.205   4.317   1.783
10736TIP3    H132151   2.150   4.270   1.720
10736TIP3    H232152   2.294   4.290   1.762
10737TIP3   OH232153   4.769   6.404   0.203
10737TIP3    H132154   4.831   6.475   0.223
10737TIP3    H232155   4.785   6.340   0.273
10738TIP3   OH232156   6.636   6.558   2.073
10738TIP3    H132157   6.643   6.481   2.017
10738TIP3    H232158   6.548   6.592   2.056
10739TIP3   OH232159   6.324   4.349   3.153
10739TIP3    H132160   6.341   4.270   3.205
10739TIP3    H232161   6.278   4.408   3.213
10740TIP3   OH232162   0.767   5.238   3.875
10740TIP3    H132163   0.853   5.217   3.839
10740TIP3    H232164   0.711   5.250   3.799
10741TIP3   OH232165   0.700   0.688   5.806
10741TIP3    H132166   0.627   0.674   5.747
10741TIP3    H232167   0.690   0.778   5.838
10742TIP3   OH232168   3.369   7.300   0.214
10742TIP3    H132169   3.373   7.276   0.307
10742TIP3    H232170   3.275   7.306   0.195
10743TIP3   OH232171   5.020   0.500   3.130
10743TIP3    H132172   4.990   0.409   3.119
10743TIP3    H232173   5.035   0.531   3.041
10744TIP3   OH232174   3.038   4.854   3.141
10744TIP3    H132175   2.970   4.915   3.171
10744TIP3    H232176   3.109   4.866   3.204
10745TIP3   OH232177   4.409   1.558   4.865
10745TIP3    H132178   4.398   1.471   4.903
10745TIP3    H232179   4.439   1.542   4.775
10746TIP3   OH232180   6.318   7.037   3.528
10746TIP3    H132181   6.275   7.122   3.537
10746TIP3    H232182   6.247   6.973   3.540
10747TIP3   OH232183   0.120   5.564   0.598
10747TIP3    H132184   0.154   5.617   0.526
10747TIP3    H232185   0.124   5.622   0.674
10748TIP3   OH232186   8.154   2.939   3.284
10748TIP3    H132187   8.106   2.977   3.358
10748TIP3    H232188   8.136   2.845   3.291
10749TIP3   OH232189   2.593   5.116   3.141
10749TIP3    H132190   2.550   5.051   3.086
10749TIP3    H232191   2.557   5.200   3.112
10750TIP3   OH232192   8.263   4.367   6.133
10750TIP3    H132193   8.352   4.336   6.145
10750TIP3    H232194   8.222   4.355   6.219
10751TIP3   OH232195   2.179   5.347   0.723
10751TIP3    H132196   2.156   5.324   0.633
10751TIP3    H232197   2.256   5.294   0.742
10752TIP3   OH232198   0.921   2.341   5.784
10752TIP3    H132199   0.938   2.363   5.693
10752TIP3    H232200   1.001   2.299   5.814
10753TIP3   OH232201   8.064   4.224   4.617
10753TIP3    H132202   8.099   4.306   4.581
10753TIP3    H232203   8.097   4.156   4.559
10754TIP3   OH232204   4.613   4.965   1.485
10754TIP3    H132205   4.637   5.057   1.502
10754TIP3    H232206   4.695   4.923   1.462
10755TIP3   OH232207   5.036   7.403   2.951
10755TIP3    H132208   4.975   7.358   3.009
10755TIP3    H232209   5.076   7.471   3.005
10756TIP3   OH232210   1.058   0.463   4.951
10756TIP3    H132211   1.116   0.478   4.877
10756TIP3    H232212   1.016   0.379   4.932
10757TIP3   OH232213   4.379   2.131   3.338
10757TIP3    H132214   4.369   2.208   3.394
10757TIP3    H232215   4.463   2.093   3.364
10758TIP3   OH232216   1.547   1.543   6.793
10758TIP3    H132217   1.541   1.567   6.700
10758TIP3    H232218   1.494   1.463   6.800
10759TIP3   OH232219   5.115   3.079   2.718
10759TIP3    H132220   5.030   3.078   2.763
10759TIP3    H232221   5.092   3.083   2.625
10760TIP3   OH232222   4.286   5.399   2.451
10760TIP3    H132223   4.290   5.362   2.539
10760TIP3    H232224   4.205   5.365   2.414
10761TIP3   OH232225   2.790   4.426   2.906
10761TIP3    H132226   2.804   4.487   2.833
10761TIP3    H232227   2.789   4.482   2.983
10762TIP3   OH232228   6.398   3.896   6.348
10762TIP3    H132229   6.483   3.864   6.376
10762TIP3    H232230   6.405   3.904   6.253
10763TIP3   OH232231   4.099   3.171   4.952
10763TIP3    H132232   4.167   3.109   4.978
10763TIP3    H232233   4.024   3.148   5.006
10764TIP3   OH232234   1.795   6.634   4.746
10764TIP3    H132235   1.730   6.582   4.698
10764TIP3    H232236   1.745   6.706   4.785
10765TIP3   OH232237   1.781   6.078   6.341
10765TIP3    H132238   1.796   5.985   6.359
10765TIP3    H232239   1.686   6.087   6.339
10766TIP3   OH232240   1.439   7.407   1.976
10766TIP3    H132241   1.531   7.415   1.953
10766TIP3    H232242   1.399   7.488   1.945
10767TIP3   OH232243   7.355   1.149   4.905
10767TIP3    H132244   7.436   1.192   4.931
10767TIP3    H232245   7.294   1.221   4.887
10768TIP3   OH232246   2.405   3.077   1.131
10768TIP3    H132247   2.389   3.163   1.092
10768TIP3    H232248   2.420   3.019   1.056
10769TIP3   OH232249   0.821   5.010   4.172
10769TIP3    H132250   0.876   5.080   4.136
10769TIP3    H232251   0.861   4.988   4.256
10770TIP3   OH232252   5.992   2.268   6.784
10770TIP3    H132253   5.995   2.208   6.709
10770TIP3    H232254   6.036   2.220   6.855
10771TIP3   OH232255   2.814   3.307   1.017
10771TIP3    H132256   2.892   3.255   0.995
10771TIP3    H232257   2.816   3.380   0.955
10772TIP3   OH232258   6.293   7.653   6.466
10772TIP3    H132259   6.230   7.633   6.397
10772TIP3    H232260   6.360   7.705   6.422
10773TIP3   OH232261   7.825   0.899   6.689
10773TIP3    H132262   7.760   0.947   6.739
10773TIP3    H232263   7.798   0.807   6.697
10774TIP3   OH232264   8.165   2.584   5.881
10774TIP3    H132265   8.072   2.564   5.868
10774TIP3    H232266   8.203   2.576   5.794
10775TIP3   OH232267   7.043   4.667   2.101
10775TIP3    H132268   6.970   4.727   2.115
10775TIP3    H232269   7.006   4.594   2.052
10776TIP3   OH232270   4.685   5.740   6.712
10776TIP3    H132271   4.621   5.705   6.773
10776TIP3    H232272   4.742   5.665   6.691
10777TIP3   OH232273   1.825   4.422   5.413
10777TIP3    H132274   1.912   4.443   5.449
10777TIP3    H232275   1.765   4.436   5.485
10778TIP3   OH232276   2.792   3.837   3.777
10778TIP3    H132277   2.884   3.826   3.797
10778TIP3    H232278   2.790   3.872   3.688
10779TIP3   OH232279   1.309   5.630   0.718
10779TIP3    H132280   1.319   5.649   0.811
10779TIP3    H232281   1.232   5.680   0.691
10780TIP3   OH232282   1.397   4.244   0.546
10780TIP3    H132283   1.417   4.179   0.480
10780TIP3    H232284   1.302   4.255   0.542
10781TIP3   OH232285   2.895   4.999   5.987
10781TIP3    H132286   2.942   5.082   5.983
10781TIP3    H232287   2.833   5.002   5.914
10782TIP3   OH232288   6.918   2.542   1.308
10782TIP3    H132289   6.909   2.593   1.228
10782TIP3    H232290   6.954   2.603   1.372
10783TIP3   OH232291   2.905   4.241   1.434
10783TIP3    H132292   2.979   4.270   1.486
10783TIP3    H232293   2.926   4.151   1.409
10784TIP3   OH232294   4.191   6.045   5.293
10784TIP3    H132295   4.150   6.081   5.371
10784TIP3    H232296   4.178   5.951   5.300
10785TIP3   OH232297   4.976   7.469   5.514
10785TIP3    H132298   4.989   7.451   5.421
10785TIP3    H232299   5.061   7.454   5.554
10786TIP3   OH232300   1.350   0.843   5.160
10786TIP3    H132301   1.326   0.934   5.180
10786TIP3    H232302   1.417   0.821   5.225
10787TIP3   OH232303   6.240   0.728   1.873
10787TIP3    H132304   6.276   0.814   1.892
10787TIP3    H232305   6.162   0.722   1.927
10788TIP3   OH232306   2.287   5.360   1.881
10788TIP3    H132307   2.268   5.385   1.972
10788TIP3    H232308   2.380   5.336   1.882
10789TIP3   OH232309   6.498   7.753   1.152
10789TIP3    H132310   6.549   7.822   1.196
10789TIP3    H232311   6.544   7.672   1.173
10790TIP3   OH232312   5.645   0.678   3.915
10790TIP3    H132313   5.643   0.674   3.819
10790TIP3    H232314   5.570   0.626   3.943
10791TIP3   OH232315   6.232   7.543   2.772
10791TIP3    H132316   6.281   7.503   2.701
10791TIP3    H232317   6.202   7.470   2.826
10792TIP3   OH232318   7.621   5.531   2.603
10792TIP3    H132319   7.698   5.561   2.556
10792TIP3    H232320   7.556   5.513   2.534
10793TIP3   OH232321   7.195   2.187   6.120
10793TIP3    H132322   7.288   2.173   6.104
10793TIP3    H232323   7.152   2.159   6.039
10794TIP3   OH232324   7.531   3.366   4.626
10794TIP3    H132325   7.578   3.431   4.576
10794TIP3    H232326   7.477   3.416   4.688
10795TIP3   OH232327   7.194   4.525   3.505
10795TIP3    H132328   7.231   4.586   3.441
10795TIP3    H232329   7.125   4.479   3.458
10796TIP3   OH232330   4.823   5.553   6.332
10796TIP3    H132331   4.880   5.476   6.342
10796TIP3    H232332   4.862   5.602   6.260
10797TIP3   OH232333   5.148   2.906   4.165
10797TIP3    H132334   5.055   2.909   4.184
10797TIP3    H232335   5.153   2.870   4.076
10798TIP3   OH232336   4.114   2.092   5.397
10798TIP3    H132337   4.134   2.185   5.406
10798TIP3    H232338   4.193   2.054   5.359
10799TIP3   OH232339   0.909   0.165   2.760
10799TIP3    H132340   0.949   0.250   2.742
10799TIP3    H232341   0.983   0.107   2.779
10800TIP3   OH232342   3.569   2.431   3.448
10800TIP3    H132343   3.648   2.394   3.409
10800TIP3    H232344   3.532   2.361   3.500
10801TIP3   OH232345   1.184   1.309   2.736
10801TIP3    H132346   1.152   1.295   2.825
10801TIP3    H232347   1.167   1.401   2.718
10802TIP3   OH232348   7.517   5.193   4.776
10802TIP3    H132349   7.554   5.179   4.689
10802TIP3    H232350   7.589   5.229   4.828
10803TIP3   OH232351   4.845   6.838   0.330
10803TIP3    H132352   4.872   6.760   0.379
10803TIP3    H232353   4.912   6.848   0.262
10804TIP3   OH232354   7.899   3.408   3.585
10804TIP3    H132355   7.936   3.321   3.598
10804TIP3    H232356   7.959   3.467   3.631
10805TIP3   OH232357   4.629   5.585   4.767
10805TIP3    H132358   4.698   5.585   4.701
10805TIP3    H232359   4.655   5.654   4.828
10806TIP3   OH232360   3.253   7.523   2.823
10806TIP3    H132361   3.346   7.530   2.843
10806TIP3    H232362   3.219   7.462   2.887
10807TIP3   OH232363   7.510   5.686   5.999
10807TIP3    H132364   7.489   5.607   6.049
10807TIP3    H232365   7.446   5.751   6.029
10808TIP3   OH232366   6.410   2.529   1.743
10808TIP3    H132367   6.448   2.536   1.831
10808TIP3    H232368   6.372   2.615   1.726
10809TIP3   OH232369   6.501   6.625   3.485
10809TIP3    H132370   6.433   6.561   3.504
10809TIP3    H232371   6.472   6.669   3.406
10810TIP3   OH232372   1.617   0.393   5.884
10810TIP3    H132373   1.710   0.374   5.875
10810TIP3    H232374   1.585   0.331   5.949
10811TIP3   OH232375   1.466   5.965   0.839
10811TIP3    H132376   1.555   5.981   0.871
10811TIP3    H232377   1.477   5.947   0.746
10812TIP3   OH232378   8.008   5.997   4.705
10812TIP3    H132379   7.947   6.027   4.638
10812TIP3    H232380   8.065   5.935   4.659
10813TIP3   OH232381   4.497   4.005   2.942
10813TIP3    H132382   4.488   4.078   3.004
10813TIP3    H232383   4.558   4.038   2.876
10814TIP3   OH232384   4.469   6.356   2.855
10814TIP3    H132385   4.561   6.369   2.833
10814TIP3    H232386   4.434   6.306   2.781
10815TIP3   OH232387   2.578   2.441   3.052
10815TIP3    H132388   2.580   2.375   3.121
10815TIP3    H232389   2.568   2.524   3.098
10816TIP3   OH232390   2.054   0.118   3.795
10816TIP3    H132391   2.065   0.193   3.853
10816TIP3    H232392   2.031   0.156   3.711
10817TIP3   OH232393   6.593   0.779   5.275
10817TIP3    H132394   6.630   0.744   5.194
10817TIP3    H232395   6.569   0.869   5.255
10818TIP3   OH232396   5.100   5.307   3.946
10818TIP3    H132397   5.193   5.321   3.965
10818TIP3    H232398   5.099   5.272   3.857
10819TIP3   OH232399   7.199   6.239   3.630
10819TIP3    H132400   7.121   6.275   3.588
10819TIP3    H232401   7.272   6.278   3.583
10820TIP3   OH232402   0.053   2.044   5.245
10820TIP3    H132403   0.077   2.081   5.160
10820TIP3    H232404   0.128   1.991   5.270
10821TIP3   OH232405   6.878   3.948   3.900
10821TIP3    H132406   6.858   4.020   3.960
10821TIP3    H232407   6.958   3.976   3.855
10822TIP3   OH232408   2.029   3.825   2.403
10822TIP3    H132409   2.040   3.772   2.324
10822TIP3    H232410   2.103   3.800   2.459
10823TIP3   OH232411   0.716   2.060   4.378
10823TIP3    H132412   0.690   1.972   4.405
10823TIP3    H232413   0.747   2.101   4.459
10824TIP3   OH232414   1.115   6.623   2.667
10824TIP3    H132415   1.121   6.657   2.577
10824TIP3    H232416   1.153   6.693   2.721
10825TIP3   OH232417   8.227   0.879   1.934
10825TIP3    H132418   8.285   0.940   1.889
10825TIP3    H232419   8.184   0.931   2.002
10826TIP3   OH232420   7.023   3.088   1.746
10826TIP3    H132421   6.935   3.105   1.713
10826TIP3    H232422   7.010   3.065   1.838
10827TIP3   OH232423   5.333   3.198   6.507
10827TIP3    H132424   5.293   3.132   6.563
10827TIP3    H232425   5.290   3.187   6.422
10828TIP3   OH232426   4.005   3.169   3.350
10828TIP3    H132427   3.970   3.257   3.362
10828TIP3    H232428   4.050   3.149   3.432
10829TIP3   OH232429   8.011   3.218   2.808
10829TIP3    H132430   8.085   3.279   2.814
10829TIP3    H232431   7.963   3.246   2.730
10830TIP3   OH232432   0.634   6.017   0.980
10830TIP3    H132433   0.643   6.091   1.039
10830TIP3    H232434   0.547   5.982   0.997
10831TIP3   OH232435   4.000   2.922   3.252
10831TIP3    H132436   3.979   2.883   3.337
10831TIP3    H232437   3.970   3.012   3.258
10832TIP3   OH232438   4.489   7.545   1.182
10832TIP3    H132439   4.474   7.562   1.089
10832TIP3    H232440   4.424   7.599   1.226
10833TIP3   OH232441   4.342   5.843   6.628
10833TIP3    H132442   4.403   5.895   6.680
10833TIP3    H232443   4.319   5.769   6.684
10834TIP3   OH232444   3.487   1.843   1.122
10834TIP3    H132445   3.494   1.757   1.083
10834TIP3    H232446   3.502   1.904   1.050
10835TIP3   OH232447   8.130   4.346   3.690
10835TIP3    H132448   8.184   4.292   3.747
10835TIP3    H232449   8.114   4.426   3.740
10836TIP3   OH232450   6.532   1.021   3.886
10836TIP3    H132451   6.614   0.977   3.910
10836TIP3    H232452   6.559   1.097   3.836
10837TIP3   OH232453   8.241   5.729   6.257
10837TIP3    H132454   8.313   5.707   6.197
10837TIP3    H232455   8.270   5.695   6.342
10838TIP3   OH232456   2.380   4.632   2.368
10838TIP3    H132457   2.473   4.626   2.392
10838TIP3    H232458   2.339   4.673   2.444
10839TIP3   OH232459   0.197   2.943   0.500
10839TIP3    H132460   0.214   2.942   0.406
10839TIP3    H232461   0.175   2.853   0.522
10840TIP3   OH232462   0.165   7.724   0.309
10840TIP3    H132463   0.166   7.642   0.359
10840TIP3    H232464   0.194   7.699   0.221
10841TIP3   OH232465   6.326   0.022   2.135
10841TIP3    H132466   6.306  -0.071   2.124
10841TIP3    H232467   6.387   0.042   2.063
10842TIP3   OH232468   1.301   3.534   2.523
10842TIP3    H132469   1.246   3.467   2.563
10842TIP3    H232470   1.368   3.553   2.589
10843TIP3   OH232471   0.416   5.198   5.966
10843TIP3    H132472   0.507   5.215   5.988
10843TIP3    H232473   0.419   5.126   5.903
10844TIP3   OH232474   0.216   1.205   5.465
10844TIP3    H132475   0.193   1.112   5.457
10844TIP3    H232476   0.308   1.204   5.492
10845TIP3   OH232477   1.494   1.505   6.494
10845TIP3    H132478   1.432   1.440   6.527
10845TIP3    H232479   1.542   1.459   6.425
10846TIP3   OH232480   5.850   1.261   0.559
10846TIP3    H132481   5.874   1.169   0.553
10846TIP3    H232482   5.920   1.301   0.612
10847TIP3   OH232483   6.963   7.606   6.759
10847TIP3    H132484   6.916   7.532   6.796
10847TIP3    H232485   6.925   7.618   6.673
10848TIP3   OH232486   1.027   2.575   2.881
10848TIP3    H132487   1.068   2.504   2.831
10848TIP3    H232488   1.033   2.546   2.972
10849TIP3   OH232489   5.639   7.656   2.851
10849TIP3    H132490   5.615   7.748   2.851
10849TIP3    H232491   5.557   7.609   2.865
10850TIP3   OH232492   1.295   4.650   3.241
10850TIP3    H132493   1.370   4.590   3.241
10850TIP3    H232494   1.328   4.728   3.287
10851TIP3   OH232495   3.751   1.961   1.129
10851TIP3    H132496   3.724   1.872   1.152
10851TIP3    H232497   3.778   2.000   1.212
10852TIP3   OH232498   5.510   1.186   1.484
10852TIP3    H132499   5.564   1.190   1.563
10852TIP3    H232500   5.420   1.183   1.516
10853TIP3   OH232501   2.308   2.080   3.551
10853TIP3    H132502   2.295   2.004   3.494
10853TIP3    H232503   2.323   2.043   3.638
10854TIP3   OH232504   2.443   5.063   1.044
10854TIP3    H132505   2.424   5.014   1.124
10854TIP3    H232506   2.467   5.151   1.074
10855TIP3   OH232507   2.439   4.587   2.805
10855TIP3    H132508   2.514   4.634   2.839
10855TIP3    H232509   2.458   4.575   2.712
10856TIP3   OH232510   4.264   5.655   0.960
10856TIP3    H132511   4.338   5.612   0.918
10856TIP3    H232512   4.187   5.616   0.919
10857TIP3   OH232513   2.243   3.336   5.994
10857TIP3    H132514   2.295   3.269   6.039
10857TIP3    H232515   2.152   3.309   6.010
10858TIP3   OH232516   2.898   5.128   0.336
10858TIP3    H132517   2.834   5.057   0.335
10858TIP3    H232518   2.971   5.094   0.387
10859TIP3   OH232519   7.950   0.442   1.152
10859TIP3    H132520   7.879   0.385   1.182
10859TIP3    H232521   8.029   0.390   1.163
10860TIP3   OH232522   7.531   0.334   3.951
10860TIP3    H132523   7.481   0.346   3.870
10860TIP3    H232524   7.464   0.333   4.019
10861TIP3   OH232525   5.905   6.459   4.388
10861TIP3    H132526   5.812   6.479   4.391
10861TIP3    H232527   5.924   6.446   4.295
10862TIP3   OH232528   4.271   6.738   2.117
10862TIP3    H132529   4.325   6.716   2.041
10862TIP3    H232530   4.233   6.823   2.096
10863TIP3   OH232531   5.294   1.942   5.797
10863TIP3    H132532   5.274   1.851   5.820
10863TIP3    H232533   5.349   1.973   5.868
10864TIP3   OH232534   6.211   0.316   5.391
10864TIP3    H132535   6.171   0.389   5.436
10864TIP3    H232536   6.257   0.267   5.459
10865TIP3   OH232537   6.154   2.240   1.045
10865TIP3    H132538   6.181   2.162   1.093
10865TIP3    H232539   6.179   2.223   0.954
10866TIP3   OH232540   0.398   1.258   1.642
10866TIP3    H132541   0.365   1.301   1.563
10866TIP3    H232542   0.492   1.275   1.642
10867TIP3   OH232543   7.035   7.449   4.864
10867TIP3    H132544   6.960   7.410   4.909
10867TIP3    H232545   7.103   7.381   4.868
10868TIP3   OH232546   0.877   2.393   0.551
10868TIP3    H132547   0.804   2.406   0.491
10868TIP3    H232548   0.863   2.306   0.589
10869TIP3   OH232549   4.564   0.307   1.260
10869TIP3    H132550   4.575   0.244   1.189
10869TIP3    H232551   4.652   0.317   1.297
10870TIP3   OH232552   6.547   3.592   3.783
10870TIP3    H132553   6.603   3.652   3.833
10870TIP3    H232554   6.592   3.580   3.700
10871TIP3   OH232555   2.119   6.566   5.809
10871TIP3    H132556   2.089   6.605   5.891
10871TIP3    H232557   2.065   6.487   5.799
10872TIP3   OH232558   4.021   2.043   3.884
10872TIP3    H132559   4.078   2.080   3.817
10872TIP3    H232560   3.962   2.115   3.908
10873TIP3   OH232561   1.549   5.788   3.058
10873TIP3    H132562   1.592   5.807   2.975
10873TIP3    H232563   1.514   5.699   3.047
10874TIP3   OH232564   3.636   2.395   0.611
10874TIP3    H132565   3.704   2.376   0.548
10874TIP3    H232566   3.681   2.393   0.696
10875TIP3   OH232567   7.009   3.796   3.230
10875TIP3    H132568   6.999   3.748   3.148
10875TIP3    H232569   7.092   3.842   3.221
10876TIP3   OH232570   5.379   6.405   4.977
10876TIP3    H132571   5.424   6.448   4.904
10876TIP3    H232572   5.306   6.464   4.997
10877TIP3   OH232573   6.647   6.631   6.604
10877TIP3    H132574   6.569   6.641   6.550
10877TIP3    H232575   6.668   6.720   6.633
10878TIP3   OH232576   1.220   0.299   3.278
10878TIP3    H132577   1.170   0.279   3.198
10878TIP3    H232578   1.227   0.394   3.279
10879TIP3   OH232579   7.790   0.221   5.485
10879TIP3    H132580   7.735   0.175   5.549
10879TIP3    H232581   7.746   0.208   5.402
10880TIP3   OH232582   7.053   1.643   1.241
10880TIP3    H132583   7.064   1.711   1.308
10880TIP3    H232584   7.135   1.646   1.191
10881TIP3   OH232585   6.894   2.703   2.756
10881TIP3    H132586   6.919   2.673   2.843
10881TIP3    H232587   6.905   2.625   2.700
10882TIP3   OH232588   4.278   0.343   3.692
10882TIP3    H132589   4.265   0.275   3.626
10882TIP3    H232590   4.261   0.299   3.776
10883TIP3   OH232591   0.233   6.185   0.140
10883TIP3    H132592   0.295   6.168   0.211
10883TIP3    H232593   0.287   6.209   0.065
10884TIP3   OH232594   6.457   6.189   3.167
10884TIP3    H132595   6.419   6.133   3.100
10884TIP3    H232596   6.551   6.185   3.152
10885TIP3   OH232597   4.068   7.822   4.132
10885TIP3    H132598   4.072   7.862   4.045
10885TIP3    H232599   4.159   7.823   4.163
10886TIP3   OH232600   2.057   4.839   4.894
10886TIP3    H132601   2.085   4.876   4.811
10886TIP3    H232602   2.089   4.901   4.960
10887TIP3   OH232603   4.245   2.657   5.665
10887TIP3    H132604   4.196   2.739   5.676
10887TIP3    H232605   4.180   2.589   5.680
10888TIP3   OH232606   6.245   3.540   4.422
10888TIP3    H132607   6.199   3.617   4.456
10888TIP3    H232608   6.184   3.468   4.435
10889TIP3   OH232609   8.159   7.247   2.975
10889TIP3    H132610   8.241   7.284   2.943
10889TIP3    H232611   8.172   7.239   3.070
10890TIP3   OH232612   4.992   6.820   4.005
10890TIP3    H132613   4.900   6.799   4.019
10890TIP3    H232614   5.011   6.789   3.917
10891TIP3   OH232615   0.571   3.080   4.798
10891TIP3    H132616   0.519   3.001   4.782
10891TIP3    H232617   0.644   3.072   4.736
10892TIP3   OH232618   7.207   2.780   3.263
10892TIP3    H132619   7.132   2.777   3.322
10892TIP3    H232620   7.251   2.696   3.275
10893TIP3   OH232621   1.767   7.440   5.443
10893TIP3    H132622   1.851   7.444   5.489
10893TIP3    H232623   1.789   7.405   5.356
10894TIP3   OH232624   5.152   7.314   2.410
10894TIP3    H132625   5.139   7.355   2.325
10894TIP3    H232626   5.104   7.371   2.471
10895TIP3   OH232627   0.212   2.443   6.236
10895TIP3    H132628   0.142   2.462   6.174
10895TIP3    H232629   0.178   2.474   6.320
10896TIP3   OH232630   7.820   0.949   1.036
10896TIP3    H132631   7.847   0.880   1.096
10896TIP3    H232632   7.824   0.909   0.949
10897TIP3   OH232633   7.895   2.557   3.320
10897TIP3    H132634   7.929   2.631   3.370
10897TIP3    H232635   7.815   2.589   3.278
10898TIP3   OH232636   6.655   6.464   1.108
10898TIP3    H132637   6.704   6.493   1.031
10898TIP3    H232638   6.688   6.517   1.180
10899TIP3   OH232639   7.702   0.130   1.758
10899TIP3    H132640   7.693   0.041   1.791
10899TIP3    H232641   7.735   0.119   1.669
10900TIP3   OH232642   3.728   7.173   5.188
10900TIP3    H132643   3.778   7.254   5.178
10900TIP3    H232644   3.765   7.114   5.122
10901TIP3   OH232645   3.174   0.713   1.149
10901TIP3    H132646   3.190   0.661   1.071
10901TIP3    H232647   3.109   0.778   1.122
10902TIP3   OH232648   5.345   7.557   2.477
10902TIP3    H132649   5.276   7.548   2.411
10902TIP3    H232650   5.393   7.474   2.472
10903TIP3   OH232651   3.479   0.039   1.162
10903TIP3    H132652   3.439   0.115   1.205
10903TIP3    H232653   3.416  -0.032   1.175
10904TIP3   OH232654   4.932   7.707   3.554
10904TIP3    H132655   5.021   7.708   3.520
10904TIP3    H232656   4.937   7.651   3.631
10905TIP3   OH232657   6.948   7.293   3.241
10905TIP3    H132658   6.956   7.209   3.196
10905TIP3    H232659   6.907   7.350   3.176
10906TIP3   OH232660   6.464   0.387   6.291
10906TIP3    H132661   6.543   0.425   6.329
10906TIP3    H232662   6.416   0.352   6.366
10907TIP3   OH232663   3.899   3.617   3.307
10907TIP3    H132664   3.950   3.582   3.234
10907TIP3    H232665   3.837   3.677   3.265
10908TIP3   OH232666   0.259   3.861   3.413
10908TIP3    H132667   0.354   3.865   3.398
10908TIP3    H232668   0.226   3.805   3.342
10909TIP3   OH232669   2.534   5.337   1.138
10909TIP3    H132670   2.581   5.387   1.071
10909TIP3    H232671   2.602   5.304   1.197
10910TIP3   OH232672   2.330   6.225   2.938
10910TIP3    H132673   2.399   6.237   2.872
10910TIP3    H232674   2.252   6.262   2.897
10911TIP3   OH232675   3.968   6.169   3.030
10911TIP3    H132676   3.945   6.087   3.073
10911TIP3    H232677   4.063   6.174   3.036
10912TIP3   OH232678   4.300   0.695   5.377
10912TIP3    H132679   4.349   0.739   5.307
10912TIP3    H232680   4.231   0.648   5.331
10913TIP3   OH232681   7.379   4.380   2.704
10913TIP3    H132682   7.346   4.464   2.670
10913TIP3    H232683   7.415   4.336   2.627
10914TIP3   OH232684   3.589   6.507   3.500
10914TIP3    H132685   3.556   6.471   3.583
10914TIP3    H232686   3.623   6.431   3.453
10915TIP3   OH232687   7.673   6.042   6.328
10915TIP3    H132688   7.633   5.972   6.381
10915TIP3    H232689   7.641   6.024   6.239
10916TIP3   OH232690   5.607   4.661   0.484
10916TIP3    H132691   5.529   4.654   0.540
10916TIP3    H232692   5.579   4.716   0.411
10917TIP3   OH232693   6.229   4.572   5.865
10917TIP3    H132694   6.199   4.646   5.813
10917TIP3    H232695   6.208   4.495   5.812
10918TIP3   OH232696   4.085   1.438   6.052
10918TIP3    H132697   4.134   1.454   5.971
10918TIP3    H232698   4.136   1.482   6.120
10919TIP3   OH232699   3.356   6.390   2.799
10919TIP3    H132700   3.399   6.382   2.884
10919TIP3    H232701   3.428   6.391   2.735
10920TIP3   OH232702   2.269   5.099   3.876
10920TIP3    H132703   2.219   5.021   3.899
10920TIP3    H232704   2.229   5.170   3.928
10921TIP3   OH232705   0.661   3.531   5.311
10921TIP3    H132706   0.583   3.581   5.283
10921TIP3    H232707   0.685   3.569   5.395
10922TIP3   OH232708   7.418   2.061   3.479
10922TIP3    H132709   7.391   2.023   3.395
10922TIP3    H232710   7.495   2.011   3.504
10923TIP3   OH232711   4.843   3.556   0.358
10923TIP3    H132712   4.771   3.544   0.419
10923TIP3    H232713   4.846   3.474   0.308
10924TIP3   OH232714   7.700   1.699   4.307
10924TIP3    H132715   7.689   1.794   4.307
10924TIP3    H232716   7.611   1.665   4.294
10925TIP3   OH232717   2.859   7.287   5.288
10925TIP3    H132718   2.954   7.289   5.298
10925TIP3    H232719   2.844   7.245   5.204
10926TIP3   OH232720   3.222   6.055   3.680
10926TIP3    H132721   3.193   5.968   3.651
10926TIP3    H232722   3.150   6.113   3.656
10927TIP3   OH232723   8.110   2.871   6.025
10927TIP3    H132724   8.184   2.900   6.077
10927TIP3    H232725   8.146   2.803   5.968
10928TIP3   OH232726   6.746   3.409   5.413
10928TIP3    H132727   6.702   3.481   5.368
10928TIP3    H232728   6.686   3.335   5.405
10929TIP3   OH232729   0.183   3.247   6.238
10929TIP3    H132730   0.255   3.288   6.190
10929TIP3    H232731   0.110   3.249   6.177
10930TIP3   OH232732   8.059   7.443   2.744
10930TIP3    H132733   7.982   7.433   2.688
10930TIP3    H232734   8.070   7.357   2.785
10931TIP3   OH232735   3.138   5.248   5.229
10931TIP3    H132736   3.142   5.169   5.175
10931TIP3    H232737   3.147   5.217   5.319
10932TIP3   OH232738   4.418   6.056   0.243
10932TIP3    H132739   4.351   6.017   0.187
10932TIP3    H232740   4.409   6.150   0.230
10933TIP3   OH232741   1.354   6.068   5.379
10933TIP3    H132742   1.310   5.991   5.414
10933TIP3    H232743   1.309   6.142   5.419
10934TIP3   OH232744   6.878   5.618   4.654
10934TIP3    H132745   6.899   5.591   4.743
10934TIP3    H232746   6.963   5.636   4.614
10935TIP3   OH232747   1.463   0.982   4.590
10935TIP3    H132748   1.550   0.969   4.552
10935TIP3    H232749   1.436   1.068   4.558
10936TIP3   OH232750   6.498   4.226   2.534
10936TIP3    H132751   6.416   4.275   2.541
10936TIP3    H232752   6.526   4.240   2.444
10937TIP3   OH232753   2.315   0.058   4.520
10937TIP3    H132754   2.295   0.099   4.436
10937TIP3    H232755   2.333  -0.034   4.498
10938TIP3   OH232756   6.562   1.941   6.662
10938TIP3    H132757   6.534   2.000   6.592
10938TIP3    H232758   6.620   1.995   6.716
10939TIP3   OH232759   5.766   5.799   1.316
10939TIP3    H132760   5.770   5.705   1.333
10939TIP3    H232761   5.698   5.832   1.376
10940TIP3   OH232762   6.596   5.234   1.103
10940TIP3    H132763   6.691   5.236   1.087
10940TIP3    H232764   6.560   5.294   1.037
10941TIP3   OH232765   7.948   7.024   5.254
10941TIP3    H132766   7.902   6.994   5.333
10941TIP3    H232767   7.989   6.945   5.219
10942TIP3   OH232768   7.125   0.484   4.176
10942TIP3    H132769   7.219   0.498   4.167
10942TIP3    H232770   7.086   0.546   4.115
10943TIP3   OH232771   5.507   2.803   5.302
10943TIP3    H132772   5.549   2.824   5.385
10943TIP3    H232773   5.578   2.808   5.237
10944TIP3   OH232774   5.590   2.789   3.413
10944TIP3    H132775   5.629   2.720   3.467
10944TIP3    H232776   5.571   2.747   3.329
10945TIP3   OH232777   6.797   1.751   1.576
10945TIP3    H132778   6.711   1.761   1.617
10945TIP3    H232779   6.849   1.703   1.640
10946TIP3   OH232780   0.021   1.650   5.459
10946TIP3    H132781   0.037   1.563   5.495
10946TIP3    H232782   0.048   1.644   5.367
10947TIP3   OH232783   7.036   5.245   2.343
10947TIP3    H132784   6.942   5.239   2.327
10947TIP3    H232785   7.070   5.287   2.264
10948TIP3   OH232786   2.330   4.142   3.828
10948TIP3    H132787   2.348   4.166   3.919
10948TIP3    H232788   2.391   4.070   3.810
10949TIP3   OH232789   6.544   0.747   4.536
10949TIP3    H132790   6.567   0.819   4.595
10949TIP3    H232791   6.611   0.681   4.551
10950TIP3   OH232792   6.978   2.995   2.005
10950TIP3    H132793   6.951   3.084   1.985
10950TIP3    H232794   6.926   2.970   2.081
10951TIP3   OH232795   5.911   5.666   0.394
10951TIP3    H132796   5.876   5.710   0.471
10951TIP3    H232797   5.913   5.574   0.417
10952TIP3   OH232798   0.136   3.823   2.948
10952TIP3    H132799   0.060   3.881   2.941
10952TIP3    H232800   0.203   3.866   2.895
10953TIP3   OH232801   3.501   1.927   6.678
10953TIP3    H132802   3.561   1.893   6.612
10953TIP3    H232803   3.546   1.914   6.761
10954TIP3   OH232804   7.862   1.764   0.522
10954TIP3    H132805   7.826   1.764   0.433
10954TIP3    H232806   7.791   1.798   0.576
10955TIP3   OH232807   5.004   7.027   3.646
10955TIP3    H132808   5.022   7.077   3.566
10955TIP3    H232809   5.001   7.092   3.715
10956TIP3   OH232810   5.319   6.164   5.764
10956TIP3    H132811   5.371   6.232   5.807
10956TIP3    H232812   5.228   6.191   5.778
10957TIP3   OH232813   1.553   7.413   4.744
10957TIP3    H132814   1.648   7.404   4.743
10957TIP3    H232815   1.527   7.386   4.832
10958TIP3   OH232816   7.648   1.706   5.074
10958TIP3    H132817   7.726   1.652   5.084
10958TIP3    H232818   7.676   1.794   5.099
10959TIP3   OH232819   0.028   0.189   5.463
10959TIP3    H132820   0.066   0.107   5.433
10959TIP3    H232821  -0.060   0.166   5.493
10960TIP3   OH232822   7.943   5.192   4.583
10960TIP3    H132823   8.033   5.162   4.577
10960TIP3    H232824   7.891   5.124   4.541
10961TIP3   OH232825   6.713   7.280   3.390
10961TIP3    H132826   6.787   7.243   3.342
10961TIP3    H232827   6.693   7.216   3.458
10962TIP3   OH232828   0.213   7.002   6.375
10962TIP3    H132829   0.205   7.008   6.470
10962TIP3    H232830   0.287   6.942   6.361
10963TIP3   OH232831   8.077   0.964   6.069
10963TIP3    H132832   8.088   0.964   6.164
10963TIP3    H232833   8.048   1.053   6.048
10964TIP3   OH232834   6.752   3.742   2.967
10964TIP3    H132835   6.676   3.766   3.020
10964TIP3    H232836   6.764   3.649   2.982
10965TIP3   OH232837   3.590   4.701   4.292
10965TIP3    H132838   3.685   4.706   4.303
10965TIP3    H232839   3.574   4.734   4.204
10966TIP3   OH232840   0.939   5.370   6.393
10966TIP3    H132841   1.007   5.342   6.455
10966TIP3    H232842   0.925   5.293   6.338
10967TIP3   OH232843   7.445   7.488   1.988
10967TIP3    H132844   7.515   7.474   1.923
10967TIP3    H232845   7.454   7.580   2.012
10968TIP3   OH232846   6.396   5.608   4.394
10968TIP3    H132847   6.415   5.684   4.339
10968TIP3    H232848   6.475   5.597   4.448
10969TIP3   OH232849   6.845   2.556   5.675
10969TIP3    H132850   6.894   2.523   5.599
10969TIP3    H232851   6.754   2.536   5.654
10970TIP3   OH232852   3.961   4.193   2.766
10970TIP3    H132853   4.055   4.202   2.784
10970TIP3    H232854   3.956   4.179   2.671
10971TIP3   OH232855   3.229   1.170   3.943
10971TIP3    H132856   3.256   1.217   4.021
10971TIP3    H232857   3.311   1.139   3.904
10972TIP3   OH232858   8.165   2.132   2.039
10972TIP3    H132859   8.134   2.099   1.954
10972TIP3    H232860   8.252   2.168   2.020
10973TIP3   OH232861   0.932   6.466   2.854
10973TIP3    H132862   1.001   6.405   2.878
10973TIP3    H232863   0.917   6.451   2.760
10974TIP3   OH232864   7.157   2.352   1.287
10974TIP3    H132865   7.096   2.405   1.235
10974TIP3    H232866   7.109   2.273   1.308
10975TIP3   OH232867   4.431   7.135   5.036
10975TIP3    H132868   4.424   7.228   5.013
10975TIP3    H232869   4.519   7.110   5.009
10976TIP3   OH232870   1.128   3.686   0.917
10976TIP3    H132871   1.200   3.743   0.891
10976TIP3    H232872   1.068   3.687   0.843
10977TIP3   OH232873   3.539   1.282   0.198
10977TIP3    H132874   3.596   1.293   0.275
10977TIP3    H232875   3.597   1.299   0.123
10978TIP3   OH232876   1.739   5.737   6.365
10978TIP3    H132877   1.645   5.735   6.344
10978TIP3    H232878   1.742   5.755   6.459
10979TIP3   OH232879   0.939   6.302   0.682
10979TIP3    H132880   0.910   6.382   0.638
10979TIP3    H232881   0.924   6.232   0.619
10980TIP3   OH232882   6.615   2.263   5.706
10980TIP3    H132883   6.523   2.247   5.729
10980TIP3    H232884   6.661   2.264   5.789
10981TIP3   OH232885   6.341   1.743   1.233
10981TIP3    H132886   6.271   1.760   1.296
10981TIP3    H232887   6.363   1.651   1.245
10982TIP3   OH232888   7.046   1.972   2.970
10982TIP3    H132889   7.023   1.908   2.903
10982TIP3    H232890   7.035   1.925   3.053
10983TIP3   OH232891   7.015   5.122   5.945
10983TIP3    H132892   6.957   5.095   6.017
10983TIP3    H232893   6.967   5.100   5.866
10984TIP3   OH232894   7.271   6.241   4.645
10984TIP3    H132895   7.264   6.175   4.714
10984TIP3    H232896   7.195   6.298   4.659
10985TIP3   OH232897   4.621   4.673   3.831
10985TIP3    H132898   4.568   4.745   3.866
10985TIP3    H232899   4.640   4.619   3.907
10986TIP3   OH232900   6.953   4.420   1.973
10986TIP3    H132901   6.906   4.339   1.994
10986TIP3    H232902   6.973   4.412   1.880
10987TIP3   OH232903   5.481   4.566   5.535
10987TIP3    H132904   5.525   4.628   5.594
10987TIP3    H232905   5.552   4.532   5.480
10988TIP3   OH232906   6.865   6.356   1.941
10988TIP3    H132907   6.935   6.411   1.906
10988TIP3    H232908   6.788   6.377   1.889
10989TIP3   OH232909   8.065   6.481   3.319
10989TIP3    H132910   8.048   6.435   3.401
10989TIP3    H232911   8.031   6.423   3.251
10990TIP3   OH232912   6.412   1.236   1.754
10990TIP3    H132913   6.491   1.253   1.805
10990TIP3    H232914   6.362   1.318   1.759
10991TIP3   OH232915   3.720   3.033   0.113
10991TIP3    H132916   3.760   2.953   0.146
10991TIP3    H232917   3.776   3.060   0.040
10992TIP3   OH232918   4.144   4.776   1.982
10992TIP3    H132919   4.209   4.837   2.017
10992TIP3    H232920   4.144   4.793   1.888
10993TIP3   OH232921   4.851   7.665   6.624
10993TIP3    H132922   4.878   7.754   6.598
10993TIP3    H232923   4.872   7.611   6.548
10994TIP3   OH232924   6.402   0.909   4.265
10994TIP3    H132925   6.476   0.858   4.233
10994TIP3    H232926   6.441   0.992   4.295
10995TIP3   OH232927   4.767   0.904   2.109
10995TIP3    H132928   4.789   0.833   2.050
10995TIP3    H232929   4.672   0.914   2.102
10996TIP3   OH232930   5.429   1.963   3.546
10996TIP3    H132931   5.500   1.956   3.610
10996TIP3    H232932   5.382   1.880   3.552
10997TIP3   OH232933   1.242   7.229   5.945
10997TIP3    H132934   1.177   7.215   5.876
10997TIP3    H232935   1.326   7.237   5.898
10998TIP3   OH232936   7.450   6.848   1.701
10998TIP3    H132937   7.385   6.838   1.770
10998TIP3    H232938   7.500   6.767   1.702
10999TIP3   OH232939   7.420   4.438   3.629
10999TIP3    H132940   7.333   4.434   3.589
10999TIP3    H232941   7.475   4.478   3.562
11000TIP3   OH232942   7.299   2.336   5.847
11000TIP3    H132943   7.208   2.312   5.863
11000TIP3    H232944   7.346   2.304   5.924
11001TIP3   OH232945   0.446   6.514   1.524
11001TIP3    H132946   0.436   6.489   1.432
11001TIP3    H232947   0.434   6.433   1.573
11002TIP3   OH232948   3.802   5.522   0.821
11002TIP3    H132949   3.822   5.610   0.851
11002TIP3    H232950   3.832   5.521   0.730
11003TIP3   OH232951   1.478   4.081   6.337
11003TIP3    H132952   1.470   4.176   6.332
11003TIP3    H232953   1.559   4.062   6.289
11004TIP3   OH232954   0.335   4.349   5.404
11004TIP3    H132955   0.240   4.341   5.416
11004TIP3    H232956   0.371   4.342   5.492
11005TIP3   OH232957   3.201   6.333   4.728
11005TIP3    H132958   3.179   6.366   4.815
11005TIP3    H232959   3.296   6.320   4.731
11006TIP3   OH232960   6.586   0.561   0.248
11006TIP3    H132961   6.609   0.648   0.216
11006TIP3    H232962   6.660   0.506   0.224
11007TIP3   OH232963   3.697   6.267   0.243
11007TIP3    H132964   3.690   6.188   0.190
11007TIP3    H232965   3.607   6.301   0.247
11008TIP3   OH232966   7.505   1.721   1.300
11008TIP3    H132967   7.487   1.634   1.266
11008TIP3    H232968   7.600   1.724   1.311
11009TIP3   OH232969   4.984   3.192   6.447
11009TIP3    H132970   4.979   3.240   6.365
11009TIP3    H232971   4.952   3.105   6.427
11010TIP3   OH232972   1.793   3.058   6.129
11010TIP3    H132973   1.713   3.042   6.178
11010TIP3    H232974   1.846   2.980   6.143
11011TIP3   OH232975   2.289   4.307   3.215
11011TIP3    H132976   2.336   4.374   3.263
11011TIP3    H232977   2.272   4.345   3.129
11012TIP3   OH232978   0.698   3.758   4.340
11012TIP3    H132979   0.650   3.708   4.274
11012TIP3    H232980   0.642   3.754   4.418
11013TIP3   OH232981   7.254   4.897   0.045
11013TIP3    H132982   7.328   4.907   0.105
11013TIP3    H232983   7.294   4.867  -0.037
11014TIP3   OH232984   7.558   3.309   4.288
11014TIP3    H132985   7.488   3.256   4.327
11014TIP3    H232986   7.516   3.350   4.212
11015TIP3   OH232987   7.139   2.796   5.865
11015TIP3    H132988   7.159   2.740   5.940
11015TIP3    H232989   7.214   2.855   5.858
11016TIP3   OH232990   6.604   1.322   0.552
11016TIP3    H132991   6.518   1.282   0.542
11016TIP3    H232992   6.607   1.352   0.643
11017TIP3   OH232993   4.505   1.589   5.188
11017TIP3    H132994   4.454   1.625   5.116
11017TIP3    H232995   4.567   1.529   5.147
11018TIP3   OH232996   7.714   0.390   0.615
11018TIP3    H132997   7.728   0.299   0.641
11018TIP3    H232998   7.686   0.433   0.696
11019TIP3   OH232999   4.566   4.565   2.685
11019TIP3    H133000   4.475   4.577   2.711
11019TIP3    H233001   4.590   4.648   2.643
11020TIP3   OH233002   3.117   6.466   4.997
11020TIP3    H133003   3.155   6.389   5.041
11020TIP3    H233004   3.143   6.540   5.051
11021TIP3   OH233005   7.408   4.815   0.940
11021TIP3    H133006   7.463   4.833   1.017
11021TIP3    H233007   7.380   4.901   0.909
11022TIP3   OH233008   4.908   1.792   4.987
11022TIP3    H133009   4.932   1.837   4.906
11022TIP3    H233010   4.826   1.746   4.967
11023TIP3   OH233011   1.639   2.823   1.720
11023TIP3    H133012   1.567   2.878   1.751
11023TIP3    H233013   1.619   2.736   1.755
11024TIP3   OH233014   2.445   7.294   2.975
11024TIP3    H133015   2.482   7.259   2.894
11024TIP3    H233016   2.350   7.291   2.962
11025TIP3   OH233017   3.143   0.881   2.109
11025TIP3    H133018   3.133   0.968   2.146
11025TIP3    H233019   3.229   0.883   2.067
11026TIP3   OH233020   5.845   1.047   6.567
11026TIP3    H133021   5.817   0.962   6.602
11026TIP3    H233022   5.910   1.079   6.629
11027TIP3   OH233023   1.530   6.218   2.768
11027TIP3    H133024   1.454   6.257   2.811
11027TIP3    H233025   1.587   6.191   2.840
11028TIP3   OH233026   6.418   0.749   1.126
11028TIP3    H133027   6.332   0.789   1.109
11028TIP3    H233028   6.404   0.695   1.204
11029TIP3   OH233029   1.923   5.492   4.521
11029TIP3    H133030   1.830   5.491   4.498
11029TIP3    H233031   1.968   5.508   4.438
11030TIP3   OH233032   0.645   6.787   6.657
11030TIP3    H133033   0.681   6.820   6.739
11030TIP3    H233034   0.702   6.823   6.589
11031TIP3   OH233035   3.996   4.940   4.856
11031TIP3    H133036   3.950   4.930   4.773
11031TIP3    H233037   4.088   4.947   4.831
11032TIP3   OH233038   4.068   3.920   3.196
11032TIP3    H133039   4.128   3.846   3.203
11032TIP3    H233040   4.124   3.997   3.209
11033TIP3   OH233041   3.040   1.588   6.728
11033TIP3    H133042   3.112   1.651   6.720
11033TIP3    H233043   3.019   1.588   6.821
11034TIP3   OH233044   3.936   2.442   2.498
11034TIP3    H133045   3.910   2.457   2.407
11034TIP3    H233046   3.983   2.522   2.522
11035TIP3   OH233047   3.483   7.779   4.846
11035TIP3    H133048   3.493   7.802   4.938
11035TIP3    H233049   3.534   7.698   4.835
11036TIP3   OH233050   2.139   4.568   4.884
11036TIP3    H133051   2.099   4.654   4.897
11036TIP3    H233052   2.216   4.569   4.941
11037TIP3   OH233053   3.374   5.270   1.775
11037TIP3    H133054   3.286   5.237   1.758
11037TIP3    H233055   3.391   5.333   1.705
11038TIP3   OH233056   3.035   0.241   5.639
11038TIP3    H133057   3.020   0.328   5.600
11038TIP3    H233058   2.948   0.210   5.663
11039TIP3   OH233059   4.619   0.880   1.333
11039TIP3    H133060   4.611   0.796   1.379
11039TIP3    H233061   4.565   0.940   1.383
11040TIP3   OH233062   7.162   0.513   3.316
11040TIP3    H133063   7.227   0.490   3.381
11040TIP3    H233064   7.213   0.546   3.241
11041TIP3   OH233065   0.987   4.895   2.282
11041TIP3    H133066   1.038   4.852   2.350
11041TIP3    H233067   1.045   4.963   2.249
11042TIP3   OH233068   7.255   7.328   2.786
11042TIP3    H133069   7.260   7.295   2.695
11042TIP3    H233070   7.309   7.266   2.836
11043TIP3   OH233071   0.233   7.395   4.900
11043TIP3    H133072   0.293   7.462   4.867
11043TIP3    H233073   0.184   7.440   4.969
11044TIP3   OH233074   5.467   6.676   5.876
11044TIP3    H133075   5.553   6.687   5.835
11044TIP3    H233076   5.472   6.590   5.918
11045TIP3   OH233077   6.434   3.912   4.995
11045TIP3    H133078   6.434   3.964   4.915
11045TIP3    H233079   6.513   3.858   4.989
11046TIP3   OH233080   5.933   7.007   0.163
11046TIP3    H133081   5.995   6.937   0.143
11046TIP3    H233082   5.875   6.969   0.228
11047TIP3   OH233083   4.074   4.989   6.079
11047TIP3    H133084   4.038   4.999   5.991
11047TIP3    H233085   3.997   4.982   6.136
11048TIP3   OH233086   4.353   2.703   2.836
11048TIP3    H133087   4.259   2.724   2.835
11048TIP3    H233088   4.395   2.783   2.869
11049TIP3   OH233089   7.514   3.055   0.110
11049TIP3    H133090   7.592   3.003   0.132
11049TIP3    H233091   7.530   3.085   0.021
11050TIP3   OH233092   5.213   3.347   1.711
11050TIP3    H133093   5.260   3.406   1.770
11050TIP3    H233094   5.129   3.332   1.754
11051TIP3   OH233095   4.706   7.560   5.888
11051TIP3    H133096   4.764   7.499   5.933
11051TIP3    H233097   4.697   7.523   5.800
11052TIP3   OH233098   1.871   1.239   0.767
11052TIP3    H133099   1.817   1.163   0.743
11052TIP3    H233100   1.906   1.271   0.684
11053TIP3   OH233101   1.687   3.155   0.935
11053TIP3    H133102   1.719   3.238   0.970
11053TIP3    H233103   1.623   3.126   1.000
11054TIP3   OH233104   2.371   7.633   6.609
11054TIP3    H133105   2.299   7.648   6.547
11054TIP3    H233106   2.332   7.577   6.677
11055TIP3   OH233107   2.555   0.459   1.760
11055TIP3    H133108   2.512   0.472   1.844
11055TIP3    H233109   2.518   0.527   1.703
11056TIP3   OH233110   2.365   5.872   1.038
11056TIP3    H133111   2.292   5.810   1.047
11056TIP3    H233112   2.342   5.945   1.095
11057TIP3   OH233113   6.857   7.519   3.528
11057TIP3    H133114   6.840   7.451   3.463
11057TIP3    H233115   6.896   7.471   3.602
11058TIP3   OH233116   0.300   5.820   5.973
11058TIP3    H133117   0.285   5.827   5.879
11058TIP3    H233118   0.396   5.816   5.981
11059TIP3   OH233119   2.366   7.118   1.860
11059TIP3    H133120   2.372   7.026   1.833
11059TIP3    H233121   2.336   7.164   1.782
11060TIP3   OH233122   4.261   5.193   6.130
11060TIP3    H133123   4.274   5.177   6.223
11060TIP3    H233124   4.202   5.124   6.101
11061TIP3   OH233125   8.052   2.096   2.799
11061TIP3    H133126   8.085   2.106   2.710
11061TIP3    H233127   8.043   2.001   2.811
11062TIP3   OH233128   6.126   6.291   2.274
11062TIP3    H133129   6.070   6.328   2.207
11062TIP3    H233130   6.212   6.332   2.260
11063TIP3   OH233131   3.329   4.874   2.600
11063TIP3    H133132   3.328   4.969   2.612
11063TIP3    H233133   3.421   4.850   2.601
11064TIP3   OH233134   4.341   1.130   2.143
11064TIP3    H133135   4.276   1.084   2.090
11064TIP3    H233136   4.290   1.179   2.207
11065TIP3   OH233137   4.153   2.310   3.473
11065TIP3    H133138   4.231   2.364   3.485
11065TIP3    H233139   4.148   2.295   3.379
11066TIP3   OH233140   4.882   7.508   3.737
11066TIP3    H133141   4.957   7.514   3.795
11066TIP3    H233142   4.808   7.486   3.794
11067TIP3   OH233143   3.203   5.628   4.969
11067TIP3    H133144   3.176   5.593   5.055
11067TIP3    H233145   3.298   5.633   4.974
11068TIP3   OH233146   1.568   5.589   6.040
11068TIP3    H133147   1.473   5.595   6.048
11068TIP3    H233148   1.601   5.627   6.122
11069TIP3   OH233149   0.282   6.604   2.417
11069TIP3    H133150   0.260   6.563   2.500
11069TIP3    H233151   0.311   6.532   2.361
11070TIP3   OH233152   4.121   4.730   0.843
11070TIP3    H133153   4.165   4.768   0.919
11070TIP3    H233154   4.060   4.797   0.814
11071TIP3   OH233155   6.999   6.793   5.232
11071TIP3    H133156   7.070   6.738   5.265
11071TIP3    H233157   6.945   6.734   5.180
11072TIP3   OH233158   3.960   2.559   5.000
11072TIP3    H133159   3.890   2.560   4.935
11072TIP3    H233160   3.966   2.649   5.031
11073TIP3   OH233161   0.681   3.127   2.369
11073TIP3    H133162   0.756   3.102   2.314
11073TIP3    H233163   0.626   3.049   2.371
11074TIP3   OH233164   3.320   1.680   3.823
11074TIP3    H133165   3.384   1.627   3.871
11074TIP3    H233166   3.369   1.713   3.747
11075TIP3   OH233167   0.429   7.408   0.375
11075TIP3    H133168   0.482   7.363   0.441
11075TIP3    H233169   0.396   7.486   0.420
11076TIP3   OH233170   5.677   4.554   4.336
11076TIP3    H133171   5.674   4.625   4.273
11076TIP3    H233172   5.720   4.592   4.413
11077TIP3   OH233173   2.831   0.062   4.364
11077TIP3    H133174   2.784   0.145   4.357
11077TIP3    H233175   2.913   0.085   4.408
11078TIP3   OH233176   6.463   7.520   6.196
11078TIP3    H133177   6.457   7.468   6.116
11078TIP3    H233178   6.372   7.544   6.216
11079TIP3   OH233179   5.825   7.037   6.611
11079TIP3    H133180   5.759   7.034   6.542
11079TIP3    H233181   5.818   6.952   6.654
11080TIP3   OH233182   0.200   4.273   1.610
11080TIP3    H133183   0.139   4.294   1.680
11080TIP3    H233184   0.286   4.274   1.653
11081TIP3   OH233185   3.979   1.074   0.561
11081TIP3    H133186   3.900   1.028   0.591
11081TIP3    H233187   4.042   1.004   0.545
11082TIP3   OH233188   4.433   5.422   6.129
11082TIP3    H133189   4.406   5.337   6.093
11082TIP3    H233190   4.403   5.418   6.220
11083TIP3   OH233191   8.124   3.494   5.937
11083TIP3    H133192   8.207   3.489   5.984
11083TIP3    H233193   8.065   3.437   5.987
11084TIP3   OH233194   2.676   3.852   4.283
11084TIP3    H133195   2.626   3.794   4.341
11084TIP3    H233196   2.679   3.806   4.200
11085TIP3   OH233197   2.483   2.515   6.099
11085TIP3    H133198   2.440   2.580   6.155
11085TIP3    H233199   2.492   2.438   6.155
11086TIP3   OH233200   3.535   0.202   1.553
11086TIP3    H133201   3.619   0.212   1.510
11086TIP3    H233202   3.475   0.175   1.483
11087TIP3   OH233203   5.306   3.563   1.856
11087TIP3    H133204   5.358   3.643   1.851
11087TIP3    H233205   5.291   3.550   1.949
11088TIP3   OH233206   6.374   6.216   2.763
11088TIP3    H133207   6.455   6.246   2.803
11088TIP3    H233208   6.319   6.294   2.759
11089TIP3   OH233209   0.692   3.034   3.682
11089TIP3    H133210   0.730   3.014   3.596
11089TIP3    H233211   0.598   3.042   3.666
11090TIP3   OH233212   4.442   1.551   6.453
11090TIP3    H133213   4.461   1.620   6.516
11090TIP3    H233214   4.486   1.578   6.373
11091TIP3   OH233215   1.585   7.224   0.593
11091TIP3    H133216   1.618   7.147   0.546
11091TIP3    H233217   1.662   7.261   0.637
11092TIP3   OH233218   4.634   5.243   0.739
11092TIP3    H133219   4.592   5.328   0.730
11092TIP3    H233220   4.664   5.222   0.651
11093TIP3   OH233221   7.558   7.740   4.250
11093TIP3    H133222   7.545   7.672   4.184
11093TIP3    H233223   7.480   7.795   4.244
11094TIP3   OH233224   0.891   3.853   1.232
11094TIP3    H133225   0.900   3.948   1.220
11094TIP3    H233226   0.976   3.817   1.204
11095TIP3   OH233227   0.956   0.014   3.536
11095TIP3    H133228   1.050  -0.002   3.534
11095TIP3    H233229   0.940   0.074   3.463
11096TIP3   OH233230   6.360   7.035   6.044
11096TIP3    H133231   6.391   7.059   5.957
11096TIP3    H233232   6.289   7.097   6.061
11097TIP3   OH233233   6.946   0.690   2.415
11097TIP3    H133234   6.928   0.750   2.487
11097TIP3    H233235   6.922   0.739   2.336
11098TIP3   OH233236   2.848   7.340   2.844
11098TIP3    H133237   2.820   7.297   2.763
11098TIP3    H233238   2.842   7.433   2.825
11099TIP3   OH233239   8.312   3.180   5.142
11099TIP3    H133240   8.240   3.131   5.104
11099TIP3    H233241   8.348   3.122   5.209
11100TIP3   OH233242   4.470   4.205   3.108
11100TIP3    H133243   4.462   4.248   3.023
11100TIP3    H233244   4.533   4.259   3.156
11101TIP3   OH233245   6.111   1.930   3.662
11101TIP3    H133246   6.119   1.862   3.729
11101TIP3    H233247   6.128   1.883   3.579
11102TIP3   OH233248   3.748   3.519   4.757
11102TIP3    H133249   3.685   3.572   4.707
11102TIP3    H233250   3.694   3.458   4.807
11103TIP3   OH233251   2.460   1.166   0.308
11103TIP3    H133252   2.371   1.201   0.307
11103TIP3    H233253   2.467   1.117   0.226
11104TIP3   OH233254   1.188   5.352   4.556
11104TIP3    H133255   1.261   5.389   4.508
11104TIP3    H233256   1.199   5.257   4.548
11105TIP3   OH233257   5.502   3.909   2.312
11105TIP3    H133258   5.509   3.988   2.258
11105TIP3    H233259   5.433   3.930   2.376
11106TIP3   OH233260   3.172   2.226   6.242
11106TIP3    H133261   3.250   2.170   6.232
11106TIP3    H233262   3.113   2.174   6.296
11107TIP3   OH233263   7.188   7.292   4.518
11107TIP3    H133264   7.105   7.253   4.544
11107TIP3    H233265   7.176   7.314   4.426
11108TIP3   OH233266   0.444   6.703   1.202
11108TIP3    H133267   0.364   6.653   1.218
11108TIP3    H233268   0.418   6.769   1.139
11109TIP3   OH233269   4.534   6.457   1.316
11109TIP3    H133270   4.567   6.378   1.359
11109TIP3    H233271   4.504   6.427   1.230
11110TIP3   OH233272   1.822   2.935   6.536
11110TIP3    H133273   1.846   3.017   6.493
11110TIP3    H233274   1.906   2.889   6.548
11111TIP3   OH233275   4.622   3.178   5.418
11111TIP3    H133276   4.556   3.233   5.461
11111TIP3    H233277   4.602   3.185   5.325
11112TIP3   OH233278   7.355   6.819   2.256
11112TIP3    H133279   7.307   6.754   2.309
11112TIP3    H233280   7.306   6.900   2.268
11113TIP3   OH233281   4.500   7.554   5.505
11113TIP3    H133282   4.423   7.500   5.487
11113TIP3    H233283   4.509   7.609   5.427
11114TIP3   OH233284   2.164   0.327   4.088
11114TIP3    H133285   2.197   0.378   4.162
11114TIP3    H233286   2.241   0.282   4.054
11115TIP3   OH233287   6.600   3.572   6.284
11115TIP3    H133288   6.656   3.542   6.355
11115TIP3    H233289   6.639   3.655   6.255
11116TIP3   OH233290   0.405   5.100   0.026
11116TIP3    H133291   0.490   5.119   0.067
11116TIP3    H233292   0.342   5.112   0.097
11117TIP3   OH233293   5.012   7.642   5.909
11117TIP3    H133294   4.955   7.602   5.974
11117TIP3    H233295   5.007   7.584   5.833
11118TIP3   OH233296   2.963   3.857   3.254
11118TIP3    H133297   3.055   3.841   3.233
11118TIP3    H233298   2.935   3.922   3.190
11119TIP3   OH233299   7.769   6.861   6.002
11119TIP3    H133300   7.832   6.797   5.970
11119TIP3    H233301   7.806   6.946   5.977
11120TIP3   OH233302   3.090   2.007   2.498
11120TIP3    H133303   3.062   2.053   2.577
11120TIP3    H233304   3.010   1.972   2.460
11121TIP3   OH233305   6.331   7.377   0.347
11121TIP3    H133306   6.347   7.471   0.345
11121TIP3    H233307   6.316   7.353   0.255
11122TIP3   OH233308   2.243   2.504   3.417
11122TIP3    H133309   2.294   2.436   3.461
11122TIP3    H233310   2.157   2.499   3.457
11123TIP3   OH233311   3.821   0.705   2.053
11123TIP3    H133312   3.849   0.618   2.080
11123TIP3    H233313   3.808   0.699   1.958
11124TIP3   OH233314   6.007   3.134   1.036
11124TIP3    H133315   5.916   3.125   1.062
11124TIP3    H233316   6.057   3.112   1.115
11125TIP3   OH233317   3.313   5.164   1.462
11125TIP3    H133318   3.391   5.198   1.418
11125TIP3    H233319   3.246   5.162   1.394
11126TIP3   OH233320   4.807   0.968   0.005
11126TIP3    H133321   4.822   0.937   0.094
11126TIP3    H233322   4.890   1.008  -0.021
11127TIP3   OH233323   0.874   1.430   2.857
11127TIP3    H133324   0.946   1.459   2.914
11127TIP3    H233325   0.799   1.483   2.885
11128TIP3   OH233326   0.597   1.764   0.701
11128TIP3    H133327   0.678   1.720   0.725
11128TIP3    H233328   0.538   1.694   0.673
11129TIP3   OH233329   4.754   1.413   4.583
11129TIP3    H133330   4.673   1.461   4.599
11129TIP3    H233331   4.742   1.376   4.495
11130TIP3   OH233332   3.312   1.308   2.256
11130TIP3    H133333   3.358   1.282   2.336
11130TIP3    H233334   3.351   1.255   2.187
11131TIP3   OH233335   6.056   7.773   0.650
11131TIP3    H133336   6.062   7.813   0.564
11131TIP3    H233337   6.066   7.845   0.712
11132TIP3   OH233338   1.003   2.457   2.314
11132TIP3    H133339   1.098   2.446   2.317
11132TIP3    H233340   0.979   2.433   2.225
11133TIP3   OH233341   8.207   1.516   2.549
11133TIP3    H133342   8.233   1.564   2.470
11133TIP3    H233343   8.191   1.583   2.615
11134TIP3   OH233344   3.679   1.891   0.060
11134TIP3    H133345   3.642   1.919   0.144
11134TIP3    H233346   3.773   1.884   0.077
11135TIP3   OH233347   4.183   5.830   2.732
11135TIP3    H133348   4.269   5.867   2.754
11135TIP3    H233349   4.203   5.762   2.668
11136TIP3   OH233350   1.623   5.140   2.767
11136TIP3    H133351   1.678   5.219   2.760
11136TIP3    H233352   1.534   5.174   2.767
11137TIP3   OH233353   1.481   6.007   4.656
11137TIP3    H133354   1.550   6.072   4.644
11137TIP3    H233355   1.433   6.008   4.573
11138TIP3   OH233356   4.842   5.706   2.916
11138TIP3    H133357   4.925   5.719   2.869
11138TIP3    H233358   4.858   5.631   2.973
11139TIP3   OH233359   2.509   2.622   2.200
11139TIP3    H133360   2.499   2.662   2.286
11139TIP3    H233361   2.541   2.692   2.144
11140TIP3   OH233362   1.165   3.488   6.144
11140TIP3    H133363   1.129   3.402   6.167
11140TIP3    H233364   1.157   3.493   6.049
11141TIP3   OH233365   8.259   4.746   3.110
11141TIP3    H133366   8.232   4.752   3.018
11141TIP3    H233367   8.352   4.770   3.108
11142TIP3   OH233368   7.703   4.226   0.834
11142TIP3    H133369   7.650   4.254   0.908
11142TIP3    H233370   7.713   4.132   0.846
11143TIP3   OH233371   6.630   4.702   1.448
11143TIP3    H133372   6.559   4.661   1.497
11143TIP3    H233373   6.648   4.641   1.377
11144TIP3   OH233374   2.140   1.868   3.158
11144TIP3    H133375   2.139   1.955   3.118
11144TIP3    H233376   2.152   1.808   3.085
11145TIP3   OH233377   7.487   2.759   2.669
11145TIP3    H133378   7.557   2.753   2.604
11145TIP3    H233379   7.435   2.680   2.657
11146TIP3   OH233380   4.021   7.466   5.538
11146TIP3    H133381   3.986   7.385   5.576
11146TIP3    H233382   4.075   7.436   5.465
11147TIP3   OH233383   4.340   4.110   4.842
11147TIP3    H133384   4.417   4.053   4.832
11147TIP3    H233385   4.290   4.097   4.762
11148TIP3   OH233386   2.881   2.872   2.207
11148TIP3    H133387   2.957   2.906   2.254
11148TIP3    H233388   2.838   2.814   2.269
11149TIP3   OH233389   0.144   1.212   4.031
11149TIP3    H133390   0.172   1.178   3.946
11149TIP3    H233391   0.221   1.257   4.066
11150TIP3   OH233392   0.825   4.089   2.253
11150TIP3    H133393   0.776   4.162   2.291
11150TIP3    H233394   0.850   4.035   2.328
11151TIP3   OH233395   6.753   6.350   2.378
11151TIP3    H133396   6.783   6.307   2.298
11151TIP3    H233397   6.663   6.319   2.388
11152TIP3   OH233398   6.112   6.574   5.401
11152TIP3    H133399   6.110   6.669   5.417
11152TIP3    H233400   6.020   6.548   5.403
11153TIP3   OH233401   7.900   1.254   3.405
11153TIP3    H133402   7.927   1.185   3.466
11153TIP3    H233403   7.922   1.219   3.319
11154TIP3   OH233404   8.224   7.203   3.267
11154TIP3    H133405   8.304   7.245   3.297
11154TIP3    H233406   8.164   7.207   3.342
11155TIP3   OH233407   7.320   5.819   2.986
11155TIP3    H133408   7.356   5.759   2.921
11155TIP3    H233409   7.229   5.832   2.958
11156TIP3   OH233410   4.665   4.615   0.287
11156TIP3    H133411   4.601   4.646   0.351
11156TIP3    H233412   4.619   4.621   0.203
11157TIP3   OH233413   5.234   0.374   0.147
11157TIP3    H133414   5.173   0.341   0.081
11157TIP3    H233415   5.319   0.376   0.102
11158TIP3   OH233416   0.623   5.226   1.363
11158TIP3    H133417   0.568   5.279   1.306
11158TIP3    H233418   0.655   5.155   1.307
11159TIP3   OH233419   3.567   6.365   3.793
11159TIP3    H133420   3.484   6.337   3.833
11159TIP3    H233421   3.599   6.287   3.748
11160TIP3   OH233422  -0.021   4.078   4.448
11160TIP3    H133423   0.041   4.006   4.454
11160TIP3    H233424   0.031   4.156   4.466
11161TIP3   OH233425   1.936   2.465   5.212
11161TIP3    H133426   1.918   2.383   5.166
11161TIP3    H233427   1.907   2.533   5.152
11162TIP3   OH233428   6.522   6.934   1.266
11162TIP3    H133429   6.538   7.027   1.255
11162TIP3    H233430   6.428   6.926   1.279
11163TIP3   OH233431   7.576   2.568   1.705
11163TIP3    H133432   7.648   2.538   1.650
11163TIP3    H233433   7.589   2.662   1.712
11164TIP3   OH233434   4.178   4.468   1.002
11164TIP3    H133435   4.220   4.549   1.030
11164TIP3    H233436   4.250   4.410   0.977
11165TIP3   OH233437   1.175   6.327   1.410
11165TIP3    H133438   1.081   6.307   1.406
11165TIP3    H233439   1.183   6.412   1.367
11166TIP3   OH233440   3.987   5.706   3.877
11166TIP3    H133441   4.026   5.635   3.825
11166TIP3    H233442   3.893   5.697   3.863
11167TIP3   OH233443   5.217   5.253   5.965
11167TIP3    H133444   5.157   5.326   5.979
11167TIP3    H233445   5.304   5.294   5.964
11168TIP3   OH233446   2.769   0.151   5.943
11168TIP3    H133447   2.811   0.226   5.986
11168TIP3    H233448   2.840   0.106   5.897
11169TIP3   OH233449   7.555   6.346   6.154
11169TIP3    H133450   7.573   6.399   6.232
11169TIP3    H233451   7.622   6.371   6.092
11170TIP3   OH233452   6.710   5.110   4.615
11170TIP3    H133453   6.732   5.020   4.592
11170TIP3    H233454   6.694   5.107   4.709
11171TIP3   OH233455   0.270   4.032   5.303
11171TIP3    H133456   0.183   4.060   5.276
11171TIP3    H233457   0.326   4.108   5.288
11172TIP3   OH233458   4.364   6.987   4.112
11172TIP3    H133459   4.312   7.040   4.172
11172TIP3    H233460   4.334   7.013   4.025
11173TIP3   OH233461   4.709   0.256   4.983
11173TIP3    H133462   4.800   0.226   4.987
11173TIP3    H233463   4.657   0.177   4.972
11174TIP3   OH233464   6.738   0.279   4.325
11174TIP3    H133465   6.830   0.305   4.327
11174TIP3    H233466   6.733   0.203   4.385
11175TIP3   OH233467   8.160   0.169   1.772
11175TIP3    H133468   8.254   0.153   1.785
11175TIP3    H233469   8.155   0.209   1.685
11176TIP3   OH233470   6.841   4.585   2.700
11176TIP3    H133471   6.750   4.563   2.722
11176TIP3    H233472   6.836   4.622   2.613
11177TIP3   OH233473   2.044   2.871   1.867
11177TIP3    H133474   2.117   2.825   1.908
11177TIP3    H233475   2.055   2.856   1.774
11178TIP3   OH233476   3.173   4.892   2.076
11178TIP3    H133477   3.191   4.985   2.060
11178TIP3    H233478   3.257   4.856   2.105
11179TIP3   OH233479   0.883   3.907   1.737
11179TIP3    H133480   0.923   3.959   1.667
11179TIP3    H233481   0.868   3.970   1.808
11180TIP3   OH233482   8.168   5.096   3.133
11180TIP3    H133483   8.161   5.025   3.197
11180TIP3    H233484   8.195   5.172   3.185
11181TIP3   OH233485   2.468   5.672   3.803
11181TIP3    H133486   2.518   5.712   3.874
11181TIP3    H233487   2.487   5.726   3.726
11182TIP3   OH233488   4.219   6.923   6.087
11182TIP3    H133489   4.303   6.951   6.050
11182TIP3    H233490   4.159   6.923   6.013
11183TIP3   OH233491   2.211   0.514   4.639
11183TIP3    H133492   2.124   0.486   4.609
11183TIP3    H233493   2.270   0.445   4.608
11184TIP3   OH233494   2.821   6.825   0.650
11184TIP3    H133495   2.826   6.789   0.562
11184TIP3    H233496   2.823   6.920   0.638
11185TIP3   OH233497   3.076   5.317   3.625
11185TIP3    H133498   3.029   5.271   3.556
11185TIP3    H233499   3.045   5.407   3.619
11186TIP3   OH233500   4.076   4.477   2.674
11186TIP3    H133501   4.131   4.549   2.704
11186TIP3    H233502   4.001   4.476   2.733
11187TIP3   OH233503   2.718   3.577   1.368
11187TIP3    H133504   2.722   3.656   1.314
11187TIP3    H233505   2.808   3.543   1.369
11188TIP3   OH233506   1.937   5.979   3.092
11188TIP3    H133507   1.944   5.884   3.096
11188TIP3    H233508   1.984   6.009   3.171
11189TIP3   OH233509   7.402   5.535   4.876
11189TIP3    H133510   7.426   5.567   4.963
11189TIP3    H233511   7.347   5.459   4.893
11190TIP3   OH233512   4.385   6.302   0.147
11190TIP3    H133513   4.441   6.380   0.147
11190TIP3    H233514   4.311   6.326   0.203
11191TIP3   OH233515   4.349   5.898   3.657
11191TIP3    H133516   4.401   5.966   3.700
11191TIP3    H233517   4.385   5.816   3.690
11192TIP3   OH233518   2.840   4.312   5.362
11192TIP3    H133519   2.831   4.399   5.325
11192TIP3    H233520   2.793   4.255   5.302
11193TIP3   OH233521   2.424   7.427   1.766
11193TIP3    H133522   2.504   7.471   1.736
11193TIP3    H233523   2.397   7.373   1.692
11194TIP3   OH233524   0.963   3.099   3.059
11194TIP3    H133525   0.982   3.117   2.967
11194TIP3    H233526   1.040   3.131   3.107
11195TIP3   OH233527   0.109   2.866   0.805
11195TIP3    H133528   0.177   2.814   0.761
11195TIP3    H233529   0.157   2.919   0.869
11196TIP3   OH233530   6.451   5.431   3.375
11196TIP3    H133531   6.381   5.369   3.357
11196TIP3    H233532   6.407   5.517   3.375
11197TIP3   OH233533   6.793   3.662   2.190
11197TIP3    H133534   6.854   3.589   2.203
11197TIP3    H233535   6.846   3.741   2.203
11198TIP3   OH233536   5.844   3.788   1.450
11198TIP3    H133537   5.807   3.877   1.451
11198TIP3    H233538   5.768   3.731   1.440
11199TIP3   OH233539   4.527   7.172   4.375
11199TIP3    H133540   4.438   7.170   4.340
11199TIP3    H233541   4.516   7.154   4.468
11200TIP3   OH233542   4.736   0.769   0.208
11200TIP3    H133543   4.651   0.808   0.189
11200TIP3    H233544   4.722   0.675   0.196
11201TIP3   OH233545   2.222   3.613   5.789
11201TIP3    H133546   2.134   3.610   5.826
11201TIP3    H233547   2.252   3.521   5.790
11202TIP3   OH233548   0.660   7.452   4.421
11202TIP3    H133549   0.681   7.473   4.512
11202TIP3    H233550   0.564   7.453   4.418
11203TIP3   OH233551   5.595   3.649   1.084
11203TIP3    H133552   5.615   3.682   0.996
11203TIP3    H233553   5.504   3.619   1.078
11204TIP3   OH233554   6.547   2.112   1.866
11204TIP3    H133555   6.474   2.154   1.821
11204TIP3    H233556   6.621   2.124   1.806
11205TIP3   OH233557   3.352   1.105   0.411
11205TIP3    H133558   3.416   1.162   0.368
11205TIP3    H233559   3.398   1.022   0.423
11206TIP3   OH233560   1.075   7.456   3.895
11206TIP3    H133561   1.153   7.508   3.875
11206TIP3    H233562   1.053   7.412   3.813
11207TIP3   OH233563   0.190   5.312   5.833
11207TIP3    H133564   0.273   5.301   5.879
11207TIP3    H233565   0.187   5.405   5.811
11208TIP3   OH233566   0.267   4.472   0.118
11208TIP3    H133567   0.221   4.505   0.041
11208TIP3    H233568   0.337   4.535   0.135
11209TIP3   OH233569   3.233   3.845   3.179
11209TIP3    H133570   3.241   3.899   3.100
11209TIP3    H233571   3.319   3.850   3.219
11210TIP3   OH233572   5.110   2.290   0.842
11210TIP3    H133573   5.064   2.248   0.770
11210TIP3    H233574   5.201   2.298   0.811
11211TIP3   OH233575   0.402   4.037   0.623
11211TIP3    H133576   0.375   4.009   0.536
11211TIP3    H233577   0.322   4.036   0.675
11212TIP3   OH233578   4.525   6.297   1.101
11212TIP3    H133579   4.467   6.353   1.049
11212TIP3    H233580   4.485   6.210   1.097
11213TIP3   OH233581   1.817   6.636   5.173
11213TIP3    H133582   1.812   6.731   5.185
11213TIP3    H233583   1.817   6.600   5.262
11214TIP3   OH233584   4.476   7.385   4.979
11214TIP3    H133585   4.415   7.458   4.988
11214TIP3    H233586   4.548   7.421   4.927
11215TIP3   OH233587   5.189   7.600   1.434
11215TIP3    H133588   5.253   7.572   1.370
11215TIP3    H233589   5.120   7.642   1.383
11216TIP3   OH233590   6.093   1.994   3.011
11216TIP3    H133591   6.103   2.041   2.928
11216TIP3    H233592   6.175   2.009   3.056
11217TIP3   OH233593   5.555   1.888   4.493
11217TIP3    H133594   5.578   1.973   4.530
11217TIP3    H233595   5.614   1.826   4.536
11218TIP3   OH233596   6.683   7.444   1.947
11218TIP3    H133597   6.702   7.402   2.031
11218TIP3    H233598   6.705   7.377   1.882
11219TIP3   OH233599   6.620   7.225   0.729
11219TIP3    H133600   6.682   7.298   0.727
11219TIP3    H233601   6.543   7.258   0.682
11220TIP3   OH233602   3.666   4.467   6.165
11220TIP3    H133603   3.573   4.467   6.191
11220TIP3    H233604   3.713   4.448   6.246
11221TIP3   OH233605   2.792   3.949   5.860
11221TIP3    H133606   2.834   3.866   5.841
11221TIP3    H233607   2.765   3.983   5.775
11222TIP3   OH233608   1.394   3.626   3.999
11222TIP3    H133609   1.367   3.601   4.087
11222TIP3    H233610   1.475   3.577   3.984
11223TIP3   OH233611   3.085   6.495   1.009
11223TIP3    H133612   3.081   6.448   0.926
11223TIP3    H233613   3.022   6.450   1.065
11224TIP3   OH233614   1.396   4.224   0.204
11224TIP3    H133615   1.445   4.254   0.127
11224TIP3    H233616   1.357   4.141   0.176
11225TIP3   OH233617   6.308   6.900   0.351
11225TIP3    H133618   6.256   6.843   0.294
11225TIP3    H233619   6.399   6.875   0.334
11226TIP3   OH233620   3.970   0.316   3.320
11226TIP3    H133621   3.875   0.319   3.332
11226TIP3    H233622   3.998   0.239   3.370
11227TIP3   OH233623   5.153   5.583   4.048
11227TIP3    H133624   5.090   5.616   4.112
11227TIP3    H233625   5.126   5.493   4.032
11228TIP3   OH233626   6.681   4.486   1.831
11228TIP3    H133627   6.764   4.505   1.787
11228TIP3    H233628   6.681   4.391   1.841
11229TIP3   OH233629   5.359   0.551   4.022
11229TIP3    H133630   5.438   0.504   4.052
11229TIP3    H233631   5.287   0.508   4.069
11230TIP3   OH233632   4.384   5.753   3.104
11230TIP3    H133633   4.444   5.754   3.178
11230TIP3    H233634   4.439   5.773   3.028
11231TIP3   OH233635   4.188   5.954   2.249
11231TIP3    H133636   4.153   5.961   2.160
11231TIP3    H233637   4.114   5.975   2.306
11232TIP3   OH233638   1.160   6.534   6.616
11232TIP3    H133639   1.097   6.534   6.544
11232TIP3    H233640   1.238   6.493   6.579
11233TIP3   OH233641   2.256   3.401   5.008
11233TIP3    H133642   2.234   3.315   5.043
11233TIP3    H233643   2.352   3.404   5.009
11234TIP3   OH233644   0.562   7.229   0.534
11234TIP3    H133645   0.576   7.186   0.618
11234TIP3    H233646   0.646   7.269   0.513
11235TIP3   OH233647   0.691   6.353   5.727
11235TIP3    H133648   0.612   6.372   5.677
11235TIP3    H233649   0.751   6.425   5.706
11236TIP3   OH233650   2.046   5.217   5.205
11236TIP3    H133651   1.997   5.292   5.237
11236TIP3    H233652   1.990   5.142   5.225
11237TIP3   OH233653   2.931   6.440   3.712
11237TIP3    H133654   2.887   6.525   3.720
11237TIP3    H233655   2.957   6.418   3.801
11238TIP3   OH233656   3.324   1.577   2.211
11238TIP3    H133657   3.294   1.486   2.215
11238TIP3    H233658   3.267   1.624   2.272
11239TIP3   OH233659   0.212   0.324   0.396
11239TIP3    H133660   0.231   0.325   0.302
11239TIP3    H233661   0.289   0.283   0.435
11240TIP3   OH233662   3.160   0.478   2.316
11240TIP3    H133663   3.085   0.502   2.370
11240TIP3    H233664   3.125   0.470   2.228
11241TIP3   OH233665   7.433   1.936   0.832
11241TIP3    H133666   7.368   1.989   0.878
11241TIP3    H233667   7.381   1.874   0.781
11242TIP3   OH233668   7.912   6.723   0.585
11242TIP3    H133669   7.940   6.652   0.526
11242TIP3    H233670   7.817   6.717   0.586
11243TIP3   OH233671   2.608   2.738   4.282
11243TIP3    H133672   2.594   2.706   4.371
11243TIP3    H233673   2.522   2.772   4.255
11244TIP3   OH233674   0.020   7.390   1.678
11244TIP3    H133675  -0.046   7.321   1.675
11244TIP3    H233676   0.098   7.348   1.714
11245TIP3   OH233677   5.628   7.693   6.490
11245TIP3    H133678   5.590   7.779   6.505
11245TIP3    H233679   5.610   7.674   6.398
11246TIP3   OH233680   4.689   2.260   3.553
11246TIP3    H133681   4.669   2.186   3.496
11246TIP3    H233682   4.642   2.334   3.513
11247TIP3   OH233683   3.556   0.571   2.176
11247TIP3    H133684   3.628   0.625   2.209
11247TIP3    H233685   3.479   0.628   2.181
11248TIP3   OH233686   2.803   6.771   4.955
11248TIP3    H133687   2.756   6.810   4.881
11248TIP3    H233688   2.836   6.688   4.921
11249TIP3   OH233689   4.127   4.692   4.578
11249TIP3    H133690   4.060   4.661   4.517
11249TIP3    H233691   4.188   4.619   4.587
11250TIP3   OH233692   2.941   6.809   5.314
11250TIP3    H133693   2.916   6.862   5.239
11250TIP3    H233694   2.865   6.754   5.332
11251TIP3   OH233695   3.208   7.604   4.462
11251TIP3    H133696   3.166   7.672   4.515
11251TIP3    H233697   3.296   7.636   4.447
11252TIP3   OH233698   5.459   2.943   1.136
11252TIP3    H133699   5.540   2.903   1.103
11252TIP3    H233700   5.435   2.889   1.212
11253TIP3   OH233701   5.582   1.982   0.939
11253TIP3    H133702   5.492   1.950   0.939
11253TIP3    H233703   5.613   1.966   0.849
11254TIP3   OH233704   4.512   5.300   2.073
11254TIP3    H133705   4.503   5.208   2.050
11254TIP3    H233706   4.475   5.347   1.998
11255TIP3   OH233707   7.566   6.996   3.717
11255TIP3    H133708   7.524   7.004   3.803
11255TIP3    H233709   7.612   6.912   3.721
11256TIP3   OH233710   3.230   2.437   4.107
11256TIP3    H133711   3.207   2.379   4.034
11256TIP3    H233712   3.196   2.394   4.185
11257TIP3   OH233713   2.648   0.065   2.887
11257TIP3    H133714   2.726   0.120   2.889
11257TIP3    H233715   2.682  -0.025   2.890
11258TIP3   OH233716   2.556   2.158   1.345
11258TIP3    H133717   2.526   2.248   1.351
11258TIP3    H233718   2.562   2.128   1.436
11259TIP3   OH233719   0.353   3.153   2.233
11259TIP3    H133720   0.362   3.058   2.240
11259TIP3    H233721   0.438   3.182   2.200
11260TIP3   OH233722   6.631   3.035   4.660
11260TIP3    H133723   6.581   3.034   4.741
11260TIP3    H233724   6.709   3.086   4.680
11261TIP3   OH233725   4.083   0.604   5.227
11261TIP3    H133726   4.092   0.558   5.144
11261TIP3    H233727   3.991   0.632   5.229
11262TIP3   OH233728   7.903   3.339   6.009
11262TIP3    H133729   7.883   3.248   6.032
11262TIP3    H233730   7.871   3.349   5.919
11263TIP3   OH233731   5.229   4.809   1.176
11263TIP3    H133732   5.315   4.769   1.190
11263TIP3    H233733   5.239   4.860   1.095
11264TIP3   OH233734   5.524   1.489   3.079
11264TIP3    H133735   5.464   1.513   3.009
11264TIP3    H233736   5.492   1.536   3.156
11265TIP3   OH233737   5.170   7.369   3.268
11265TIP3    H133738   5.193   7.405   3.354
11265TIP3    H233739   5.076   7.349   3.275
11266TIP3   OH233740   0.276   0.431   1.931
11266TIP3    H133741   0.268   0.503   1.869
11266TIP3    H233742   0.341   0.373   1.893
11267TIP3   OH233743   4.237   7.120   0.683
11267TIP3    H133744   4.221   7.088   0.772
11267TIP3    H233745   4.272   7.045   0.636
11268TIP3   OH233746   7.529   4.226   5.032
11268TIP3    H133747   7.494   4.279   5.104
11268TIP3    H233748   7.598   4.279   4.994
11269TIP3   OH233749   6.452   1.097   0.212
11269TIP3    H133750   6.426   1.094   0.305
11269TIP3    H233751   6.475   1.007   0.192
11270TIP3   OH233752   0.245   3.899   2.008
11270TIP3    H133753   0.329   3.878   1.967
11270TIP3    H233754   0.179   3.866   1.946
11271TIP3   OH233755   6.933   2.235   6.539
11271TIP3    H133756   6.929   2.327   6.513
11271TIP3    H233757   6.843   2.204   6.531
11272TIP3   OH233758   2.846   5.662   4.156
11272TIP3    H133759   2.874   5.709   4.234
11272TIP3    H233760   2.925   5.616   4.126
11273TIP3   OH233761   7.053   1.534   2.732
11273TIP3    H133762   7.118   1.500   2.671
11273TIP3    H233763   7.099   1.538   2.816
11274TIP3   OH233764   6.975   5.459   3.432
11274TIP3    H133765   7.030   5.388   3.465
11274TIP3    H233766   6.931   5.494   3.509
11275TIP3   OH233767   7.017   6.818   4.770
11275TIP3    H133768   6.971   6.892   4.810
11275TIP3    H233769   6.947   6.762   4.735
11276TIP3   OH233770   0.815   6.405   2.606
11276TIP3    H133771   0.866   6.366   2.535
11276TIP3    H233772   0.783   6.488   2.570
11277TIP3   OH233773   1.752   0.444   2.181
11277TIP3    H133774   1.661   0.417   2.193
11277TIP3    H233775   1.764   0.450   2.086
11278TIP3   OH233776   1.344   0.361   1.361
11278TIP3    H133777   1.386   0.334   1.443
11278TIP3    H233778   1.374   0.296   1.297
11279TIP3   OH233779   4.901   7.771   2.582
11279TIP3    H133780   4.980   7.790   2.531
11279TIP3    H233781   4.900   7.837   2.651
11280TIP3   OH233782   2.777   5.903   3.209
11280TIP3    H133783   2.834   5.832   3.240
11280TIP3    H233784   2.723   5.926   3.284
11281TIP3   OH233785   1.720   1.849   4.668
11281TIP3    H133786   1.646   1.845   4.728
11281TIP3    H233787   1.730   1.759   4.637
11282TIP3   OH233788   1.638   6.040   5.445
11282TIP3    H133789   1.543   6.045   5.432
11282TIP3    H233790   1.652   5.956   5.487
11283TIP3   OH233791   6.760   4.123   6.257
11283TIP3    H133792   6.744   4.213   6.285
11283TIP3    H233793   6.708   4.113   6.177
11284TIP3   OH233794   6.023   0.124   5.240
11284TIP3    H133795   6.112   0.153   5.221
11284TIP3    H233796   5.999   0.172   5.320
11285TIP3   OH233797   0.842   1.671   0.742
11285TIP3    H133798   0.861   1.693   0.651
11285TIP3    H233799   0.914   1.613   0.767
11286TIP3   OH233800   0.883   0.696   6.234
11286TIP3    H133801   0.938   0.736   6.166
11286TIP3    H233802   0.904   0.603   6.231
11287TIP3   OH233803   5.925   2.516   3.417
11287TIP3    H133804   5.911   2.434   3.368
11287TIP3    H233805   5.971   2.573   3.355
11288TIP3   OH233806   0.456   2.987   4.312
11288TIP3    H133807   0.512   2.968   4.237
11288TIP3    H233808   0.496   3.064   4.353
11289TIP3   OH233809   0.451   4.536   5.827
11289TIP3    H133810   0.470   4.564   5.917
11289TIP3    H233811   0.394   4.605   5.793
11290TIP3   OH233812   5.970   7.523   1.688
11290TIP3    H133813   6.024   7.454   1.725
11290TIP3    H233814   6.026   7.566   1.623
11291TIP3   OH233815   5.887   4.978   4.694
11291TIP3    H133816   5.917   4.966   4.604
11291TIP3    H233817   5.826   5.052   4.689
11292TIP3   OH233818   0.306   1.822   4.067
11292TIP3    H133819   0.244   1.827   3.995
11292TIP3    H233820   0.299   1.731   4.098
11293TIP3   OH233821   3.744   0.433   2.390
11293TIP3    H133822   3.659   0.476   2.402
11293TIP3    H233823   3.770   0.406   2.478
11294TIP3   OH233824   4.251   3.250   0.482
11294TIP3    H133825   4.201   3.190   0.537
11294TIP3    H233826   4.185   3.307   0.442
11295TIP3   OH233827   6.885   1.419   1.303
11295TIP3    H133828   6.809   1.455   1.349
11295TIP3    H233829   6.928   1.495   1.263
11296TIP3   OH233830   5.773   2.083   4.252
11296TIP3    H133831   5.695   2.139   4.263
11296TIP3    H233832   5.754   2.006   4.307
11297TIP3   OH233833   6.789   7.425   5.618
11297TIP3    H133834   6.777   7.498   5.678
11297TIP3    H233835   6.876   7.439   5.579
11298TIP3   OH233836   7.081   3.638   6.109
11298TIP3    H133837   7.144   3.710   6.101
11298TIP3    H233838   7.023   3.648   6.034
11299TIP3   OH233839   0.339   0.284   6.591
11299TIP3    H133840   0.359   0.378   6.581
11299TIP3    H233841   0.294   0.260   6.509
11300TIP3   OH233842   4.808   4.083   0.716
11300TIP3    H133843   4.715   4.064   0.720
11300TIP3    H233844   4.818   4.166   0.762
11301TIP3   OH233845   0.577   0.358   1.922
11301TIP3    H133846   0.535   0.395   1.999
11301TIP3    H233847   0.649   0.417   1.902
11302TIP3   OH233848   0.377   2.511   6.776
11302TIP3    H133849   0.397   2.418   6.777
11302TIP3    H233850   0.428   2.546   6.703
11303TIP3   OH233851   3.851   7.546   0.220
11303TIP3    H133852   3.899   7.615   0.175
11303TIP3    H233853   3.875   7.465   0.175
11304TIP3   OH233854   3.274   5.483   4.325
11304TIP3    H133855   3.349   5.537   4.298
11304TIP3    H233856   3.250   5.516   4.411
11305TIP3   OH233857   5.179   2.675   4.359
11305TIP3    H133858   5.202   2.759   4.397
11305TIP3    H233859   5.255   2.651   4.305
11306TIP3   OH233860   3.903   4.757   3.049
11306TIP3    H133861   3.888   4.850   3.037
11306TIP3    H233862   3.976   4.752   3.110
11307TIP3   OH233863   3.951   7.309   1.536
11307TIP3    H133864   3.920   7.339   1.622
11307TIP3    H233865   4.033   7.357   1.523
11308TIP3   OH233866   0.450   2.571   5.511
11308TIP3    H133867   0.373   2.545   5.562
11308TIP3    H233868   0.438   2.664   5.495
11309TIP3   OH233869   0.487   6.666   3.293
11309TIP3    H133870   0.499   6.586   3.241
11309TIP3    H233871   0.485   6.736   3.227
11310TIP3   OH233872   6.794   3.728   1.572
11310TIP3    H133873   6.793   3.633   1.581
11310TIP3    H233874   6.717   3.748   1.519
11311TIP3   OH233875   5.230   5.276   3.645
11311TIP3    H133876   5.313   5.231   3.636
11311TIP3    H233877   5.210   5.307   3.557
11312TIP3   OH233878   7.624   6.690   6.724
11312TIP3    H133879   7.556   6.694   6.657
11312TIP3    H233880   7.620   6.776   6.767
11313TIP3   OH233881   6.275   5.430   6.500
11313TIP3    H133882   6.215   5.481   6.554
11313TIP3    H233883   6.287   5.348   6.547
11314TIP3   OH233884   0.218   0.192   6.372
11314TIP3    H133885   0.207   0.231   6.286
11314TIP3    H233886   0.129   0.191   6.409
11315TIP3   OH233887   7.340   3.067   6.106
11315TIP3    H133888   7.432   3.091   6.117
11315TIP3    H233889   7.309   3.126   6.038
11316TIP3   OH233890   0.659   7.343   0.880
11316TIP3    H133891   0.623   7.255   0.874
11316TIP3    H233892   0.585   7.397   0.910
11317TIP3   OH233893   4.961   3.061   3.958
11317TIP3    H133894   4.947   3.154   3.946
11317TIP3    H233895   5.038   3.041   3.905
11318TIP3   OH233896   4.412   4.403   0.462
11318TIP3    H133897   4.459   4.393   0.545
11318TIP3    H233898   4.354   4.327   0.458
11319TIP3   OH233899   4.734   5.290   3.933
11319TIP3    H133900   4.662   5.230   3.952
11319TIP3    H233901   4.811   5.233   3.926
11320TIP3   OH233902   7.608   7.685   2.168
11320TIP3    H133903   7.699   7.712   2.158
11320TIP3    H233904   7.613   7.594   2.198
11321TIP3   OH233905   5.570   5.954   5.952
11321TIP3    H133906   5.589   5.864   5.924
11321TIP3    H233907   5.483   5.949   5.990
11322TIP3   OH233908   5.325   2.514   0.689
11322TIP3    H133909   5.274   2.445   0.647
11322TIP3    H233910   5.374   2.469   0.758
11323TIP3   OH233911   8.069   6.359   3.571
11323TIP3    H133912   8.149   6.307   3.560
11323TIP3    H233913   8.078   6.400   3.657
11324TIP3   OH233914   3.187   6.819   6.767
11324TIP3    H133915   3.114   6.862   6.724
11324TIP3    H233916   3.258   6.821   6.703
11325TIP3   OH233917   6.469   5.993   0.445
11325TIP3    H133918   6.479   6.086   0.468
11325TIP3    H233919   6.507   5.946   0.520
11326TIP3   OH233920   4.488   1.340   3.007
11326TIP3    H133921   4.427   1.320   2.936
11326TIP3    H233922   4.535   1.258   3.022
11327TIP3   OH233923   7.738   1.690   6.462
11327TIP3    H133924   7.699   1.757   6.406
11327TIP3    H233925   7.665   1.638   6.494
11328TIP3   OH233926   3.448   7.243   3.048
11328TIP3    H133927   3.487   7.156   3.043
11328TIP3    H233928   3.387   7.238   3.122
11329TIP3   OH233929   7.315   1.338   4.163
11329TIP3    H133930   7.349   1.315   4.077
11329TIP3    H233931   7.376   1.404   4.197
11330TIP3   OH233932   3.177   6.854   0.138
11330TIP3    H133933   3.120   6.930   0.141
11330TIP3    H233934   3.261   6.887   0.107
11331TIP3   OH233935   5.836   7.476   3.063
11331TIP3    H133936   5.839   7.554   3.117
11331TIP3    H233937   5.744   7.468   3.038
11332TIP3   OH233938   2.464   0.601   6.744
11332TIP3    H133939   2.549   0.576   6.710
11332TIP3    H233940   2.462   0.697   6.737
11333TIP3   OH233941   5.946   2.029   0.698
11333TIP3    H133942   5.956   1.986   0.784
11333TIP3    H233943   6.034   2.026   0.660
11334TIP3   OH233944   3.609   2.132   6.204
11334TIP3    H133945   3.643   2.054   6.161
11334TIP3    H233946   3.556   2.175   6.137
11335TIP3   OH233947   0.590   6.597   6.083
11335TIP3    H133948   0.548   6.528   6.134
11335TIP3    H233949   0.677   6.562   6.061
11336TIP3   OH233950   6.756   2.170   1.683
11336TIP3    H133951   6.745   2.257   1.645
11336TIP3    H233952   6.736   2.110   1.611
11337TIP3   OH233953   3.399   0.236   3.557
11337TIP3    H133954   3.394   0.309   3.495
11337TIP3    H233955   3.449   0.169   3.511
11338TIP3   OH233956   4.012   3.571   5.362
11338TIP3    H133957   4.036   3.607   5.276
11338TIP3    H233958   4.014   3.476   5.350
11339TIP3   OH233959   6.652   3.841   0.086
11339TIP3    H133960   6.738   3.816   0.121
11339TIP3    H233961   6.671   3.915   0.028
11340TIP3   OH233962   6.648   3.837   0.706
11340TIP3    H133963   6.737   3.870   0.694
11340TIP3    H233964   6.623   3.804   0.619
11341TIP3   OH233965   5.341   1.112   2.411
11341TIP3    H133966   5.275   1.124   2.480
11341TIP3    H233967   5.375   1.200   2.395
11342TIP3   OH233968   4.188   4.873   1.077
11342TIP3    H133969   4.244   4.945   1.105
11342TIP3    H233970   4.221   4.797   1.126
11343TIP3   OH233971   0.327   7.321   1.181
11343TIP3    H133972   0.380   7.377   1.123
11343TIP3    H233973   0.388   7.296   1.251
11344TIP3   OH233974   7.431   1.465   2.860
11344TIP3    H133975   7.408   1.552   2.828
11344TIP3    H233976   7.417   1.407   2.785
11345TIP3   OH233977   6.336   4.134   6.668
11345TIP3    H133978   6.249   4.124   6.704
11345TIP3    H233979   6.388   4.065   6.709
11346TIP3   OH233980   5.050   7.294   1.487
11346TIP3    H133981   5.064   7.386   1.463
11346TIP3    H233982   4.980   7.264   1.429
11347TIP3   OH233983   5.393   5.334   1.884
11347TIP3    H133984   5.315   5.349   1.830
11347TIP3    H233985   5.425   5.422   1.903
11348TIP3   OH233986   7.785   6.456   0.717
11348TIP3    H133987   7.763   6.413   0.799
11348TIP3    H233988   7.786   6.549   0.738
11349TIP3   OH233989   2.993   3.501   1.397
11349TIP3    H133990   3.070   3.462   1.356
11349TIP3    H233991   2.950   3.428   1.441
11350TIP3   OH233992   2.062   4.268   4.846
11350TIP3    H133993   2.094   4.358   4.840
11350TIP3    H233994   1.967   4.277   4.857
11351TIP3   OH233995   3.001   2.661   1.027
11351TIP3    H133996   3.022   2.745   0.987
11351TIP3    H233997   2.923   2.631   0.979
11352TIP3   OH233998   5.638   5.689   5.882
11352TIP3    H133999   5.649   5.619   5.946
11352TIP3    H234000   5.726   5.706   5.850
11353TIP3   OH234001   8.072   5.256   2.146
11353TIP3    H134002   8.065   5.270   2.051
11353TIP3    H234003   7.982   5.260   2.178
11354TIP3   OH234004   2.707   2.977   3.183
11354TIP3    H134005   2.618   3.011   3.188
11354TIP3    H234006   2.698   2.883   3.203
11355TIP3   OH234007   6.432   1.664   0.565
11355TIP3    H134008   6.367   1.722   0.605
11355TIP3    H234009   6.384   1.583   0.548
11356TIP3   OH234010   4.760   7.657   1.170
11356TIP3    H134011   4.666   7.657   1.190
11356TIP3    H234012   4.764   7.639   1.076
11357TIP3   OH234013   2.348   1.150   5.442
11357TIP3    H134014   2.279   1.090   5.413
11357TIP3    H234015   2.430   1.102   5.425
11358TIP3   OH234016   6.451   5.058   0.590
11358TIP3    H134017   6.418   5.119   0.656
11358TIP3    H234018   6.398   5.075   0.513
11359TIP3   OH234019   3.470   1.504   0.666
11359TIP3    H134020   3.548   1.540   0.707
11359TIP3    H234021   3.502   1.454   0.591
11360TIP3   OH234022   6.442   5.157   5.988
11360TIP3    H134023   6.529   5.194   5.978
11360TIP3    H234024   6.418   5.178   6.078
11361TIP3   OH234025   4.592   6.698   5.966
11361TIP3    H134026   4.684   6.672   5.970
11361TIP3    H234027   4.552   6.658   6.043
11362TIP3   OH234028   5.666   5.600   4.688
11362TIP3    H134029   5.676   5.541   4.763
11362TIP3    H234030   5.752   5.602   4.647
11363TIP3   OH234031   3.592   4.791   6.329
11363TIP3    H134032   3.605   4.848   6.252
11363TIP3    H234033   3.503   4.758   6.320
11364TIP3   OH234034   5.260   0.420   2.662
11364TIP3    H134035   5.315   0.356   2.616
11364TIP3    H234036   5.320   0.466   2.721
11365TIP3   OH234037   8.118   7.039   5.706
11365TIP3    H134038   8.162   6.955   5.717
11365TIP3    H234039   8.082   7.058   5.793
11366TIP3   OH234040   1.940   1.525   2.186
11366TIP3    H134041   1.996   1.479   2.124
11366TIP3    H234042   1.888   1.584   2.131
11367TIP3   OH234043   7.835   7.386   3.094
11367TIP3    H134044   7.816   7.342   3.177
11367TIP3    H234045   7.867   7.317   3.036
11368TIP3   OH234046   6.485   4.522   0.511
11368TIP3    H134047   6.456   4.550   0.598
11368TIP3    H234048   6.407   4.484   0.471
11369TIP3   OH234049   2.633   0.380   6.538
11369TIP3    H134050   2.693   0.324   6.489
11369TIP3    H234051   2.670   0.468   6.530
11370TIP3   OH234052   6.259   2.701   6.698
11370TIP3    H134053   6.283   2.661   6.615
11370TIP3    H234054   6.336   2.688   6.754
11371TIP3   OH234055   7.351   5.059   5.038
11371TIP3    H134056   7.403   5.037   5.116
11371TIP3    H234057   7.360   5.154   5.030
11372TIP3   OH234058   2.197   0.121   1.166
11372TIP3    H134059   2.203   0.136   1.260
11372TIP3    H234060   2.116   0.071   1.155
11373TIP3   OH234061   7.005   3.460   5.376
11373TIP3    H134062   7.004   3.495   5.287
11373TIP3    H234063   6.913   3.438   5.394
11374TIP3   OH234064   6.827   1.468   5.858
11374TIP3    H134065   6.884   1.459   5.935
11374TIP3    H234066   6.739   1.476   5.894
11375TIP3   OH234067   1.344   6.129   6.106
11375TIP3    H134068   1.406   6.057   6.114
11375TIP3    H234069   1.287   6.104   6.033
11376TIP3   OH234070   1.398   2.012   5.351
11376TIP3    H134071   1.341   2.046   5.420
11376TIP3    H234072   1.368   2.056   5.272
11377TIP3   OH234073   5.880   5.852   1.806
11377TIP3    H134074   5.824   5.923   1.774
11377TIP3    H234075   5.933   5.827   1.730
11378TIP3   OH234076   2.097   3.618   0.723
11378TIP3    H134077   2.015   3.667   0.723
11378TIP3    H234078   2.076   3.537   0.770
11379TIP3   OH234079   7.411   2.970   1.658
11379TIP3    H134080   7.394   2.938   1.747
11379TIP3    H234081   7.504   2.953   1.644
11380TIP3   OH234082   3.804   6.381   3.073
11380TIP3    H134083   3.854   6.442   3.127
11380TIP3    H234084   3.864   6.308   3.056
11381TIP3   OH234085   3.431   2.769   0.280
11381TIP3    H134086   3.473   2.746   0.198
11381TIP3    H234087   3.486   2.730   0.348
11382TIP3   OH234088   7.318   7.362   6.682
11382TIP3    H134089   7.242   7.388   6.629
11382TIP3    H234090   7.281   7.327   6.762
11383TIP3   OH234091   6.202   1.821   4.887
11383TIP3    H134092   6.251   1.743   4.914
11383TIP3    H234093   6.233   1.839   4.798
11384TIP3   OH234094   2.505   3.522   6.462
11384TIP3    H134095   2.539   3.575   6.390
11384TIP3    H234096   2.413   3.547   6.468
11385TIP3   OH234097   0.117   1.869   3.854
11385TIP3    H134098   0.111   1.956   3.814
11385TIP3    H234099   0.172   1.819   3.793
11386TIP3   OH234100   5.222   6.048   2.567
11386TIP3    H134101   5.222   6.093   2.482
11386TIP3    H234102   5.136   6.006   2.571
11387TIP3   OH234103   0.068   2.364   3.618
11387TIP3    H134104   0.046   2.315   3.539
11387TIP3    H234105   0.127   2.433   3.588
11388TIP3   OH234106   2.293   6.901   3.974
11388TIP3    H134107   2.380   6.911   4.012
11388TIP3    H234108   2.261   6.818   4.009
11389TIP3   OH234109   7.997   3.664   6.446
11389TIP3    H134110   7.975   3.597   6.511
11389TIP3    H234111   7.997   3.617   6.362
11390TIP3   OH234112   5.026   0.088   4.326
11390TIP3    H134113   4.977   0.165   4.355
11390TIP3    H234114   5.011   0.022   4.394
11391TIP3   OH234115   7.213   5.970   5.149
11391TIP3    H134116   7.269   5.996   5.222
11391TIP3    H234117   7.239   5.879   5.130
11392TIP3   OH234118   3.109   5.926   5.513
11392TIP3    H134119   3.020   5.955   5.492
11392TIP3    H234120   3.115   5.839   5.472
11393TIP3   OH234121   0.429   1.506   0.664
11393TIP3    H134122   0.388   1.590   0.644
11393TIP3    H234123   0.413   1.452   0.586
11394TIP3   OH234124   6.054   0.504   3.489
11394TIP3    H134125   6.066   0.575   3.427
11394TIP3    H234126   6.067   0.424   3.436
11395TIP3   OH234127   6.158   4.771   2.787
11395TIP3    H134128   6.190   4.782   2.877
11395TIP3    H234129   6.084   4.710   2.796
11396TIP3   OH234130   5.842   3.912   5.973
11396TIP3    H134131   5.750   3.937   5.979
11396TIP3    H234132   5.868   3.894   6.063
11397TIP3   OH234133   3.409   0.424   3.993
11397TIP3    H134134   3.410   0.335   4.030
11397TIP3    H234135   3.450   0.415   3.907
11398TIP3   OH234136   2.707   7.295   0.444
11398TIP3    H134137   2.742   7.383   0.460
11398TIP3    H234138   2.649   7.305   0.368
11399TIP3   OH234139   8.094   4.937   0.754
11399TIP3    H134140   8.106   4.973   0.842
11399TIP3    H234141   8.176   4.957   0.709
11400TIP3   OH234142   1.670   0.982   3.605
11400TIP3    H134143   1.715   0.899   3.587
11400TIP3    H234144   1.677   0.993   3.700
11401TIP3   OH234145   1.115   0.186   6.692
11401TIP3    H134146   1.204   0.212   6.715
11401TIP3    H234147   1.078   0.265   6.651
11402TIP3   OH234148   6.261   7.172   3.261
11402TIP3    H134149   6.225   7.260   3.260
11402TIP3    H234150   6.279   7.154   3.353
11403TIP3   OH234151   0.791   4.352   0.545
11403TIP3    H134152   0.715   4.322   0.593
11403TIP3    H234153   0.764   4.350   0.453
11404TIP3   OH234154   1.688   0.082   1.911
11404TIP3    H134155   1.766   0.036   1.942
11404TIP3    H234156   1.683   0.062   1.818
11405TIP3   OH234157   0.508   0.591   3.306
11405TIP3    H134158   0.418   0.558   3.298
11405TIP3    H234159   0.563   0.516   3.282
11406TIP3   OH234160   4.172   0.387   3.956
11406TIP3    H134161   4.189   0.296   3.981
11406TIP3    H234162   4.081   0.387   3.927
11407TIP3   OH234163   1.319   1.489   5.353
11407TIP3    H134164   1.240   1.542   5.340
11407TIP3    H234165   1.369   1.536   5.420
11408TIP3   OH234166   0.495   0.925   1.182
11408TIP3    H134167   0.581   0.919   1.140
11408TIP3    H234168   0.444   0.982   1.125
11409TIP3   OH234169   2.060   5.516   0.193
11409TIP3    H134170   1.999   5.502   0.266
11409TIP3    H234171   2.008   5.562   0.127
11410TIP3   OH234172   2.358   7.617   2.428
11410TIP3    H134173   2.267   7.646   2.437
11410TIP3    H234174   2.357   7.524   2.452
11411TIP3   OH234175   6.910   5.568   1.269
11411TIP3    H134176   6.929   5.615   1.350
11411TIP3    H234177   6.986   5.511   1.256
11412TIP3   OH234178   5.423   0.419   6.634
11412TIP3    H134179   5.446   0.398   6.724
11412TIP3    H234180   5.460   0.506   6.619
11413TIP3   OH234181   1.393   6.511   6.450
11413TIP3    H134182   1.454   6.467   6.391
11413TIP3    H234183   1.332   6.557   6.392
11414TIP3   OH234184   0.438   7.243   2.725
11414TIP3    H134185   0.434   7.238   2.820
11414TIP3    H234186   0.488   7.166   2.698
11415TIP3   OH234187   3.052   6.043   4.810
11415TIP3    H134188   3.014   6.044   4.898
11415TIP3    H234189   3.078   5.952   4.796
11416TIP3   OH234190   2.569   1.252   1.057
11416TIP3    H134191   2.511   1.177   1.065
11416TIP3    H234192   2.624   1.233   0.981
11417TIP3   OH234193   2.275   1.637   0.985
11417TIP3    H134194   2.370   1.631   0.983
11417TIP3    H234195   2.248   1.622   0.894
11418TIP3   OH234196   7.818   3.691   5.200
11418TIP3    H134197   7.832   3.674   5.107
11418TIP3    H234198   7.828   3.786   5.209
11419TIP3   OH234199   3.710   2.770   5.997
11419TIP3    H134200   3.709   2.691   5.944
11419TIP3    H234201   3.700   2.842   5.934
11420TIP3   OH234202   4.133   1.549   3.740
11420TIP3    H134203   4.095   1.492   3.673
11420TIP3    H234204   4.143   1.634   3.696
11421TIP3   OH234205   2.799   4.334   6.413
11421TIP3    H134206   2.785   4.258   6.357
11421TIP3    H234207   2.823   4.405   6.353
11422TIP3   OH234208   4.726   3.061   0.837
11422TIP3    H134209   4.746   3.154   0.847
11422TIP3    H234210   4.662   3.058   0.765
11423TIP3   OH234211   3.737   0.491   3.913
11423TIP3    H134212   3.790   0.415   3.936
11423TIP3    H234213   3.665   0.456   3.860
11424TIP3   OH234214   0.739   2.211   2.112
11424TIP3    H134215   0.667   2.274   2.113
11424TIP3    H234216   0.812   2.259   2.073
11425TIP3   OH234217   3.192   5.273   5.777
11425TIP3    H134218   3.187   5.178   5.761
11425TIP3    H234219   3.273   5.285   5.827
11426TIP3   OH234220   4.545   6.304   6.294
11426TIP3    H134221   4.475   6.260   6.342
11426TIP3    H234222   4.524   6.289   6.202
11427TIP3   OH234223   5.656   0.295   1.748
11427TIP3    H134224   5.599   0.219   1.733
11427TIP3    H234225   5.614   0.366   1.699
11428TIP3   OH234226   5.126   4.935   1.406
11428TIP3    H134227   5.154   4.904   1.320
11428TIP3    H234228   5.204   4.929   1.460
11429TIP3   OH234229   5.536   7.809   0.290
11429TIP3    H134230   5.569   7.898   0.286
11429TIP3    H234231   5.544   7.776   0.200
11430TIP3   OH234232   8.018   4.100   4.860
11430TIP3    H134233   8.080   4.133   4.925
11430TIP3    H234234   8.038   4.150   4.781
11431TIP3   OH234235   0.275   3.810   5.491
11431TIP3    H134236   0.250   3.856   5.411
11431TIP3    H234237   0.264   3.717   5.470
11432TIP3   OH234238   3.465   5.137   2.111
11432TIP3    H134239   3.439   5.055   2.154
11432TIP3    H234240   3.552   5.156   2.147
11433TIP3   OH234241   3.206   1.299   1.479
11433TIP3    H134242   3.239   1.366   1.538
11433TIP3    H234243   3.276   1.287   1.414
11434TIP3   OH234244   5.846   3.971   2.213
11434TIP3    H134245   5.811   4.045   2.264
11434TIP3    H234246   5.938   3.993   2.200
11435TIP3   OH234247   1.983   0.196   0.811
11435TIP3    H134248   1.996   0.146   0.891
11435TIP3    H234249   1.924   0.142   0.759
11436TIP3   OH234250   6.709   1.849   4.898
11436TIP3    H134251   6.729   1.935   4.935
11436TIP3    H234252   6.676   1.798   4.972
11437TIP3   OH234253   0.800   0.899   4.906
11437TIP3    H134254   0.804   0.957   4.982
11437TIP3    H234255   0.740   0.829   4.932
11438TIP3   OH234256   5.321   3.086   2.028
11438TIP3    H134257   5.401   3.137   2.016
11438TIP3    H234258   5.351   3.001   2.058
11439TIP3   OH234259   4.555   3.950   6.398
11439TIP3    H134260   4.494   4.011   6.356
11439TIP3    H234261   4.562   3.877   6.336
11440TIP3   OH234262   7.960   7.244   1.022
11440TIP3    H134263   7.930   7.323   0.977
11440TIP3    H234264   8.051   7.263   1.046
11441TIP3   OH234265   0.397   0.827   2.987
11441TIP3    H134266   0.334   0.888   3.026
11441TIP3    H234267   0.472   0.881   2.966
11442TIP3   OH234268   0.576   4.875   6.701
11442TIP3    H134269   0.598   4.788   6.736
11442TIP3    H234270   0.642   4.891   6.635
11443TIP3   OH234271   4.572   0.417   6.202
11443TIP3    H134272   4.547   0.503   6.168
11443TIP3    H234273   4.610   0.371   6.127
11444TIP3   OH234274   2.573   3.502   3.058
11444TIP3    H134275   2.545   3.572   3.118
11444TIP3    H234276   2.660   3.477   3.089
11445TIP3   OH234277   5.814   1.532   4.762
11445TIP3    H134278   5.853   1.592   4.825
11445TIP3    H234279   5.774   1.463   4.816
11446TIP3   OH234280   4.907   2.850   5.818
11446TIP3    H134281   4.938   2.910   5.749
11446TIP3    H234282   4.936   2.763   5.789
11447TIP3   OH234283   1.601   0.706   0.687
11447TIP3    H134284   1.661   0.706   0.762
11447TIP3    H234285   1.552   0.624   0.695
11448TIP3   OH234286   8.168   3.453   3.401
11448TIP3    H134287   8.209   3.393   3.463
11448TIP3    H234288   8.221   3.532   3.405
11449TIP3   OH234289   6.762   0.956   4.390
11449TIP3    H134290   6.726   0.990   4.471
11449TIP3    H234291   6.710   0.998   4.321
11450TIP3   OH234292   0.903   7.203   6.118
11450TIP3    H134293   0.913   7.125   6.173
11450TIP3    H234294   0.819   7.241   6.145
11451TIP3   OH234295   5.473   7.307   3.796
11451TIP3    H134296   5.549   7.275   3.748
11451TIP3    H234297   5.510   7.353   3.872
11452TIP3   OH234298   0.914   3.689   2.076
11452TIP3    H134299   0.835   3.644   2.044
11452TIP3    H234300   0.895   3.706   2.168
11453TIP3   OH234301   4.939   6.437   1.773
11453TIP3    H134302   4.906   6.348   1.761
11453TIP3    H234303   4.885   6.473   1.844
11454TIP3   OH234304   4.997   5.766   5.231
11454TIP3    H134305   4.922   5.706   5.227
11454TIP3    H234306   5.073   5.709   5.244
11455TIP3   OH234307   0.710   3.140   6.338
11455TIP3    H134308   0.771   3.213   6.326
11455TIP3    H234309   0.766   3.063   6.347
11456TIP3   OH234310   3.755   1.740   3.147
11456TIP3    H134311   3.775   1.662   3.095
11456TIP3    H234312   3.689   1.787   3.096
11457TIP3   OH234313   2.371   5.789   1.405
11457TIP3    H134314   2.283   5.771   1.438
11457TIP3    H234315   2.409   5.848   1.470
11458TIP3   OH234316   1.009   4.200   2.881
11458TIP3    H134317   1.092   4.234   2.915
11458TIP3    H234318   0.990   4.123   2.934
11459TIP3   OH234319   8.212   3.043   2.062
11459TIP3    H134320   8.210   3.109   2.132
11459TIP3    H234321   8.264   2.972   2.098
11460TIP3   OH234322   0.843   6.527   0.523
11460TIP3    H134323   0.858   6.556   0.433
11460TIP3    H234324   0.893   6.588   0.576
11461TIP3   OH234325   5.154   0.714   0.692
11461TIP3    H134326   5.066   0.701   0.657
11461TIP3    H234327   5.196   0.628   0.686
11462TIP3   OH234328   5.748   3.956   1.947
11462TIP3    H134329   5.660   3.981   1.977
11462TIP3    H234330   5.806   4.021   1.985
11463TIP3   OH234331   0.456   1.889   2.628
11463TIP3    H134332   0.443   1.843   2.711
11463TIP3    H234333   0.517   1.834   2.579
11464TIP3   OH234334   0.111   5.799   3.632
11464TIP3    H134335   0.141   5.883   3.665
11464TIP3    H234336   0.188   5.761   3.590
11465TIP3   OH234337   4.466   2.945   1.202
11465TIP3    H134338   4.499   3.027   1.240
11465TIP3    H234339   4.544   2.892   1.187
11466TIP3   OH234340   3.433   4.973   5.389
11466TIP3    H134341   3.431   4.917   5.312
11466TIP3    H234342   3.502   5.037   5.370
11467TIP3   OH234343   6.082   5.110   2.305
11467TIP3    H134344   6.033   5.183   2.343
11467TIP3    H234345   6.122   5.065   2.379
11468TIP3   OH234346   0.766   3.718   4.919
11468TIP3    H134347   0.712   3.640   4.930
11468TIP3    H234348   0.709   3.791   4.941
11469TIP3   OH234349   1.325   4.269   5.283
11469TIP3    H134350   1.336   4.176   5.262
11469TIP3    H234351   1.415   4.302   5.292
11470TIP3   OH234352   5.265   3.204   4.072
11470TIP3    H134353   5.253   3.280   4.014
11470TIP3    H234354   5.180   3.159   4.070
11471TIP3   OH234355   4.200   4.428   5.726
11471TIP3    H134356   4.189   4.484   5.649
11471TIP3    H234357   4.139   4.355   5.712
11472TIP3   OH234358   1.881   1.518   1.008
11472TIP3    H134359   1.947   1.568   0.961
11472TIP3    H234360   1.924   1.490   1.089
11473TIP3   OH234361   8.095   5.736   6.507
11473TIP3    H134362   8.109   5.749   6.413
11473TIP3    H234363   8.038   5.808   6.532
11474TIP3   OH234364   2.914   7.065   2.940
11474TIP3    H134365   2.913   7.018   2.856
11474TIP3    H234366   2.884   7.153   2.918
11475TIP3   OH234367   4.652   2.643   6.007
11475TIP3    H134368   4.615   2.629   5.920
11475TIP3    H234369   4.576   2.640   6.066
11476TIP3   OH234370   3.524   1.142   6.504
11476TIP3    H134371   3.530   1.226   6.550
11476TIP3    H234372   3.434   1.140   6.471
11477TIP3   OH234373   6.270   1.490   1.628
11477TIP3    H134374   6.208   1.441   1.681
11477TIP3    H234375   6.241   1.476   1.538
11478TIP3   OH234376   2.612   3.850   1.525
11478TIP3    H134377   2.528   3.818   1.492
11478TIP3    H234378   2.673   3.778   1.509
11479TIP3   OH234379   5.891   4.279   5.314
11479TIP3    H134380   5.930   4.362   5.286
11479TIP3    H234381   5.960   4.236   5.365
11480TIP3   OH234382   0.350   4.547   4.067
11480TIP3    H134383   0.408   4.501   4.128
11480TIP3    H234384   0.409   4.591   4.007
11481TIP3   OH234385   2.032   2.017   2.110
11481TIP3    H134386   1.993   2.103   2.097
11481TIP3    H234387   1.957   1.957   2.117
11482TIP3   OH234388   7.296   6.771   4.762
11482TIP3    H134389   7.267   6.689   4.802
11482TIP3    H234390   7.218   6.827   4.765
11483TIP3   OH234391   6.060   0.740   4.367
11483TIP3    H134392   6.032   0.799   4.297
11483TIP3    H234393   6.049   0.652   4.330
11484TIP3   OH234394   0.296   2.681   4.032
11484TIP3    H134395   0.367   2.728   3.989
11484TIP3    H234396   0.335   2.597   4.056
11485TIP3   OH234397   5.190   7.743   5.374
11485TIP3    H134398   5.097   7.724   5.362
11485TIP3    H234399   5.199   7.755   5.468
11486TIP3   OH234400   3.905   7.455   1.782
11486TIP3    H134401   3.847   7.473   1.856
11486TIP3    H234402   3.990   7.435   1.821
11487TIP3   OH234403   3.813   3.539   2.872
11487TIP3    H134404   3.889   3.572   2.920
11487TIP3    H234405   3.849   3.505   2.791
11488TIP3   OH234406   5.154   1.126   6.309
11488TIP3    H134407   5.135   1.114   6.402
11488TIP3    H234408   5.189   1.042   6.280
11489TIP3   OH234409   6.653   1.181   0.851
11489TIP3    H134410   6.669   1.276   0.853
11489TIP3    H234411   6.693   1.149   0.932
11490TIP3   OH234412   3.078   6.595   2.820
11490TIP3    H134413   3.171   6.574   2.810
11490TIP3    H234414   3.077   6.686   2.848
11491TIP3   OH234415   6.260   1.001   5.932
11491TIP3    H134416   6.329   1.067   5.941
11491TIP3    H234417   6.206   1.011   6.010
11492TIP3   OH234418   0.564   4.965   3.053
11492TIP3    H134419   0.469   4.979   3.051
11492TIP3    H234420   0.575   4.886   3.106
11493TIP3   OH234421   7.260   5.402   1.493
11493TIP3    H134422   7.323   5.331   1.483
11493TIP3    H234423   7.230   5.393   1.584
11494TIP3   OH234424   1.750   0.875   1.311
11494TIP3    H134425   1.703   0.932   1.249
11494TIP3    H234426   1.841   0.880   1.283
11495TIP3   OH234427   2.979   3.012   3.970
11495TIP3    H134428   2.938   2.997   3.884
11495TIP3    H234429   2.959   3.104   3.991
11496TIP3   OH234430   4.467   5.375   1.169
11496TIP3    H134431   4.393   5.334   1.215
11496TIP3    H234432   4.543   5.324   1.195
11497TIP3   OH234433   6.435   2.629   3.204
11497TIP3    H134434   6.518   2.587   3.181
11497TIP3    H234435   6.460   2.716   3.235
11498TIP3   OH234436   7.502   7.822   1.953
11498TIP3    H134437   7.585   7.855   1.918
11498TIP3    H234438   7.525   7.787   2.039
11499TIP3   OH234439   7.602   0.762   1.536
11499TIP3    H134440   7.696   0.778   1.527
11499TIP3    H234441   7.587   0.757   1.630
11500TIP3   OH234442   8.162   5.962   2.608
11500TIP3    H134443   8.159   5.917   2.524
11500TIP3    H234444   8.140   6.053   2.588
11501TIP3   OH234445   3.360   7.504   3.855
11501TIP3    H134446   3.274   7.517   3.896
11501TIP3    H234447   3.421   7.553   3.910
11502TIP3   OH234448   1.218   4.641   5.511
11502TIP3    H134449   1.282   4.711   5.523
11502TIP3    H234450   1.268   4.560   5.527
11503TIP3   OH234451   1.842   5.194   1.924
11503TIP3    H134452   1.906   5.123   1.934
11503TIP3    H234453   1.809   5.185   1.835
11504TIP3   OH234454   7.340   4.226   1.010
11504TIP3    H134455   7.271   4.195   1.068
11504TIP3    H234456   7.414   4.244   1.067
11505TIP3   OH234457   6.076   4.615   4.296
11505TIP3    H134458   6.033   4.663   4.225
11505TIP3    H234459   6.117   4.682   4.350
11506TIP3   OH234460   2.678   4.263   3.714
11506TIP3    H134461   2.598   4.218   3.741
11506TIP3    H234462   2.727   4.277   3.796
11507TIP3   OH234463   7.416   0.019   5.694
11507TIP3    H134464   7.409  -0.053   5.631
11507TIP3    H234465   7.391   0.097   5.644
11508TIP3   OH234466   7.484   6.900   4.631
11508TIP3    H134467   7.435   6.838   4.684
11508TIP3    H234468   7.573   6.866   4.629
11509TIP3   OH234469   2.709   5.704   2.398
11509TIP3    H134470   2.647   5.634   2.379
11509TIP3    H234471   2.658   5.768   2.447
11510TIP3   OH234472   6.035   5.142   0.170
11510TIP3    H134473   6.081   5.205   0.225
11510TIP3    H234474   6.105   5.099   0.120
11511TIP3   OH234475   5.696   4.539   6.798
11511TIP3    H134476   5.747   4.541   6.717
11511TIP3    H234477   5.718   4.455   6.838
11512TIP3   OH234478   2.282   4.570   1.704
11512TIP3    H134479   2.242   4.495   1.747
11512TIP3    H234480   2.321   4.621   1.775
11513TIP3   OH234481   7.266   6.592   3.913
11513TIP3    H134482   7.215   6.670   3.935
11513TIP3    H234483   7.350   6.605   3.956
11514TIP3   OH234484   1.694   0.370   1.917
11514TIP3    H134485   1.778   0.392   1.876
11514TIP3    H234486   1.698   0.276   1.932
11515TIP3   OH234487   1.400   6.611   3.297
11515TIP3    H134488   1.449   6.622   3.379
11515TIP3    H234489   1.329   6.675   3.304
11516TIP3   OH234490   4.107   6.892   3.733
11516TIP3    H134491   4.088   6.816   3.788
11516TIP3    H234492   4.106   6.858   3.643
11517TIP3   OH234493   0.869   7.256   2.561
11517TIP3    H134494   0.925   7.231   2.487
11517TIP3    H234495   0.784   7.273   2.522
11518TIP3   OH234496   2.549   0.073   1.818
11518TIP3    H134497   2.594   0.131   1.757
11518TIP3    H234498   2.459   0.104   1.818
11519TIP3   OH234499   3.445   3.499   1.982
11519TIP3    H134500   3.485   3.511   1.896
11519TIP3    H234501   3.392   3.420   1.973
11520TIP3   OH234502   3.416   0.136   5.273
11520TIP3    H134503   3.443   0.061   5.221
11520TIP3    H234504   3.470   0.132   5.352
11521TIP3   OH234505   2.150   6.845   5.038
11521TIP3    H134506   2.134   6.837   5.131
11521TIP3    H234507   2.126   6.760   5.002
11522TIP3   OH234508   5.217   4.042   4.855
11522TIP3    H134509   5.272   4.120   4.853
11522TIP3    H234510   5.131   4.074   4.881
11523TIP3   OH234511   0.578   4.765   5.543
11523TIP3    H134512   0.490   4.758   5.579
11523TIP3    H234513   0.610   4.675   5.539
11524TIP3   OH234514   0.843   3.439   6.591
11524TIP3    H134515   0.823   3.519   6.542
11524TIP3    H234516   0.921   3.403   6.549
11525TIP3   OH234517   8.089   6.185   5.864
11525TIP3    H134518   8.106   6.216   5.776
11525TIP3    H234519   8.169   6.138   5.889
11526TIP3   OH234520   0.656   5.952   0.456
11526TIP3    H134521   0.560   5.950   0.465
11526TIP3    H234522   0.675   5.885   0.390
11527TIP3   OH234523   8.154   7.265   0.209
11527TIP3    H134524   8.163   7.220   0.293
11527TIP3    H234525   8.199   7.208   0.146
11528TIP3   OH234526   7.046   0.124   1.104
11528TIP3    H134527   7.013   0.177   1.032
11528TIP3    H234528   7.066   0.039   1.065
11529TIP3   OH234529   5.992   7.386   4.125
11529TIP3    H134530   6.069   7.369   4.071
11529TIP3    H234531   6.017   7.460   4.180
11530TIP3   OH234532   2.735   6.965   4.436
11530TIP3    H134533   2.664   6.956   4.371
11530TIP3    H234534   2.786   7.039   4.405
11531TIP3   OH234535   5.451   5.490   4.173
11531TIP3    H134536   5.389   5.538   4.228
11531TIP3    H234537   5.499   5.435   4.234
11532TIP3   OH234538   0.458   1.105   6.708
11532TIP3    H134539   0.419   1.191   6.720
11532TIP3    H234540   0.526   1.099   6.776
11533TIP3   OH234541   5.892   0.703   6.386
11533TIP3    H134542   5.979   0.681   6.419
11533TIP3    H234543   5.877   0.639   6.316
11534TIP3   OH234544   1.924   3.647   1.934
11534TIP3    H134545   1.886   3.569   1.893
11534TIP3    H234546   1.952   3.618   2.021
11535TIP3   OH234547   3.300   3.315   0.160
11535TIP3    H134548   3.382   3.345   0.198
11535TIP3    H234549   3.232   3.352   0.218
11536TIP3   OH234550   8.086   7.165   6.337
11536TIP3    H134551   8.124   7.224   6.402
11536TIP3    H234552   8.162   7.131   6.288
11537TIP3   OH234553   1.063   5.560   4.401
11537TIP3    H134554   1.146   5.580   4.358
11537TIP3    H234555   1.088   5.527   4.487
11538TIP3   OH234556   2.304   1.602   1.427
11538TIP3    H134557   2.365   1.676   1.419
11538TIP3    H234558   2.237   1.634   1.488
11539TIP3   OH234559   6.126   1.161   4.890
11539TIP3    H134560   6.156   1.071   4.874
11539TIP3    H234561   6.160   1.182   4.977
11540TIP3   OH234562   0.407   0.121   4.489
11540TIP3    H134563   0.491   0.091   4.525
11540TIP3    H234564   0.387   0.201   4.538
11541TIP3   OH234565   5.828   7.490   3.525
11541TIP3    H134566   5.851   7.535   3.606
11541TIP3    H234567   5.894   7.519   3.462
11542TIP3   OH234568   1.229   1.781   0.155
11542TIP3    H134569   1.251   1.797   0.246
11542TIP3    H234570   1.172   1.854   0.131
11543TIP3   OH234571   5.605   3.666   4.330
11543TIP3    H134572   5.556   3.597   4.374
11543TIP3    H234573   5.688   3.671   4.377
11544TIP3   OH234574   2.335   4.856   4.091
11544TIP3    H134575   2.375   4.903   4.018
11544TIP3    H234576   2.241   4.876   4.084
11545TIP3   OH234577   5.684   1.589   0.684
11545TIP3    H134578   5.761   1.607   0.739
11545TIP3    H234579   5.612   1.579   0.746
11546TIP3   OH234580   7.339   2.108   1.492
11546TIP3    H134581   7.405   2.038   1.500
11546TIP3    H234582   7.347   2.157   1.574
11547TIP3   OH234583   4.413   7.724   5.311
11547TIP3    H134584   4.365   7.770   5.381
11547TIP3    H234585   4.351   7.721   5.238
11548TIP3   OH234586   3.493   7.575   2.098
11548TIP3    H134587   3.455   7.501   2.145
11548TIP3    H234588   3.437   7.587   2.022
11549TIP3   OH234589   8.279   7.548   3.089
11549TIP3    H134590   8.307   7.489   3.019
11549TIP3    H234591   8.356   7.602   3.107
11550TIP3   OH234592   8.137   7.658   6.660
11550TIP3    H134593   8.132   7.753   6.648
11550TIP3    H234594   8.067   7.622   6.606
11551TIP3   OH234595   0.954   5.174   5.867
11551TIP3    H134596   0.905   5.093   5.878
11551TIP3    H234597   1.035   5.161   5.916
11552TIP3   OH234598   6.513   5.689   2.712
11552TIP3    H134599   6.559   5.633   2.649
11552TIP3    H234600   6.499   5.634   2.788
11553TIP3   OH234601   3.502   4.542   6.727
11553TIP3    H134602   3.522   4.605   6.657
11553TIP3    H234603   3.581   4.539   6.779
11554TIP3   OH234604   2.058   6.858   5.846
11554TIP3    H134605   1.963   6.866   5.856
11554TIP3    H234606   2.088   6.949   5.838
11555TIP3   OH234607   1.537   7.521   1.168
11555TIP3    H134608   1.458   7.569   1.141
11555TIP3    H234609   1.504   7.451   1.225
11556TIP3   OH234610   3.872   6.909   0.923
11556TIP3    H134611   3.790   6.891   0.968
11556TIP3    H234612   3.900   6.994   0.957
11557TIP3   OH234613   6.974   2.320   4.915
11557TIP3    H134614   7.029   2.398   4.927
11557TIP3    H234615   7.001   2.286   4.829
11558TIP3   OH234616   3.882   0.703   3.718
11558TIP3    H134617   3.832   0.752   3.653
11558TIP3    H234618   3.932   0.639   3.667
11559TIP3   OH234619   6.548   0.759   3.316
11559TIP3    H134620   6.474   0.815   3.294
11559TIP3    H234621   6.568   0.712   3.235
11560TIP3   OH234622   4.755   4.117   2.586
11560TIP3    H134623   4.837   4.166   2.576
11560TIP3    H234624   4.691   4.165   2.534
11561TIP3   OH234625   5.951   0.387   2.898
11561TIP3    H134626   5.920   0.477   2.884
11561TIP3    H234627   5.896   0.334   2.842
11562TIP3   OH234628   7.075   6.068   1.575
11562TIP3    H134629   7.072   6.143   1.514
11562TIP3    H234630   6.999   6.080   1.632
11563TIP3   OH234631   0.503   3.303   3.808
11563TIP3    H134632   0.432   3.266   3.756
11563TIP3    H234633   0.574   3.317   3.745
11564TIP3   OH234634   2.966   6.064   5.058
11564TIP3    H134635   2.898   6.127   5.082
11564TIP3    H234636   2.993   6.025   5.140
11565TIP3   OH234637   0.298   4.011   1.199
11565TIP3    H134638   0.382   3.966   1.211
11565TIP3    H234639   0.294   4.075   1.269
11566TIP3   OH234640   2.583   6.310   4.778
11566TIP3    H134641   2.499   6.265   4.775
11566TIP3    H234642   2.618   6.303   4.689
11567TIP3   OH234643   3.136   7.323   5.266
11567TIP3    H134644   3.163   7.266   5.337
11567TIP3    H234645   3.218   7.350   5.224
11568TIP3   OH234646   2.434   1.995   5.517
11568TIP3    H134647   2.385   2.077   5.516
11568TIP3    H234648   2.526   2.021   5.522
11569TIP3   OH234649   5.706   6.309   3.158
11569TIP3    H134650   5.702   6.367   3.081
11569TIP3    H234651   5.708   6.369   3.232
11570TIP3   OH234652   5.529   3.090   5.677
11570TIP3    H134653   5.600   3.027   5.680
11570TIP3    H234654   5.489   3.078   5.591
11571TIP3   OH234655   3.660   2.008   4.582
11571TIP3    H134656   3.584   2.018   4.639
11571TIP3    H234657   3.636   2.054   4.502
11572TIP3   OH234658   1.383   2.910   1.751
11572TIP3    H134659   1.291   2.891   1.770
11572TIP3    H234660   1.380   2.975   1.680
11573TIP3   OH234661   2.599   5.542   3.361
11573TIP3    H134662   2.509   5.521   3.336
11573TIP3    H234663   2.592   5.578   3.450
11574TIP3   OH234664   3.987   5.658   6.450
11574TIP3    H134665   4.025   5.712   6.381
11574TIP3    H234666   4.057   5.599   6.476
11575TIP3   OH234667   0.254   6.590   5.167
11575TIP3    H134668   0.349   6.601   5.161
11575TIP3    H234669   0.235   6.587   5.260
11576TIP3   OH234670   1.499   3.111   1.171
11576TIP3    H134671   1.476   3.201   1.192
11576TIP3    H234672   1.417   3.062   1.182
11577TIP3   OH234673   5.754   7.175   2.371
11577TIP3    H134674   5.771   7.160   2.278
11577TIP3    H234675   5.750   7.270   2.380
11578TIP3   OH234676   0.705   7.008   4.234
11578TIP3    H134677   0.610   7.012   4.244
11578TIP3    H234678   0.738   7.084   4.282
11579TIP3   OH234679   6.273   1.407   4.844
11579TIP3    H134680   6.360   1.379   4.814
11579TIP3    H234681   6.220   1.327   4.840
11580TIP3   OH234682   1.568   4.194   2.582
11580TIP3    H134683   1.527   4.278   2.603
11580TIP3    H234684   1.592   4.201   2.490
11581TIP3   OH234685   1.179   3.471   4.514
11581TIP3    H134686   1.147   3.404   4.575
11581TIP3    H234687   1.150   3.554   4.554
11582TIP3   OH234688   3.299   1.725   6.731
11582TIP3    H134689   3.320   1.808   6.690
11582TIP3    H234690   3.275   1.668   6.658
11583TIP3   OH234691   2.246   3.300   4.094
11583TIP3    H134692   2.169   3.243   4.089
11583TIP3    H234693   2.256   3.334   4.005
11584TIP3   OH234694   6.644   3.855   1.790
11584TIP3    H134695   6.587   3.780   1.808
11584TIP3    H234696   6.699   3.826   1.717
11585TIP3   OH234697   7.273   4.076   6.651
11585TIP3    H134698   7.257   4.044   6.740
11585TIP3    H234699   7.217   4.023   6.596
11586TIP3   OH234700   5.456   5.262   5.661
11586TIP3    H134701   5.391   5.333   5.664
11586TIP3    H234702   5.423   5.202   5.594
11587TIP3   OH234703   3.903   2.819   3.029
11587TIP3    H134704   3.960   2.842   3.103
11587TIP3    H234705   3.823   2.785   3.070
11588TIP3   OH234706   6.426   5.838   4.238
11588TIP3    H134707   6.426   5.905   4.169
11588TIP3    H234708   6.509   5.851   4.284
11589TIP3   OH234709   3.141   4.476   2.179
11589TIP3    H134710   3.160   4.534   2.252
11589TIP3    H234711   3.176   4.522   2.102
11590TIP3   OH234712   7.842   7.455   1.882
11590TIP3    H134713   7.920   7.437   1.830
11590TIP3    H234714   7.779   7.490   1.819
11591TIP3   OH234715  -0.011   4.802   0.394
11591TIP3    H134716   0.024   4.851   0.319
11591TIP3    H234717  -0.005   4.710   0.367
11592TIP3   OH234718   5.523   6.433   3.866
11592TIP3    H134719   5.487   6.475   3.788
11592TIP3    H234720   5.458   6.450   3.935
11593TIP3   OH234721   3.758   0.366   0.217
11593TIP3    H134722   3.811   0.407   0.286
11593TIP3    H234723   3.746   0.436   0.153
11594TIP3   OH234724   8.038   5.941   2.861
11594TIP3    H134725   7.951   5.961   2.827
11594TIP3    H234726   8.090   5.921   2.784
11595TIP3   OH234727   0.058   7.145   2.307
11595TIP3    H134728   0.086   7.235   2.326
11595TIP3    H234729  -0.030   7.139   2.346
11596TIP3   OH234730   5.944   4.449   0.229
11596TIP3    H134731   5.937   4.369   0.177
11596TIP3    H234732   5.933   4.420   0.319
11597TIP3   OH234733   2.946   2.781   0.197
11597TIP3    H134734   3.018   2.726   0.168
11597TIP3    H234735   2.932   2.756   0.288
11598TIP3   OH234736   7.740   2.511   1.976
11598TIP3    H134737   7.749   2.600   2.007
11598TIP3    H234738   7.802   2.504   1.903
11599TIP3   OH234739   0.880   0.314   3.606
11599TIP3    H134740   0.973   0.331   3.588
11599TIP3    H234741   0.853   0.254   3.536
11600TIP3   OH234742   8.251   6.846   6.522
11600TIP3    H134743   8.171   6.854   6.574
11600TIP3    H234744   8.319   6.888   6.575
11601TIP3   OH234745   7.622   4.584   6.155
11601TIP3    H134746   7.553   4.580   6.222
11601TIP3    H234747   7.574   4.588   6.072
11602TIP3   OH234748   3.748   1.074   5.374
11602TIP3    H134749   3.726   1.145   5.435
11602TIP3    H234750   3.795   1.010   5.427
11603TIP3   OH234751   0.394   0.461   4.813
11603TIP3    H134752   0.434   0.420   4.736
11603TIP3    H234753   0.459   0.452   4.882
11604TIP3   OH234754   3.994   0.395   0.808
11604TIP3    H134755   4.061   0.374   0.873
11604TIP3    H234756   4.041   0.441   0.739
11605TIP3   OH234757   4.027  -0.008   5.180
11605TIP3    H134758   4.024  -0.040   5.270
11605TIP3    H234759   4.062   0.080   5.187
11606TIP3   OH234760   6.067   0.077   0.028
11606TIP3    H134761   6.116   0.099   0.107
11606TIP3    H234762   6.062   0.159  -0.021
11607TIP3   OH234763   3.347   1.991   3.244
11607TIP3    H134764   3.354   1.965   3.336
11607TIP3    H234765   3.259   2.027   3.237
11608TIP3   OH234766   4.471   5.403   0.259
11608TIP3    H134767   4.435   5.450   0.334
11608TIP3    H234768   4.408   5.418   0.189
11609TIP3   OH234769   3.902   3.400   6.675
11609TIP3    H134770   3.971   3.448   6.629
11609TIP3    H234771   3.834   3.387   6.609
11610TIP3   OH234772   0.756   1.365   5.810
11610TIP3    H134773   0.702   1.286   5.819
11610TIP3    H234774   0.826   1.353   5.875
11611TIP3   OH234775   4.373   2.659   6.060
11611TIP3    H134776   4.283   2.650   6.030
11611TIP3    H234777   4.374   2.743   6.107
11612TIP3   OH234778   2.467   0.689   5.004
11612TIP3    H134779   2.386   0.736   4.983
11612TIP3    H234780   2.523   0.755   5.044
11613TIP3   OH234781   7.935   6.076   4.950
11613TIP3    H134782   7.969   6.070   4.861
11613TIP3    H234783   7.840   6.067   4.940
11614TIP3   OH234784   0.430   7.481   0.966
11614TIP3    H134785   0.340   7.503   0.941
11614TIP3    H234786   0.464   7.562   1.004
11615TIP3   OH234787   1.952   2.549   6.628
11615TIP3    H134788   1.890   2.585   6.565
11615TIP3    H234789   1.966   2.619   6.691
11616TIP3   OH234790   3.133   5.822   4.204
11616TIP3    H134791   3.115   5.740   4.159
11616TIP3    H234792   3.075   5.822   4.281
11617TIP3   OH234793   0.205   2.796   4.963
11617TIP3    H134794   0.118   2.801   5.003
11617TIP3    H234795   0.190   2.754   4.878
11618TIP3   OH234796   5.173   4.836   0.301
11618TIP3    H134797   5.078   4.834   0.290
11618TIP3    H234798   5.199   4.744   0.294
11619TIP3   OH234799   0.069   2.017   5.544
11619TIP3    H134800   0.098   2.094   5.593
11619TIP3    H234801   0.150   1.969   5.525
11620TIP3   OH234802   7.689   5.775   2.266
11620TIP3    H134803   7.711   5.847   2.325
11620TIP3    H234804   7.631   5.814   2.200
11621TIP3   OH234805   2.596   4.364   0.601
11621TIP3    H134806   2.662   4.330   0.539
11621TIP3    H234807   2.620   4.456   0.612
11622TIP3   OH234808   0.958   4.974   1.949
11622TIP3    H134809   0.960   5.047   2.012
11622TIP3    H234810   0.881   4.992   1.894
11623TIP3   OH234811   3.584   7.374   5.468
11623TIP3    H134812   3.617   7.422   5.544
11623TIP3    H234813   3.609   7.283   5.483
11624TIP3   OH234814   7.699   2.893   1.569
11624TIP3    H134815   7.757   2.948   1.517
11624TIP3    H234816   7.725   2.803   1.547
11625TIP3   OH234817   8.264   7.652   5.948
11625TIP3    H134818   8.278   7.593   5.874
11625TIP3    H234819   8.245   7.737   5.907
11626TIP3   OH234820   2.497   5.351   5.682
11626TIP3    H134821   2.528   5.262   5.667
11626TIP3    H234822   2.500   5.392   5.596
11627TIP3   OH234823   7.075   2.267   0.293
11627TIP3    H134824   7.008   2.228   0.349
11627TIP3    H234825   7.132   2.193   0.270
11628TIP3   OH234826   0.138   0.376   4.855
11628TIP3    H134827   0.218   0.417   4.820
11628TIP3    H234828   0.170   0.300   4.903
11629TIP3   OH234829  -0.024   6.158   3.846
11629TIP3    H134830   0.069   6.177   3.859
11629TIP3    H234831  -0.033   6.145   3.752
11630TIP3   OH234832   3.972   2.007   2.504
11630TIP3    H134833   3.901   1.984   2.563
11630TIP3    H234834   4.015   2.082   2.545
11631TIP3   OH234835   6.477   4.851   2.519
11631TIP3    H134836   6.435   4.765   2.523
11631TIP3    H234837   6.545   4.848   2.586
11632TIP3   OH234838   4.363   3.556   6.599
11632TIP3    H134839   4.445   3.531   6.557
11632TIP3    H234840   4.354   3.495   6.672
11633TIP3   OH234841   0.806   5.518   1.859
11633TIP3    H134842   0.881   5.460   1.847
11633TIP3    H234843   0.730   5.459   1.855
11634TIP3   OH234844   7.359   0.907   1.796
11634TIP3    H134845   7.327   0.933   1.709
11634TIP3    H234846   7.452   0.891   1.783
11635TIP3   OH234847   2.987   5.525   6.508
11635TIP3    H134848   2.971   5.590   6.576
11635TIP3    H234849   3.068   5.553   6.466
11636TIP3   OH234850   2.180   2.467   3.720
11636TIP3    H134851   2.092   2.496   3.695
11636TIP3    H234852   2.165   2.410   3.795
11637TIP3   OH234853   2.531   7.333   0.227
11637TIP3    H134854   2.592   7.302   0.160
11637TIP3    H234855   2.502   7.419   0.195
11638TIP3   OH234856   4.269   1.774   2.777
11638TIP3    H134857   4.205   1.716   2.819
11638TIP3    H234858   4.237   1.863   2.795
11639TIP3   OH234859   0.244   5.727   2.801
11639TIP3    H134860   0.319   5.715   2.744
11639TIP3    H234861   0.235   5.822   2.810
11640TIP3   OH234862   5.470   0.527   2.851
11640TIP3    H134863   5.426   0.590   2.907
11640TIP3    H234864   5.531   0.482   2.909
11641TIP3   OH234865   6.801   3.240   1.355
11641TIP3    H134866   6.816   3.195   1.438
11641TIP3    H234867   6.840   3.182   1.289
11642TIP3   OH234868   4.742   4.072   4.982
11642TIP3    H134869   4.811   4.090   5.045
11642TIP3    H234870   4.678   4.019   5.030
11643TIP3   OH234871   0.824   5.645   2.130
11643TIP3    H134872   0.822   5.596   2.048
11643TIP3    H234873   0.760   5.602   2.186
11644TIP3   OH234874   1.727   6.781   0.263
11644TIP3    H134875   1.818   6.763   0.289
11644TIP3    H234876   1.718   6.740   0.177
11645TIP3   OH234877   0.543   3.279   2.720
11645TIP3    H134878   0.481   3.287   2.647
11645TIP3    H234879   0.617   3.333   2.694
11646TIP3   OH234880   2.977   7.242   1.808
11646TIP3    H134881   2.922   7.295   1.749
11646TIP3    H234882   3.056   7.223   1.757
11647TIP3   OH234883   6.140   5.648   4.472
11647TIP3    H134884   6.224   5.620   4.436
11647TIP3    H234885   6.162   5.724   4.526
11648TIP3   OH234886   3.608   3.323   2.387
11648TIP3    H134887   3.662   3.252   2.422
11648TIP3    H234888   3.568   3.286   2.308
11649TIP3   OH234889   8.244   2.248   6.179
11649TIP3    H134890   8.255   2.242   6.273
11649TIP3    H234891   8.161   2.295   6.167
11650TIP3   OH234892   5.141   3.973   1.250
11650TIP3    H134893   5.130   3.892   1.200
11650TIP3    H234894   5.174   4.037   1.187
11651TIP3   OH234895   7.651   3.237   5.521
11651TIP3    H134896   7.731   3.224   5.469
11651TIP3    H234897   7.647   3.331   5.536
11652TIP3   OH234898   1.383   5.283   4.143
11652TIP3    H134899   1.424   5.205   4.180
11652TIP3    H234900   1.425   5.295   4.058
11653TIP3   OH234901   1.998   6.495   3.181
11653TIP3    H134902   1.908   6.474   3.207
11653TIP3    H234903   2.009   6.587   3.203
11654TIP3   OH234904   0.114   0.484   2.530
11654TIP3    H134905   0.060   0.476   2.452
11654TIP3    H234906   0.066   0.543   2.587
11655TIP3   OH234907   8.338   6.781   1.588
11655TIP3    H134908   8.286   6.856   1.617
11655TIP3    H234909   8.377   6.809   1.506
11656TIP3   OH234910   6.986   4.776   2.857
11656TIP3    H134911   6.972   4.826   2.777
11656TIP3    H234912   6.974   4.685   2.832
11657TIP3   OH234913   5.242   0.199   3.420
11657TIP3    H134914   5.325   0.173   3.380
11657TIP3    H234915   5.229   0.138   3.491
11658TIP3   OH234916   4.827   6.789   2.776
11658TIP3    H134917   4.865   6.746   2.853
11658TIP3    H234918   4.895   6.784   2.709
11659TIP3   OH234919   2.621   3.481   2.413
11659TIP3    H134920   2.571   3.404   2.387
11659TIP3    H234921   2.639   3.467   2.506
11660TIP3   OH234922   5.343   0.982   4.866
11660TIP3    H134923   5.288   1.006   4.940
11660TIP3    H234924   5.306   1.029   4.792
11661TIP3   OH234925   7.094   7.045   1.102
11661TIP3    H134926   7.033   7.072   1.033
11661TIP3    H234927   7.143   6.972   1.063
11662TIP3   OH234928   2.330   0.833   5.766
11662TIP3    H134929   2.239   0.862   5.771
11662TIP3    H234930   2.336   0.788   5.682
11663TIP3   OH234931   1.045   0.426   6.240
11663TIP3    H134932   1.102   0.478   6.183
11663TIP3    H234933   0.997   0.369   6.181
11664TIP3   OH234934   3.197   0.327   0.379
11664TIP3    H134935   3.152   0.245   0.401
11664TIP3    H234936   3.134   0.396   0.402
11665TIP3   OH234937   5.024   7.437   0.300
11665TIP3    H134938   5.000   7.465   0.212
11665TIP3    H234939   5.095   7.373   0.287
11666TIP3   OH234940   2.512   6.764   2.440
11666TIP3    H134941   2.546   6.674   2.434
11666TIP3    H234942   2.489   6.775   2.532
11667TIP3   OH234943   6.007   1.387   5.106
11667TIP3    H134944   6.058   1.423   5.178
11667TIP3    H234945   6.021   1.449   5.034
11668TIP3   OH234946   5.007   4.640   6.357
11668TIP3    H134947   5.080   4.616   6.414
11668TIP3    H234948   4.930   4.631   6.413
11669TIP3   OH234949   8.061   4.302   2.808
11669TIP3    H134950   8.151   4.299   2.842
11669TIP3    H234951   8.072   4.312   2.713
11670TIP3   OH234952   1.988   0.948   1.860
11670TIP3    H134953   2.054   1.017   1.863
11670TIP3    H234954   1.984   0.914   1.950
11671TIP3   OH234955   7.972   0.051   4.579
11671TIP3    H134956   7.993   0.093   4.663
11671TIP3    H234957   8.042   0.080   4.520
11672TIP3   OH234958   2.928   6.216   2.499
11672TIP3    H134959   2.902   6.153   2.565
11672TIP3    H234960   2.880   6.190   2.420
11673TIP3   OH234961   1.252   3.915   0.745
11673TIP3    H134962   1.281   3.995   0.701
11673TIP3    H234963   1.238   3.852   0.674
11674TIP3   OH234964   4.259   3.105   3.008
11674TIP3    H134965   4.308   3.068   2.935
11674TIP3    H234966   4.248   3.033   3.069
11675TIP3   OH234967   2.350   0.464   1.966
11675TIP3    H134968   2.327   0.377   1.932
11675TIP3    H234969   2.345   0.454   2.061
11676TIP3   OH234970   2.531   2.903   2.305
11676TIP3    H134971   2.559   2.937   2.220
11676TIP3    H234972   2.489   2.978   2.348
11677TIP3   OH234973   5.390   4.312   4.087
11677TIP3    H134974   5.299   4.309   4.059
11677TIP3    H234975   5.404   4.231   4.135
11678TIP3   OH234976   0.156   1.164   6.517
11678TIP3    H134977   0.071   1.207   6.509
11678TIP3    H234978   0.135   1.074   6.543
11679TIP3   OH234979   7.195   1.441   4.573
11679TIP3    H134980   7.266   1.490   4.530
11679TIP3    H234981   7.125   1.505   4.584
11680TIP3   OH234982   4.715   7.255   5.812
11680TIP3    H134983   4.804   7.230   5.838
11680TIP3    H234984   4.727   7.295   5.725
11681TIP3   OH234985   6.879   1.285   4.481
11681TIP3    H134986   6.835   1.335   4.413
11681TIP3    H234987   6.964   1.328   4.492
11682TIP3   OH234988   6.638   1.116   6.044
11682TIP3    H134989   6.615   1.059   5.971
11682TIP3    H234990   6.576   1.189   6.038
11683TIP3   OH234991   3.664   5.461   2.966
11683TIP3    H134992   3.749   5.502   2.984
11683TIP3    H234993   3.601   5.531   2.982
11684TIP3   OH234994   1.573   7.109   3.195
11684TIP3    H134995   1.550   7.056   3.119
11684TIP3    H234996   1.650   7.067   3.233
11685TIP3   OH234997   6.814   2.442   4.636
11685TIP3    H134998   6.779   2.468   4.721
11685TIP3    H234999   6.909   2.445   4.647
11686TIP3   OH235000   2.958   4.127   4.468
11686TIP3    H135001   2.999   4.041   4.459
11686TIP3    H235002   2.945   4.157   4.378
11687TIP3   OH235003   5.377   3.394   2.901
11687TIP3    H135004   5.314   3.323   2.917
11687TIP3    H235005   5.328   3.474   2.923
11688TIP3   OH235006   8.321   5.604   2.957
11688TIP3    H135007   8.228   5.586   2.972
11688TIP3    H235008   8.321   5.688   2.910
11689TIP3   OH235009   7.157   2.551   5.721
11689TIP3    H135010   7.181   2.635   5.761
11689TIP3    H235011   7.200   2.485   5.774
11690TIP3   OH235012   2.773   5.834   3.634
11690TIP3    H135013   2.684   5.823   3.601
11690TIP3    H235014   2.780   5.772   3.707
11691TIP3   OH235015   8.109   7.585   0.439
11691TIP3    H135016   8.045   7.540   0.494
11691TIP3    H235017   8.194   7.559   0.475
11692TIP3   OH235018   1.388   6.951   5.244
11692TIP3    H135019   1.395   7.043   5.219
11692TIP3    H235020   1.319   6.948   5.310
11693TIP3   OH235021   7.272   3.614   1.552
11693TIP3    H135022   7.209   3.683   1.573
11693TIP3    H235023   7.236   3.572   1.474
11694TIP3   OH235024   6.984   1.716   6.084
11694TIP3    H135025   7.007   1.771   6.158
11694TIP3    H235026   7.037   1.637   6.095
11695TIP3   OH235027   1.157   1.052   5.642
11695TIP3    H135028   1.196   1.134   5.610
11695TIP3    H235029   1.065   1.073   5.657
11696TIP3   OH235030   3.681   0.087   5.360
11696TIP3    H135031   3.712   0.098   5.450
11696TIP3    H235032   3.694  -0.006   5.340
11697TIP3   OH235033   6.585   5.413   6.100
11697TIP3    H135034   6.644   5.421   6.025
11697TIP3    H235035   6.644   5.397   6.174
11698TIP3   OH235036   2.416   2.321   2.858
11698TIP3    H135037   2.372   2.274   2.929
11698TIP3    H235038   2.464   2.391   2.902
11699TIP3   OH235039   3.439   0.444   0.423
11699TIP3    H135040   3.486   0.401   0.494
11699TIP3    H235041   3.351   0.406   0.425
11700TIP3   OH235042   7.976   5.751   6.089
11700TIP3    H135043   7.913   5.730   6.158
11700TIP3    H235044   7.957   5.842   6.066
11701TIP3   OH235045   7.918   6.978   3.579
11701TIP3    H135046   8.000   6.958   3.625
11701TIP3    H235047   7.893   6.895   3.537
11702TIP3   OH235048   4.066   6.562   0.977
11702TIP3    H135049   4.082   6.616   1.054
11702TIP3    H235050   3.975   6.581   0.954
11703TIP3   OH235051   6.317   7.173   4.484
11703TIP3    H135052   6.278   7.193   4.399
11703TIP3    H235053   6.309   7.255   4.533
11704TIP3   OH235054   5.643   0.856  -0.028
11704TIP3    H135055   5.593   0.794   0.025
11704TIP3    H235056   5.697   0.802  -0.085
11705TIP3   OH235057   6.192   7.217   5.257
11705TIP3    H135058   6.102   7.185   5.254
11705TIP3    H235059   6.244   7.148   5.217
11706TIP3   OH235060   7.442   6.591   0.849
11706TIP3    H135061   7.402   6.624   0.929
11706TIP3    H235062   7.424   6.497   0.850
11707TIP3   OH235063   4.923   1.845   0.753
11707TIP3    H135064   4.964   1.907   0.812
11707TIP3    H235065   4.895   1.898   0.678
11708TIP3   OH235066   8.308   1.962   3.573
11708TIP3    H135067   8.217   1.946   3.596
11708TIP3    H235068   8.308   1.971   3.478
11709TIP3   OH235069   3.169   2.212   4.933
11709TIP3    H135070   3.242   2.244   4.879
11709TIP3    H235071   3.196   2.228   5.023
11710TIP3   OH235072   5.838   4.687   4.542
11710TIP3    H135073   5.779   4.711   4.613
11710TIP3    H235074   5.846   4.766   4.489
11711TIP3   OH235075   2.626   1.087   3.909
11711TIP3    H135076   2.579   1.100   3.991
11711TIP3    H235077   2.595   1.158   3.852
11712TIP3   OH235078   5.380   5.716   2.874
11712TIP3    H135079   5.339   5.802   2.863
11712TIP3    H235080   5.454   5.732   2.932
11713TIP3   OH235081   1.352   5.949   4.107
11713TIP3    H135082   1.261   5.927   4.085
11713TIP3    H235083   1.377   6.014   4.041
11714TIP3   OH235084   6.840   2.859   4.555
11714TIP3    H135085   6.775   2.909   4.604
11714TIP3    H235086   6.826   2.884   4.464
11715TIP3   OH235087   5.795   1.623   2.370
11715TIP3    H135088   5.703   1.596   2.376
11715TIP3    H235089   5.839   1.574   2.439
11716TIP3   OH235090   0.441   4.457   6.210
11716TIP3    H135091   0.351   4.441   6.182
11716TIP3    H235092   0.464   4.541   6.168
11717TIP3   OH235093   8.140   4.263   5.646
11717TIP3    H135094   8.163   4.327   5.579
11717TIP3    H235095   8.044   4.260   5.644
11718TIP3   OH235096   5.241   3.543   5.760
11718TIP3    H135097   5.319   3.555   5.814
11718TIP3    H235098   5.177   3.503   5.819
11719TIP3   OH235099   3.869   4.195   1.248
11719TIP3    H135100   3.877   4.106   1.212
11719TIP3    H235101   3.931   4.247   1.196
11720TIP3   OH235102   4.745   5.374   5.792
11720TIP3    H135103   4.742   5.384   5.887
11720TIP3    H235104   4.719   5.283   5.777
11721TIP3   OH235105   1.865   6.198   6.080
11721TIP3    H135106   1.897   6.109   6.061
11721TIP3    H235107   1.843   6.195   6.173
11722TIP3   OH235108   2.697   2.349   0.538
11722TIP3    H135109   2.748   2.381   0.463
11722TIP3    H235110   2.762   2.313   0.598
11723TIP3   OH235111   4.552   4.699   6.065
11723TIP3    H135112   4.463   4.734   6.070
11723TIP3    H235113   4.593   4.729   6.146
11724TIP3   OH235114   4.651   1.527   3.899
11724TIP3    H135115   4.570   1.578   3.896
11724TIP3    H235116   4.646   1.480   3.982
11725TIP3   OH235117   1.719   5.066   0.392
11725TIP3    H135118   1.681   5.102   0.472
11725TIP3    H235119   1.778   4.997   0.423
11726TIP3   OH235120   0.285   5.936   5.438
11726TIP3    H135121   0.296   5.927   5.343
11726TIP3    H235122   0.232   6.016   5.448
11727TIP3   OH235123   4.723   0.635   5.496
11727TIP3    H135124   4.723   0.644   5.591
11727TIP3    H235125   4.633   0.611   5.474
11728TIP3   OH235126   7.990   7.427   4.100
11728TIP3    H135127   7.994   7.521   4.081
11728TIP3    H235128   8.045   7.415   4.177
11729TIP3   OH235129   0.541   5.296   6.437
11729TIP3    H135130   0.520   5.272   6.347
11729TIP3    H235131   0.503   5.226   6.490
11730TIP3   OH235132   2.415   6.483   6.576
11730TIP3    H135133   2.361   6.415   6.536
11730TIP3    H235134   2.505   6.452   6.565
11731TIP3   OH235135   6.316   5.675   3.332
11731TIP3    H135136   6.231   5.703   3.364
11731TIP3    H235137   6.378   5.740   3.366
11732TIP3   OH235138   7.380   2.266   2.353
11732TIP3    H135139   7.382   2.182   2.308
11732TIP3    H235140   7.332   2.324   2.294
11733TIP3   OH235141   4.953   4.593   1.465
11733TIP3    H135142   4.947   4.538   1.386
11733TIP3    H235143   5.045   4.588   1.490
11734TIP3   OH235144   8.231   2.061   6.660
11734TIP3    H135145   8.269   2.021   6.582
11734TIP3    H235146   8.145   2.093   6.630
11735TIP3   OH235147   3.027   4.967   2.843
11735TIP3    H135148   3.102   5.026   2.854
11735TIP3    H235149   3.028   4.913   2.922
11736TIP3   OH235150   4.676   2.573   4.787
11736TIP3    H135151   4.634   2.503   4.738
11736TIP3    H235152   4.647   2.559   4.877
11737TIP3   OH235153   7.548   5.567   0.116
11737TIP3    H135154   7.544   5.540   0.024
11737TIP3    H235155   7.497   5.501   0.162
11738TIP3   OH235156   4.646   5.081   3.299
11738TIP3    H135157   4.737   5.058   3.317
11738TIP3    H235158   4.627   5.152   3.360
11739TIP3   OH235159   0.903   3.205   3.806
11739TIP3    H135160   0.920   3.249   3.889
11739TIP3    H235161   0.821   3.158   3.820
11740TIP3   OH235162   1.997   4.822   2.940
11740TIP3    H135163   1.974   4.903   2.895
11740TIP3    H235164   1.914   4.777   2.953
11741TIP3   OH235165   5.761   5.052   2.381
11741TIP3    H135166   5.712   5.027   2.459
11741TIP3    H235167   5.853   5.041   2.405
11742TIP3   OH235168   4.674   5.036   0.896
11742TIP3    H135169   4.688   5.106   0.831
11742TIP3    H235170   4.703   5.075   0.979
11743TIP3   OH235171   4.391   5.615   2.711
11743TIP3    H135172   4.444   5.689   2.679
11743TIP3    H235173   4.319   5.608   2.647
11744TIP3   OH235174   6.009   1.061   1.481
11744TIP3    H135175   6.051   1.071   1.566
11744TIP3    H235176   6.082   1.044   1.421
11745TIP3   OH235177   4.697   2.863   6.229
11745TIP3    H135178   4.697   2.800   6.156
11745TIP3    H235179   4.607   2.894   6.234
11746TIP3   OH235180   5.832   5.990   6.555
11746TIP3    H135181   5.794   5.987   6.643
11746TIP3    H235182   5.914   5.941   6.562
11747TIP3   OH235183   2.091   5.120   4.388
11747TIP3    H135184   2.014   5.146   4.438
11747TIP3    H235185   2.165   5.133   4.448
11748TIP3   OH235186   0.442   0.302   0.687
11748TIP3    H135187   0.517   0.271   0.739
11748TIP3    H235188   0.372   0.240   0.707
11749TIP3   OH235189   7.055   2.459   3.396
11749TIP3    H135190   7.122   2.461   3.464
11749TIP3    H235191   7.088   2.519   3.329
11750TIP3   OH235192   7.723   4.216   0.559
11750TIP3    H135193   7.710   4.224   0.654
11750TIP3    H235194   7.699   4.125   0.540
11751TIP3   OH235195   1.509   0.275   3.302
11751TIP3    H135196   1.528   0.366   3.322
11751TIP3    H235197   1.424   0.277   3.258
11752TIP3   OH235198   0.458   2.211   0.101
11752TIP3    H135199   0.533   2.156   0.126
11752TIP3    H235200   0.496   2.278   0.044
11753TIP3   OH235201   4.270   2.112   0.713
11753TIP3    H135202   4.282   2.158   0.630
11753TIP3    H235203   4.337   2.043   0.712
11754TIP3   OH235204   1.405   0.605   2.164
11754TIP3    H135205   1.316   0.600   2.197
11754TIP3    H235206   1.459   0.564   2.231
11755TIP3   OH235207   0.632   1.050   4.723
11755TIP3    H135208   0.608   0.975   4.669
11755TIP3    H235209   0.700   1.017   4.782
11756TIP3   OH235210   3.838   0.468   5.801
11756TIP3    H135211   3.771   0.523   5.842
11756TIP3    H235212   3.839   0.389   5.855
11757TIP3   OH235213   6.446   6.810   5.302
11757TIP3    H135214   6.419   6.869   5.232
11757TIP3    H235215   6.374   6.747   5.309
11758TIP3   OH235216   8.067   4.393   5.945
11758TIP3    H135217   8.145   4.413   5.996
11758TIP3    H235218   7.995   4.426   5.999
11759TIP3   OH235219   1.852   5.614   2.563
11759TIP3    H135220   1.842   5.683   2.628
11759TIP3    H235221   1.783   5.631   2.499
11760TIP3   OH235222   4.519   0.306   4.086
11760TIP3    H135223   4.469   0.363   4.144
11760TIP3    H235224   4.462   0.292   4.010
11761TIP3   OH235225   1.709   6.942   1.524
11761TIP3    H135226   1.712   7.037   1.521
11761TIP3    H235227   1.739   6.914   1.438
11762TIP3   OH235228   3.728   4.135   6.106
11762TIP3    H135229   3.786   4.084   6.049
11762TIP3    H235230   3.787   4.177   6.169
11763TIP3   OH235231   4.532   0.193   4.353
11763TIP3    H135232   4.627   0.205   4.356
11763TIP3    H235233   4.508   0.216   4.263
11764TIP3   OH235234   6.267   6.924   0.849
11764TIP3    H135235   6.223   6.906   0.932
11764TIP3    H235236   6.358   6.898   0.865
11765TIP3   OH235237   5.581   7.431   4.942
11765TIP3    H135238   5.533   7.408   4.863
11765TIP3    H235239   5.562   7.524   4.956
11766TIP3   OH235240   7.523   5.630   1.387
11766TIP3    H135241   7.430   5.650   1.390
11766TIP3    H235242   7.562   5.701   1.337
11767TIP3   OH235243   7.505   6.391   2.526
11767TIP3    H135244   7.560   6.467   2.507
11767TIP3    H235245   7.561   6.316   2.505
11768TIP3   OH235246   3.866   4.002   5.605
11768TIP3    H135247   3.940   3.943   5.592
11768TIP3    H235248   3.862   4.053   5.524
11769TIP3   OH235249   1.699   3.371   2.107
11769TIP3    H135250   1.719   3.451   2.155
11769TIP3    H235251   1.613   3.345   2.139
11770TIP3   OH235252   1.840   2.428   3.066
11770TIP3    H135253   1.772   2.494   3.056
11770TIP3    H235254   1.846   2.386   2.980
11771TIP3   OH235255   1.685   4.261   6.716
11771TIP3    H135256   1.674   4.327   6.647
11771TIP3    H235257   1.710   4.182   6.669
11772TIP3   OH235258   6.827  -0.029   5.345
11772TIP3    H135259   6.796  -0.107   5.299
11772TIP3    H235260   6.780  -0.029   5.428
11773TIP3   OH235261   4.230   4.192   6.034
11773TIP3    H135262   4.145   4.203   6.076
11773TIP3    H235263   4.282   4.265   6.067
11774TIP3   OH235264   2.990   6.283   3.962
11774TIP3    H135265   2.947   6.359   4.002
11774TIP3    H235266   3.055   6.256   4.026
11775TIP3   OH235267   1.454   6.728   2.892
11775TIP3    H135268   1.549   6.740   2.897
11775TIP3    H235269   1.442   6.633   2.888
11776TIP3   OH235270   4.363   4.155   6.377
11776TIP3    H135271   4.337   4.222   6.315
11776TIP3    H235272   4.371   4.202   6.461
11777TIP3   OH235273   5.264   6.271   6.085
11777TIP3    H135274   5.196   6.336   6.069
11777TIP3    H235275   5.222   6.187   6.066
11778TIP3   OH235276   7.677   2.376   5.227
11778TIP3    H135277   7.713   2.371   5.139
11778TIP3    H235278   7.595   2.326   5.222
11779TIP3   OH235279   2.494   3.536   3.985
11779TIP3    H135280   2.457   3.586   4.058
11779TIP3    H235281   2.550   3.471   4.027
11780TIP3   OH235282   7.872   2.533   3.822
11780TIP3    H135283   7.873   2.608   3.882
11780TIP3    H235284   7.817   2.562   3.749
11781TIP3   OH235285   5.935   7.525   1.010
11781TIP3    H135286   6.015   7.517   1.061
11781TIP3    H235287   5.936   7.450   0.951
11782TIP3   OH235288   5.661   2.126   4.575
11782TIP3    H135289   5.571   2.144   4.600
11782TIP3    H235290   5.687   2.201   4.523
11783TIP3   OH235291   2.279   0.412   3.336
11783TIP3    H135292   2.204   0.411   3.277
11783TIP3    H235293   2.272   0.496   3.382
11784TIP3   OH235294   7.007   6.009   5.892
11784TIP3    H135295   6.932   5.955   5.868
11784TIP3    H235296   7.072   5.993   5.823
11785TIP3   OH235297   3.600   0.558   0.053
11785TIP3    H135298   3.528   0.618   0.073
11785TIP3    H235299   3.557   0.474   0.035
11786TIP3   OH235300   1.627   3.935   4.463
11786TIP3    H135301   1.657   3.976   4.382
11786TIP3    H235302   1.677   3.978   4.532
11787TIP3   OH235303   1.244   2.565   4.729
11787TIP3    H135304   1.151   2.586   4.742
11787TIP3    H235305   1.249   2.470   4.739
11788TIP3   OH235306   6.851   0.333   0.259
11788TIP3    H135307   6.946   0.323   0.264
11788TIP3    H235308   6.835   0.357   0.168
11789TIP3   OH235309   6.157   1.811   1.461
11789TIP3    H135310   6.093   1.759   1.510
11789TIP3    H235311   6.219   1.842   1.527
11790TIP3   OH235312   8.144   6.454   1.293
11790TIP3    H135313   8.105   6.370   1.267
11790TIP3    H235314   8.178   6.491   1.212
11791TIP3   OH235315   3.131   5.138   0.489
11791TIP3    H135316   3.182   5.094   0.556
11791TIP3    H235317   3.169   5.225   0.483
11792TIP3   OH235318   7.023   3.932   5.993
11792TIP3    H135319   7.004   4.024   5.980
11792TIP3    H235320   7.119   3.927   5.995
11793TIP3   OH235321   0.244   4.972   5.092
11793TIP3    H135322   0.207   5.044   5.041
11793TIP3    H235323   0.167   4.928   5.129
11794TIP3   OH235324   5.384   5.889   6.754
11794TIP3    H135325   5.303   5.936   6.775
11794TIP3    H235326   5.411   5.850   6.837
11795TIP3   OH235327   3.108   3.186   5.874
11795TIP3    H135328   3.067   3.181   5.787
11795TIP3    H235329   3.197   3.155   5.860
11796TIP3   OH235330   7.086   1.668   0.140
11796TIP3    H135331   7.060   1.581   0.169
11796TIP3    H235332   7.020   1.727   0.176
11797TIP3   OH235333   4.729   3.754   5.965
11797TIP3    H135334   4.736   3.754   5.870
11797TIP3    H235335   4.635   3.763   5.982
11798TIP3   OH235336   2.098   3.734   4.402
11798TIP3    H135337   2.058   3.798   4.343
11798TIP3    H235338   2.123   3.661   4.345
11799TIP3   OH235339  -0.001   2.700   2.725
11799TIP3    H135340   0.062   2.634   2.752
11799TIP3    H235341   0.003   2.768   2.792
11800TIP3   OH235342   2.608   1.973   5.249
11800TIP3    H135343   2.678   1.933   5.197
11800TIP3    H235344   2.653   2.009   5.326
11801TIP3   OH235345   7.974   4.796   0.252
11801TIP3    H135346   8.030   4.724   0.223
11801TIP3    H235347   7.952   4.774   0.342
11802TIP3   OH235348   1.909   4.310   0.949
11802TIP3    H135349   1.962   4.275   1.020
11802TIP3    H235350   1.971   4.321   0.876
11803TIP3   OH235351   4.184   6.307   2.160
11803TIP3    H135352   4.146   6.362   2.228
11803TIP3    H235353   4.243   6.365   2.112
11804TIP3   OH235354   1.273   0.851   5.491
11804TIP3    H135355   1.258   0.776   5.549
11804TIP3    H235356   1.254   0.928   5.545
11805TIP3   OH235357   6.750   0.565   4.470
11805TIP3    H135358   6.753   0.498   4.402
11805TIP3    H235359   6.836   0.562   4.511
11806TIP3   OH235360   7.473   4.378   1.849
11806TIP3    H135361   7.425   4.383   1.932
11806TIP3    H235362   7.407   4.352   1.785
11807TIP3   OH235363   3.193   6.838   2.302
11807TIP3    H135364   3.246   6.802   2.231
11807TIP3    H235365   3.209   6.780   2.376
11808TIP3   OH235366   1.152   5.515   0.096
11808TIP3    H135367   1.231   5.562   0.122
11808TIP3    H235368   1.160   5.430   0.140
11809TIP3   OH235369   3.500   0.732   3.145
11809TIP3    H135370   3.404   0.730   3.137
11809TIP3    H235371   3.523   0.824   3.132
11810TIP3   OH235372   1.150   6.141   0.354
11810TIP3    H135373   1.114   6.074   0.297
11810TIP3    H235374   1.088   6.147   0.427
11811TIP3   OH235375   5.284   6.646   0.614
11811TIP3    H135376   5.247   6.726   0.577
11811TIP3    H235377   5.303   6.591   0.539
11812TIP3   OH235378   0.372   5.687   4.903
11812TIP3    H135379   0.455   5.722   4.934
11812TIP3    H235380   0.369   5.709   4.810
11813TIP3   OH235381   8.056   6.202   4.243
11813TIP3    H135382   8.103   6.131   4.198
11813TIP3    H235383   8.122   6.241   4.301
11814TIP3   OH235384   8.143   7.541   3.681
11814TIP3    H135385   8.210   7.497   3.734
11814TIP3    H235386   8.172   7.529   3.591
11815TIP3   OH235387   6.318   5.788   5.177
11815TIP3    H135388   6.241   5.740   5.206
11815TIP3    H235389   6.368   5.725   5.126
11816TIP3   OH235390   0.335   4.616   1.523
11816TIP3    H135391   0.315   4.570   1.605
11816TIP3    H235392   0.362   4.704   1.550
11817TIP3   OH235393   2.535   0.777   2.427
11817TIP3    H135394   2.455   0.732   2.455
11817TIP3    H235395   2.602   0.709   2.425
11818TIP3   OH235396   0.755   1.214   4.467
11818TIP3    H135397   0.674   1.165   4.479
11818TIP3    H235398   0.733   1.304   4.491
11819TIP3   OH235399   3.378   5.436   1.554
11819TIP3    H135400   3.381   5.413   1.461
11819TIP3    H235401   3.443   5.505   1.564
11820TIP3   OH235402   6.378   6.808   4.842
11820TIP3    H135403   6.317   6.735   4.831
11820TIP3    H235404   6.330   6.884   4.810
11821TIP3   OH235405   0.451   6.116   1.884
11821TIP3    H135406   0.361   6.100   1.913
11821TIP3    H235407   0.497   6.035   1.906
11822TIP3   OH235408   3.400   2.700   0.639
11822TIP3    H135409   3.490   2.727   0.652
11822TIP3    H235410   3.373   2.666   0.725
11823TIP3   OH235411   6.009   7.388   0.264
11823TIP3    H135412   6.037   7.475   0.290
11823TIP3    H235413   6.078   7.358   0.205
11824TIP3   OH235414   5.586   2.455   4.647
11824TIP3    H135415   5.597   2.439   4.554
11824TIP3    H235416   5.491   2.463   4.659
11825TIP3   OH235417   4.714   2.553   6.742
11825TIP3    H135418   4.678   2.469   6.715
11825TIP3    H235419   4.690   2.561   6.835
11826TIP3   OH235420   1.342   4.049   4.712
11826TIP3    H135421   1.391   4.123   4.747
11826TIP3    H235422   1.288   4.086   4.642
11827TIP3   OH235423   6.344   5.390   5.444
11827TIP3    H135424   6.347   5.365   5.536
11827TIP3    H235425   6.268   5.448   5.437
11828TIP3   OH235426   4.921   0.959   5.939
11828TIP3    H135427   4.911   0.975   5.845
11828TIP3    H235428   4.884   1.036   5.981
11829TIP3   OH235429   3.279   4.253   0.858
11829TIP3    H135430   3.262   4.268   0.765
11829TIP3    H235431   3.358   4.305   0.876
11830TIP3   OH235432   3.195   1.235   0.602
11830TIP3    H135433   3.110   1.278   0.590
11830TIP3    H235434   3.232   1.229   0.514
11831TIP3   OH235435   2.560   2.659   0.782
11831TIP3    H135436   2.519   2.579   0.750
11831TIP3    H235437   2.570   2.714   0.704
11832TIP3   OH235438   4.953   2.450   0.327
11832TIP3    H135439   4.882   2.388   0.315
11832TIP3    H235440   4.963   2.492   0.241
11833TIP3   OH235441   7.638   6.112   1.564
11833TIP3    H135442   7.544   6.105   1.551
11833TIP3    H235443   7.665   6.024   1.591
11834TIP3   OH235444   6.135   3.477   3.237
11834TIP3    H135445   6.144   3.399   3.292
11834TIP3    H235446   6.069   3.530   3.282
11835TIP3   OH235447   1.233   2.165   1.036
11835TIP3    H135448   1.195   2.099   0.977
11835TIP3    H235449   1.194   2.248   1.008
11836TIP3   OH235450   0.442   0.136   2.473
11836TIP3    H135451   0.506   0.124   2.543
11836TIP3    H235452   0.357   0.140   2.518
11837TIP3   OH235453   6.375   1.631   4.752
11837TIP3    H135454   6.324   1.680   4.687
11837TIP3    H235455   6.328   1.548   4.761
11838TIP3   OH235456   4.935   6.573   0.424
11838TIP3    H135457   4.944   6.531   0.509
11838TIP3    H235458   4.999   6.529   0.368
11839TIP3   OH235459   3.847   4.709   0.187
11839TIP3    H135460   3.766   4.753   0.210
11839TIP3    H235461   3.837   4.687   0.095
11840TIP3   OH235462   6.840   0.173   5.592
11840TIP3    H135463   6.790   0.110   5.645
11840TIP3    H235464   6.776   0.239   5.567
11841TIP3   OH235465   0.537   0.751   4.787
11841TIP3    H135466   0.499   0.663   4.781
11841TIP3    H235467   0.546   0.780   4.696
11842TIP3   OH235468   0.895   6.348   2.171
11842TIP3    H135469   0.840   6.271   2.186
11842TIP3    H235470   0.926   6.338   2.081
11843TIP3   OH235471   5.228   0.122   6.071
11843TIP3    H135472   5.137   0.151   6.063
11843TIP3    H235473   5.230   0.037   6.028
11844TIP3   OH235474   4.671   6.083   4.046
11844TIP3    H135475   4.678   5.996   4.084
11844TIP3    H235476   4.614   6.131   4.107
11845TIP3   OH235477   3.299   4.270   2.030
11845TIP3    H135478   3.387   4.253   2.064
11845TIP3    H235479   3.260   4.331   2.093
11846TIP3   OH235480   7.739   6.457   1.481
11846TIP3    H135481   7.668   6.398   1.454
11846TIP3    H235482   7.757   6.434   1.572
11847TIP3   OH235483   8.299   2.520   0.775
11847TIP3    H135484   8.205   2.515   0.790
11847TIP3    H235485   8.314   2.463   0.699
11848TIP3   OH235486   5.619   3.267   2.203
11848TIP3    H135487   5.652   3.338   2.149
11848TIP3    H235488   5.642   3.187   2.155
11849TIP3   OH235489   6.565   4.135   5.540
11849TIP3    H135490   6.535   4.183   5.618
11849TIP3    H235491   6.563   4.043   5.567
11850TIP3   OH235492   8.150   5.294   0.696
11850TIP3    H135493   8.244   5.289   0.713
11850TIP3    H235494   8.139   5.249   0.612
11851TIP3   OH235495   1.378   1.778   6.461
11851TIP3    H135496   1.367   1.820   6.546
11851TIP3    H235497   1.406   1.689   6.482
11852TIP3   OH235498   3.091   4.264   2.681
11852TIP3    H135499   3.079   4.228   2.769
11852TIP3    H235500   3.160   4.210   2.642
11853TIP3   OH235501   8.163   4.085   5.394
11853TIP3    H135502   8.145   4.004   5.441
11853TIP3    H235503   8.081   4.134   5.396
11854TIP3   OH235504   1.847   1.142   2.011
11854TIP3    H135505   1.943   1.144   2.016
11854TIP3    H235506   1.829   1.118   1.920
11855TIP3   OH235507   8.190   5.802   0.664
11855TIP3    H135508   8.144   5.886   0.662
11855TIP3    H235509   8.121   5.737   0.648
11856TIP3   OH235510   3.559   6.810   2.073
11856TIP3    H135511   3.475   6.778   2.040
11856TIP3    H235512   3.581   6.751   2.145
11857TIP3   OH235513   1.708   4.412   0.763
11857TIP3    H135514   1.656   4.332   0.750
11857TIP3    H235515   1.762   4.392   0.840
11858TIP3   OH235516   3.212   3.124   1.559
11858TIP3    H135517   3.205   3.198   1.618
11858TIP3    H235518   3.121   3.095   1.545
11859TIP3   OH235519   6.669   5.848   4.018
11859TIP3    H135520   6.586   5.896   4.019
11859TIP3    H235521   6.734   5.914   3.991
11860TIP3   OH235522   6.711   3.060   0.652
11860TIP3    H135523   6.720   2.972   0.615
11860TIP3    H235524   6.616   3.069   0.666
11861TIP3   OH235525   3.381   5.036   1.134
11861TIP3    H135526   3.420   5.001   1.214
11861TIP3    H235527   3.423   4.987   1.063
11862TIP3   OH235528   8.150   5.026   3.724
11862TIP3    H135529   8.140   4.981   3.641
11862TIP3    H235530   8.181   4.959   3.785
11863TIP3   OH235531   0.508   1.146   2.046
11863TIP3    H135532   0.486   1.210   1.979
11863TIP3    H235533   0.523   1.198   2.125
11864TIP3   OH235534   8.092   7.219   5.421
11864TIP3    H135535   8.105   7.278   5.346
11864TIP3    H235536   8.066   7.136   5.381
11865TIP3   OH235537   7.050   3.693   4.629
11865TIP3    H135538   7.115   3.651   4.573
11865TIP3    H235539   6.974   3.635   4.626
11866TIP3   OH235540   5.516  -0.005   3.591
11866TIP3    H135541   5.503   0.051   3.667
11866TIP3    H235542   5.609   0.002   3.571
11867TIP3   OH235543   7.534   1.044   2.369
11867TIP3    H135544   7.619   1.050   2.413
11867TIP3    H235545   7.556   1.016   2.280
11868TIP3   OH235546   5.838   7.498   2.139
11868TIP3    H135547   5.869   7.581   2.176
11868TIP3    H235548   5.744   7.497   2.158
11869TIP3   OH235549   3.315   0.267   2.926
11869TIP3    H135550   3.302   0.297   2.836
11869TIP3    H235551   3.289   0.175   2.925
11870TIP3   OH235552   5.223   3.877   1.537
11870TIP3    H135553   5.152   3.889   1.601
11870TIP3    H235554   5.196   3.930   1.462
11871TIP3   OH235555   4.219   7.193   4.275
11871TIP3    H135556   4.151   7.165   4.336
11871TIP3    H235557   4.177   7.263   4.225
11872TIP3   OH235558   7.422   3.331   4.985
11872TIP3    H135559   7.420   3.418   4.944
11872TIP3    H235560   7.352   3.334   5.051
11873TIP3   OH235561   1.013   6.226   2.461
11873TIP3    H135562   1.084   6.270   2.416
11873TIP3    H235563   1.056   6.164   2.521
11874TIP3   OH235564   3.526   4.127   4.188
11874TIP3    H135565   3.526   4.111   4.283
11874TIP3    H235566   3.435   4.115   4.162
11875TIP3   OH235567   1.232   3.581   4.220
11875TIP3    H135568   1.223   3.673   4.246
11875TIP3    H235569   1.233   3.533   4.303
11876TIP3   OH235570   4.411   2.623   1.808
11876TIP3    H135571   4.335   2.636   1.865
11876TIP3    H235572   4.457   2.548   1.847
11877TIP3   OH235573   2.770   0.953   6.603
11877TIP3    H135574   2.824   1.025   6.635
11877TIP3    H235575   2.690   0.958   6.656
11878TIP3   OH235576   6.926   4.983   3.718
11878TIP3    H135577   6.917   4.944   3.805
11878TIP3    H235578   6.957   4.912   3.663
11879TIP3   OH235579   6.364   3.260   2.664
11879TIP3    H135580   6.370   3.305   2.749
11879TIP3    H235581   6.425   3.187   2.672
11880TIP3   OH235582   0.781   4.969   5.911
11880TIP3    H135583   0.807   4.879   5.888
11880TIP3    H235584   0.686   4.965   5.916
11881TIP3   OH235585   6.058   3.477   2.316
11881TIP3    H135586   6.068   3.509   2.226
11881TIP3    H235587   6.068   3.555   2.371
11882TIP3   OH235588   7.092   0.804   1.256
11882TIP3    H135589   7.159   0.871   1.268
11882TIP3    H235590   7.111   0.767   1.170
11883TIP3   OH235591   5.212   5.581   0.167
11883TIP3    H135592   5.159   5.647   0.212
11883TIP3    H235593   5.149   5.533   0.113
11884TIP3   OH235594   6.575   2.984   4.951
11884TIP3    H135595   6.494   2.990   5.001
11884TIP3    H235596   6.640   3.030   5.004
11885TIP3   OH235597   4.351   7.826   4.162
11885TIP3    H135598   4.412   7.753   4.171
11885TIP3    H235599   4.355   7.872   4.247
11886TIP3   OH235600   0.877   2.698   4.111
11886TIP3    H135601   0.871   2.784   4.070
11886TIP3    H235602   0.945   2.708   4.178
11887TIP3   OH235603   3.341   6.199   5.746
11887TIP3    H135604   3.360   6.204   5.840
11887TIP3    H235605   3.272   6.134   5.739
11888TIP3   OH235606   0.920   7.641   3.038
11888TIP3    H135607   0.854   7.583   3.000
11888TIP3    H235608   0.881   7.729   3.029
11889TIP3   OH235609   0.561   4.223   6.110
11889TIP3    H135610   0.531   4.298   6.162
11889TIP3    H235611   0.564   4.150   6.173
11890TIP3   OH235612   3.915   3.157   2.978
11890TIP3    H135613   3.851   3.110   3.031
11890TIP3    H235614   3.974   3.197   3.041
11891TIP3   OH235615   0.045   7.476   5.709
11891TIP3    H135616  -0.033   7.428   5.683
11891TIP3    H235617   0.117   7.413   5.700
11892TIP3   OH235618   6.614   7.071   3.580
11892TIP3    H135619   6.664   6.991   3.600
11892TIP3    H235620   6.524   7.041   3.571
11893TIP3   OH235621   2.068   6.602   3.966
11893TIP3    H135622   2.081   6.531   4.029
11893TIP3    H235623   2.070   6.559   3.881
11894TIP3   OH235624   1.205   6.621   4.689
11894TIP3    H135625   1.147   6.546   4.704
11894TIP3    H235626   1.291   6.582   4.676
11895TIP3   OH235627   2.118   3.104   4.290
11895TIP3    H135628   2.131   3.069   4.202
11895TIP3    H235629   2.059   3.041   4.332
11896TIP3   OH235630   3.869   2.525   3.177
11896TIP3    H135631   3.844   2.517   3.269
11896TIP3    H235632   3.815   2.597   3.144
11897TIP3   OH235633   1.955   2.846   4.309
11897TIP3    H135634   1.867   2.869   4.340
11897TIP3    H235635   1.940   2.800   4.226
11898TIP3   OH235636   5.128   3.882   3.993
11898TIP3    H135637   5.197   3.860   4.055
11898TIP3    H235638   5.056   3.913   4.047
11899TIP3   OH235639   5.542   3.648   2.465
11899TIP3    H135640   5.551   3.554   2.484
11899TIP3    H235641   5.589   3.691   2.536
11900TIP3   OH235642   2.847   3.581   6.170
11900TIP3    H135643   2.812   3.514   6.111
11900TIP3    H235644   2.930   3.607   6.130
11901TIP3   OH235645   7.800   7.248   3.330
11901TIP3    H135646   7.775   7.173   3.385
11901TIP3    H235647   7.887   7.271   3.361
11902TIP3   OH235648   5.495   0.850   5.195
11902TIP3    H135649   5.450   0.925   5.232
11902TIP3    H235650   5.445   0.828   5.116
11903TIP3   OH235651   0.189   2.881   3.392
11903TIP3    H135652   0.117   2.861   3.452
11903TIP3    H235653   0.267   2.851   3.437
11904TIP3   OH235654   8.030   1.721   5.292
11904TIP3    H135655   8.099   1.673   5.338
11904TIP3    H235656   7.977   1.653   5.251
11905TIP3   OH235657   1.815   7.363   0.767
11905TIP3    H135658   1.778   7.375   0.855
11905TIP3    H235659   1.837   7.270   0.764
11906TIP3   OH235660   3.164   5.237   0.140
11906TIP3    H135661   3.098   5.286   0.189
11906TIP3    H235662   3.211   5.187   0.207
11907TIP3   OH235663   7.206   1.558   2.160
11907TIP3    H135664   7.240   1.607   2.086
11907TIP3    H235665   7.189   1.625   2.227
11908TIP3   OH235666   8.226   0.718   1.504
11908TIP3    H135667   8.154   0.713   1.567
11908TIP3    H235668   8.182   0.732   1.419
11909TIP3   OH235669   4.301   7.585   3.485
11909TIP3    H135670   4.323   7.498   3.453
11909TIP3    H235671   4.365   7.643   3.442
11910TIP3   OH235672   3.712   0.311   4.755
11910TIP3    H135673   3.705   0.281   4.846
11910TIP3    H235674   3.647   0.260   4.708
11911TIP3   OH235675   3.293   5.099   3.718
11911TIP3    H135676   3.256   5.184   3.744
11911TIP3    H235677   3.292   5.100   3.623
11912TIP3   OH235678   0.794   7.266   6.589
11912TIP3    H135679   0.842   7.293   6.511
11912TIP3    H235680   0.775   7.347   6.636
11913TIP3   OH235681   7.580   5.962   4.627
11913TIP3    H135682   7.619   6.032   4.678
11913TIP3    H235683   7.631   5.884   4.650
11914TIP3   OH235684   0.606   3.505   4.994
11914TIP3    H135685   0.561   3.452   4.929
11914TIP3    H235686   0.667   3.445   5.037
11915TIP3   OH235687   3.796   5.455   0.321
11915TIP3    H135688   3.764   5.367   0.340
11915TIP3    H235689   3.742   5.486   0.249
11916TIP3   OH235690   1.192   1.470   3.575
11916TIP3    H135691   1.186   1.388   3.525
11916TIP3    H235692   1.245   1.527   3.520
11917TIP3   OH235693   5.612   3.371   2.460
11917TIP3    H135694   5.611   3.331   2.372
11917TIP3    H235695   5.702   3.359   2.490
11918TIP3   OH235696   2.184   2.516   5.037
11918TIP3    H135697   2.201   2.574   5.111
11918TIP3    H235698   2.089   2.504   5.036
11919TIP3   OH235699   0.210   3.682   0.255
11919TIP3    H135700   0.227   3.695   0.348
11919TIP3    H235701   0.283   3.629   0.225
11920TIP3   OH235702   0.723   1.128   2.563
11920TIP3    H135703   0.794   1.182   2.529
11920TIP3    H235704   0.718   1.151   2.656
11921TIP3   OH235705   3.636   4.852   2.611
11921TIP3    H135706   3.707   4.911   2.637
11921TIP3    H235707   3.666   4.766   2.639
11922TIP3   OH235708   1.506   2.985   5.861
11922TIP3    H135709   1.419   2.960   5.890
11922TIP3    H235710   1.491   3.049   5.791
11923TIP3   OH235711   0.822   2.912   3.483
11923TIP3    H135712   0.832   2.872   3.397
11923TIP3    H235713   0.870   2.994   3.477
11924TIP3   OH235714   2.001   1.633   0.790
11924TIP3    H135715   1.929   1.623   0.728
11924TIP3    H235716   2.079   1.633   0.735
11925TIP3   OH235717   4.766   4.329   4.545
11925TIP3    H135718   4.811   4.327   4.630
11925TIP3    H235719   4.697   4.263   4.554
11926TIP3   OH235720   4.249   1.693   0.805
11926TIP3    H135721   4.248   1.603   0.838
11926TIP3    H235722   4.219   1.746   0.879
11927TIP3   OH235723   6.782   1.253   0.142
11927TIP3    H135724   6.803   1.161   0.162
11927TIP3    H235725   6.799   1.262   0.049
11928TIP3   OH235726   0.867   3.759   3.178
11928TIP3    H135727   0.799   3.819   3.207
11928TIP3    H235728   0.864   3.687   3.240
11929TIP3   OH235729   3.187   4.674   2.704
11929TIP3    H135730   3.265   4.623   2.682
11929TIP3    H235731   3.214   4.765   2.692
11930TIP3   OH235732   3.765   7.652   3.839
11930TIP3    H135733   3.742   7.698   3.759
11930TIP3    H235734   3.777   7.561   3.812
11931TIP3   OH235735   7.982   0.694   3.982
11931TIP3    H135736   7.896   0.661   4.010
11931TIP3    H235737   8.044   0.655   4.044
11932TIP3   OH235738   4.012   4.394   3.759
11932TIP3    H135739   4.015   4.305   3.793
11932TIP3    H235740   3.929   4.430   3.791
11933TIP3   OH235741   0.383   6.537   6.398
11933TIP3    H135742   0.300   6.489   6.393
11933TIP3    H235743   0.449   6.475   6.366
11934TIP3   OH235744   6.418   4.761   3.985
11934TIP3    H135745   6.382   4.845   3.958
11934TIP3    H235746   6.342   4.703   3.989
11935TIP3   OH235747   6.849   2.165   0.426
11935TIP3    H135748   6.778   2.186   0.366
11935TIP3    H235749   6.805   2.135   0.506
11936TIP3   OH235750   3.926   6.169   1.433
11936TIP3    H135751   3.984   6.238   1.401
11936TIP3    H235752   3.936   6.098   1.370
11937TIP3   OH235753   0.976   0.406   2.661
11937TIP3    H135754   0.941   0.469   2.724
11937TIP3    H235755   0.937   0.433   2.577
11938TIP3   OH235756   1.109   2.141   4.709
11938TIP3    H135757   1.138   2.217   4.659
11938TIP3    H235758   1.113   2.068   4.647
11939TIP3   OH235759   2.044   3.583   2.191
11939TIP3    H135760   2.022   3.490   2.192
11939TIP3    H235761   2.120   3.590   2.248
11940TIP3   OH235762   0.320   4.289   2.962
11940TIP3    H135763   0.394   4.257   3.014
11940TIP3    H235764   0.257   4.320   3.028
11941TIP3   OH235765   7.828   0.016   4.244
11941TIP3    H135766   7.792   0.080   4.306
11941TIP3    H235767   7.889   0.065   4.190
11942TIP3   OH235768   5.896   4.078   0.698
11942TIP3    H135769   5.840   4.114   0.766
11942TIP3    H235770   5.911   3.987   0.724
11943TIP3   OH235771   0.507   0.157   3.950
11943TIP3    H135772   0.590   0.193   3.979
11943TIP3    H235773   0.513   0.157   3.854
11944TIP3   OH235774   1.468   1.968   5.710
11944TIP3    H135775   1.383   2.001   5.738
11944TIP3    H235776   1.467   1.875   5.733
11945TIP3   OH235777   0.325   1.567   4.717
11945TIP3    H135778   0.383   1.629   4.761
11945TIP3    H235779   0.254   1.553   4.780
11946TIP3   OH235780   6.215   1.032   2.557
11946TIP3    H135781   6.224   1.119   2.517
11946TIP3    H235782   6.216   1.048   2.651
11947TIP3   OH235783   2.163   1.873   1.081
11947TIP3    H135784   2.234   1.933   1.103
11947TIP3    H235785   2.205   1.800   1.036
11948TIP3   OH235786   4.701   1.328   3.700
11948TIP3    H135787   4.666   1.387   3.766
11948TIP3    H235788   4.636   1.257   3.696
11949TIP3   OH235789   2.246   0.076   4.264
11949TIP3    H135790   2.169   0.023   4.243
11949TIP3    H235791   2.275   0.112   4.180
11950TIP3   OH235792   6.012   6.710   6.735
11950TIP3    H135793   5.919   6.717   6.715
11950TIP3    H235794   6.042   6.634   6.686
11951TIP3   OH235795   4.261   3.983   3.528
11951TIP3    H135796   4.179   3.937   3.514
11951TIP3    H235797   4.281   4.022   3.443
11952TIP3   OH235798   1.853   4.304   1.967
11952TIP3    H135799   1.930   4.350   2.000
11952TIP3    H235800   1.875   4.211   1.973
11953TIP3   OH235801   5.746   5.524   1.285
11953TIP3    H135802   5.798   5.466   1.230
11953TIP3    H235803   5.690   5.466   1.337
11954TIP3   OH235804   3.435   0.859   0.533
11954TIP3    H135805   3.489   0.783   0.514
11954TIP3    H235806   3.369   0.827   0.595
11955TIP3   OH235807   6.460   0.690   6.093
11955TIP3    H135808   6.518   0.613   6.091
11955TIP3    H235809   6.518   0.762   6.119
11956TIP3   OH235810   5.186   0.795   1.914
11956TIP3    H135811   5.254   0.801   1.981
11956TIP3    H235812   5.215   0.724   1.857
11957TIP3   OH235813   6.088   7.383   2.948
11957TIP3    H135814   6.079   7.290   2.969
11957TIP3    H235815   6.017   7.425   2.998
11958TIP3   OH235816   0.534   5.375   0.362
11958TIP3    H135817   0.563   5.284   0.358
11958TIP3    H235818   0.583   5.413   0.434
11959TIP3   OH235819   0.437   5.066   6.555
11959TIP3    H135820   0.485   5.005   6.611
11959TIP3    H235821   0.354   5.023   6.538
11960TIP3   OH235822   1.604   2.271   6.677
11960TIP3    H135823   1.584   2.291   6.769
11960TIP3    H235824   1.597   2.355   6.633
11961TIP3   OH235825   6.811   0.359   2.509
11961TIP3    H135826   6.734   0.371   2.454
11961TIP3    H235827   6.817   0.264   2.523
11962TIP3   OH235828   2.742   4.126   5.161
11962TIP3    H135829   2.808   4.058   5.158
11962TIP3    H235830   2.766   4.186   5.090
11963TIP3   OH235831   1.067   7.216   2.342
11963TIP3    H135832   1.161   7.237   2.337
11963TIP3    H235833   1.024   7.297   2.314
11964TIP3   OH235834   0.470   3.871   6.500
11964TIP3    H135835   0.470   3.892   6.593
11964TIP3    H235836   0.377   3.869   6.476
11965TIP3   OH235837   2.437   7.188   3.506
11965TIP3    H135838   2.460   7.133   3.430
11965TIP3    H235839   2.342   7.202   3.497
11966TIP3   OH235840   4.495   4.975   3.100
11966TIP3    H135841   4.544   5.021   3.168
11966TIP3    H235842   4.562   4.947   3.037
11967TIP3   OH235843   3.739   6.807   5.609
11967TIP3    H135844   3.679   6.820   5.535
11967TIP3    H235845   3.773   6.718   5.596
11968TIP3   OH235846   5.578   1.579   5.783
11968TIP3    H135847   5.524   1.502   5.800
11968TIP3    H235848   5.533   1.625   5.712
11969TIP3   OH235849   2.931   5.253   1.448
11969TIP3    H135850   2.961   5.302   1.372
11969TIP3    H235851   2.971   5.298   1.523
11970TIP3   OH235852   6.673   3.766   6.133
11970TIP3    H135853   6.620   3.746   6.056
11970TIP3    H235854   6.711   3.852   6.114
11971TIP3   OH235855   4.635   1.904   1.973
11971TIP3    H135856   4.628   1.836   2.040
11971TIP3    H235857   4.654   1.857   1.892
11972TIP3   OH235858   4.459   2.836   6.422
11972TIP3    H135859   4.479   2.857   6.513
11972TIP3    H235860   4.433   2.743   6.423
11973TIP3   OH235861   6.002   6.900   2.847
11973TIP3    H135862   5.959   6.972   2.800
11973TIP3    H235863   6.005   6.828   2.784
11974TIP3   OH235864   1.975   4.627   1.679
11974TIP3    H135865   2.066   4.610   1.653
11974TIP3    H235866   1.938   4.676   1.605
11975TIP3   OH235867   2.422   2.710   1.436
11975TIP3    H135868   2.337   2.723   1.395
11975TIP3    H235869   2.432   2.615   1.441
11976TIP3   OH235870   2.265   0.838   0.833
11976TIP3    H135871   2.287   0.780   0.761
11976TIP3    H235872   2.179   0.873   0.809
11977TIP3   OH235873   6.750   1.149   4.667
11977TIP3    H135874   6.776   1.185   4.752
11977TIP3    H235875   6.810   1.190   4.604
11978TIP3   OH235876   4.740   6.623   1.178
11978TIP3    H135877   4.716   6.585   1.263
11978TIP3    H235878   4.835   6.618   1.175
11979TIP3   OH235879   1.382   4.810   6.240
11979TIP3    H135880   1.357   4.878   6.303
11979TIP3    H235881   1.299   4.767   6.218
11980TIP3   OH235882   1.441   0.818   5.812
11980TIP3    H135883   1.476   0.747   5.865
11980TIP3    H235884   1.346   0.805   5.815
11981TIP3   OH235885   3.701   0.473   6.275
11981TIP3    H135886   3.609   0.446   6.266
11981TIP3    H235887   3.746   0.430   6.203
11982TIP3   OH235888   1.166   1.176   6.117
11982TIP3    H135889   1.248   1.159   6.163
11982TIP3    H235890   1.167   1.271   6.102
11983TIP3   OH235891   4.778   0.451   2.465
11983TIP3    H135892   4.736   0.531   2.433
11983TIP3    H235893   4.749   0.383   2.404
11984TIP3   OH235894   1.823   4.495   2.461
11984TIP3    H135895   1.787   4.412   2.430
11984TIP3    H235896   1.805   4.556   2.390
11985TIP3   OH235897   4.694   4.520   1.223
11985TIP3    H135898   4.718   4.539   1.133
11985TIP3    H235899   4.688   4.606   1.265
11986TIP3   OH235900   8.164   2.310   2.938
11986TIP3    H135901   8.120   2.304   3.023
11986TIP3    H235902   8.126   2.239   2.886
11987TIP3   OH235903   6.701   1.896   0.953
11987TIP3    H135904   6.637   1.961   0.924
11987TIP3    H235905   6.786   1.937   0.935
11988TIP3   OH235906   2.927   0.930   3.109
11988TIP3    H135907   2.841   0.962   3.081
11988TIP3    H235908   2.946   0.978   3.189
11989TIP3   OH235909   6.717   1.277   1.800
11989TIP3    H135910   6.715   1.282   1.705
11989TIP3    H235911   6.774   1.203   1.820
11990TIP3   OH235912   5.883   4.618   3.544
11990TIP3    H135913   5.904   4.711   3.539
11990TIP3    H235914   5.881   4.589   3.453
11991TIP3   OH235915   3.841   0.805   4.017
11991TIP3    H135916   3.877   0.777   4.101
11991TIP3    H235917   3.910   0.860   3.978
11992TIP3   OH235918   8.012   4.203   2.564
11992TIP3    H135919   7.996   4.254   2.485
11992TIP3    H235920   7.932   4.151   2.577
11993TIP3   OH235921   5.509   1.558   0.895
11993TIP3    H135922   5.447   1.598   0.835
11993TIP3    H235923   5.454   1.508   0.956
11994TIP3   OH235924   3.235   5.591   2.748
11994TIP3    H135925   3.260   5.661   2.809
11994TIP3    H235926   3.140   5.583   2.757
11995TIP3   OH235927   0.167   7.212   3.419
11995TIP3    H135928   0.118   7.130   3.416
11995TIP3    H235929   0.194   7.220   3.511
11996TIP3   OH235930   3.090   5.757   4.771
11996TIP3    H135931   3.134   5.687   4.819
11996TIP3    H235932   3.027   5.712   4.714
11997TIP3   OH235933   5.581   3.979   6.014
11997TIP3    H135934   5.522   3.941   5.949
11997TIP3    H235935   5.584   4.072   5.992
11998TIP3   OH235936   1.211   7.297   6.496
11998TIP3    H135937   1.277   7.348   6.542
11998TIP3    H235938   1.179   7.234   6.560
11999TIP3   OH235939   3.884   2.988   6.624
11999TIP3    H135940   3.880   3.065   6.680
11999TIP3    H235941   3.977   2.964   6.622
12000TIP3   OH235942   0.031   4.949   0.616
12000TIP3    H135943   0.034   4.904   0.532
12000TIP3    H235944   0.104   5.011   0.613
12001TIP3   OH235945   0.982   7.829   1.098
12001TIP3    H135946   0.983   7.734   1.087
12001TIP3    H235947   0.894   7.848   1.132
12002TIP3   OH235948   5.976   2.877   1.220
12002TIP3    H135949   5.974   2.784   1.197
12002TIP3    H235950   6.061   2.908   1.189
12003TIP3   OH235951   7.893   1.047   5.539
12003TIP3    H135952   7.829   1.074   5.472
12003TIP3    H235953   7.975   1.088   5.512
12004TIP3   OH235954   7.430   0.916   0.887
12004TIP3    H135955   7.431   0.957   0.801
12004TIP3    H235956   7.469   0.981   0.946
12005TIP3   OH235957   3.043   4.429   4.744
12005TIP3    H135958   3.049   4.515   4.703
12005TIP3    H235959   2.966   4.388   4.705
12006TIP3   OH235960   4.874   0.724   0.682
12006TIP3    H135961   4.893   0.812   0.716
12006TIP3    H235962   4.889   0.732   0.588
12007TIP3   OH235963   0.825   5.266   2.038
12007TIP3    H135964   0.752   5.237   1.984
12007TIP3    H235965   0.822   5.211   2.116
12008TIP3   OH235966   7.636   5.882   4.173
12008TIP3    H135967   7.694   5.905   4.245
12008TIP3    H235968   7.628   5.787   4.178
12009TIP3   OH235969   0.534   6.919   5.185
12009TIP3    H135970   0.491   6.930   5.270
12009TIP3    H235971   0.518   6.828   5.162
12010TIP3   OH235972   7.483   5.596   2.023
12010TIP3    H135973   7.531   5.613   1.942
12010TIP3    H235974   7.480   5.500   2.029
12011TIP3   OH235975   6.438   4.419   4.994
12011TIP3    H135976   6.418   4.459   5.079
12011TIP3    H235977   6.434   4.325   5.011
12012TIP3   OH235978   7.726   7.282   2.079
12012TIP3    H135979   7.695   7.225   2.009
12012TIP3    H235980   7.783   7.346   2.035
12013TIP3   OH235981   6.649   1.540   1.417
12013TIP3    H135982   6.592   1.512   1.489
12013TIP3    H235983   6.695   1.616   1.452
12014TIP3   OH235984   7.545   7.207   2.724
12014TIP3    H135985   7.474   7.175   2.779
12014TIP3    H235986   7.603   7.132   2.714
12015TIP3   OH235987   6.208   6.463   2.776
12015TIP3    H135988   6.121   6.436   2.745
12015TIP3    H235989   6.192   6.501   2.862
12016TIP3   OH235990   2.962   3.293   3.503
12016TIP3    H135991   2.974   3.344   3.423
12016TIP3    H235992   3.008   3.211   3.485
12017TIP3   OH235993   3.513   3.189   3.984
12017TIP3    H135994   3.530   3.131   3.910
12017TIP3    H235995   3.432   3.235   3.960
12018TIP3   OH235996   2.792   5.374   5.531
12018TIP3    H135997   2.712   5.417   5.502
12018TIP3    H235998   2.845   5.363   5.452
12019TIP3   OH235999   6.264   0.297   0.437
12019TIP3    H136000   6.208   0.329   0.508
12019TIP3    H236001   6.334   0.362   0.432
12020TIP3   OH236002   0.872   7.018   0.376
12020TIP3    H136003   0.900   7.109   0.385
12020TIP3    H236004   0.889   6.996   0.285
12021TIP3   OH236005   3.517   3.291   4.458
12021TIP3    H136006   3.467   3.351   4.513
12021TIP3    H236007   3.460   3.274   4.383
12022TIP3   OH236008   4.989   2.589   0.087
12022TIP3    H136009   5.046   2.652   0.131
12022TIP3    H236010   4.945   2.640   0.019
12023TIP3   OH236011   7.750   7.107   0.867
12023TIP3    H136012   7.817   7.145   0.924
12023TIP3    H236013   7.752   7.013   0.888
12024TIP3   OH236014   5.388   5.473   3.378
12024TIP3    H136015   5.462   5.493   3.321
12024TIP3    H236016   5.373   5.554   3.428
12025TIP3   OH236017   4.227   4.913   1.582
12025TIP3    H136018   4.185   4.827   1.571
12025TIP3    H236019   4.194   4.965   1.509
12026TIP3   OH236020   1.474   2.829   2.650
12026TIP3    H136021   1.516   2.766   2.708
12026TIP3    H236022   1.539   2.846   2.581
12027TIP3   OH236023   7.347   1.201   5.447
12027TIP3    H136024   7.361   1.108   5.464
12027TIP3    H236025   7.426   1.244   5.482
12028TIP3   OH236026   8.266   6.530   0.835
12028TIP3    H136027   8.283   6.611   0.787
12028TIP3    H236028   8.206   6.555   0.905
12029TIP3   OH236029   6.452   6.308   0.058
12029TIP3    H136030   6.433   6.224   0.101
12029TIP3    H236031   6.449   6.287  -0.036
12030TIP3   OH236032   2.335   1.689   6.458
12030TIP3    H136033   2.243   1.686   6.433
12030TIP3    H236034   2.339   1.759   6.524
12031TIP3   OH236035   6.593   3.825   2.092
12031TIP3    H136036   6.645   3.852   2.016
12031TIP3    H236037   6.645   3.755   2.132
12032TIP3   OH236038   0.713   3.622   5.561
12032TIP3    H136039   0.756   3.703   5.536
12032TIP3    H236040   0.745   3.603   5.649
12033TIP3   OH236041   4.439   2.722   0.912
12033TIP3    H136042   4.463   2.795   0.855
12033TIP3    H236043   4.521   2.679   0.934
12034TIP3   OH236044   6.689   2.740   6.233
12034TIP3    H136045   6.759   2.787   6.188
12034TIP3    H236046   6.691   2.652   6.195
12035TIP3   OH236047   7.593   2.123   1.991
12035TIP3    H136048   7.573   2.214   2.013
12035TIP3    H236049   7.509   2.087   1.961
12036TIP3   OH236050   4.654   7.538   4.837
12036TIP3    H136051   4.744   7.569   4.827
12036TIP3    H236052   4.602   7.597   4.782
12037TIP3   OH236053   1.866   1.580   6.811
12037TIP3    H136054   1.795   1.539   6.860
12037TIP3    H236055   1.824   1.647   6.758
12038TIP3   OH236056   0.501   2.175   4.835
12038TIP3    H136057   0.464   2.261   4.856
12038TIP3    H236058   0.429   2.114   4.852
12039TIP3   OH236059   0.833   2.333   1.794
12039TIP3    H136060   0.777   2.409   1.779
12039TIP3    H236061   0.801   2.267   1.732
12040TIP3   OH236062   5.138   7.603   3.101
12040TIP3    H136063   5.215   7.610   3.158
12040TIP3    H236064   5.107   7.692   3.090
12041TIP3   OH236065   1.374   6.156   0.654
12041TIP3    H136066   1.412   6.233   0.611
12041TIP3    H236067   1.443   6.125   0.713
12042TIP3   OH236068   3.273   6.434   1.424
12042TIP3    H136069   3.254   6.383   1.345
12042TIP3    H236070   3.192   6.482   1.442
12043TIP3   OH236071   2.052   0.930   5.768
12043TIP3    H136072   1.990   1.001   5.786
12043TIP3    H236073   2.009   0.877   5.701
12044TIP3   OH236074   3.057   4.725   3.570
12044TIP3    H136075   3.141   4.756   3.537
12044TIP3    H236076   3.005   4.707   3.491
12045TIP3   OH236077   5.199   0.171   1.281
12045TIP3    H136078   5.260   0.183   1.208
12045TIP3    H236079   5.113   0.159   1.239
12046TIP3   OH236080   4.595   0.084   1.630
12046TIP3    H136081   4.681   0.047   1.612
12046TIP3    H236082   4.611   0.177   1.645
12047TIP3   OH236083   0.295   4.275   1.039
12047TIP3    H136084   0.363   4.251   0.976
12047TIP3    H236085   0.268   4.191   1.077
12048TIP3   OH236086   7.884   7.643   3.203
12048TIP3    H136087   7.827   7.688   3.140
12048TIP3    H236088   7.909   7.562   3.158
12049TIP3   OH236089   3.144   7.237   4.087
12049TIP3    H136090   3.236   7.211   4.084
12049TIP3    H236091   3.145   7.332   4.077
12050TIP3   OH236092   1.462   3.295   4.838
12050TIP3    H136093   1.420   3.222   4.794
12050TIP3    H236094   1.512   3.339   4.769
12051TIP3   OH236095   6.259   7.590   3.466
12051TIP3    H136096   6.243   7.660   3.529
12051TIP3    H236097   6.354   7.576   3.470
12052TIP3   OH236098   5.726   0.315   2.186
12052TIP3    H136099   5.788   0.294   2.117
12052TIP3    H236100   5.729   0.410   2.194
12053TIP3   OH236101   6.008   1.848   1.243
12053TIP3    H136102   6.059   1.804   1.310
12053TIP3    H236103   5.917   1.840   1.273
12054TIP3   OH236104   7.435   4.033   4.583
12054TIP3    H136105   7.524   4.000   4.572
12054TIP3    H236106   7.424   4.041   4.678
12055TIP3   OH236107   3.131   3.087   4.898
12055TIP3    H136108   3.044   3.126   4.899
12055TIP3    H236109   3.144   3.055   4.988
12056TIP3   OH236110   6.353   3.970   0.925
12056TIP3    H136111   6.372   4.054   0.883
12056TIP3    H236112   6.313   3.918   0.856
12057TIP3   OH236113   6.853   3.538   3.303
12057TIP3    H136114   6.899   3.525   3.386
12057TIP3    H236115   6.843   3.633   3.296
12058TIP3   OH236116   6.038   1.157   3.542
12058TIP3    H136117   5.950   1.144   3.577
12058TIP3    H236118   6.088   1.193   3.615
12059TIP3   OH236119   1.517   6.247   3.169
12059TIP3    H136120   1.584   6.219   3.107
12059TIP3    H236121   1.466   6.168   3.187
12060TIP3   OH236122   4.377   6.183   6.486
12060TIP3    H136123   4.434   6.110   6.509
12060TIP3    H236124   4.302   6.174   6.545
12061TIP3   OH236125   6.326   1.981   6.031
12061TIP3    H136126   6.325   2.076   6.029
12061TIP3    H236127   6.328   1.954   5.939
12062TIP3   OH236128   7.941   3.123   4.308
12062TIP3    H136129   7.953   3.199   4.364
12062TIP3    H236130   7.969   3.049   4.362
12063TIP3   OH236131   4.826   6.505   5.970
12063TIP3    H136132   4.825   6.489   6.065
12063TIP3    H236133   4.806   6.420   5.931
12064TIP3   OH236134   2.132   0.258   5.477
12064TIP3    H136135   2.118   0.287   5.567
12064TIP3    H236136   2.224   0.278   5.460
12065TIP3   OH236137   1.599   5.983   0.571
12065TIP3    H136138   1.518   5.970   0.521
12065TIP3    H236139   1.627   5.895   0.595
12066TIP3   OH236140   1.156   2.557   4.041
12066TIP3    H136141   1.167   2.651   4.048
12066TIP3    H236142   1.062   2.543   4.034
12067TIP3   OH236143   4.266   6.607   1.324
12067TIP3    H136144   4.239   6.696   1.346
12067TIP3    H236145   4.359   6.613   1.304
12068TIP3   OH236146   3.076   1.222   4.479
12068TIP3    H136147   3.123   1.215   4.562
12068TIP3    H236148   3.036   1.309   4.483
12069TIP3   OH236149   2.199   4.402   6.178
12069TIP3    H136150   2.232   4.399   6.088
12069TIP3    H236151   2.153   4.319   6.191
12070TIP3   OH236152   5.395   1.497   1.521
12070TIP3    H136153   5.485   1.466   1.525
12070TIP3    H236154   5.343   1.420   1.499
12071TIP3   OH236155   0.099   5.140   3.393
12071TIP3    H136156   0.031   5.185   3.444
12071TIP3    H236157   0.066   5.051   3.383
12072TIP3   OH236158   7.821   3.326   5.744
12072TIP3    H136159   7.775   3.400   5.704
12072TIP3    H236160   7.784   3.249   5.700
12073TIP3   OH236161   1.739   2.701   3.029
12073TIP3    H136162   1.835   2.702   3.035
12073TIP3    H236163   1.710   2.756   3.102
12074TIP3   OH236164   8.277   6.551   5.270
12074TIP3    H136165   8.334   6.585   5.340
12074TIP3    H236166   8.261   6.460   5.295
12075TIP3   OH236167   6.842   1.661   0.910
12075TIP3    H136168   6.781   1.732   0.889
12075TIP3    H236169   6.927   1.703   0.917
12076TIP3   OH236170   6.881   1.840   0.203
12076TIP3    H136171   6.848   1.929   0.189
12076TIP3    H236172   6.815   1.784   0.162
12077TIP3   OH236173   4.504   0.513   3.763
12077TIP3    H136174   4.437   0.464   3.716
12077TIP3    H236175   4.582   0.457   3.761
12078TIP3   OH236176   2.096   1.673   3.549
12078TIP3    H136177   2.129   1.721   3.474
12078TIP3    H236178   2.050   1.598   3.512
12079TIP3   OH236179   2.774   7.596   5.709
12079TIP3    H136180   2.769   7.691   5.719
12079TIP3    H236181   2.858   7.581   5.665
12080TIP3   OH236182   0.109   2.347   1.581
12080TIP3    H136183   0.173   2.387   1.521
12080TIP3    H236184   0.162   2.299   1.644
12081TIP3   OH236185   0.362   5.352   5.266
12081TIP3    H136186   0.375   5.436   5.311
12081TIP3    H236187   0.365   5.375   5.173
12082TIP3   OH236188   2.824   7.590   2.731
12082TIP3    H136189   2.804   7.631   2.647
12082TIP3    H236190   2.738   7.575   2.772
12083TIP3   OH236191   3.980   4.785   4.096
12083TIP3    H136192   3.953   4.876   4.110
12083TIP3    H236193   3.956   4.740   4.178
12084TIP3   OH236194   0.414   4.501   4.471
12084TIP3    H136195   0.410   4.584   4.424
12084TIP3    H236196   0.408   4.526   4.564
12085TIP3   OH236197   6.125   3.354   6.557
12085TIP3    H136198   6.183   3.393   6.622
12085TIP3    H236199   6.176   3.284   6.517
12086TIP3   OH236200   7.421   0.781   3.888
12086TIP3    H136201   7.426   0.733   3.971
12086TIP3    H236202   7.496   0.840   3.890
12087TIP3   OH236203   1.588   4.249   2.065
12087TIP3    H136204   1.532   4.182   2.026
12087TIP3    H236205   1.661   4.258   2.004
12088TIP3   OH236206   7.765   4.208   4.885
12088TIP3    H136207   7.848   4.161   4.879
12088TIP3    H236208   7.722   4.192   4.801
12089TIP3   OH236209   4.925  -0.014   2.443
12089TIP3    H136210   4.888  -0.063   2.516
12089TIP3    H236211   4.915   0.078   2.467
12090TIP3   OH236212   4.992   3.152   1.162
12090TIP3    H136213   5.005   3.163   1.256
12090TIP3    H236214   5.080   3.133   1.128
12091TIP3   OH236215   5.082   4.124   2.925
12091TIP3    H136216   4.990   4.137   2.948
12091TIP3    H236217   5.117   4.213   2.916
12092TIP3   OH236218   0.942   3.322   5.707
12092TIP3    H136219   0.862   3.351   5.749
12092TIP3    H236220   0.965   3.393   5.646
12093TIP3   OH236221   2.822   3.737   4.890
12093TIP3    H136222   2.809   3.793   4.813
12093TIP3    H236223   2.878   3.789   4.948
12094TIP3   OH236224   7.703   5.565   4.832
12094TIP3    H136225   7.638   5.497   4.848
12094TIP3    H236226   7.727   5.596   4.919
12095TIP3   OH236227   7.575   2.959   1.197
12095TIP3    H136228   7.607   3.049   1.194
12095TIP3    H236229   7.485   2.966   1.229
12096TIP3   OH236230   2.631   7.695   1.454
12096TIP3    H136231   2.631   7.700   1.359
12096TIP3    H236232   2.592   7.610   1.474
12097TIP3   OH236233   3.059   5.437   1.643
12097TIP3    H136234   3.012   5.520   1.648
12097TIP3    H236235   3.151   5.461   1.656
12098TIP3   OH236236   1.239   0.624   6.092
12098TIP3    H136237   1.191   0.623   6.010
12098TIP3    H236238   1.326   0.655   6.068
12099TIP3   OH236239   3.291   0.612   2.508
12099TIP3    H136240   3.231   0.587   2.438
12099TIP3    H236241   3.240   0.671   2.563
12100TIP3   OH236242   7.635   4.154   4.059
12100TIP3    H136243   7.573   4.089   4.026
12100TIP3    H236244   7.590   4.238   4.049
12101TIP3   OH236245   5.532   7.129   0.278
12101TIP3    H136246   5.589   7.204   0.260
12101TIP3    H236247   5.463   7.135   0.212
12102TIP3   OH236248   6.413   2.997   1.337
12102TIP3    H136249   6.483   2.959   1.283
12102TIP3    H236250   6.437   3.090   1.345
12103TIP3   OH236251   1.164   0.783   6.348
12103TIP3    H136252   1.199   0.732   6.275
12103TIP3    H236253   1.072   0.795   6.327
12104TIP3   OH236254   4.216   5.211   0.609
12104TIP3    H136255   4.301   5.252   0.625
12104TIP3    H236256   4.201   5.156   0.686
12105TIP3   OH236257   2.174   1.216   0.248
12105TIP3    H136258   2.114   1.233   0.176
12105TIP3    H236259   2.146   1.132   0.284
12106TIP3   OH236260   4.341   0.196   2.606
12106TIP3    H136261   4.365   0.164   2.519
12106TIP3    H236262   4.334   0.118   2.660
12107TIP3   OH236263   0.578   3.080   0.923
12107TIP3    H136264   0.512   3.079   0.854
12107TIP3    H236265   0.657   3.112   0.880
12108TIP3   OH236266   7.977   4.864  -0.027
12108TIP3    H136267   8.071   4.860  -0.005
12108TIP3    H236268   7.933   4.830   0.050
12109TIP3   OH236269   4.468   3.644   5.968
12109TIP3    H136270   4.450   3.655   5.875
12109TIP3    H236271   4.431   3.558   5.990
12110TIP3   OH236272   2.759   0.437   2.223
12110TIP3    H136273   2.693   0.378   2.259
12110TIP3    H236274   2.821   0.379   2.179
12111TIP3   OH236275   8.089   6.598   5.068
12111TIP3    H136276   8.135   6.576   5.149
12111TIP3    H236277   8.031   6.523   5.053
12112TIP3   OH236278   5.468   1.046   6.742
12112TIP3    H136279   5.550   1.032   6.790
12112TIP3    H236280   5.471   1.138   6.716
12113TIP3   OH236281   0.782   3.565   3.387
12113TIP3    H136282   0.786   3.624   3.462
12113TIP3    H236283   0.826   3.485   3.416
12114TIP3   OH236284   4.797   7.045   2.165
12114TIP3    H136285   4.824   6.975   2.105
12114TIP3    H236286   4.841   7.024   2.248
12115TIP3   OH236287   5.248   2.260   0.609
12115TIP3    H136288   5.296   2.254   0.527
12115TIP3    H236289   5.156   2.257   0.583
12116TIP3   OH236290   4.630   1.472   3.478
12116TIP3    H136291   4.547   1.427   3.462
12116TIP3    H236292   4.674   1.418   3.544
12117TIP3   OH236293   4.857   1.296   2.729
12117TIP3    H136294   4.834   1.268   2.818
12117TIP3    H236295   4.786   1.355   2.704
12118TIP3   OH236296   6.592   2.626   2.471
12118TIP3    H136297   6.607   2.593   2.560
12118TIP3    H236298   6.604   2.721   2.478
12119TIP3   OH236299   4.774   4.778   5.460
12119TIP3    H136300   4.839   4.821   5.515
12119TIP3    H236301   4.694   4.778   5.513
12120TIP3   OH236302   1.508   2.752   5.705
12120TIP3    H136303   1.601   2.771   5.718
12120TIP3    H236304   1.464   2.808   5.769
12121TIP3   OH236305   2.239   4.351   4.234
12121TIP3    H136306   2.260   4.385   4.321
12121TIP3    H236307   2.181   4.277   4.250
12122TIP3   OH236308   5.185   0.986   0.710
12122TIP3    H136309   5.176   0.892   0.696
12122TIP3    H236310   5.279   1.000   0.716
12123TIP3   OH236311   6.132   2.500   0.715
12123TIP3    H136312   6.194   2.466   0.650
12123TIP3    H236313   6.068   2.429   0.726
12124TIP3   OH236314   6.689   5.499   1.718
12124TIP3    H136315   6.751   5.433   1.689
12124TIP3    H236316   6.611   5.484   1.664
12125TIP3   OH236317   6.751   0.778   1.682
12125TIP3    H136318   6.660   0.787   1.652
12125TIP3    H236319   6.804   0.792   1.603
12126TIP3   OH236320   7.848   3.117   2.198
12126TIP3    H136321   7.829   3.063   2.275
12126TIP3    H236322   7.800   3.199   2.214
12127TIP3   OH236323   6.662   2.802   6.635
12127TIP3    H136324   6.653   2.873   6.571
12127TIP3    H236325   6.717   2.738   6.591
12128TIP3   OH236326   3.378   1.808   1.366
12128TIP3    H136327   3.399   1.842   1.279
12128TIP3    H236328   3.291   1.769   1.357
12129TIP3   OH236329   7.382   1.237   0.861
12129TIP3    H136330   7.303   1.207   0.816
12129TIP3    H236331   7.449   1.173   0.835
12130TIP3   OH236332   3.481   5.584   0.439
12130TIP3    H136333   3.498   5.631   0.358
12130TIP3    H236334   3.562   5.594   0.490
12131TIP3   OH236335   0.269   5.195   4.924
12131TIP3    H136336   0.258   5.173   4.831
12131TIP3    H236337   0.342   5.257   4.925
12132TIP3   OH236338   6.619   6.425   0.344
12132TIP3    H136339   6.627   6.395   0.253
12132TIP3    H236340   6.583   6.514   0.336
12133TIP3   OH236341   7.251   2.963   2.557
12133TIP3    H136342   7.287   2.917   2.481
12133TIP3    H236343   7.272   3.055   2.542
12134TIP3   OH236344   2.856   7.428   5.989
12134TIP3    H136345   2.811   7.352   6.026
12134TIP3    H236346   2.797   7.458   5.919
12135TIP3   OH236347   0.480   5.524   5.830
12135TIP3    H136348   0.470   5.510   5.925
12135TIP3    H236349   0.570   5.553   5.819
12136TIP3   OH236350   7.252   0.862   6.504
12136TIP3    H136351   7.172   0.871   6.451
12136TIP3    H236352   7.277   0.770   6.494
12137TIP3   OH236353   4.840   5.648   0.339
12137TIP3    H136354   4.935   5.656   0.336
12137TIP3    H236355   4.817   5.668   0.429
12138TIP3   OH236356   4.957   4.147   5.150
12138TIP3    H136357   4.955   4.079   5.217
12138TIP3    H236358   4.983   4.226   5.197
12139TIP3   OH236359   1.426   7.764   2.448
12139TIP3    H136360   1.387   7.736   2.366
12139TIP3    H236361   1.353   7.768   2.510
12140TIP3   OH236362   7.267   2.972   0.074
12140TIP3    H136363   7.254   3.031  -0.001
12140TIP3    H236364   7.360   2.977   0.093
12141TIP3   OH236365   7.382   3.142   6.718
12141TIP3    H136366   7.331   3.196   6.779
12141TIP3    H236367   7.453   3.199   6.689
12142TIP3   OH236368   4.443   0.511   1.880
12142TIP3    H136369   4.483   0.580   1.933
12142TIP3    H236370   4.498   0.508   1.801
12143TIP3   OH236371   7.491   2.960   3.078
12143TIP3    H136372   7.507   3.055   3.081
12143TIP3    H236373   7.459   2.939   3.166
12144TIP3   OH236374   2.646   4.957   5.851
12144TIP3    H136375   2.625   5.018   5.922
12144TIP3    H236376   2.586   4.884   5.863
12145TIP3   OH236377   5.504   2.384   2.910
12145TIP3    H136378   5.470   2.409   2.824
12145TIP3    H236379   5.506   2.467   2.959
12146TIP3   OH236380   0.049   4.355   2.717
12146TIP3    H136381   0.102   4.393   2.647
12146TIP3    H236382   0.082   4.266   2.728
12147TIP3   OH236383   7.186   6.914   0.183
12147TIP3    H136384   7.099   6.882   0.203
12147TIP3    H236385   7.189   7.002   0.221
12148TIP3   OH236386   5.270   2.169   2.864
12148TIP3    H136387   5.270   2.074   2.855
12148TIP3    H236388   5.357   2.190   2.900
12149TIP3   OH236389   5.541   3.273   1.392
12149TIP3    H136390   5.523   3.362   1.362
12149TIP3    H236391   5.551   3.222   1.311
12150TIP3   OH236392   7.311   6.889   0.981
12150TIP3    H136393   7.363   6.968   0.994
12150TIP3    H236394   7.359   6.821   1.029
12151TIP3   OH236395   6.742   5.166   2.844
12151TIP3    H136396   6.739   5.109   2.921
12151TIP3    H236397   6.825   5.213   2.853
12152TIP3   OH236398   1.307   4.344   1.724
12152TIP3    H136399   1.378   4.281   1.730
12152TIP3    H236400   1.278   4.356   1.815
12153TIP3   OH236401   7.859   5.068   5.498
12153TIP3    H136402   7.814   4.987   5.475
12153TIP3    H236403   7.951   5.044   5.507
12154TIP3   OH236404   4.485   0.516   5.453
12154TIP3    H136405   4.428   0.439   5.454
12154TIP3    H236406   4.427   0.588   5.428
12155TIP3   OH236407   8.234   0.183   3.350
12155TIP3    H136408   8.315   0.183   3.402
12155TIP3    H236409   8.243   0.107   3.292
12156TIP3   OH236410   3.470   2.874   3.042
12156TIP3    H136411   3.469   2.882   2.947
12156TIP3    H236412   3.382   2.899   3.070
12157TIP3   OH236413   5.825   5.555   5.206
12157TIP3    H136414   5.829   5.462   5.226
12157TIP3    H236415   5.769   5.592   5.275
12158TIP3   OH236416   3.118   3.064   4.463
12158TIP3    H136417   3.168   3.052   4.382
12158TIP3    H236418   3.050   2.996   4.459
12159TIP3   OH236419   5.615   4.771   5.008
12159TIP3    H136420   5.685   4.712   5.038
12159TIP3    H236421   5.625   4.849   5.061
12160TIP3   OH236422   5.805   7.733   4.199
12160TIP3    H136423   5.883   7.717   4.145
12160TIP3    H236424   5.768   7.646   4.215
12161TIP3   OH236425   6.123   1.716   6.499
12161TIP3    H136426   6.173   1.755   6.427
12161TIP3    H236427   6.081   1.791   6.542
12162TIP3   OH236428   7.653   0.544   2.115
12162TIP3    H136429   7.633   0.625   2.164
12162TIP3    H236430   7.610   0.556   2.031
12163TIP3   OH236431   6.857   3.824   2.423
12163TIP3    H136432   6.931   3.875   2.456
12163TIP3    H236433   6.864   3.740   2.469
12164TIP3   OH236434   8.199   6.925   2.513
12164TIP3    H136435   8.255   6.892   2.443
12164TIP3    H236436   8.247   7.000   2.548
12165TIP3   OH236437   4.187   2.899   3.763
12165TIP3    H136438   4.166   2.938   3.848
12165TIP3    H236439   4.148   2.958   3.699
12166TIP3   OH236440   1.965   4.882   6.524
12166TIP3    H136441   2.010   4.828   6.459
12166TIP3    H236442   2.017   4.872   6.604
12167TIP3   OH236443   2.209   6.616   1.181
12167TIP3    H136444   2.190   6.533   1.136
12167TIP3    H236445   2.163   6.609   1.264
12168TIP3   OH236446   0.574   1.219   1.323
12168TIP3    H136447   0.628   1.213   1.245
12168TIP3    H236448   0.592   1.306   1.358
12169TIP3   OH236449   6.851   0.079   2.565
12169TIP3    H136450   6.935   0.083   2.521
12169TIP3    H236451   6.811  -0.001   2.533
12170TIP3   OH236452   2.649   3.896   3.072
12170TIP3    H136453   2.676   3.818   3.121
12170TIP3    H236454   2.721   3.912   3.011
12171TIP3   OH236455   1.765   3.359   4.159
12171TIP3    H136456   1.819   3.398   4.090
12171TIP3    H236457   1.785   3.266   4.155
12172TIP3   OH236458   8.217   3.406   2.671
12172TIP3    H136459   8.214   3.501   2.668
12172TIP3    H236460   8.311   3.385   2.675
12173TIP3   OH236461   7.886   5.387   2.594
12173TIP3    H136462   7.799   5.347   2.597
12173TIP3    H236463   7.881   5.451   2.523
12174TIP3   OH236464   2.947   4.371   6.640
12174TIP3    H136465   2.918   4.306   6.704
12174TIP3    H236466   2.902   4.345   6.559
12175TIP3   OH236467   3.668   5.728   5.305
12175TIP3    H136468   3.738   5.793   5.302
12175TIP3    H236469   3.711   5.644   5.293
12176TIP3   OH236470   2.590   6.565   5.950
12176TIP3    H136471   2.527   6.585   5.880
12176TIP3    H236472   2.658   6.631   5.940
12177TIP3   OH236473   7.177   0.783   0.971
12177TIP3    H136474   7.266   0.780   0.935
12177TIP3    H236475   7.124   0.822   0.902
12178TIP3   OH236476   4.507   4.313   2.860
12178TIP3    H136477   4.592   4.354   2.847
12178TIP3    H236478   4.461   4.326   2.777
12179TIP3   OH236479   5.721   1.279   1.140
12179TIP3    H136480   5.656   1.347   1.160
12179TIP3    H236481   5.743   1.293   1.048
12180TIP3   OH236482   4.853   5.061   1.107
12180TIP3    H136483   4.802   5.115   1.167
12180TIP3    H236484   4.932   5.113   1.089
12181TIP3   OH236485   5.607   5.703   0.688
12181TIP3    H136486   5.518   5.695   0.653
12181TIP3    H236487   5.622   5.619   0.732
12182TIP3   OH236488   8.271   6.562   6.410
12182TIP3    H136489   8.192   6.513   6.432
12182TIP3    H236490   8.255   6.650   6.444
12183TIP3   OH236491   6.545   3.714   4.639
12183TIP3    H136492   6.602   3.791   4.639
12183TIP3    H236493   6.466   3.742   4.593
12184TIP3   OH236494   7.365   1.741   2.039
12184TIP3    H136495   7.460   1.741   2.046
12184TIP3    H236496   7.348   1.760   1.947
12185TIP3   OH236497   2.145   0.635   4.971
12185TIP3    H136498   2.193   0.614   5.051
12185TIP3    H236499   2.085   0.562   4.959
12186TIP3   OH236500   4.936   0.975   0.818
12186TIP3    H136501   5.014   0.986   0.764
12186TIP3    H236502   4.882   1.052   0.798
12187TIP3   OH236503   2.322   3.051   2.481
12187TIP3    H136504   2.263   3.060   2.406
12187TIP3    H236505   2.340   2.957   2.486
12188TIP3   OH236506   4.204   7.377   5.251
12188TIP3    H136507   4.233   7.435   5.180
12188TIP3    H236508   4.285   7.340   5.286
12189TIP3   OH236509   0.271   0.216   2.135
12189TIP3    H136510   0.203   0.190   2.197
12189TIP3    H236511   0.226   0.275   2.074
12190TIP3   OH236512   4.777   6.430   2.232
12190TIP3    H136513   4.768   6.482   2.152
12190TIP3    H236514   4.770   6.493   2.303
12191TIP3   OH236515   4.283   3.229   5.916
12191TIP3    H136516   4.314   3.141   5.936
12191TIP3    H236517   4.190   3.219   5.899
12192TIP3   OH236518   1.765   6.937   4.552
12192TIP3    H136519   1.731   6.899   4.633
12192TIP3    H236520   1.852   6.970   4.576
12193TIP3   OH236521   7.860   0.521   6.549
12193TIP3    H136522   7.789   0.526   6.486
12193TIP3    H236523   7.818   0.533   6.634
12194TIP3   OH236524   0.097   6.226   2.773
12194TIP3    H136525   0.129   6.288   2.839
12194TIP3    H236526   0.002   6.226   2.784
12195TIP3   OH236527   6.844   3.605   1.256
12195TIP3    H136528   6.822   3.640   1.170
12195TIP3    H236529   6.767   3.554   1.282
12196TIP3   OH236530   6.627   4.084   4.477
12196TIP3    H136531   6.592   4.108   4.391
12196TIP3    H236532   6.624   4.165   4.528
12197TIP3   OH236533   5.258   3.146   1.120
12197TIP3    H136534   5.301   3.206   1.059
12197TIP3    H236535   5.321   3.077   1.135
12198TIP3   OH236536   6.890   2.515   5.955
12198TIP3    H136537   6.968   2.492   5.905
12198TIP3    H236538   6.842   2.576   5.899
12199TIP3   OH236539   5.015   1.630   6.240
12199TIP3    H136540   5.035   1.548   6.283
12199TIP3    H236541   4.923   1.646   6.262
12200TIP3   OH236542   4.118   7.440   1.984
12200TIP3    H136543   4.117   7.517   2.041
12200TIP3    H236544   4.205   7.440   1.944
12201TIP3   OH236545   1.202   3.871   3.292
12201TIP3    H136546   1.264   3.943   3.304
12201TIP3    H236547   1.175   3.847   3.381
12202TIP3   OH236548   2.782   0.679   2.890
12202TIP3    H136549   2.798   0.717   2.804
12202TIP3    H236550   2.748   0.752   2.943
12203TIP3   OH236551   7.642   3.546   3.617
12203TIP3    H136552   7.603   3.471   3.662
12203TIP3    H236553   7.722   3.511   3.578
12204TIP3   OH236554   6.605   4.894   3.049
12204TIP3    H136555   6.623   4.880   2.956
12204TIP3    H236556   6.590   4.806   3.085
12205TIP3   OH236557   1.080   5.311   2.107
12205TIP3    H136558   1.091   5.404   2.125
12205TIP3    H236559   0.988   5.302   2.082
12206TIP3   OH236560   8.069   1.980   5.208
12206TIP3    H136561   8.081   1.888   5.230
12206TIP3    H236562   8.153   2.020   5.229
12207TIP3   OH236563   3.714   0.335   6.538
12207TIP3    H136564   3.731   0.241   6.528
12207TIP3    H236565   3.748   0.374   6.458
12208TIP3   OH236566   6.255   4.997   0.340
12208TIP3    H136567   6.268   5.023   0.248
12208TIP3    H236568   6.311   4.920   0.351
12209TIP3   OH236569   2.289   4.634   5.119
12209TIP3    H136570   2.382   4.648   5.134
12209TIP3    H236571   2.244   4.686   5.185
12210TIP3   OH236572   1.704   1.043   0.676
12210TIP3    H136573   1.661   0.980   0.617
12210TIP3    H236574   1.639   1.059   0.744
12211TIP3   OH236575   7.546   2.871   5.560
12211TIP3    H136576   7.500   2.894   5.479
12211TIP3    H236577   7.528   2.944   5.619
12212TIP3   OH236578   1.467   0.229   3.694
12212TIP3    H136579   1.379   0.263   3.678
12212TIP3    H236580   1.524   0.305   3.691
12213TIP3   OH236581   1.090   2.607   0.247
12213TIP3    H136582   1.114   2.539   0.310
12213TIP3    H236583   1.114   2.571   0.162
12214TIP3   OH236584   4.889   5.733   3.940
12214TIP3    H136585   4.937   5.816   3.936
12214TIP3    H236586   4.839   5.738   4.021
12215TIP3   OH236587   4.606   7.688   4.159
12215TIP3    H136588   4.689   7.692   4.111
12215TIP3    H236589   4.632   7.670   4.249
12216TIP3   OH236590   6.174   6.104   1.704
12216TIP3    H136591   6.095   6.131   1.751
12216TIP3    H236592   6.149   6.023   1.660
12217TIP3   OH236593   2.049   6.401   5.000
12217TIP3    H136594   1.978   6.348   4.964
12217TIP3    H236595   2.018   6.492   4.991
12218TIP3   OH236596   0.037   2.226   5.910
12218TIP3    H136597   0.112   2.207   5.966
12218TIP3    H236598  -0.038   2.193   5.958
12219TIP3   OH236599   0.484   6.101   4.462
12219TIP3    H136600   0.534   6.019   4.457
12219TIP3    H236601   0.540   6.160   4.512
12220TIP3   OH236602   1.398   0.174   1.165
12220TIP3    H136603   1.489   0.187   1.139
12220TIP3    H236604   1.366   0.106   1.106
12221TIP3   OH236605   5.483   0.113   1.584
12221TIP3    H136606   5.399   0.157   1.596
12221TIP3    H236607   5.462   0.033   1.537
12222TIP3   OH236608   5.174   3.934   4.418
12222TIP3    H136609   5.201   3.877   4.490
12222TIP3    H236610   5.234   4.009   4.423
12223TIP3   OH236611   1.384   6.120   5.815
12223TIP3    H136612   1.405   6.188   5.750
12223TIP3    H236613   1.460   6.118   5.872
12224TIP3   OH236614   7.380   6.031   3.136
12224TIP3    H136615   7.400   6.096   3.069
12224TIP3    H236616   7.333   5.962   3.090
12225TIP3   OH236617   2.217   7.116   6.292
12225TIP3    H136618   2.225   7.099   6.198
12225TIP3    H236619   2.187   7.032   6.329
12226TIP3   OH236620   0.674   5.528   2.330
12226TIP3    H136621   0.655   5.444   2.289
12226TIP3    H236622   0.718   5.506   2.412
12227TIP3   OH236623   6.556   1.565   5.587
12227TIP3    H136624   6.522   1.619   5.514
12227TIP3    H236625   6.643   1.600   5.604
12228TIP3   OH236626   2.453   7.118   1.422
12228TIP3    H136627   2.396   7.153   1.491
12228TIP3    H236628   2.395   7.107   1.347
12229TIP3   OH236629   3.501   5.663   3.093
12229TIP3    H136630   3.562   5.718   3.043
12229TIP3    H236631   3.482   5.713   3.171
12230TIP3   OH236632   0.273   6.766   0.702
12230TIP3    H136633   0.281   6.704   0.774
12230TIP3    H236634   0.336   6.735   0.637
12231TIP3   OH236635   1.519   3.999   2.388
12231TIP3    H136636   1.483   3.945   2.458
12231TIP3    H236637   1.461   4.075   2.385
12232TIP3   OH236638   5.795   1.254   0.868
12232TIP3    H136639   5.727   1.250   0.800
12232TIP3    H236640   5.867   1.301   0.826
12233TIP3   OH236641   0.702   3.196   1.791
12233TIP3    H136642   0.691   3.286   1.763
12233TIP3    H236643   0.663   3.144   1.721
12234TIP3   OH236644   1.981   2.744   4.744
12234TIP3    H136645   2.049   2.731   4.677
12234TIP3    H236646   1.946   2.832   4.725
12235TIP3   OH236647   5.634   5.044   5.325
12235TIP3    H136648   5.583   5.011   5.251
12235TIP3    H236649   5.682   4.968   5.357
12236TIP3   OH236650   6.111   4.498   0.993
12236TIP3    H136651   6.095   4.482   0.900
12236TIP3    H236652   6.189   4.552   0.996
12237TIP3   OH236653   8.025   3.728   0.821
12237TIP3    H136654   7.940   3.714   0.778
12237TIP3    H236655   8.002   3.762   0.907
12238TIP3   OH236656   7.320   1.319   3.048
12238TIP3    H136657   7.357   1.395   3.003
12238TIP3    H236658   7.392   1.257   3.054
12239TIP3   OH236659   1.955   1.811   6.398
12239TIP3    H136660   1.915   1.873   6.337
12239TIP3    H236661   1.936   1.846   6.485
12240TIP3   OH236662   2.907   2.427   5.073
12240TIP3    H136663   2.970   2.419   5.145
12240TIP3    H236664   2.909   2.519   5.050
12241TIP3   OH236665   6.742   3.198   5.066
12241TIP3    H136666   6.830   3.236   5.076
12241TIP3    H236667   6.689   3.269   5.030
12242TIP3   OH236668   1.352   3.330   0.396
12242TIP3    H136669   1.355   3.380   0.478
12242TIP3    H236670   1.321   3.244   0.421
12243TIP3   OH236671   1.272   3.794   0.222
12243TIP3    H136672   1.201   3.743   0.184
12243TIP3    H236673   1.276   3.873   0.168
12244TIP3   OH236674   6.663   5.601   4.491
12244TIP3    H136675   6.659   5.691   4.458
12244TIP3    H236676   6.737   5.601   4.551
12245TIP3   OH236677   7.496   2.747   0.217
12245TIP3    H136678   7.587   2.772   0.234
12245TIP3    H236679   7.447   2.783   0.291
12246TIP3   OH236680   6.652   3.228   2.031
12246TIP3    H136681   6.658   3.215   2.126
12246TIP3    H236682   6.621   3.144   1.997
12247TIP3   OH236683   2.678   5.817   5.621
12247TIP3    H136684   2.723   5.778   5.695
12247TIP3    H236685   2.656   5.905   5.650
12248TIP3   OH236686   7.994   1.924   6.484
12248TIP3    H136687   8.062   1.915   6.417
12248TIP3    H236688   7.947   2.003   6.460
12249TIP3   OH236689   1.001   1.559   5.261
12249TIP3    H136690   0.987   1.628   5.196
12249TIP3    H236691   0.945   1.583   5.335
12250TIP3   OH236692   6.045   3.775   4.461
12250TIP3    H136693   6.062   3.824   4.381
12250TIP3    H236694   6.025   3.842   4.526
12251TIP3   OH236695   1.910   2.319   5.668
12251TIP3    H136696   1.877   2.301   5.580
12251TIP3    H236697   1.984   2.259   5.679
12252TIP3   OH236698   7.324   3.531  -0.017
12252TIP3    H136699   7.369   3.595   0.037
12252TIP3    H236700   7.324   3.451   0.035
12253TIP3   OH236701   0.844   0.853   2.013
12253TIP3    H136702   0.917   0.822   1.960
12253TIP3    H236703   0.864   0.945   2.029
12254TIP3   OH236704   4.156   6.013   4.658
12254TIP3    H136705   4.103   6.070   4.714
12254TIP3    H236706   4.113   6.018   4.572
12255TIP3   OH236707   3.519   1.145   5.813
12255TIP3    H136708   3.432   1.106   5.808
12255TIP3    H236709   3.579   1.070   5.807
12256TIP3   OH236710   7.473   7.478   6.453
12256TIP3    H136711   7.422   7.418   6.508
12256TIP3    H236712   7.545   7.506   6.510
12257TIP3   OH236713   8.284   7.494   1.068
12257TIP3    H136714   8.234   7.568   1.033
12257TIP3    H236715   8.312   7.523   1.155
12258TIP3   OH236716   1.055   5.861   4.446
12258TIP3    H136717   1.029   5.909   4.368
12258TIP3    H236718   1.021   5.772   4.432
12259TIP3   OH236719   5.158   6.186   1.001
12259TIP3    H136720   5.149   6.213   0.909
12259TIP3    H236721   5.107   6.106   1.007
12260TIP3   OH236722   0.525   4.417   1.892
12260TIP3    H136723   0.520   4.484   1.960
12260TIP3    H236724   0.616   4.386   1.896
12261TIP3   OH236725   6.647   2.457   4.897
12261TIP3    H136726   6.644   2.538   4.948
12261TIP3    H236727   6.664   2.389   4.962
12262TIP3   OH236728   0.424   0.926   3.901
12262TIP3    H136729   0.441   0.957   3.990
12262TIP3    H236730   0.368   0.849   3.913
12263TIP3   OH236731   5.499   6.721   1.720
12263TIP3    H136732   5.542   6.782   1.780
12263TIP3    H236733   5.408   6.718   1.750
12264TIP3   OH236734   3.641   6.236   5.700
12264TIP3    H136735   3.660   6.280   5.783
12264TIP3    H236736   3.576   6.292   5.658
12265TIP3   OH236737   7.487   6.633   1.389
12265TIP3    H136738   7.576   6.599   1.389
12265TIP3    H236739   7.467   6.648   1.482
12266TIP3   OH236740   4.490   2.074   0.344
12266TIP3    H136741   4.447   2.113   0.269
12266TIP3    H236742   4.422   2.021   0.387
12267TIP3   OH236743   1.588   0.097   2.907
12267TIP3    H136744   1.596   0.042   2.829
12267TIP3    H236745   1.587   0.187   2.874
12268TIP3   OH236746   8.237   2.724   1.414
12268TIP3    H136747   8.317   2.756   1.457
12268TIP3    H236748   8.260   2.638   1.381
12269TIP3   OH236749   0.909   4.948   5.355
12269TIP3    H136750   0.915   4.906   5.441
12269TIP3    H236751   0.819   4.930   5.326
12270TIP3   OH236752   0.950   1.307   5.563
12270TIP3    H136753   0.928   1.257   5.642
12270TIP3    H236754   0.947   1.242   5.493
12271TIP3   OH236755   3.895   5.645   0.100
12271TIP3    H136756   3.871   5.576   0.038
12271TIP3    H236757   3.954   5.603   0.162
12272TIP3   OH236758   2.277   1.450   0.033
12272TIP3    H136759   2.340   1.444  -0.039
12272TIP3    H236760   2.220   1.373   0.022
12273TIP3   OH236761   7.412   6.239   2.959
12273TIP3    H136762   7.481   6.304   2.974
12273TIP3    H236763   7.338   6.290   2.925
12274TIP3   OH236764   1.066   2.171   6.466
12274TIP3    H136765   1.076   2.080   6.440
12274TIP3    H236766   1.139   2.188   6.525
12275TIP3   OH236767   3.004   7.073   0.134
12275TIP3    H136768   3.087   7.108   0.103
12275TIP3    H236769   3.002   7.094   0.227
12276TIP3   OH236770   2.625   3.432   1.162
12276TIP3    H136771   2.669   3.473   1.236
12276TIP3    H236772   2.693   3.383   1.117
12277TIP3   OH236773   3.900   1.485   5.272
12277TIP3    H136774   3.983   1.481   5.225
12277TIP3    H236775   3.834   1.458   5.209
12278TIP3   OH236776   4.826   7.271   6.319
12278TIP3    H136777   4.829   7.201   6.253
12278TIP3    H236778   4.777   7.232   6.391
12279TIP3   OH236779   3.546   1.225   2.794
12279TIP3    H136780   3.535   1.309   2.749
12279TIP3    H236781   3.457   1.195   2.812
12280TIP3   OH236782   1.683   7.445   3.056
12280TIP3    H136783   1.770   7.485   3.050
12280TIP3    H236784   1.699   7.352   3.043
12281TIP3   OH236785   3.183   2.649   0.224
12281TIP3    H136786   3.211   2.600   0.302
12281TIP3    H236787   3.240   2.726   0.223
12282TIP3   OH236788   6.549   3.113   3.441
12282TIP3    H136789   6.472   3.168   3.425
12282TIP3    H236790   6.522   3.055   3.513
12283TIP3   OH236791   7.879   5.271   0.967
12283TIP3    H136792   7.939   5.339   0.937
12283TIP3    H236793   7.821   5.317   1.029
12284TIP3   OH236794   3.368   0.495   5.667
12284TIP3    H136795   3.451   0.452   5.689
12284TIP3    H236796   3.383   0.531   5.579
12285TIP3   OH236797   5.482   0.587   2.298
12285TIP3    H136798   5.449   0.596   2.209
12285TIP3    H236799   5.442   0.506   2.331
12286TIP3   OH236800   2.099   2.408   5.951
12286TIP3    H136801   2.119   2.501   5.949
12286TIP3    H236802   2.028   2.397   5.888
12287TIP3   OH236803   4.621   5.606   1.844
12287TIP3    H136804   4.614   5.629   1.752
12287TIP3    H236805   4.559   5.534   1.855
12288TIP3   OH236806   0.864   0.617   2.835
12288TIP3    H136807   0.792   0.662   2.880
12288TIP3    H236808   0.943   0.652   2.876
12289TIP3   OH236809   1.713   1.748   2.771
12289TIP3    H136810   1.741   1.703   2.850
12289TIP3    H236811   1.763   1.830   2.771
12290TIP3   OH236812   7.229   5.068   4.491
12290TIP3    H136813   7.173   5.040   4.563
12290TIP3    H236814   7.169   5.092   4.420
12291TIP3   OH236815   6.594   5.952   2.605
12291TIP3    H136816   6.617   5.912   2.522
12291TIP3    H236817   6.603   5.881   2.669
12292TIP3   OH236818   7.330   6.806   6.266
12292TIP3    H136819   7.350   6.847   6.182
12292TIP3    H236820   7.235   6.792   6.264
12293TIP3   OH236821   5.031   2.388   5.571
12293TIP3    H136822   5.114   2.392   5.620
12293TIP3    H236823   5.051   2.334   5.495
12294TIP3   OH236824   5.403   1.192   3.335
12294TIP3    H136825   5.332   1.194   3.271
12294TIP3    H236826   5.390   1.270   3.388
12295TIP3   OH236827   1.228   0.791   0.479
12295TIP3    H136828   1.269   0.873   0.452
12295TIP3    H236829   1.252   0.783   0.572
12296TIP3   OH236830   1.738   2.271   0.986
12296TIP3    H136831   1.748   2.357   0.945
12296TIP3    H236832   1.765   2.285   1.077
12297TIP3   OH236833   6.147   3.114   2.196
12297TIP3    H136834   6.170   3.164   2.274
12297TIP3    H236835   6.160   3.175   2.124
12298TIP3   OH236836   8.126   3.969   1.351
12298TIP3    H136837   8.041   4.002   1.322
12298TIP3    H236838   8.122   3.973   1.447
12299TIP3   OH236839   7.100   3.342   1.120
12299TIP3    H136840   7.051   3.338   1.037
12299TIP3    H236841   7.093   3.253   1.155
12300TIP3   OH236842   7.192   0.632   2.220
12300TIP3    H136843   7.119   0.582   2.184
12300TIP3    H236844   7.209   0.700   2.155
12301TIP3   OH236845   0.722   6.576   2.168
12301TIP3    H136846   0.784   6.632   2.120
12301TIP3    H236847   0.768   6.493   2.178
12302TIP3   OH236848   0.342   4.743   4.359
12302TIP3    H136849   0.257   4.743   4.402
12302TIP3    H236850   0.353   4.832   4.327
12303TIP3   OH236851   4.865   4.233   1.954
12303TIP3    H136852   4.882   4.301   2.020
12303TIP3    H236853   4.777   4.254   1.921
12304TIP3   OH236854   7.197   7.181   0.282
12304TIP3    H136855   7.218   7.189   0.375
12304TIP3    H236856   7.115   7.228   0.271
12305TIP3   OH236857   8.248   1.582   3.666
12305TIP3    H136858   8.303   1.566   3.743
12305TIP3    H236859   8.170   1.529   3.682
12306TIP3   OH236860   2.767   0.792   0.866
12306TIP3    H136861   2.715   0.869   0.886
12306TIP3    H236862   2.711   0.739   0.809
12307TIP3   OH236863   8.126   6.292   5.617
12307TIP3    H136864   8.215   6.326   5.625
12307TIP3    H236865   8.091   6.336   5.539
12308TIP3   OH236866   0.192   3.251   4.107
12308TIP3    H136867   0.157   3.287   4.189
12308TIP3    H236868   0.117   3.244   4.049
12309TIP3   OH236869   6.395   6.606   1.788
12309TIP3    H136870   6.477   6.555   1.788
12309TIP3    H236871   6.418   6.688   1.831
12310TIP3   OH236872   5.899   2.607   2.596
12310TIP3    H136873   5.974   2.568   2.552
12310TIP3    H236874   5.915   2.701   2.594
12311TIP3   OH236875   2.956   3.969   5.252
12311TIP3    H136876   3.048   3.992   5.266
12311TIP3    H236877   2.924   3.943   5.339
12312TIP3   OH236878   0.682   1.088   0.111
12312TIP3    H136879   0.659   1.044   0.192
12312TIP3    H236880   0.689   1.181   0.135
12313TIP3   OH236881   3.641   2.514   2.930
12313TIP3    H136882   3.673   2.527   3.020
12313TIP3    H236883   3.619   2.421   2.925
12314TIP3   OH236884   2.428   3.929   5.363
12314TIP3    H136885   2.513   3.914   5.324
12314TIP3    H236886   2.433   3.887   5.449
12315TIP3   OH236887   0.687   4.153   5.146
12315TIP3    H136888   0.649   4.152   5.234
12315TIP3    H236889   0.730   4.238   5.139
12316TIP3   OH236890   6.481   7.772   4.865
12316TIP3    H136891   6.568   7.811   4.870
12316TIP3    H236892   6.470   7.749   4.773
12317TIP3   OH236893   4.697   6.112   3.309
12317TIP3    H136894   4.706   6.064   3.391
12317TIP3    H236895   4.769   6.175   3.310
12318TIP3   OH236896   7.883   3.427   0.618
12318TIP3    H136897   7.917   3.507   0.579
12318TIP3    H236898   7.920   3.357   0.564
12319TIP3   OH236899   0.841   4.664   1.963
12319TIP3    H136900   0.785   4.686   2.037
12319TIP3    H236901   0.860   4.748   1.921
12320TIP3   OH236902   4.173   3.881   0.737
12320TIP3    H136903   4.202   3.826   0.664
12320TIP3    H236904   4.234   3.859   0.808
12321TIP3   OH236905   3.454   0.103   2.042
12321TIP3    H136906   3.507   0.146   2.108
12321TIP3    H236907   3.364   0.120   2.068
12322TIP3   OH236908   0.845   1.155   1.109
12322TIP3    H136909   0.899   1.217   1.158
12322TIP3    H236910   0.857   1.072   1.155
12323TIP3   OH236911   3.377   2.067   0.119
12323TIP3    H136912   3.396   2.037   0.031
12323TIP3    H236913   3.334   1.992   0.161
12324TIP3   OH236914   6.828   4.449   6.669
12324TIP3    H136915   6.854   4.394   6.743
12324TIP3    H236916   6.748   4.408   6.636
12325TIP3   OH236917   3.337   4.289   5.893
12325TIP3    H136918   3.373   4.242   5.968
12325TIP3    H236919   3.411   4.303   5.835
12326TIP3   OH236920   6.189   4.181   5.972
12326TIP3    H136921   6.209   4.237   5.897
12326TIP3    H236922   6.204   4.236   6.048
12327TIP3   OH236923   3.030   4.021  -0.004
12327TIP3    H136924   3.035   4.059  -0.092
12327TIP3    H236925   3.046   4.095   0.055
12328TIP3   OH236926   5.753   4.182   1.181
12328TIP3    H136927   5.841   4.161   1.211
12328TIP3    H236928   5.759   4.181   1.085
12329TIP3   OH236929   6.666   2.504   3.111
12329TIP3    H136930   6.736   2.477   3.171
12329TIP3    H236931   6.667   2.438   3.042
12330TIP3   OH236932   2.790   7.531   3.600
12330TIP3    H136933   2.715   7.471   3.598
12330TIP3    H236934   2.752   7.617   3.582
12331TIP3   OH236935   7.278   2.583   2.478
12331TIP3    H136936   7.199   2.555   2.433
12331TIP3    H236937   7.246   2.627   2.557
12332TIP3   OH236938   4.071   1.560   4.599
12332TIP3    H136939   4.001   1.528   4.542
12332TIP3    H236940   4.144   1.501   4.584
12333TIP3   OH236941   3.229   3.220   6.217
12333TIP3    H136942   3.213   3.250   6.306
12333TIP3    H236943   3.201   3.293   6.162
12334TIP3   OH236944   0.185   2.811   2.945
12334TIP3    H136945   0.094   2.833   2.963
12334TIP3    H236946   0.229   2.821   3.029
12335TIP3   OH236947   3.281   6.878   4.305
12335TIP3    H136948   3.236   6.808   4.258
12335TIP3    H236949   3.276   6.953   4.247
12336TIP3   OH236950   2.876   7.368   1.610
12336TIP3    H136951   2.886   7.460   1.636
12336TIP3    H236952   2.902   7.367   1.518
12337TIP3   OH236953   0.536   4.920   2.271
12337TIP3    H136954   0.456   4.879   2.237
12337TIP3    H236955   0.520   4.932   2.364
12338TIP3   OH236956   2.748   5.769   4.796
12338TIP3    H136957   2.802   5.742   4.870
12338TIP3    H236958   2.695   5.841   4.830
12339TIP3   OH236959   1.317   4.652   4.249
12339TIP3    H136960   1.312   4.601   4.168
12339TIP3    H236961   1.411   4.660   4.266
12340TIP3   OH236962   5.577   0.044   5.743
12340TIP3    H136963   5.525   0.121   5.768
12340TIP3    H236964   5.635   0.030   5.818
12341TIP3   OH236965   4.035   0.971   3.925
12341TIP3    H136966   4.049   1.028   3.850
12341TIP3    H236967   4.115   0.920   3.932
12342TIP3   OH236968   8.102   6.642   2.385
12342TIP3    H136969   8.019   6.595   2.380
12342TIP3    H236970   8.079   6.729   2.417
12343TIP3   OH236971   1.125   3.511   2.137
12343TIP3    H136972   1.049   3.518   2.080
12343TIP3    H236973   1.201   3.526   2.080
12344TIP3   OH236974   1.404   5.255   5.786
12344TIP3    H136975   1.459   5.251   5.865
12344TIP3    H236976   1.467   5.260   5.714
12345TIP3   OH236977   1.768   4.676   2.229
12345TIP3    H136978   1.737   4.683   2.139
12345TIP3    H236979   1.688   4.674   2.282
12346TIP3   OH236980   5.609   4.287   2.943
12346TIP3    H136981   5.588   4.300   2.851
12346TIP3    H236982   5.529   4.312   2.990
12347TIP3   OH236983   1.127   0.138   5.945
12347TIP3    H136984   1.136   0.056   5.993
12347TIP3    H236985   1.045   0.129   5.897
12348TIP3   OH236986   4.528   1.805   5.823
12348TIP3    H136987   4.438   1.771   5.827
12348TIP3    H236988   4.536   1.841   5.735
12349TIP3   OH236989   4.697   1.666   2.138
12349TIP3    H136990   4.685   1.572   2.156
12349TIP3    H236991   4.681   1.708   2.222
12350TIP3   OH236992   0.667   4.627   2.490
12350TIP3    H136993   0.727   4.564   2.531
12350TIP3    H236994   0.589   4.575   2.470
12351TIP3   OH236995   0.660   2.688   2.965
12351TIP3    H136996   0.727   2.757   2.969
12351TIP3    H236997   0.701   2.613   3.008
12352TIP3   OH236998   6.234   4.320   2.517
12352TIP3    H136999   6.170   4.260   2.556
12352TIP3    H237000   6.181   4.393   2.484
12353TIP3   OH237001   5.825   4.545   1.012
12353TIP3    H137002   5.914   4.519   1.038
12353TIP3    H237003   5.837   4.628   0.967
12354TIP3   OH237004   6.839   1.932   3.436
12354TIP3    H137005   6.817   1.897   3.523
12354TIP3    H237006   6.774   2.001   3.421
12355TIP3   OH237007   7.326   7.420   4.703
12355TIP3    H137008   7.272   7.495   4.726
12355TIP3    H237009   7.273   7.371   4.640
12356TIP3   OH237010   1.615   3.974   0.155
12356TIP3    H137011   1.610   4.034   0.230
12356TIP3    H237012   1.535   3.992   0.106
12357TIP3   OH237013   4.585   7.644   0.238
12357TIP3    H137014   4.665   7.672   0.194
12357TIP3    H237015   4.520   7.712   0.216
12358TIP3   OH237016   4.546   2.137   5.034
12358TIP3    H137017   4.605   2.178   4.970
12358TIP3    H237018   4.562   2.185   5.115
12359TIP3   OH237019   0.920   6.829   4.313
12359TIP3    H137020   0.985   6.869   4.256
12359TIP3    H237021   0.840   6.828   4.261
12360TIP3   OH237022   7.908   3.271   1.684
12360TIP3    H137023   7.981   3.333   1.688
12360TIP3    H237024   7.847   3.302   1.752
12361TIP3   OH237025   3.074   0.076   1.140
12361TIP3    H137026   3.045   0.088   1.049
12361TIP3    H237027   3.004   0.113   1.193
12362TIP3   OH237028   6.655   4.184   1.660
12362TIP3    H137029   6.706   4.263   1.644
12362TIP3    H237030   6.666   4.132   1.580
12363TIP3   OH237031   5.182   5.924   3.712
12363TIP3    H137032   5.263   5.975   3.705
12363TIP3    H237033   5.211   5.834   3.724
12364TIP3   OH237034   2.948   4.972   0.021
12364TIP3    H137035   2.961   5.052   0.072
12364TIP3    H237036   3.037   4.942   0.001
12365TIP3   OH237037   2.278   2.911   5.689
12365TIP3    H137038   2.198   2.907   5.741
12365TIP3    H237039   2.298   2.820   5.668
12366TIP3   OH237040   6.272   2.677   0.151
12366TIP3    H137041   6.240   2.588   0.134
12366TIP3    H237042   6.192   2.730   0.161
12367TIP3   OH237043   6.420   4.335   4.015
12367TIP3    H137044   6.502   4.287   4.001
12367TIP3    H237045   6.412   4.342   4.110
12368TIP3   OH237046   4.787   3.918   2.983
12368TIP3    H137047   4.789   4.006   2.946
12368TIP3    H237048   4.875   3.885   2.969
12369TIP3   OH237049   0.647   4.917   5.299
12369TIP3    H137050   0.586   4.849   5.328
12369TIP3    H237051   0.596   4.997   5.298
12370TIP3   OH237052   4.460   5.147   0.391
12370TIP3    H137053   4.458   5.225   0.336
12370TIP3    H237054   4.494   5.178   0.475
12371TIP3   OH237055   1.233   0.807   2.057
12371TIP3    H137056   1.173   0.809   2.131
12371TIP3    H237057   1.277   0.722   2.064
12372TIP3   OH237058   3.925   6.146   4.055
12372TIP3    H137059   3.987   6.085   4.016
12372TIP3    H237060   3.903   6.106   4.139
12373TIP3   OH237061   3.298   1.833   0.219
12373TIP3    H137062   3.354   1.781   0.161
12373TIP3    H237063   3.211   1.829   0.179
12374TIP3   OH237064   4.981   7.065   2.801
12374TIP3    H137065   5.035   7.141   2.783
12374TIP3    H237066   5.023   7.022   2.875
12375TIP3   OH237067   5.405   2.553   3.600
12375TIP3    H137068   5.499   2.541   3.592
12375TIP3    H237069   5.370   2.464   3.612
12376TIP3   OH237070   0.155   3.016   0.235
12376TIP3    H137071   0.148   3.076   0.161
12376TIP3    H237072   0.250   3.007   0.248
12377TIP3   OH237073   8.107   7.348   5.686
12377TIP3    H137074   8.119   7.300   5.605
12377TIP3    H237075   8.077   7.283   5.749
12378TIP3   OH237076   7.753   3.989   1.729
12378TIP3    H137077   7.738   3.998   1.823
12378TIP3    H237078   7.735   3.897   1.710
12379TIP3   OH237079   4.246   0.092   4.817
12379TIP3    H137080   4.212   0.033   4.749
12379TIP3    H237081   4.258   0.037   4.894
12380TIP3   OH237082   1.476   3.353   2.264
12380TIP3    H137083   1.442   3.442   2.252
12380TIP3    H237084   1.401   3.303   2.298
12381TIP3   OH237085   7.708   6.937   5.434
12381TIP3    H137086   7.698   7.022   5.391
12381TIP3    H237087   7.619   6.901   5.436
12382TIP3   OH237088   4.126   6.630   2.538
12382TIP3    H137089   4.041   6.657   2.505
12382TIP3    H237090   4.142   6.688   2.613
12383TIP3   OH237091   5.812   1.454   3.083
12383TIP3    H137092   5.854   1.449   3.169
12383TIP3    H237093   5.718   1.460   3.102
12384TIP3   OH237094   2.508   4.217   6.336
12384TIP3    H137095   2.538   4.279   6.269
12384TIP3    H237096   2.587   4.173   6.365
12385TIP3   OH237097   3.044   4.730   4.706
12385TIP3    H137098   3.099   4.726   4.628
12385TIP3    H237099   3.098   4.775   4.771
12386TIP3   OH237100   2.544   2.296   2.308
12386TIP3    H137101   2.476   2.272   2.245
12386TIP3    H237102   2.596   2.216   2.319
12387TIP3   OH237103   2.956   7.558   5.125
12387TIP3    H137104   2.928   7.477   5.168
12387TIP3    H237105   2.947   7.625   5.193
12388TIP3   OH237106   6.982   5.631   0.454
12388TIP3    H137107   6.919   5.627   0.526
12388TIP3    H237108   6.969   5.718   0.415
12389TIP3   OH237109   7.601   2.130   0.937
12389TIP3    H137110   7.536   2.087   0.883
12389TIP3    H237111   7.561   2.214   0.961
12390TIP3   OH237112   7.820   4.431   3.298
12390TIP3    H137113   7.860   4.431   3.211
12390TIP3    H237114   7.893   4.416   3.358
12391TIP3   OH237115   3.696   4.138   2.592
12391TIP3    H137116   3.647   4.062   2.624
12391TIP3    H237117   3.763   4.101   2.534
12392TIP3   OH237118   0.407   5.901   1.052
12392TIP3    H137119   0.329   5.957   1.056
12392TIP3    H237120   0.372   5.812   1.060
12393TIP3   OH237121   3.586   6.760   0.966
12393TIP3    H137122   3.537   6.791   0.890
12393TIP3    H237123   3.540   6.680   0.993
12394TIP3   OH237124   1.538   4.266   3.616
12394TIP3    H137125   1.620   4.314   3.625
12394TIP3    H237126   1.553   4.184   3.662
12395TIP3   OH237127   7.344   0.346   5.709
12395TIP3    H137128   7.358   0.332   5.615
12395TIP3    H237129   7.252   0.372   5.716
12396TIP3   OH237130   7.799   0.167   5.129
12396TIP3    H137131   7.716   0.128   5.154
12396TIP3    H237132   7.837   0.105   5.067
12397TIP3   OH237133   0.199   2.653   3.679
12397TIP3    H137134   0.261   2.586   3.707
12397TIP3    H237135   0.114   2.621   3.707
12398TIP3   OH237136   1.112   0.452   6.531
12398TIP3    H137137   1.203   0.480   6.544
12398TIP3    H237138   1.105   0.438   6.436
12399TIP3   OH237139   1.504   5.123   1.130
12399TIP3    H137140   1.486   5.106   1.222
12399TIP3    H237141   1.462   5.051   1.083
12400TIP3   OH237142   4.013   2.036   5.129
12400TIP3    H137143   4.081   2.101   5.112
12400TIP3    H237144   3.989   2.048   5.221
12401TIP3   OH237145   1.220   6.851   2.799
12401TIP3    H137146   1.167   6.875   2.875
12401TIP3    H237147   1.294   6.802   2.835
12402TIP3   OH237148   0.165   1.958   2.187
12402TIP3    H137149   0.073   1.979   2.198
12402TIP3    H237150   0.183   1.974   2.094
12403TIP3   OH237151   4.032   7.569   6.174
12403TIP3    H137152   4.080   7.538   6.251
12403TIP3    H237153   4.046   7.502   6.108
12404TIP3   OH237154   2.109   3.048   3.515
12404TIP3    H137155   2.130   3.040   3.422
12404TIP3    H237156   2.058   2.970   3.535
12405TIP3   OH237157   3.867   4.689   1.446
12405TIP3    H137158   3.803   4.626   1.479
12405TIP3    H237159   3.827   4.774   1.464
12406TIP3   OH237160   3.794   2.841   5.504
12406TIP3    H137161   3.739   2.764   5.519
12406TIP3    H237162   3.740   2.897   5.448
12407TIP3   OH237163   3.205   0.506   4.394
12407TIP3    H137164   3.195   0.579   4.455
12407TIP3    H237165   3.120   0.497   4.352
12408TIP3   OH237166   0.502   6.371   0.730
12408TIP3    H137167   0.551   6.446   0.695
12408TIP3    H237168   0.551   6.295   0.699
12409TIP3   OH237169   6.523   5.552   1.072
12409TIP3    H137170   6.552   5.639   1.100
12409TIP3    H237171   6.441   5.568   1.026
12410TIP3   OH237172   5.691   7.136   1.118
12410TIP3    H137173   5.692   7.133   1.022
12410TIP3    H237174   5.599   7.148   1.141
12411TIP3   OH237175   6.272   1.442   0.527
12411TIP3    H137176   6.240   1.413   0.442
12411TIP3    H237177   6.292   1.361   0.574
12412TIP3   OH237178   1.223   6.807   3.348
12412TIP3    H137179   1.233   6.887   3.297
12412TIP3    H237180   1.255   6.830   3.435
12413TIP3   OH237181   0.556   2.569   4.724
12413TIP3    H137182   0.498   2.521   4.783
12413TIP3    H237183   0.539   2.531   4.638
12414TIP3   OH237184   2.200   7.591   3.025
12414TIP3    H137185   2.205   7.658   2.957
12414TIP3    H237186   2.116   7.548   3.011
12415TIP3   OH237187   8.209   3.410   4.803
12415TIP3    H137188   8.135   3.350   4.791
12415TIP3    H237189   8.205   3.434   4.896
12416TIP3   OH237190   5.782   6.518   3.872
12416TIP3    H137191   5.687   6.510   3.861
12416TIP3    H237192   5.803   6.460   3.945
12417TIP3   OH237193   4.679   3.828   1.573
12417TIP3    H137194   4.676   3.834   1.477
12417TIP3    H237195   4.587   3.822   1.599
12418TIP3   OH237196   5.530   5.042   5.046
12418TIP3    H137197   5.520   5.135   5.025
12418TIP3    H237198   5.598   5.011   4.986
12419TIP3   OH237199   4.037   3.452   6.062
12419TIP3    H137200   3.986   3.458   6.143
12419TIP3    H237201   3.999   3.518   6.005
12420TIP3   OH237202   7.617   4.378   4.425
12420TIP3    H137203   7.565   4.301   4.446
12420TIP3    H237204   7.561   4.431   4.368
12421TIP3   OH237205   6.584   4.517   4.780
12421TIP3    H137206   6.573   4.468   4.862
12421TIP3    H237207   6.646   4.586   4.802
12422TIP3   OH237208   6.990  -0.033   5.104
12422TIP3    H137209   6.912   0.004   5.146
12422TIP3    H237210   7.041   0.043   5.076
12423TIP3   OH237211   2.969   5.539   2.773
12423TIP3    H137212   2.909   5.602   2.732
12423TIP3    H237213   2.923   5.510   2.852
12424TIP3   OH237214   2.606   7.610   5.266
12424TIP3    H137215   2.587   7.615   5.359
12424TIP3    H237216   2.644   7.695   5.244
12425TIP3   OH237217   1.976   3.397   0.301
12425TIP3    H137218   1.985   3.478   0.351
12425TIP3    H237219   1.926   3.339   0.358
12426TIP3   OH237220   4.675   1.672   4.917
12426TIP3    H137221   4.650   1.763   4.904
12426TIP3    H237222   4.593   1.623   4.908
12427TIP3   OH237223   3.866   2.445   3.444
12427TIP3    H137224   3.951   2.409   3.470
12427TIP3    H237225   3.823   2.468   3.527
12428TIP3   OH237226   3.988   2.244   5.770
12428TIP3    H137227   3.928   2.173   5.746
12428TIP3    H237228   4.052   2.247   5.699
12429TIP3   OH237229   4.404   7.255   5.449
12429TIP3    H137230   4.325   7.210   5.478
12429TIP3    H237231   4.475   7.208   5.493
12430TIP3   OH237232   2.183   3.701   5.464
12430TIP3    H137233   2.112   3.685   5.525
12430TIP3    H237234   2.149   3.768   5.405
12431TIP3   OH237235   7.803   2.936   4.710
12431TIP3    H137236   7.735   2.997   4.680
12431TIP3    H237237   7.763   2.849   4.700
12432TIP3   OH237238   3.428   6.614   1.772
12432TIP3    H137239   3.482   6.614   1.693
12432TIP3    H237240   3.371   6.690   1.762
12433TIP3   OH237241   7.039   0.912   3.813
12433TIP3    H137242   7.071   0.854   3.883
12433TIP3    H237243   7.086   0.883   3.735
12434TIP3   OH237244   4.158   2.942   0.634
12434TIP3    H137245   4.201   2.860   0.611
12434TIP3    H237246   4.071   2.935   0.596
12435TIP3   OH237247   7.580   5.283   4.522
12435TIP3    H137248   7.657   5.338   4.506
12435TIP3    H237249   7.512   5.344   4.548
12436TIP3   OH237250   7.687   2.681   4.608
12436TIP3    H137251   7.640   2.627   4.671
12436TIP3    H237252   7.745   2.620   4.563
12437TIP3   OH237253   4.431   3.833   1.752
12437TIP3    H137254   4.391   3.866   1.833
12437TIP3    H237255   4.380   3.874   1.682
12438TIP3   OH237256   5.781   1.305   5.725
12438TIP3    H137257   5.718   1.234   5.713
12438TIP3    H237258   5.727   1.381   5.748
12439TIP3   OH237259   5.322   4.579   4.608
12439TIP3    H137260   5.290   4.581   4.698
12439TIP3    H237261   5.392   4.643   4.606
12440TIP3   OH237262   6.967   0.823   5.055
12440TIP3    H137263   7.048   0.819   5.003
12440TIP3    H237264   6.991   0.874   5.132
12441TIP3   OH237265   6.891   7.101   4.254
12441TIP3    H137266   6.844   7.019   4.268
12441TIP3    H237267   6.978   7.086   4.289
12442TIP3   OH237268   7.501   1.574   3.204
12442TIP3    H137269   7.450   1.548   3.281
12442TIP3    H237270   7.442   1.628   3.152
12443TIP3   OH237271   2.720   2.870   1.040
12443TIP3    H137272   2.640   2.917   1.015
12443TIP3    H237273   2.689   2.798   1.095
12444TIP3   OH237274   3.869   5.930   1.894
12444TIP3    H137275   3.902   5.978   1.818
12444TIP3    H237276   3.927   5.855   1.902
12445TIP3   OH237277   1.685   4.270   2.324
12445TIP3    H137278   1.618   4.285   2.257
12445TIP3    H237279   1.760   4.236   2.275
12446TIP3   OH237280   3.528   2.193   3.573
12446TIP3    H137281   3.458   2.131   3.593
12446TIP3    H237282   3.598   2.139   3.538
12447TIP3   OH237283   7.374   1.153   1.937
12447TIP3    H137284   7.308   1.118   1.997
12447TIP3    H237285   7.381   1.087   1.869
12448TIP3   OH237286   7.809   5.849   1.833
12448TIP3    H137287   7.824   5.755   1.838
12448TIP3    H237288   7.814   5.879   1.924
12449TIP3   OH237289   7.869   4.609   6.259
12449TIP3    H137290   7.853   4.675   6.327
12449TIP3    H237291   7.790   4.610   6.205
12450TIP3   OH237292   5.417   4.172   5.780
12450TIP3    H137293   5.329   4.200   5.802
12450TIP3    H237294   5.473   4.220   5.841
12451TIP3   OH237295   3.526   2.589   1.347
12451TIP3    H137296   3.434   2.585   1.319
12451TIP3    H237297   3.521   2.604   1.442
12452TIP3   OH237298   1.710   0.354   4.716
12452TIP3    H137299   1.664   0.374   4.635
12452TIP3    H237300   1.642   0.346   4.782
12453TIP3   OH237301   6.675   4.087  -0.058
12453TIP3    H137302   6.703   4.177  -0.076
12453TIP3    H237303   6.585   4.096  -0.027
12454TIP3   OH237304   8.046   6.884   0.766
12454TIP3    H137305   8.036   6.799   0.723
12454TIP3    H237306   7.992   6.944   0.715
12455TIP3   OH237307   6.268   4.996   0.053
12455TIP3    H137308   6.221   4.936  -0.006
12455TIP3    H237309   6.359   4.987   0.027
12456TIP3   OH237310   4.897   3.852   1.090
12456TIP3    H137311   4.805   3.826   1.087
12456TIP3    H237312   4.946   3.770   1.087
12457TIP3   OH237313   4.041   3.859   4.905
12457TIP3    H137314   4.049   3.780   4.959
12457TIP3    H237315   3.992   3.831   4.828
12458TIP3   OH237316   4.724   5.129   4.280
12458TIP3    H137317   4.785   5.198   4.253
12458TIP3    H237318   4.731   5.128   4.376
12459TIP3   OH237319   1.915   0.356   2.845
12459TIP3    H137320   1.825   0.332   2.867
12459TIP3    H237321   1.907   0.431   2.787
12460TIP3   OH237322   6.330   5.766   6.089
12460TIP3    H137323   6.242   5.769   6.052
12460TIP3    H237324   6.326   5.700   6.157
12461TIP3   OH237325   1.723   1.581   4.494
12461TIP3    H137326   1.728   1.506   4.434
12461TIP3    H237327   1.636   1.574   4.534
12462TIP3   OH237328   3.285   0.250   2.389
12462TIP3    H137329   3.242   0.333   2.368
12462TIP3    H237330   3.259   0.191   2.318
12463TIP3   OH237331   3.153   3.849   0.826
12463TIP3    H137332   3.149   3.908   0.751
12463TIP3    H237333   3.245   3.853   0.854
12464TIP3   OH237334   6.601   0.795   1.912
12464TIP3    H137335   6.559   0.709   1.906
12464TIP3    H237336   6.671   0.793   1.847
12465TIP3   OH237337   4.423   2.306   3.756
12465TIP3    H137338   4.459   2.367   3.821
12465TIP3    H237339   4.447   2.343   3.672
12466TIP3   OH237340   7.740   6.649   2.698
12466TIP3    H137341   7.737   6.650   2.603
12466TIP3    H237342   7.830   6.673   2.720
12467TIP3   OH237343   7.427   5.726   3.209
12467TIP3    H137344   7.458   5.640   3.180
12467TIP3    H237345   7.378   5.761   3.135
12468TIP3   OH237346   2.920   5.942   1.206
12468TIP3    H137347   2.864   5.909   1.136
12468TIP3    H237348   2.867   5.935   1.285
12469TIP3   OH237349   2.543   6.028   4.601
12469TIP3    H137350   2.541   6.104   4.543
12469TIP3    H237351   2.478   5.967   4.564
12470TIP3   OH237352   6.304   0.568   4.052
12470TIP3    H137353   6.257   0.556   4.134
12470TIP3    H237354   6.289   0.659   4.028
12471TIP3   OH237355   2.991   1.654   5.927
12471TIP3    H137356   2.997   1.702   6.009
12471TIP3    H237357   3.026   1.714   5.861
12472TIP3   OH237358   4.088   4.039   5.113
12472TIP3    H137359   4.110   4.129   5.089
12472TIP3    H237360   4.072   3.995   5.029
12473TIP3   OH237361   0.182   2.013   4.192
12473TIP3    H137362   0.100   1.991   4.236
12473TIP3    H237363   0.220   1.928   4.168
12474TIP3   OH237364   4.366   4.463   3.992
12474TIP3    H137365   4.370   4.483   3.898
12474TIP3    H237366   4.285   4.413   4.003
12475TIP3   OH237367   4.910   4.078   3.207
12475TIP3    H137368   4.830   4.052   3.161
12475TIP3    H237369   4.922   4.170   3.183
12476TIP3   OH237370   6.490   1.103   1.466
12476TIP3    H137371   6.568   1.151   1.439
12476TIP3    H237372   6.458   1.151   1.543
12477TIP3   OH237373   1.633   7.501   6.124
12477TIP3    H137374   1.589   7.416   6.123
12477TIP3    H237375   1.686   7.500   6.203
12478TIP3   OH237376   2.919   0.416   2.937
12478TIP3    H137377   2.929   0.481   3.006
12478TIP3    H237378   2.829   0.426   2.907
12479TIP3   OH237379   3.095   6.578   0.530
12479TIP3    H137380   3.126   6.517   0.463
12479TIP3    H237381   3.042   6.642   0.482
12480TIP3   OH237382   1.425   2.137   1.538
12480TIP3    H137383   1.424   2.114   1.445
12480TIP3    H237384   1.391   2.060   1.582
12481TIP3   OH237385   6.217   4.959   4.487
12481TIP3    H137386   6.302   4.962   4.530
12481TIP3    H237387   6.168   4.893   4.536
12482TIP3   OH237388   7.436   1.591   2.485
12482TIP3    H137389   7.419   1.681   2.457
12482TIP3    H237390   7.473   1.548   2.408
12483TIP3   OH237391   3.762   3.081   6.372
12483TIP3    H137392   3.828   3.103   6.306
12483TIP3    H237393   3.810   3.029   6.436
12484TIP3   OH237394   2.207   1.937   2.554
12484TIP3    H137395   2.276   1.882   2.592
12484TIP3    H237396   2.235   1.950   2.463
12485TIP3   OH237397   1.846   3.405   1.793
12485TIP3    H137398   1.911   3.336   1.780
12485TIP3    H237399   1.768   3.360   1.825
12486TIP3   OH237400   2.230   0.157   3.408
12486TIP3    H137401   2.249   0.249   3.394
12486TIP3    H237402   2.179   0.131   3.331
12487TIP3   OH237403   6.203   5.809   5.581
12487TIP3    H137404   6.277   5.782   5.636
12487TIP3    H237405   6.135   5.833   5.644
12488TIP3   OH237406   1.834   5.270   6.197
12488TIP3    H137407   1.882   5.338   6.245
12488TIP3    H237408   1.883   5.259   6.116
12489TIP3   OH237409   6.416   4.161   5.116
12489TIP3    H137410   6.505   4.192   5.132
12489TIP3    H237411   6.426   4.068   5.097
12490TIP3   OH237412   7.388   6.916   4.980
12490TIP3    H137413   7.448   6.988   4.965
12490TIP3    H237414   7.357   6.891   4.892
12491TIP3   OH237415   6.719   5.330  -0.002
12491TIP3    H137416   6.692   5.377  -0.080
12491TIP3    H237417   6.717   5.396   0.068
12492TIP3   OH237418   2.396   2.036   2.869
12492TIP3    H137419   2.386   2.109   2.809
12492TIP3    H237420   2.390   2.076   2.956
12493TIP3   OH237421   7.600   1.208   1.416
12493TIP3    H137422   7.632   1.298   1.427
12493TIP3    H237423   7.575   1.204   1.323
12494TIP3   OH237424   0.708   2.540   1.467
12494TIP3    H137425   0.795   2.548   1.505
12494TIP3    H237426   0.720   2.563   1.374
12495TIP3   OH237427   3.913   1.404   1.047
12495TIP3    H137428   3.843   1.339   1.042
12495TIP3    H237429   3.971   1.383   0.974
12496TIP3   OH237430   1.182   4.410   5.115
12496TIP3    H137431   1.236   4.344   5.159
12496TIP3    H237432   1.111   4.429   5.177
12497TIP3   OH237433   7.079   0.364   5.718
12497TIP3    H137434   7.015   0.402   5.658
12497TIP3    H237435   7.055   0.272   5.724
12498TIP3   OH237436   4.992   2.001   1.149
12498TIP3    H137437   5.047   1.970   1.222
12498TIP3    H237438   4.989   2.096   1.160
12499TIP3   OH237439   7.108   7.508   6.112
12499TIP3    H137440   7.167   7.480   6.182
12499TIP3    H237441   7.129   7.601   6.098
12500TIP3   OH237442   4.510   4.480   0.712
12500TIP3    H137443   4.465   4.563   0.729
12500TIP3    H237444   4.557   4.462   0.793
12501TIP3   OH237445   1.802   6.309   4.894
12501TIP3    H137446   1.751   6.245   4.845
12501TIP3    H237447   1.763   6.393   4.871
12502TIP3   OH237448   2.859   2.780   0.734
12502TIP3    H137449   2.774   2.736   0.729
12502TIP3    H237450   2.838   2.873   0.744
12503TIP3   OH237451   2.903   7.735   0.619
12503TIP3    H137452   2.951   7.710   0.541
12503TIP3    H237453   2.948   7.689   0.690
12504TIP3   OH237454   6.991   6.020   2.298
12504TIP3    H137455   6.906   6.058   2.274
12504TIP3    H237456   6.975   5.926   2.300
12505TIP3   OH237457   1.319   5.653   5.160
12505TIP3    H137458   1.322   5.698   5.244
12505TIP3    H237459   1.407   5.618   5.149
12506TIP3   OH237460   6.689   2.265   0.240
12506TIP3    H137461   6.602   2.234   0.214
12506TIP3    H237462   6.678   2.358   0.258
12507TIP3   OH237463   2.963   2.848  -0.067
12507TIP3    H137464   2.898   2.778  -0.071
12507TIP3    H237465   2.966   2.872   0.026
12508TIP3   OH237466   1.527   7.266   5.396
12508TIP3    H137467   1.562   7.354   5.386
12508TIP3    H237468   1.459   7.259   5.330
12509TIP3   OH237469   5.357   5.379   0.226
12509TIP3    H137470   5.293   5.326   0.272
12509TIP3    H237471   5.322   5.468   0.228
12510TIP3   OH237472   1.052   0.450   1.870
12510TIP3    H137473   1.050   0.531   1.820
12510TIP3    H237474   1.086   0.475   1.956
12511TIP3   OH237475   6.225   7.082   1.972
12511TIP3    H137476   6.315   7.113   1.984
12511TIP3    H237477   6.222   7.000   2.021
12512TIP3   OH237478   7.907   2.845   5.179
12512TIP3    H137479   7.865   2.778   5.233
12512TIP3    H237480   7.901   2.811   5.090
12513TIP3   OH237481   3.212   6.078   4.198
12513TIP3    H137482   3.226   6.080   4.103
12513TIP3    H237483   3.157   6.001   4.213
12514TIP3   OH237484   3.657   3.691   3.751
12514TIP3    H137485   3.748   3.716   3.762
12514TIP3    H237486   3.653   3.601   3.785
12515TIP3   OH237487   0.931   5.096   6.735
12515TIP3    H137488   0.923   5.191   6.727
12515TIP3    H237489   0.955   5.082   6.827
12516TIP3   OH237490   2.767   7.195   5.522
12516TIP3    H137491   2.796   7.207   5.432
12516TIP3    H237492   2.841   7.226   5.575
12517TIP3   OH237493   7.278   6.609   3.331
12517TIP3    H137494   7.325   6.548   3.387
12517TIP3    H237495   7.231   6.667   3.392
12518TIP3   OH237496   4.370   0.925   2.475
12518TIP3    H137497   4.395   0.926   2.567
12518TIP3    H237498   4.277   0.948   2.475
12519TIP3   OH237499   7.862   4.726   3.175
12519TIP3    H137500   7.863   4.632   3.153
12519TIP3    H237501   7.873   4.728   3.270
12520TIP3   OH237502   6.132   4.783   0.446
12520TIP3    H137503   6.171   4.870   0.438
12520TIP3    H237504   6.151   4.741   0.362
12521TIP3   OH237505   1.159   3.325   5.888
12521TIP3    H137506   1.152   3.268   5.965
12521TIP3    H237507   1.080   3.306   5.837
12522TIP3   OH237508   2.151   5.178   5.585
12522TIP3    H137509   2.193   5.239   5.524
12522TIP3    H237510   2.214   5.168   5.656
12523TIP3   OH237511   7.582   2.489   5.949
12523TIP3    H137512   7.660   2.535   5.978
12523TIP3    H237513   7.511   2.524   6.003
12524TIP3   OH237514   1.703   1.779   0.728
12524TIP3    H137515   1.715   1.859   0.677
12524TIP3    H237516   1.618   1.791   0.771
12525TIP3   OH237517   1.284   1.298   4.637
12525TIP3    H137518   1.254   1.215   4.675
12525TIP3    H237519   1.276   1.286   4.543
12526TIP3   OH237520   3.107   3.540   5.697
12526TIP3    H137521   3.084   3.449   5.677
12526TIP3    H237522   3.202   3.544   5.685
12527TIP3   OH237523   1.119   4.881   6.674
12527TIP3    H137524   1.037   4.930   6.667
12527TIP3    H237525   1.156   4.908   6.758
12528TIP3   OH237526   3.310   0.947   4.588
12528TIP3    H137527   3.273   1.020   4.638
12528TIP3    H237528   3.324   0.983   4.501
12529TIP3   OH237529   5.907   2.458   0.905
12529TIP3    H137530   5.883   2.401   0.832
12529TIP3    H237531   5.993   2.492   0.882
12530TIP3   OH237532   1.984   7.329   6.081
12530TIP3    H137533   1.931   7.363   6.153
12530TIP3    H237534   1.963   7.235   6.079
12531TIP3   OH237535   2.442   5.086   1.648
12531TIP3    H137536   2.419   5.009   1.700
12531TIP3    H237537   2.531   5.069   1.617
12532TIP3   OH237538   4.111   5.446   0.770
12532TIP3    H137539   4.066   5.505   0.710
12532TIP3    H237540   4.203   5.455   0.748
12533TIP3   OH237541   8.066   5.207   2.482
12533TIP3    H137542   8.140   5.202   2.542
12533TIP3    H237543   8.001   5.259   2.528
12534TIP3   OH237544   6.082   4.376   6.669
12534TIP3    H137545   6.020   4.442   6.637
12534TIP3    H237546   6.036   4.331   6.740
12535TIP3   OH237547   6.738   6.516   4.291
12535TIP3    H137548   6.715   6.554   4.206
12535TIP3    H237549   6.772   6.429   4.270
12536TIP3   OH237550   2.586   3.054   2.029
12536TIP3    H137551   2.624   3.118   1.968
12536TIP3    H237552   2.492   3.063   2.018
12537TIP3   OH237553   1.638   6.443   2.240
12537TIP3    H137554   1.586   6.405   2.311
12537TIP3    H237555   1.595   6.526   2.220
12538TIP3   OH237556   8.048   0.175   5.260
12538TIP3    H137557   8.061   0.148   5.351
12538TIP3    H237558   7.958   0.147   5.239
12539TIP3   OH237559   7.725   6.771   3.787
12539TIP3    H137560   7.806   6.822   3.782
12539TIP3    H237561   7.750   6.684   3.755
12540TIP3   OH237562   7.964   3.558   5.397
12540TIP3    H137563   7.935   3.601   5.317
12540TIP3    H237564   8.057   3.581   5.404
12541TIP3   OH237565   3.936   3.511   6.319
12541TIP3    H137566   4.001   3.493   6.386
12541TIP3    H237567   3.854   3.480   6.356
12542TIP3   OH237568   3.843   3.282   1.195
12542TIP3    H137569   3.834   3.301   1.102
12542TIP3    H237570   3.774   3.219   1.214
12543TIP3   OH237571   3.903   3.942   1.560
12543TIP3    H137572   3.870   4.027   1.532
12543TIP3    H237573   3.861   3.926   1.644
12544TIP3   OH237574   1.878   3.861   1.007
12544TIP3    H137575   1.865   3.898   1.094
12544TIP3    H237576   1.963   3.894   0.979
12545TIP3   OH237577  -0.006   1.244   2.184
12545TIP3    H137578  -0.005   1.321   2.128
12545TIP3    H237579   0.059   1.185   2.146
12546TIP3   OH237580   4.996   5.033   6.082
12546TIP3    H137581   4.998   4.952   6.029
12546TIP3    H237582   4.964   5.100   6.021
12547TIP3   OH237583   2.535   4.881   3.624
12547TIP3    H137584   2.591   4.809   3.596
12547TIP3    H237585   2.495   4.851   3.705
12548TIP3   OH237586   5.541   3.997   4.682
12548TIP3    H137587   5.492   3.948   4.616
12548TIP3    H237588   5.492   4.078   4.692
12549TIP3   OH237589   6.709   0.592   5.470
12549TIP3    H137590   6.669   0.510   5.442
12549TIP3    H237591   6.671   0.658   5.412
12550TIP3   OH237592   6.897   4.293   5.383
12550TIP3    H137593   6.853   4.208   5.388
12550TIP3    H237594   6.973   4.284   5.441
12551TIP3   OH237595   7.758   4.536   5.781
12551TIP3    H137596   7.731   4.621   5.817
12551TIP3    H237597   7.688   4.476   5.806
12552TIP3   OH237598   1.179   5.393   3.607
12552TIP3    H137599   1.265   5.379   3.566
12552TIP3    H237600   1.128   5.439   3.541
12553TIP3   OH237601   3.734   5.616   0.529
12553TIP3    H137602   3.786   5.695   0.523
12553TIP3    H237603   3.778   5.554   0.471
12554TIP3   OH237604   1.459   4.627   1.197
12554TIP3    H137605   1.472   4.685   1.271
12554TIP3    H237606   1.485   4.679   1.121
12555TIP3   OH237607   6.240   6.010   3.087
12555TIP3    H137608   6.196   5.929   3.061
12555TIP3    H237609   6.169   6.069   3.112
12556TIP3   OH237610   7.870   5.593   2.417
12556TIP3    H137611   7.955   5.623   2.386
12556TIP3    H237612   7.807   5.652   2.375
12557TIP3   OH237613   2.157   3.854   5.953
12557TIP3    H137614   2.199   3.798   5.888
12557TIP3    H237615   2.196   3.826   6.036
12558TIP3   OH237616   3.842   1.594   4.144
12558TIP3    H137617   3.820   1.686   4.131
12558TIP3    H237618   3.921   1.581   4.091
12559TIP3   OH237619   6.203   2.439   6.491
12559TIP3    H137620   6.169   2.521   6.456
12559TIP3    H237621   6.296   2.440   6.471
12560TIP3   OH237622   8.263   1.564   5.176
12560TIP3    H137623   8.223   1.537   5.093
12560TIP3    H237624   8.326   1.494   5.196
12561TIP3   OH237625   5.344   5.246   0.748
12561TIP3    H137626   5.251   5.255   0.724
12561TIP3    H237627   5.387   5.220   0.667
12562TIP3   OH237628   4.631   2.357   6.454
12562TIP3    H137629   4.539   2.329   6.455
12562TIP3    H237630   4.638   2.413   6.376
12563TIP3   OH237631   5.380   6.265   1.742
12563TIP3    H137632   5.334   6.282   1.825
12563TIP3    H237633   5.315   6.284   1.674
12564TIP3   OH237634   6.033   5.031   1.337
12564TIP3    H137635   6.068   4.949   1.302
12564TIP3    H237636   6.101   5.063   1.397
12565TIP3   OH237637   4.525   6.740   1.269
12565TIP3    H137638   4.604   6.792   1.283
12565TIP3    H237639   4.557   6.650   1.262
12566TIP3   OH237640   0.358   5.496   6.450
12566TIP3    H137641   0.270   5.459   6.440
12566TIP3    H237642   0.416   5.420   6.443
12567TIP3   OH237643   6.168   6.312   5.314
12567TIP3    H137644   6.175   6.288   5.407
12567TIP3    H237645   6.178   6.408   5.314
12568TIP3   OH237646  -0.006   5.295   0.257
12568TIP3    H137647  -0.066   5.222   0.239
12568TIP3    H237648  -0.055   5.353   0.314
12569TIP3   OH237649   4.102   2.120   6.383
12569TIP3    H137650   4.139   2.115   6.295
12569TIP3    H237651   4.077   2.211   6.394
12570TIP3   OH237652   6.243   3.699   3.460
12570TIP3    H137653   6.162   3.649   3.452
12570TIP3    H237654   6.305   3.654   3.403
12571TIP3   OH237655   0.171   5.798   2.191
12571TIP3    H137656   0.185   5.802   2.097
12571TIP3    H237657   0.123   5.878   2.212
12572TIP3   OH237658   7.159   5.553   5.941
12572TIP3    H137659   7.091   5.583   5.881
12572TIP3    H237660   7.240   5.558   5.890
12573TIP3   OH237661   5.975   6.685   5.771
12573TIP3    H137662   5.974   6.591   5.754
12573TIP3    H237663   5.904   6.721   5.717
12574TIP3   OH237664   1.141   3.751   2.427
12574TIP3    H137665   1.109   3.685   2.489
12574TIP3    H237666   1.116   3.717   2.341
12575TIP3   OH237667   3.782   5.870   2.144
12575TIP3    H137668   3.824   5.791   2.178
12575TIP3    H237669   3.830   5.890   2.063
12576TIP3   OH237670   7.355   5.922   3.971
12576TIP3    H137671   7.340   5.835   3.934
12576TIP3    H237672   7.297   5.979   3.921
12577TIP3   OH237673   5.791   3.714   2.281
12577TIP3    H137674   5.869   3.671   2.316
12577TIP3    H237675   5.822   3.798   2.249
12578TIP3   OH237676   6.191   0.113   1.767
12578TIP3    H137677   6.181   0.148   1.679
12578TIP3    H237678   6.103   0.115   1.804
12579TIP3   OH237679   4.779   7.749   0.072
12579TIP3    H137680   4.799   7.800   0.151
12579TIP3    H237681   4.864   7.726   0.036
12580TIP3   OH237682   7.296   4.977   6.223
12580TIP3    H137683   7.229   4.913   6.246
12580TIP3    H237684   7.269   5.009   6.137
12581TIP3   OH237685   1.073   1.917   1.782
12581TIP3    H137686   1.033   1.984   1.837
12581TIP3    H237687   1.134   1.965   1.727
12582TIP3   OH237688   3.190   4.166   4.773
12582TIP3    H137689   3.278   4.186   4.805
12582TIP3    H237690   3.142   4.249   4.780
12583TIP3   OH237691   5.615   7.346   4.656
12583TIP3    H137692   5.615   7.264   4.607
12583TIP3    H237693   5.701   7.384   4.636
12584TIP3   OH237694   4.350   5.141   0.882
12584TIP3    H137695   4.431   5.188   0.862
12584TIP3    H237696   4.378   5.065   0.932
12585TIP3   OH237697   3.292   6.593   2.398
12585TIP3    H137698   3.225   6.548   2.451
12585TIP3    H237699   3.353   6.630   2.462
12586TIP3   OH237700   2.050   4.310   2.510
12586TIP3    H137701   2.025   4.305   2.418
12586TIP3    H237702   1.988   4.372   2.548
12587TIP3   OH237703   4.678   6.942   4.317
12587TIP3    H137704   4.639   7.023   4.350
12587TIP3    H237705   4.731   6.968   4.242
12588TIP3   OH237706   7.489   0.533   1.702
12588TIP3    H137707   7.578   0.507   1.725
12588TIP3    H237708   7.442   0.450   1.690
12589TIP3   OH237709   5.952   2.646   4.241
12589TIP3    H137710   6.042   2.662   4.270
12589TIP3    H237711   5.919   2.732   4.218
12590TIP3   OH237712   5.166   5.141   1.094
12590TIP3    H137713   5.237   5.124   1.156
12590TIP3    H237714   5.185   5.228   1.059
12591TIP3   OH237715   3.743   3.344   6.464
12591TIP3    H137716   3.747   3.249   6.458
12591TIP3    H237717   3.651   3.366   6.449
12592TIP3   OH237718   4.903   5.548   1.841
12592TIP3    H137719   4.870   5.469   1.798
12592TIP3    H237720   4.824   5.599   1.861
12593TIP3   OH237721   0.273   6.630   6.137
12593TIP3    H137722   0.232   6.555   6.180
12593TIP3    H237723   0.350   6.650   6.190
12594TIP3   OH237724   1.866   2.235   6.613
12594TIP3    H137725   1.904   2.321   6.628
12594TIP3    H237726   1.777   2.241   6.649
12595TIP3   OH237727   0.024   6.837   5.379
12595TIP3    H137728   0.076   6.765   5.413
12595TIP3    H237729  -0.065   6.801   5.371
12596TIP3   OH237730   5.893   3.046   3.571
12596TIP3    H137731   5.820   3.054   3.632
12596TIP3    H237732   5.869   3.100   3.496
12597TIP3   OH237733   6.761   1.379   3.203
12597TIP3    H137734   6.715   1.344   3.126
12597TIP3    H237735   6.696   1.437   3.244
12598TIP3   OH237736   0.723   7.745   4.017
12598TIP3    H137737   0.676   7.717   4.096
12598TIP3    H237738   0.741   7.838   4.031
12599TIP3   OH237739   6.778   3.928   5.630
12599TIP3    H137740   6.736   3.849   5.664
12599TIP3    H237741   6.768   3.992   5.701
12600TIP3   OH237742   1.994   2.942   5.414
12600TIP3    H137743   1.950   2.935   5.329
12600TIP3    H237744   1.935   2.998   5.466
12601TIP3   OH237745   6.829   6.091   1.210
12601TIP3    H137746   6.773   6.059   1.139
12601TIP3    H237747   6.784   6.168   1.244
12602TIP3   OH237748   2.737   6.333   0.645
12602TIP3    H137749   2.791   6.378   0.710
12602TIP3    H237750   2.793   6.262   0.612
12603TIP3   OH237751   8.086   1.267   0.903
12603TIP3    H137752   8.163   1.320   0.886
12603TIP3    H237753   8.106   1.181   0.866
12604TIP3   OH237754   2.920   1.141   6.721
12604TIP3    H137755   2.897   1.163   6.811
12604TIP3    H237756   3.001   1.188   6.703
12605TIP3   OH237757   7.930   0.690   6.217
12605TIP3    H137758   7.858   0.672   6.155
12605TIP3    H237759   7.961   0.603   6.243
12606TIP3   OH237760   7.962   0.104   4.048
12606TIP3    H137761   7.886   0.137   4.000
12606TIP3    H237762   8.024   0.177   4.049
12607TIP3   OH237763   8.172   3.469   0.722
12607TIP3    H137764   8.128   3.554   0.721
12607TIP3    H237765   8.142   3.426   0.642
12608TIP3   OH237766   2.223   1.402   2.790
12608TIP3    H137767   2.159   1.388   2.860
12608TIP3    H237768   2.303   1.360   2.821
12609TIP3   OH237769   2.442   4.869   4.802
12609TIP3    H137770   2.357   4.888   4.762
12609TIP3    H237771   2.476   4.796   4.751
12610TIP3   OH237772   7.913   1.223   2.807
12610TIP3    H137773   7.821   1.248   2.814
12610TIP3    H237774   7.960   1.289   2.857
12611TIP3   OH237775   6.419   0.024   2.710
12611TIP3    H137776   6.374  -0.061   2.703
12611TIP3    H237777   6.400   0.054   2.798
12612TIP3   OH237778   4.107   7.483   0.480
12612TIP3    H137779   4.054   7.562   0.465
12612TIP3    H237780   4.195   7.516   0.496
12613TIP3   OH237781   7.386   6.112   6.237
12613TIP3    H137782   7.304   6.143   6.199
12613TIP3    H237783   7.453   6.167   6.198
12614TIP3   OH237784   2.199   6.378   5.223
12614TIP3    H137785   2.147   6.385   5.143
12614TIP3    H237786   2.236   6.465   5.235
12615TIP3   OH237787   0.754   5.726   2.806
12615TIP3    H137788   0.833   5.769   2.772
12615TIP3    H237789   0.746   5.760   2.895
12616TIP3   OH237790   6.934   0.246   0.882
12616TIP3    H137791   6.857   0.222   0.934
12616TIP3    H237792   6.957   0.333   0.914
12617TIP3   OH237793   2.522   1.346   2.382
12617TIP3    H137794   2.511   1.257   2.415
12617TIP3    H237795   2.501   1.402   2.457
12618TIP3   OH237796   5.259   4.925   5.046
12618TIP3    H137797   5.270   4.892   4.957
12618TIP3    H237798   5.348   4.945   5.076
12619TIP3   OH237799   0.793   1.773   3.160
12619TIP3    H137800   0.787   1.855   3.110
12619TIP3    H237801   0.806   1.801   3.250
12620TIP3   OH237802   7.438   1.333   1.201
12620TIP3    H137803   7.406   1.316   1.112
12620TIP3    H237804   7.363   1.315   1.257
12621TIP3   OH237805   4.469   6.905   3.635
12621TIP3    H137806   4.416   6.969   3.683
12621TIP3    H237807   4.405   6.844   3.597
12622TIP3   OH237808   4.134   6.204   6.636
12622TIP3    H137809   4.089   6.153   6.568
12622TIP3    H237810   4.121   6.295   6.610
12623TIP3   OH237811   4.112   6.771   4.800
12623TIP3    H137812   4.133   6.681   4.827
12623TIP3    H237813   4.123   6.770   4.705
12624TIP3   OH237814   1.783   4.828   0.490
12624TIP3    H137815   1.807   4.765   0.559
12624TIP3    H237816   1.790   4.779   0.409
12625TIP3   OH237817   7.546   1.443   0.366
12625TIP3    H137818   7.555   1.368   0.307
12625TIP3    H237819   7.471   1.421   0.421
12626TIP3   OH237820   2.230   1.944   4.719
12626TIP3    H137821   2.300   1.945   4.654
12626TIP3    H237822   2.152   1.971   4.671
12627TIP3   OH237823   6.866   1.003   1.880
12627TIP3    H137824   6.783   0.957   1.865
12627TIP3    H237825   6.932   0.934   1.879
12628TIP3   OH237826   0.808   6.549   6.374
12628TIP3    H137827   0.767   6.527   6.290
12628TIP3    H237828   0.735   6.559   6.435
12629TIP3   OH237829   6.910   4.494   4.659
12629TIP3    H137830   6.903   4.586   4.683
12629TIP3    H237831   7.001   4.483   4.635
12630TIP3   OH237832   5.045   2.246   4.605
12630TIP3    H137833   4.987   2.318   4.632
12630TIP3    H237834   5.094   2.281   4.531
12631TIP3   OH237835   3.854   4.211   4.823
12631TIP3    H137836   3.829   4.184   4.911
12631TIP3    H237837   3.780   4.263   4.792
12632TIP3   OH237838   2.353   1.065   2.332
12632TIP3    H137839   2.300   1.001   2.378
12632TIP3    H237840   2.291   1.135   2.308
12633TIP3   OH237841   3.625   5.841   6.282
12633TIP3    H137842   3.606   5.935   6.276
12633TIP3    H237843   3.700   5.828   6.225
12634TIP3   OH237844   7.677   3.013   6.470
12634TIP3    H137845   7.687   3.108   6.462
12634TIP3    H237846   7.703   2.994   6.560
12635TIP3   OH237847   5.197   0.453   6.073
12635TIP3    H137848   5.110   0.414   6.076
12635TIP3    H237849   5.233   0.439   6.161
12636TIP3   OH237850   2.272   0.891   2.088
12636TIP3    H137851   2.200   0.906   2.149
12636TIP3    H237852   2.296   0.978   2.057
12637TIP3   OH237853   6.885   0.869   2.220
12637TIP3    H137854   6.885   0.820   2.138
12637TIP3    H237855   6.827   0.943   2.204
12638TIP3   OH237856   1.656   3.904   2.824
12638TIP3    H137857   1.654   3.977   2.886
12638TIP3    H237858   1.698   3.940   2.746
12639TIP3   OH237859   3.725   7.132   6.568
12639TIP3    H137860   3.807   7.128   6.618
12639TIP3    H237861   3.753   7.151   6.479
12640TIP3   OH237862   3.134   1.457   3.831
12640TIP3    H137863   3.201   1.525   3.835
12640TIP3    H237864   3.120   1.431   3.922
12641TIP3   OH237865   5.520   1.192   0.709
12641TIP3    H137866   5.527   1.231   0.622
12641TIP3    H237867   5.431   1.213   0.737
12642TIP3   OH237868   2.560   6.039   0.580
12642TIP3    H137869   2.558   6.105   0.650
12642TIP3    H237870   2.518   5.963   0.618
12643TIP3   OH237871   8.071   2.385   6.639
12643TIP3    H137872   8.010   2.338   6.695
12643TIP3    H237873   8.084   2.469   6.683
12644TIP3   OH237874   4.370   2.293   6.578
12644TIP3    H137875   4.388   2.333   6.663
12644TIP3    H237876   4.418   2.210   6.580
12645TIP3   OH237877   3.792   3.444   2.088
12645TIP3    H137878   3.743   3.363   2.095
12645TIP3    H237879   3.756   3.500   2.157
12646TIP3   OH237880   6.189   6.440   1.878
12646TIP3    H137881   6.121   6.503   1.899
12646TIP3    H237882   6.261   6.493   1.843
12647TIP3   OH237883   6.598   6.262   4.093
12647TIP3    H137884   6.664   6.308   4.041
12647TIP3    H237885   6.524   6.323   4.096
12648TIP3   OH237886   4.486   1.408   5.407
12648TIP3    H137887   4.560   1.351   5.387
12648TIP3    H237888   4.493   1.478   5.342
12649TIP3   OH237889   2.349   7.816   5.447
12649TIP3    H137890   2.394   7.750   5.501
12649TIP3    H237891   2.332   7.888   5.507
12650TIP3   OH237892   4.703   7.023   2.921
12650TIP3    H137893   4.761   6.963   2.874
12650TIP3    H237894   4.639   7.050   2.855
12651TIP3   OH237895   2.504   6.301   0.791
12651TIP3    H137896   2.562   6.306   0.867
12651TIP3    H237897   2.559   6.329   0.718
12652TIP3   OH237898   7.919   6.598   1.331
12652TIP3    H137899   8.007   6.562   1.333
12652TIP3    H237900   7.865   6.532   1.375
12653TIP3   OH237901   3.762   2.977   5.744
12653TIP3    H137902   3.715   3.046   5.697
12653TIP3    H237903   3.782   2.912   5.678
12654TIP3   OH237904   3.624   0.743   6.250
12654TIP3    H137905   3.554   0.731   6.314
12654TIP3    H237906   3.661   0.656   6.239
12655TIP3   OH237907   5.146   6.481   2.673
12655TIP3    H137908   5.201   6.452   2.745
12655TIP3    H237909   5.059   6.445   2.693
12656TIP3   OH237910   3.613   7.429   1.256
12656TIP3    H137911   3.623   7.469   1.170
12656TIP3    H237912   3.520   7.409   1.263
12657TIP3   OH237913   0.447   3.611   1.617
12657TIP3    H137914   0.483   3.680   1.674
12657TIP3    H237915   0.424   3.657   1.536
12658TIP3   OH237916   5.679   3.843   2.894
12658TIP3    H137917   5.635   3.799   2.966
12658TIP3    H237918   5.613   3.902   2.857
12659TIP3   OH237919   6.137   0.186   2.514
12659TIP3    H137920   6.044   0.209   2.508
12659TIP3    H237921   6.177   0.259   2.562
12660TIP3   OH237922   5.863   0.933   5.318
12660TIP3    H137923   5.888   1.021   5.290
12660TIP3    H237924   5.811   0.948   5.398
12661TIP3   OH237925   2.451   2.332   3.520
12661TIP3    H137926   2.408   2.246   3.521
12661TIP3    H237927   2.487   2.342   3.608
12662TIP3   OH237928   7.769   2.755   3.996
12662TIP3    H137929   7.680   2.723   3.982
12662TIP3    H237930   7.757   2.838   4.043
12663TIP3   OH237931   5.929   3.286   4.937
12663TIP3    H137932   5.857   3.338   4.903
12663TIP3    H237933   5.934   3.209   4.880
12664TIP3   OH237934   5.320   1.826   0.956
12664TIP3    H137935   5.274   1.743   0.949
12664TIP3    H237936   5.256   1.892   0.930
12665TIP3   OH237937   3.227   0.724   3.195
12665TIP3    H137938   3.201   0.633   3.181
12665TIP3    H237939   3.248   0.729   3.288
12666TIP3   OH237940   0.942   6.996   6.303
12666TIP3    H137941   1.030   7.014   6.337
12666TIP3    H237942   0.901   6.942   6.370
12667TIP3   OH237943   7.779   2.632   1.490
12667TIP3    H137944   7.865   2.657   1.524
12667TIP3    H237945   7.788   2.643   1.395
12668TIP3   OH237946   2.294   0.782   2.898
12668TIP3    H137947   2.339   0.744   2.973
12668TIP3    H237948   2.354   0.848   2.864
12669TIP3   OH237949   3.352   1.343   5.988
12669TIP3    H137950   3.411   1.281   5.945
12669TIP3    H237951   3.273   1.343   5.934
12670TIP3   OH237952   6.087   1.317   4.287
12670TIP3    H137953   6.070   1.247   4.225
12670TIP3    H237954   6.007   1.369   4.287
12671TIP3   OH237955   1.745   2.684   5.317
12671TIP3    H137956   1.808   2.631   5.366
12671TIP3    H237957   1.798   2.750   5.272
12672TIP3   OH237958   7.809   6.064   2.307
12672TIP3    H137959   7.841   6.127   2.242
12672TIP3    H237960   7.873   5.993   2.306
12673TIP3   OH237961   3.781   3.633   1.626
12673TIP3    H137962   3.808   3.599   1.711
12673TIP3    H237963   3.811   3.566   1.563
12674TIP3   OH237964   7.625   1.701   0.348
12674TIP3    H137965   7.625   1.605   0.346
12674TIP3    H237966   7.533   1.724   0.332
12675TIP3   OH237967   0.803   2.373   4.697
12675TIP3    H137968   0.792   2.414   4.612
12675TIP3    H237969   0.807   2.279   4.677
12676TIP3   OH237970   1.302   0.235  -0.022
12676TIP3    H137971   1.322   0.179  -0.097
12676TIP3    H237972   1.262   0.176   0.042
12677TIP3   OH237973   7.131   6.567   3.099
12677TIP3    H137974   7.168   6.595   3.183
12677TIP3    H237975   7.054   6.515   3.124
12678TIP3   OH237976   6.895   4.510   5.815
12678TIP3    H137977   6.882   4.498   5.721
12678TIP3    H237978   6.945   4.592   5.821
12679TIP3   OH237979   5.430   1.666   3.815
12679TIP3    H137980   5.398   1.757   3.819
12679TIP3    H237981   5.481   1.662   3.734
12680TIP3   OH237982   6.812   4.653   4.983
12680TIP3    H137983   6.883   4.697   5.029
12680TIP3    H237984   6.844   4.565   4.966
12681TIP3   OH237985   4.420   6.858   1.893
12681TIP3    H137986   4.512   6.855   1.918
12681TIP3    H237987   4.410   6.789   1.827
12682TIP3   OH237988   2.125   7.260   2.184
12682TIP3    H137989   2.090   7.346   2.160
12682TIP3    H237990   2.132   7.263   2.279
12683TIP3   OH237991   4.131   5.990   3.502
12683TIP3    H137992   4.219   5.986   3.541
12683TIP3    H237993   4.138   5.937   3.422
12684TIP3   OH237994   6.287   4.366   2.168
12684TIP3    H137995   6.377   4.359   2.198
12684TIP3    H237996   6.257   4.450   2.203
12685TIP3   OH237997   5.021   3.140   2.478
12685TIP3    H137998   5.073   3.217   2.453
12685TIP3    H237999   4.931   3.164   2.458
12686TIP3   OH238000   5.725   1.342   5.400
12686TIP3    H138001   5.716   1.285   5.476
12686TIP3    H238002   5.758   1.285   5.330
12687TIP3   OH238003   1.480   1.844   0.900
12687TIP3    H138004   1.435   1.896   0.833
12687TIP3    H238005   1.504   1.908   0.968
12688TIP3   OH238006   3.891   4.449   4.121
12688TIP3    H138007   3.983   4.422   4.126
12688TIP3    H238008   3.879   4.506   4.197
12689TIP3   OH238009   7.975   5.992   6.335
12689TIP3    H138010   7.882   5.972   6.327
12689TIP3    H238011   8.007   5.999   6.245
12690TIP3   OH238012   7.417   6.135   6.492
12690TIP3    H138013   7.502   6.178   6.488
12690TIP3    H238014   7.392   6.121   6.401
12691TIP3   OH238015   1.192   3.787   1.378
12691TIP3    H138016   1.263   3.833   1.335
12691TIP3    H238017   1.197   3.814   1.469
12692TIP3   OH238018   2.679   4.554   0.096
12692TIP3    H138019   2.708   4.641   0.126
12692TIP3    H238020   2.695   4.554   0.002
12693TIP3   OH238021   2.591   5.983   4.898
12693TIP3    H138022   2.513   5.996   4.951
12693TIP3    H238023   2.561   5.997   4.808
12694TIP3   OH238024   3.375   6.728   2.858
12694TIP3    H138025   3.395   6.710   2.950
12694TIP3    H238026   3.290   6.772   2.860
12695TIP3   OH238027   3.632   0.307   5.960
12695TIP3    H138028   3.720   0.315   5.997
12695TIP3    H238029   3.574   0.309   6.036
12696TIP3   OH238030   6.597   1.672   6.610
12696TIP3    H138031   6.645   1.649   6.690
12696TIP3    H238032   6.586   1.766   6.615
12697TIP3   OH238033   8.154   7.254   1.321
12697TIP3    H138034   8.230   7.237   1.265
12697TIP3    H238035   8.088   7.191   1.291
12698TIP3   OH238036   2.263   1.859   3.401
12698TIP3    H138037   2.212   1.850   3.320
12698TIP3    H238038   2.340   1.804   3.387
12699TIP3   OH238039   3.877   5.241   0.688
12699TIP3    H138040   3.852   5.230   0.780
12699TIP3    H238041   3.969   5.268   0.692
12700TIP3   OH238042   6.447   2.251   2.458
12700TIP3    H138043   6.444   2.159   2.433
12700TIP3    H238044   6.420   2.251   2.550
12701TIP3   OH238045   0.165   0.130   4.013
12701TIP3    H138046   0.216   0.168   4.084
12701TIP3    H238047   0.166   0.036   4.031
12702TIP3   OH238048   2.225   1.536   5.859
12702TIP3    H138049   2.316   1.548   5.886
12702TIP3    H238050   2.204   1.614   5.807
12703TIP3   OH238051   7.191  -0.040   3.144
12703TIP3    H138052   7.189   0.047   3.184
12703TIP3    H238053   7.240  -0.093   3.206
12704TIP3   OH238054   6.614   4.403   1.371
12704TIP3    H138055   6.622   4.407   1.276
12704TIP3    H238056   6.520   4.401   1.387
12705TIP3   OH238057   0.732   0.573   1.859
12705TIP3    H138058   0.772   0.651   1.819
12705TIP3    H238059   0.638   0.591   1.855
12706TIP3   OH238060   7.484   1.476   4.960
12706TIP3    H138061   7.547   1.547   4.954
12706TIP3    H238062   7.403   1.513   4.924
12707TIP3   OH238063   0.376   1.460   4.481
12707TIP3    H138064   0.408   1.373   4.504
12707TIP3    H238065   0.348   1.499   4.563
12708TIP3   OH238066   1.645   5.066   0.106
12708TIP3    H138067   1.695   5.081   0.187
12708TIP3    H238068   1.710   5.032   0.044
12709TIP3   OH238069   1.688   0.003   1.651
12709TIP3    H138070   1.782  -0.012   1.653
12709TIP3    H238071   1.660  -0.029   1.565
12710TIP3   OH238072   7.833   5.575   1.899
12710TIP3    H138073   7.765   5.512   1.878
12710TIP3    H238074   7.894   5.528   1.956
12711TIP3   OH238075   7.059   4.130   5.520
12711TIP3    H138076   7.136   4.119   5.576
12711TIP3    H238077   6.990   4.081   5.564
12712TIP3   OH238078   2.907   1.048   4.268
12712TIP3    H138079   3.002   1.047   4.265
12712TIP3    H238080   2.884   1.137   4.293
12713TIP3   OH238081   7.319   4.038   1.812
12713TIP3    H138082   7.322   4.117   1.759
12713TIP3    H238083   7.352   3.969   1.754
12714TIP3   OH238084   2.668   5.330   2.818
12714TIP3    H138085   2.642   5.255   2.871
12714TIP3    H238086   2.708   5.291   2.740
12715TIP3   OH238087   5.840   7.442   4.897
12715TIP3    H138088   5.866   7.448   4.989
12715TIP3    H238089   5.746   7.423   4.901
12716TIP3   OH238090   4.896   7.740   6.167
12716TIP3    H138091   4.991   7.742   6.169
12716TIP3    H238092   4.872   7.667   6.224
12717TIP3   OH238093   3.829   2.136   5.423
12717TIP3    H138094   3.783   2.130   5.506
12717TIP3    H238095   3.921   2.119   5.445
12718TIP3   OH238096   0.327   6.981   3.452
12718TIP3    H138097   0.245   6.942   3.484
12718TIP3    H238098   0.327   6.962   3.358
12719TIP3   OH238099   0.152   6.231   6.086
12719TIP3    H138100   0.240   6.205   6.115
12719TIP3    H238101   0.139   6.182   6.004
12720TIP3   OH238102   2.960   4.004   6.525
12720TIP3    H138103   2.864   4.001   6.523
12720TIP3    H238104   2.986   3.989   6.434
12721TIP3   OH238105   1.618   3.210   4.491
12721TIP3    H138106   1.593   3.222   4.583
12721TIP3    H238107   1.597   3.294   4.450
12722TIP3   OH238108   2.028   4.177   4.174
12722TIP3    H138109   2.044   4.166   4.080
12722TIP3    H238110   2.023   4.271   4.187
12723TIP3   OH238111   2.123   7.546   0.837
12723TIP3    H138112   2.190   7.508   0.893
12723TIP3    H238113   2.041   7.533   0.886
12724TIP3   OH238114   6.917   3.416   6.562
12724TIP3    H138115   6.989   3.436   6.502
12724TIP3    H238116   6.876   3.338   6.526
12725TIP3   OH238117   1.965   6.213   2.510
12725TIP3    H138118   1.948   6.277   2.441
12725TIP3    H238119   1.881   6.167   2.520
12726TIP3   OH238120   6.747   2.448   4.123
12726TIP3    H138121   6.666   2.399   4.138
12726TIP3    H238122   6.759   2.446   4.028
12727TIP3   OH238123   1.786   1.038   2.533
12727TIP3    H138124   1.781   1.025   2.438
12727TIP3    H238125   1.802   1.131   2.544
12728TIP3   OH238126   7.006   7.050   5.114
12728TIP3    H138127   7.032   6.962   5.139
12728TIP3    H238128   6.945   7.077   5.183
12729TIP3   OH238129   1.502   5.089   3.091
12729TIP3    H138130   1.452   5.141   3.029
12729TIP3    H238131   1.585   5.071   3.047
12730TIP3   OH238132   2.529   4.463   5.318
12730TIP3    H138133   2.605   4.505   5.278
12730TIP3    H238134   2.553   4.370   5.325
12731TIP3   OH238135   3.975   3.848   2.804
12731TIP3    H138136   3.990   3.940   2.786
12731TIP3    H238137   4.051   3.821   2.855
12732TIP3   OH238138   1.298   7.167   0.416
12732TIP3    H138139   1.231   7.194   0.479
12732TIP3    H238140   1.356   7.110   0.465
12733TIP3   OH238141   2.746   6.416   2.254
12733TIP3    H138142   2.830   6.461   2.251
12733TIP3    H238143   2.684   6.478   2.216
12734TIP3   OH238144   5.992   2.569   6.329
12734TIP3    H138145   5.913   2.523   6.300
12734TIP3    H238146   5.968   2.662   6.324
12735TIP3   OH238147   5.282   7.202   3.622
12735TIP3    H138148   5.327   7.222   3.705
12735TIP3    H238149   5.284   7.285   3.574
12736TIP3   OH238150   0.629   7.720   4.296
12736TIP3    H138151   0.648   7.795   4.354
12736TIP3    H238152   0.684   7.650   4.330
12737TIP3   OH238153   7.777   3.682   5.770
12737TIP3    H138154   7.753   3.636   5.689
12737TIP3    H238155   7.737   3.768   5.762
12738TIP3   OH238156   1.736   6.707   4.410
12738TIP3    H138157   1.772   6.648   4.476
12738TIP3    H238158   1.748   6.794   4.448
12739TIP3   OH238159   2.108   4.944   3.277
12739TIP3    H138160   2.192   4.980   3.249
12739TIP3    H238161   2.118   4.929   3.371
12740TIP3   OH238162   2.422   1.843   5.745
12740TIP3    H138163   2.465   1.914   5.792
12740TIP3    H238164   2.413   1.875   5.656
12741TIP3   OH238165   0.211   7.626   2.881
12741TIP3    H138166   0.131   7.626   2.829
12741TIP3    H238167   0.282   7.620   2.816
12742TIP3   OH238168   2.564   7.418   1.230
12742TIP3    H138169   2.551   7.326   1.208
12742TIP3    H238170   2.578   7.462   1.146
12743TIP3   OH238171   2.171   2.775   0.521
12743TIP3    H138172   2.152   2.854   0.470
12743TIP3    H238173   2.255   2.745   0.487
12744TIP3   OH238174   0.323   6.335   0.930
12744TIP3    H138175   0.270   6.259   0.951
12744TIP3    H238176   0.385   6.304   0.863
12745TIP3   OH238177   7.145   1.195   6.264
12745TIP3    H138178   7.093   1.115   6.263
12745TIP3    H238179   7.084   1.262   6.295
12746TIP3   OH238180   8.051   6.466   5.415
12746TIP3    H138181   8.039   6.550   5.459
12746TIP3    H238182   7.984   6.464   5.347
12747TIP3   OH238183   4.589   3.252   0.366
12747TIP3    H138184   4.551   3.174   0.408
12747TIP3    H238185   4.576   3.322   0.429
12748TIP3   OH238186   6.488   1.642   1.703
12748TIP3    H138187   6.396   1.623   1.684
12748TIP3    H238188   6.511   1.580   1.772
12749TIP3   OH238189   5.883   5.389   1.838
12749TIP3    H138190   5.839   5.473   1.829
12749TIP3    H238191   5.964   5.410   1.885
12750TIP3   OH238192   3.765   1.519   6.276
12750TIP3    H138193   3.831   1.545   6.341
12750TIP3    H238194   3.814   1.505   6.196
12751TIP3   OH238195   1.112   1.706   1.987
12751TIP3    H138196   1.144   1.738   1.903
12751TIP3    H238197   1.032   1.658   1.966
12752TIP3   OH238198   1.331   4.868   2.676
12752TIP3    H138199   1.318   4.898   2.586
12752TIP3    H238200   1.245   4.839   2.705
12753TIP3   OH238201   5.141   6.698   3.132
12753TIP3    H138202   5.216   6.644   3.155
12753TIP3    H238203   5.105   6.726   3.217
12754TIP3   OH238204   1.132   6.006   0.673
12754TIP3    H138205   1.210   6.057   0.696
12754TIP3    H238206   1.089   5.989   0.756
12755TIP3   OH238207   0.337   0.402   5.675
12755TIP3    H138208   0.348   0.329   5.736
12755TIP3    H238209   0.243   0.422   5.680
12756TIP3   OH238210   1.630   2.352   0.718
12756TIP3    H138211   1.658   2.402   0.640
12756TIP3    H238212   1.600   2.268   0.683
12757TIP3   OH238213   3.236   0.069   0.810
12757TIP3    H138214   3.214   0.021   0.730
12757TIP3    H238215   3.155   0.112   0.836
12758TIP3   OH238216   5.459   2.889   3.608
12758TIP3    H138217   5.513   2.825   3.562
12758TIP3    H238218   5.449   2.854   3.696
12759TIP3   OH238219   5.938   6.801   6.351
12759TIP3    H138220   5.869   6.854   6.389
12759TIP3    H238221   5.921   6.712   6.384
12760TIP3   OH238222   2.462   3.055   0.682
12760TIP3    H138223   2.529   3.012   0.630
12760TIP3    H238224   2.508   3.124   0.730
12761TIP3   OH238225   2.521   6.233   5.500
12761TIP3    H138226   2.516   6.301   5.433
12761TIP3    H238227   2.491   6.276   5.580
12762TIP3   OH238228   2.003   3.888   1.811
12762TIP3    H138229   1.994   3.808   1.862
12762TIP3    H238230   2.075   3.935   1.851
12763TIP3   OH238231   7.364   4.820   4.274
12763TIP3    H138232   7.417   4.885   4.227
12763TIP3    H238233   7.274   4.849   4.259
12764TIP3   OH238234   7.109   6.444   0.590
12764TIP3    H138235   7.068   6.418   0.507
12764TIP3    H238236   7.045   6.422   0.657
12765TIP3   OH238237   5.334   2.510   2.058
12765TIP3    H138238   5.323   2.480   2.148
12765TIP3    H238239   5.253   2.557   2.038
12766TIP3   OH238240   7.391   6.892   5.270
12766TIP3    H138241   7.428   6.804   5.276
12766TIP3    H238242   7.370   6.904   5.178
12767TIP3   OH238243   0.953   0.020   6.348
12767TIP3    H138244   0.976  -0.024   6.430
12767TIP3    H238245   1.037   0.047   6.311
12768TIP3   OH238246   3.515   5.590   6.041
12768TIP3    H138247   3.598   5.576   6.086
12768TIP3    H238248   3.473   5.503   6.040
12769TIP3   OH238249   3.085   5.456   5.600
12769TIP3    H138250   2.993   5.435   5.611
12769TIP3    H238251   3.128   5.417   5.676
12770TIP3   OH238252   8.186   3.659   4.369
12770TIP3    H138253   8.238   3.663   4.450
12770TIP3    H238254   8.246   3.688   4.301
12771TIP3   OH238255   2.912   1.332   5.184
12771TIP3    H138256   2.996   1.344   5.140
12771TIP3    H238257   2.925   1.372   5.270
12772TIP3   OH238258   7.349   2.909   1.369
12772TIP3    H138259   7.316   2.825   1.400
12772TIP3    H238260   7.388   2.949   1.447
12773TIP3   OH238261   7.474   2.611   6.161
12773TIP3    H138262   7.488   2.702   6.184
12773TIP3    H238263   7.541   2.563   6.209
12774TIP3   OH238264   3.383   2.756   4.356
12774TIP3    H138265   3.386   2.716   4.269
12774TIP3    H238266   3.441   2.702   4.410
12775TIP3   OH238267   3.945   5.085   4.398
12775TIP3    H138268   4.014   5.150   4.410
12775TIP3    H238269   3.954   5.056   4.307
12776TIP3   OH238270   4.776   5.166   2.674
12776TIP3    H138271   4.794   5.100   2.740
12776TIP3    H238272   4.802   5.125   2.591
12777TIP3   OH238273   5.686   4.784   2.703
12777TIP3    H138274   5.681   4.759   2.611
12777TIP3    H238275   5.760   4.734   2.737
12778TIP3   OH238276   1.490   4.133   5.478
12778TIP3    H138277   1.515   4.145   5.570
12778TIP3    H238278   1.472   4.039   5.471
12779TIP3   OH238279   7.668   3.210   1.179
12779TIP3    H138280   7.699   3.167   1.099
12779TIP3    H238281   7.748   3.233   1.227
12780TIP3   OH238282   0.750   6.716   2.894
12780TIP3    H138283   0.750   6.756   2.982
12780TIP3    H238284   0.796   6.633   2.906
12781TIP3   OH238285   5.218   2.349   4.403
12781TIP3    H138286   5.243   2.438   4.379
12781TIP3    H238287   5.194   2.307   4.320
12782TIP3   OH238288   0.553   5.779   3.691
12782TIP3    H138289   0.572   5.703   3.746
12782TIP3    H238290   0.509   5.743   3.614
12783TIP3   OH238291   2.474   5.500   6.631
12783TIP3    H138292   2.487   5.405   6.630
12783TIP3    H238293   2.524   5.530   6.707
12784TIP3   OH238294   5.926   4.759   0.627
12784TIP3    H138295   6.004   4.772   0.573
12784TIP3    H238296   5.864   4.824   0.595
12785TIP3   OH238297   1.009   5.378   1.052
12785TIP3    H138298   1.065   5.455   1.058
12785TIP3    H238299   1.061   5.307   1.088
12786TIP3   OH238300   1.789   6.452   1.209
12786TIP3    H138301   1.788   6.540   1.170
12786TIP3    H238302   1.776   6.467   1.302
12787TIP3   OH238303   0.013   1.458   0.895
12787TIP3    H138304  -0.058   1.521   0.908
12787TIP3    H238305   0.088   1.497   0.940
12788TIP3   OH238306   3.120   6.940   6.386
12788TIP3    H138307   3.166   6.861   6.416
12788TIP3    H238308   3.033   6.933   6.424
12789TIP3   OH238309   3.692   2.045   3.370
12789TIP3    H138310   3.785   2.069   3.370
12789TIP3    H238311   3.651   2.110   3.313
12790TIP3   OH238312   5.712   6.107   4.563
12790TIP3    H138313   5.803   6.119   4.588
12790TIP3    H238314   5.696   6.013   4.574
12791TIP3   OH238315   7.939   3.651   4.153
12791TIP3    H138316   7.903   3.598   4.224
12791TIP3    H238317   8.021   3.607   4.129
12792TIP3   OH238318   3.650   4.061   3.217
12792TIP3    H138319   3.711   4.111   3.271
12792TIP3    H238320   3.574   4.119   3.207
12793TIP3   OH238321   4.085   5.544   0.513
12793TIP3    H138322   4.179   5.542   0.494
12793TIP3    H238323   4.048   5.475   0.458
12794TIP3   OH238324   3.270   0.000   0.255
12794TIP3    H138325   3.203   0.021   0.320
12794TIP3    H238326   3.322   0.080   0.248
12795TIP3   OH238327   6.241   7.704   1.210
12795TIP3    H138328   6.216   7.622   1.167
12795TIP3    H238329   6.330   7.721   1.181
12796TIP3   OH238330   6.339   1.924   0.415
12796TIP3    H138331   6.269   1.885   0.467
12796TIP3    H238332   6.406   1.855   0.410
12797TIP3   OH238333   6.666   0.903   6.232
12797TIP3    H138334   6.759   0.902   6.255
12797TIP3    H238335   6.656   0.978   6.173
12798TIP3   OH238336   5.262   2.891   5.840
12798TIP3    H138337   5.269   2.800   5.813
12798TIP3    H238338   5.273   2.889   5.935
12799TIP3   OH238339   6.648   1.736   5.147
12799TIP3    H138340   6.701   1.687   5.211
12799TIP3    H238341   6.599   1.669   5.100
12800TIP3   OH238342   4.785   7.089   6.106
12800TIP3    H138343   4.795   7.115   6.014
12800TIP3    H238344   4.831   7.004   6.112
12801TIP3   OH238345   6.175   1.136   0.107
12801TIP3    H138346   6.147   1.072   0.041
12801TIP3    H238347   6.270   1.131   0.107
12802TIP3   OH238348   7.560   6.391   4.049
12802TIP3    H138349   7.554   6.301   4.079
12802TIP3    H238350   7.571   6.384   3.954
12803TIP3   OH238351   1.408   3.896   5.649
12803TIP3    H138352   1.419   3.961   5.717
12803TIP3    H238353   1.331   3.925   5.600
12804TIP3   OH238354   6.355   5.942   3.790
12804TIP3    H138355   6.402   5.987   3.861
12804TIP3    H238356   6.305   5.874   3.834
12805TIP3   OH238357   0.081   4.128   6.054
12805TIP3    H138358   0.124   4.109   5.970
12805TIP3    H238359  -0.002   4.169   6.029
12806TIP3   OH238360   3.646   4.145   5.005
12806TIP3    H138361   3.610   4.202   4.937
12806TIP3    H238362   3.584   4.152   5.077
12807TIP3   OH238363   6.148   6.804   3.568
12807TIP3    H138364   6.066   6.852   3.555
12807TIP3    H238365   6.128   6.714   3.542
12808TIP3   OH238366   5.331   4.257   0.812
12808TIP3    H138367   5.393   4.303   0.755
12808TIP3    H238368   5.262   4.228   0.753
12809TIP3   OH238369   6.211   2.181   6.394
12809TIP3    H138370   6.133   2.170   6.339
12809TIP3    H238371   6.196   2.263   6.440
12810TIP3   OH238372   2.441   3.011   5.120
12810TIP3    H138373   2.376   2.948   5.150
12810TIP3    H238374   2.423   3.091   5.170
12811TIP3   OH238375   3.880   3.991   5.899
12811TIP3    H138376   3.862   3.987   5.805
12811TIP3    H238377   3.972   3.969   5.907
12812TIP3   OH238378   3.584   4.319   0.053
12812TIP3    H138379   3.605   4.345   0.142
12812TIP3    H238380   3.490   4.303   0.053
12813TIP3   OH238381   0.482   2.931   5.475
12813TIP3    H138382   0.465   3.009   5.529
12813TIP3    H238383   0.575   2.913   5.487
12814TIP3   OH238384   0.213   3.156   4.580
12814TIP3    H138385   0.295   3.202   4.564
12814TIP3    H238386   0.178   3.198   4.659
12815TIP3   OH238387   1.846   0.261   0.344
12815TIP3    H138388   1.912   0.267   0.276
12815TIP3    H238389   1.796   0.182   0.322
12816TIP3   OH238390   7.436   1.577   4.003
12816TIP3    H138391   7.519   1.604   3.964
12816TIP3    H238392   7.373   1.583   3.931
12817TIP3   OH238393   6.693   4.107   5.077
12817TIP3    H138394   6.756   4.103   5.004
12817TIP3    H238395   6.700   4.022   5.119
12818TIP3   OH238396   3.772   7.586   2.031
12818TIP3    H138397   3.683   7.577   2.064
12818TIP3    H238398   3.827   7.544   2.097
12819TIP3   OH238399   1.786   7.372   5.171
12819TIP3    H138400   1.849   7.413   5.113
12819TIP3    H238401   1.715   7.436   5.179
12820TIP3   OH238402   7.129   6.453   5.634
12820TIP3    H138403   7.118   6.392   5.708
12820TIP3    H238404   7.083   6.411   5.562
12821TIP3   OH238405   3.388   7.649   3.607
12821TIP3    H138406   3.378   7.606   3.692
12821TIP3    H238407   3.447   7.593   3.558
12822TIP3   OH238408   0.906   4.474   4.230
12822TIP3    H138409   0.981   4.515   4.274
12822TIP3    H238410   0.897   4.389   4.273
12823TIP3   OH238411   1.042   3.857   2.716
12823TIP3    H138412   1.057   3.763   2.707
12823TIP3    H238413   1.081   3.880   2.801
12824TIP3   OH238414   7.088   5.315   4.614
12824TIP3    H138415   7.131   5.262   4.682
12824TIP3    H238416   7.160   5.366   4.576
12825TIP3   OH238417   0.466   1.469   2.752
12825TIP3    H138418   0.374   1.463   2.726
12825TIP3    H238419   0.471   1.550   2.803
12826TIP3   OH238420   7.714   6.663   0.306
12826TIP3    H138421   7.655   6.589   0.289
12826TIP3    H238422   7.784   6.626   0.358
12827TIP3   OH238423   1.352   2.768   3.822
12827TIP3    H138424   1.295   2.807   3.888
12827TIP3    H238425   1.292   2.729   3.758
12828TIP3   OH238426   3.447   0.502   4.663
12828TIP3    H138427   3.457   0.597   4.666
12828TIP3    H238428   3.358   0.489   4.630
12829TIP3   OH238429   3.461   2.427   5.901
12829TIP3    H138430   3.366   2.434   5.901
12829TIP3    H238431   3.492   2.510   5.865
12830TIP3   OH238432   2.710   7.558   6.380
12830TIP3    H138433   2.647   7.534   6.313
12830TIP3    H238434   2.736   7.474   6.420
12831TIP3   OH238435   5.972   2.622   1.141
12831TIP3    H138436   6.012   2.549   1.190
12831TIP3    H238437   5.924   2.579   1.070
12832TIP3   OH238438   6.523   7.551   1.551
12832TIP3    H138439   6.430   7.561   1.571
12832TIP3    H238440   6.557   7.498   1.623
12833TIP3   OH238441   5.728   7.412   5.546
12833TIP3    H138442   5.740   7.477   5.478
12833TIP3    H238443   5.810   7.413   5.596
12834TIP3   OH238444   6.925   6.321   4.925
12834TIP3    H138445   6.878   6.397   4.890
12834TIP3    H238446   6.980   6.357   4.995
12835TIP3   OH238447   6.998   1.301   3.358
12835TIP3    H138448   6.911   1.323   3.324
12835TIP3    H238449   6.995   1.206   3.371
12836TIP3   OH238450   2.856   3.794   1.243
12836TIP3    H138451   2.790   3.746   1.193
12836TIP3    H238452   2.939   3.776   1.198
12837TIP3   OH238453   7.198   3.770   2.508
12837TIP3    H138454   7.239   3.812   2.584
12837TIP3    H238455   7.231   3.820   2.433
12838TIP3   OH238456   2.815   3.092   4.212
12838TIP3    H138457   2.787   3.099   4.120
12838TIP3    H238458   2.839   3.000   4.222
12839TIP3   OH238459   2.351   1.783   2.788
12839TIP3    H138460   2.443   1.763   2.768
12839TIP3    H238461   2.353   1.872   2.824
12840TIP3   OH238462   7.119   5.175   2.690
12840TIP3    H138463   7.191   5.227   2.655
12840TIP3    H238464   7.160   5.123   2.760
12841TIP3   OH238465   6.785   3.226   0.450
12841TIP3    H138466   6.774   3.174   0.371
12841TIP3    H238467   6.749   3.172   0.520
12842TIP3   OH238468   0.652   4.002   4.192
12842TIP3    H138469   0.675   3.922   4.240
12842TIP3    H238470   0.736   4.045   4.175
12843TIP3   OH238471   1.669   6.331   3.478
12843TIP3    H138472   1.683   6.307   3.570
12843TIP3    H238473   1.574   6.324   3.467
12844TIP3   OH238474   3.001   1.085   2.248
12844TIP3    H138475   3.008   1.055   2.339
12844TIP3    H238476   3.026   1.177   2.252
12845TIP3   OH238477   1.054   5.033   4.944
12845TIP3    H138478   1.076   4.985   5.024
12845TIP3    H238479   0.961   5.052   4.953
12846TIP3   OH238480   7.065   5.057   0.645
12846TIP3    H138481   7.093   5.036   0.556
12846TIP3    H238482   7.005   4.987   0.668
12847TIP3   OH238483   1.659   5.472   1.116
12847TIP3    H138484   1.670   5.393   1.168
12847TIP3    H238485   1.611   5.532   1.174
12848TIP3   OH238486   4.370   2.189   0.114
12848TIP3    H138487   4.366   2.261   0.052
12848TIP3    H238488   4.288   2.141   0.101
12849TIP3   OH238489   5.210   2.285   3.537
12849TIP3    H138490   5.127   2.247   3.567
12849TIP3    H238491   5.208   2.274   3.441
12850TIP3   OH238492   3.542   3.561   1.734
12850TIP3    H138493   3.635   3.570   1.713
12850TIP3    H238494   3.508   3.503   1.666
12851TIP3   OH238495   6.428   2.575   4.754
12851TIP3    H138496   6.518   2.545   4.767
12851TIP3    H238497   6.433   2.670   4.762
12852TIP3   OH238498   0.355   0.043   1.386
12852TIP3    H138499   0.338   0.031   1.293
12852TIP3    H238500   0.288   0.104   1.416
12853TIP3   OH238501   7.433   3.857   0.413
12853TIP3    H138502   7.523   3.879   0.438
12853TIP3    H238503   7.382   3.936   0.433
12854TIP3   OH238504   6.432   1.170   2.248
12854TIP3    H138505   6.422   1.257   2.208
12854TIP3    H238506   6.357   1.120   2.214
12855TIP3   OH238507   0.336   1.714   3.721
12855TIP3    H138508   0.420   1.748   3.751
12855TIP3    H238509   0.315   1.644   3.783
12856TIP3   OH238510   6.465   1.409   4.509
12856TIP3    H138511   6.373   1.421   4.485
12856TIP3    H238512   6.462   1.363   4.593
12857TIP3   OH238513   5.126   6.124   4.998
12857TIP3    H138514   5.191   6.073   5.046
12857TIP3    H238515   5.152   6.115   4.906
12858TIP3   OH238516   6.509   2.236   3.856
12858TIP3    H138517   6.596   2.260   3.826
12858TIP3    H238518   6.511   2.140   3.863
12859TIP3   OH238519   6.195   5.424   4.212
12859TIP3    H138520   6.181   5.518   4.227
12859TIP3    H238521   6.244   5.419   4.130
12860TIP3   OH238522   8.102   5.596   3.196
12860TIP3    H138523   8.093   5.668   3.258
12860TIP3    H238524   8.027   5.605   3.138
12861TIP3   OH238525   0.969   0.824   2.629
12861TIP3    H138526   0.888   0.858   2.589
12861TIP3    H238527   0.941   0.746   2.677
12862TIP3   OH238528   4.733   0.397   3.074
12862TIP3    H138529   4.712   0.490   3.087
12862TIP3    H238530   4.741   0.388   2.979
12863TIP3   OH238531   2.899   2.460   0.342
12863TIP3    H138532   2.972   2.399   0.335
12863TIP3    H238533   2.940   2.547   0.343
12864TIP3   OH238534   7.311   2.133   0.264
12864TIP3    H138535   7.314   2.135   0.168
12864TIP3    H238536   7.369   2.205   0.291
12865TIP3   OH238537   0.710   3.371   0.943
12865TIP3    H138538   0.676   3.427   1.014
12865TIP3    H238539   0.728   3.432   0.871
12866TIP3   OH238540   5.247   3.167   2.948
12866TIP3    H138541   5.195   3.142   2.870
12866TIP3    H238542   5.183   3.168   3.019
12867TIP3   OH238543   0.903   4.874   1.211
12867TIP3    H138544   0.869   4.787   1.235
12867TIP3    H238545   0.964   4.857   1.140
12868TIP3   OH238546   3.826   3.389   3.429
12868TIP3    H138547   3.849   3.473   3.389
12868TIP3    H238548   3.853   3.398   3.521
12869TIP3   OH238549   6.576   4.518   2.742
12869TIP3    H138550   6.544   4.450   2.801
12869TIP3    H238551   6.504   4.533   2.682
12870TIP3   OH238552   3.925   2.703   3.834
12870TIP3    H138553   4.005   2.721   3.784
12870TIP3    H238554   3.903   2.787   3.875
12871TIP3   OH238555   1.155   1.798   2.356
12871TIP3    H138556   1.136   1.891   2.367
12871TIP3    H238557   1.226   1.795   2.292
12872TIP3   OH238558   2.147   7.021   3.441
12872TIP3    H138559   2.100   6.965   3.379
12872TIP3    H238560   2.194   6.960   3.498
12873TIP3   OH238561   5.014   1.651   0.570
12873TIP3    H138562   4.981   1.709   0.638
12873TIP3    H238563   5.073   1.706   0.517
12874TIP3   OH238564   4.226   1.515   6.697
12874TIP3    H138565   4.140   1.555   6.693
12874TIP3    H238566   4.285   1.587   6.719
12875TIP3   OH238567   0.699   6.629   1.451
12875TIP3    H138568   0.753   6.571   1.506
12875TIP3    H238569   0.609   6.604   1.471
12876TIP3   OH238570   2.528   0.201   4.964
12876TIP3    H138571   2.621   0.178   4.962
12876TIP3    H238572   2.522   0.270   5.030
12877TIP3   OH238573   1.349   0.195   2.487
12877TIP3    H138574   1.322   0.103   2.487
12877TIP3    H238575   1.296   0.236   2.556
12878TIP3   OH238576   2.226   5.816   5.832
12878TIP3    H138577   2.194   5.755   5.899
12878TIP3    H238578   2.317   5.789   5.817
12879TIP3   OH238579   2.492   2.050   2.007
12879TIP3    H138580   2.565   2.064   2.067
12879TIP3    H238581   2.488   1.955   1.995
12880TIP3   OH238582   6.113   1.391   3.256
12880TIP3    H138583   6.076   1.401   3.169
12880TIP3    H238584   6.038   1.397   3.315
12881TIP3   OH238585   5.003   2.802   2.229
12881TIP3    H138586   5.006   2.743   2.154
12881TIP3    H238587   4.913   2.794   2.262
12882TIP3   OH238588   2.052   4.666   6.394
12882TIP3    H138589   2.081   4.609   6.466
12882TIP3    H238590   2.090   4.627   6.315
12883TIP3   OH238591   3.394   4.973   0.125
12883TIP3    H138592   3.400   4.928   0.209
12883TIP3    H238593   3.458   4.928   0.069
12884TIP3   OH238594   0.978   7.572   4.690
12884TIP3    H138595   1.020   7.533   4.614
12884TIP3    H238596   0.995   7.510   4.761
12885TIP3   OH238597   7.891   3.188   3.184
12885TIP3    H138598   7.853   3.222   3.265
12885TIP3    H238599   7.974   3.233   3.175
12886TIP3   OH238600   3.510   1.732   3.641
12886TIP3    H138601   3.559   1.741   3.559
12886TIP3    H238602   3.572   1.694   3.703
12887TIP3   OH238603   4.036   1.250   0.085
12887TIP3    H138604   4.091   1.231   0.162
12887TIP3    H238605   3.947   1.229   0.114
12888TIP3   OH238606   0.980   2.972   4.255
12888TIP3    H138607   0.985   3.047   4.315
12888TIP3    H238608   1.032   2.904   4.297
12889TIP3   OH238609   1.952   3.626   6.670
12889TIP3    H138610   1.926   3.713   6.702
12889TIP3    H238611   2.039   3.612   6.708
12890TIP3   OH238612   3.725   0.929   2.819
12890TIP3    H138613   3.739   0.835   2.835
12890TIP3    H238614   3.801   0.972   2.859
12891TIP3   OH238615   5.234   7.524   0.023
12891TIP3    H138616   5.283   7.560   0.097
12891TIP3    H238617   5.282   7.446  -0.002
12892TIP3   OH238618   4.926   0.522   4.475
12892TIP3    H138619   4.999   0.577   4.506
12892TIP3    H238620   4.899   0.472   4.552
12893TIP3   OH238621   6.691   1.734   3.079
12893TIP3    H138622   6.691   1.686   3.161
12893TIP3    H238623   6.745   1.682   3.020
12894TIP3   OH238624   2.446   7.529   0.614
12894TIP3    H138625   2.410   7.441   0.627
12894TIP3    H238626   2.369   7.586   0.613
12895TIP3   OH238627   6.711   4.333   0.939
12895TIP3    H138628   6.781   4.296   0.993
12895TIP3    H238629   6.709   4.425   0.962
12896TIP3   OH238630   3.058   4.852   6.669
12896TIP3    H138631   3.018   4.909   6.735
12896TIP3    H238632   3.070   4.768   6.714
12897TIP3   OH238633   5.522   2.328   2.498
12897TIP3    H138634   5.565   2.336   2.412
12897TIP3    H238635   5.572   2.386   2.555
12898TIP3   OH238636   5.493   0.542   6.104
12898TIP3    H138637   5.426   0.520   6.169
12898TIP3    H238638   5.445   0.588   6.035
12899TIP3   OH238639   0.641   4.542   4.843
12899TIP3    H138640   0.548   4.563   4.851
12899TIP3    H238641   0.643   4.451   4.815
12900TIP3   OH238642   7.550   3.938   2.621
12900TIP3    H138643   7.464   3.941   2.664
12900TIP3    H238644   7.612   3.927   2.693
12901TIP3   OH238645   2.898   6.345   1.192
12901TIP3    H138646   2.833   6.415   1.199
12901TIP3    H238647   2.913   6.317   1.282
12902TIP3   OH238648   6.308   2.952   0.170
12902TIP3    H138649   6.291   2.902   0.250
12902TIP3    H238650   6.355   2.891   0.113
12903TIP3   OH238651   5.832   6.364   4.076
12903TIP3    H138652   5.806   6.282   4.119
12903TIP3    H238653   5.926   6.370   4.093
12904TIP3   OH238654   2.383   5.744   5.549
12904TIP3    H138655   2.474   5.757   5.576
12904TIP3    H238656   2.353   5.832   5.525
12905TIP3   OH238657   0.559   0.714   1.571
12905TIP3    H138658   0.504   0.789   1.548
12905TIP3    H238659   0.648   0.743   1.555
12906TIP3   OH238660   2.898   0.414   0.414
12906TIP3    H138661   2.879   0.422   0.507
12906TIP3    H238662   2.867   0.496   0.375
12907TIP3   OH238663   5.445   3.318   3.265
12907TIP3    H138664   5.446   3.224   3.285
12907TIP3    H238665   5.387   3.325   3.189
12908TIP3   OH238666   2.028   6.501   6.079
12908TIP3    H138667   1.967   6.476   6.148
12908TIP3    H238668   2.107   6.450   6.096
12909TIP3   OH238669   0.051   6.517   3.157
12909TIP3    H138670   0.119   6.534   3.222
12909TIP3    H238671  -0.031   6.537   3.203
12910TIP3   OH238672   3.325   3.800   2.313
12910TIP3    H138673   3.351   3.892   2.309
12910TIP3    H238674   3.374   3.764   2.386
12911TIP3   OH238675   7.684   1.955   5.660
12911TIP3    H138676   7.778   1.967   5.668
12911TIP3    H238677   7.663   1.884   5.720
12912TIP3   OH238678   6.086   5.963   2.154
12912TIP3    H138679   6.172   5.922   2.159
12912TIP3    H238680   6.103   6.050   2.118
12913TIP3   OH238681   4.831   6.419   6.682
12913TIP3    H138682   4.781   6.437   6.762
12913TIP3    H238683   4.910   6.473   6.690
12914TIP3   OH238684   5.867   7.735   6.089
12914TIP3    H138685   5.879   7.672   6.160
12914TIP3    H238686   5.848   7.818   6.134
12915TIP3   OH238687   0.845   4.428   2.543
12915TIP3    H138688   0.815   4.380   2.620
12915TIP3    H238689   0.925   4.383   2.517
12916TIP3   OH238690   0.240   6.169   3.933
12916TIP3    H138691   0.316   6.226   3.923
12916TIP3    H238692   0.274   6.092   3.978
12917TIP3   OH238693   0.420   5.309   1.178
12917TIP3    H138694   0.364   5.312   1.100
12917TIP3    H238695   0.405   5.222   1.215
12918TIP3   OH238696   7.297   4.259   1.670
12918TIP3    H138697   7.201   4.256   1.672
12918TIP3    H238698   7.318   4.268   1.577
12919TIP3   OH238699   4.019   3.568   4.778
12919TIP3    H138700   4.055   3.569   4.689
12919TIP3    H238701   3.924   3.561   4.765
12920TIP3   OH238702   6.501   6.744   4.193
12920TIP3    H138703   6.457   6.714   4.114
12920TIP3    H238704   6.461   6.828   4.213
12921TIP3   OH238705   5.036   6.952   1.574
12921TIP3    H138706   5.097   6.992   1.512
12921TIP3    H238707   4.950   6.980   1.544
12922TIP3   OH238708   1.168   6.932   1.922
12922TIP3    H138709   1.191   6.839   1.917
12922TIP3    H238710   1.161   6.950   2.016
12923TIP3   OH238711   4.788   4.179   5.505
12923TIP3    H138712   4.707   4.223   5.479
12923TIP3    H238713   4.777   4.163   5.599
12924TIP3   OH238714   7.652   5.911   5.742
12924TIP3    H138715   7.693   5.825   5.737
12924TIP3    H238716   7.662   5.948   5.654
12925TIP3   OH238717   1.279   6.581   4.281
12925TIP3    H138718   1.277   6.663   4.232
12925TIP3    H238719   1.207   6.588   4.343
12926TIP3   OH238720   5.461   2.770   1.636
12926TIP3    H138721   5.496   2.798   1.721
12926TIP3    H238722   5.366   2.766   1.650
12927TIP3   OH238723   5.811   1.681   5.873
12927TIP3    H138724   5.725   1.653   5.842
12927TIP3    H238725   5.860   1.701   5.793
12928TIP3   OH238726   7.025   4.322   2.455
12928TIP3    H138727   6.966   4.329   2.531
12928TIP3    H238728   7.040   4.412   2.428
12929TIP3   OH238729   7.980   3.366   0.906
12929TIP3    H138730   7.917   3.437   0.900
12929TIP3    H238731   8.048   3.388   0.842
12930TIP3   OH238732   7.338   7.617   5.975
12930TIP3    H138733   7.368   7.635   5.886
12930TIP3    H238734   7.409   7.566   6.015
12931TIP3   OH238735   2.669   0.516   6.105
12931TIP3    H138736   2.712   0.434   6.131
12931TIP3    H238737   2.698   0.531   6.015
12932TIP3   OH238738   5.587   7.745   2.045
12932TIP3    H138739   5.563   7.772   1.957
12932TIP3    H238740   5.640   7.818   2.079
12933TIP3   OH238741   7.158   3.833   5.422
12933TIP3    H138742   7.112   3.853   5.503
12933TIP3    H238743   7.125   3.899   5.360
12934TIP3   OH238744   6.225   2.945   3.135
12934TIP3    H138745   6.223   2.879   3.204
12934TIP3    H238746   6.199   3.027   3.178
12935TIP3   OH238747   1.381   0.581   1.152
12935TIP3    H138748   1.387   0.536   1.236
12935TIP3    H238749   1.338   0.519   1.094
12936TIP3   OH238750   4.820   4.061   6.420
12936TIP3    H138751   4.738   4.013   6.423
12936TIP3    H238752   4.814   4.116   6.342
12937TIP3   OH238753   0.321   2.861   4.518
12937TIP3    H138754   0.247   2.917   4.543
12937TIP3    H238755   0.358   2.904   4.441
12938TIP3   OH238756   5.739   2.229   2.211
12938TIP3    H138757   5.768   2.170   2.141
12938TIP3    H238758   5.781   2.196   2.290
12939TIP3   OH238759   4.625   4.630   5.232
12939TIP3    H138760   4.644   4.547   5.276
12939TIP3    H238761   4.620   4.694   5.303
12940TIP3   OH238762   0.607   4.948   2.765
12940TIP3    H138763   0.514   4.959   2.748
12940TIP3    H238764   0.615   4.943   2.860
12941TIP3   OH238765   3.387   7.592   6.688
12941TIP3    H138766   3.428   7.577   6.602
12941TIP3    H238767   3.303   7.633   6.668
12942TIP3   OH238768   2.221   4.761   2.566
12942TIP3    H138769   2.206   4.708   2.644
12942TIP3    H238770   2.140   4.752   2.515
12943TIP3   OH238771   2.625   0.385   3.571
12943TIP3    H138772   2.589   0.357   3.488
12943TIP3    H238773   2.719   0.366   3.565
12944TIP3   OH238774   4.487   7.314   6.280
12944TIP3    H138775   4.537   7.395   6.269
12944TIP3    H238776   4.485   7.274   6.193
12945TIP3   OH238777   1.649   1.421   1.996
12945TIP3    H138778   1.695   1.337   1.993
12945TIP3    H238779   1.608   1.422   2.082
12946TIP3   OH238780   3.396   6.549   0.551
12946TIP3    H138781   3.323   6.610   0.562
12946TIP3    H238782   3.474   6.604   0.557
12947TIP3   OH238783   0.577   1.582   4.335
12947TIP3    H138784   0.606   1.662   4.380
12947TIP3    H238785   0.500   1.554   4.384
12948TIP3   OH238786   1.660   2.064   4.527
12948TIP3    H138787   1.696   1.989   4.575
12948TIP3    H238788   1.639   2.128   4.595
12949TIP3   OH238789   6.321   0.161   5.899
12949TIP3    H138790   6.359   0.233   5.950
12949TIP3    H238791   6.394   0.101   5.883
12950TIP3   OH238792   4.846   2.262   5.729
12950TIP3    H138793   4.825   2.185   5.676
12950TIP3    H238794   4.912   2.309   5.677
12951TIP3   OH238795   1.638   0.377   2.836
12951TIP3    H138796   1.585   0.454   2.816
12951TIP3    H238797   1.635   0.324   2.757
12952TIP3   OH238798   5.348   6.466   3.164
12952TIP3    H138799   5.401   6.386   3.164
12952TIP3    H238800   5.291   6.458   3.241
12953TIP3   OH238801   7.036   2.388   2.836
12953TIP3    H138802   7.126   2.419   2.845
12953TIP3    H238803   7.015   2.403   2.744
12954TIP3   OH238804   4.836   0.884   1.609
12954TIP3    H138805   4.877   0.851   1.529
12954TIP3    H238806   4.909   0.907   1.666
12955TIP3   OH238807   4.303   4.936   3.321
12955TIP3    H138808   4.371   4.918   3.257
12955TIP3    H238809   4.261   5.016   3.289
12956TIP3   OH238810   5.988   0.829   3.614
12956TIP3    H138811   6.066   0.883   3.602
12956TIP3    H238812   5.962   0.846   3.705
12957TIP3   OH238813   1.381   2.522   0.507
12957TIP3    H138814   1.388   2.524   0.411
12957TIP3    H238815   1.420   2.604   0.536
12958TIP3   OH238816   0.791   0.761   1.074
12958TIP3    H138817   0.845   0.806   1.139
12958TIP3    H238818   0.847   0.692   1.040
12959TIP3   OH238819   6.434   2.967   5.953
12959TIP3    H138820   6.347   2.927   5.955
12959TIP3    H238821   6.484   2.911   5.894
12960TIP3   OH238822   7.752   4.662   2.091
12960TIP3    H138823   7.779   4.697   2.006
12960TIP3    H238824   7.669   4.705   2.111
12961TIP3   OH238825   6.141   7.188   1.293
12961TIP3    H138826   6.056   7.145   1.304
12961TIP3    H238827   6.198   7.144   1.355
12962TIP3   OH238828   2.764   7.270   6.505
12962TIP3    H138829   2.774   7.179   6.532
12962TIP3    H238830   2.693   7.304   6.560
12963TIP3   OH238831   2.126   7.705   0.346
12963TIP3    H138832   2.157   7.796   0.343
12963TIP3    H238833   2.103   7.691   0.438
12964TIP3   OH238834   3.518   2.453   2.298
12964TIP3    H138835   3.563   2.519   2.351
12964TIP3    H238836   3.462   2.503   2.239
12965TIP3   OH238837   4.984   6.909   4.691
12965TIP3    H138838   4.942   6.994   4.702
12965TIP3    H238839   4.960   6.883   4.602
12966TIP3   OH238840   7.036   5.904   0.404
12966TIP3    H138841   7.104   5.968   0.384
12966TIP3    H238842   7.009   5.925   0.494
12967TIP3   OH238843   8.045   2.194   2.279
12967TIP3    H138844   8.083   2.172   2.194
12967TIP3    H238845   7.970   2.250   2.258
12968TIP3   OH238846   3.757   7.375   3.775
12968TIP3    H138847   3.726   7.345   3.690
12968TIP3    H238848   3.689   7.346   3.836
12969TIP3   OH238849   8.137   0.641   6.554
12969TIP3    H138850   8.051   0.599   6.546
12969TIP3    H238851   8.200   0.572   6.535
12970TIP3   OH238852   0.489   7.678   1.156
12970TIP3    H138853   0.477   7.638   1.243
12970TIP3    H238854   0.426   7.750   1.154
12971TIP3   OH238855   2.796   7.724   6.167
12971TIP3    H138856   2.879   7.688   6.134
12971TIP3    H238857   2.789   7.690   6.257
12972TIP3   OH238858   1.709   0.983   4.446
12972TIP3    H138859   1.781   1.019   4.498
12972TIP3    H238860   1.720   0.888   4.451
12973TIP3   OH238861   1.756   0.275   6.321
12973TIP3    H138862   1.685   0.222   6.359
12973TIP3    H238863   1.765   0.242   6.232
12974TIP3   OH238864   5.054   4.119   1.767
12974TIP3    H138865   5.036   4.180   1.839
12974TIP3    H238866   5.067   4.176   1.691
12975TIP3   OH238867   5.358   0.402   4.862
12975TIP3    H138868   5.316   0.458   4.927
12975TIP3    H238869   5.435   0.367   4.907
12976TIP3   OH238870   3.564   2.263   2.916
12976TIP3    H138871   3.538   2.268   2.824
12976TIP3    H238872   3.632   2.196   2.918
12977TIP3   OH238873   2.379   4.505   3.491
12977TIP3    H138874   2.451   4.445   3.468
12977TIP3    H238875   2.380   4.508   3.586
12978TIP3   OH238876   5.081   3.257   0.322
12978TIP3    H138877   5.030   3.216   0.392
12978TIP3    H238878   5.154   3.197   0.309
12979TIP3   OH238879   3.584   4.085   2.888
12979TIP3    H138880   3.571   3.992   2.872
12979TIP3    H238881   3.573   4.127   2.803
12980TIP3   OH238882   7.029   4.724  -0.008
12980TIP3    H138883   6.989   4.761  -0.087
12980TIP3    H238884   7.110   4.773   0.003
12981TIP3   OH238885   4.690   4.822   5.822
12981TIP3    H138886   4.668   4.796   5.912
12981TIP3    H238887   4.625   4.777   5.768
12982TIP3   OH238888   2.419   1.476   6.279
12982TIP3    H138889   2.347   1.430   6.234
12982TIP3    H238890   2.377   1.551   6.321
12983TIP3   OH238891   6.248   3.598   1.206
12983TIP3    H138892   6.342   3.601   1.223
12983TIP3    H238893   6.213   3.544   1.277
12984TIP3   OH238894   3.399   5.388   3.768
12984TIP3    H138895   3.473   5.336   3.737
12984TIP3    H238896   3.389   5.458   3.704
12985TIP3   OH238897   6.295   3.588   5.613
12985TIP3    H138898   6.229   3.658   5.611
12985TIP3    H238899   6.377   3.632   5.590
12986TIP3   OH238900   6.302   5.576   0.913
12986TIP3    H138901   6.264   5.561   0.826
12986TIP3    H238902   6.237   5.541   0.974
12987TIP3   OH238903   7.493   0.304   1.495
12987TIP3    H138904   7.455   0.217   1.483
12987TIP3    H238905   7.442   0.360   1.437
12988TIP3   OH238906   2.479   6.233   2.116
12988TIP3    H138907   2.400   6.286   2.127
12988TIP3    H238908   2.474   6.167   2.185
12989TIP3   OH238909   2.255   5.722   6.484
12989TIP3    H138910   2.184   5.717   6.420
12989TIP3    H238911   2.299   5.638   6.478
12990TIP3   OH238912   7.080   4.536   6.558
12990TIP3    H138913   7.006   4.510   6.613
12990TIP3    H238914   7.145   4.467   6.571
12991TIP3   OH238915   5.210   5.990   0.067
12991TIP3    H138916   5.253   5.918   0.113
12991TIP3    H238917   5.267   6.007  -0.008
12992TIP3   OH238918   4.142   6.147   5.549
12992TIP3    H138919   4.155   6.230   5.504
12992TIP3    H238920   4.083   6.168   5.622
12993TIP3   OH238921   7.440   4.015   2.055
12993TIP3    H138922   7.367   4.016   2.117
12993TIP3    H238923   7.400   4.034   1.970
12994TIP3   OH238924   5.046   0.673   2.361
12994TIP3    H138925   4.973   0.707   2.413
12994TIP3    H238926   5.120   0.729   2.384
12995TIP3   OH238927   7.832   6.539   3.652
12995TIP3    H138928   7.813   6.505   3.565
12995TIP3    H238929   7.921   6.509   3.671
12996TIP3   OH238930   6.782   2.001   0.634
12996TIP3    H138931   6.847   1.939   0.600
12996TIP3    H238932   6.707   1.947   0.656
12997TIP3   OH238933   4.211   1.502   1.528
12997TIP3    H138934   4.297   1.523   1.494
12997TIP3    H238935   4.168   1.586   1.540
12998TIP3   OH238936   0.706   3.548   0.703
12998TIP3    H138937   0.711   3.521   0.612
12998TIP3    H238938   0.638   3.616   0.705
12999TIP3   OH238939   0.257   2.530   0.574
12999TIP3    H138940   0.167   2.541   0.543
12999TIP3    H238941   0.265   2.592   0.647
13000TIP3   OH238942   5.707   3.461   1.700
13000TIP3    H138943   5.622   3.464   1.656
13000TIP3    H238944   5.742   3.549   1.689
13001TIP3   OH238945   7.440   7.117   1.630
13001TIP3    H138946   7.434   7.123   1.535
13001TIP3    H238947   7.431   7.024   1.649
13002TIP3   OH238948   4.417   6.505   4.933
13002TIP3    H138949   4.359   6.475   4.863
13002TIP3    H238950   4.485   6.438   4.939
13003TIP3   OH238951   7.316   6.363   1.289
13003TIP3    H138952   7.407   6.378   1.263
13003TIP3    H238953   7.281   6.451   1.306
13004TIP3   OH238954   2.106   2.292   4.859
13004TIP3    H138955   2.169   2.226   4.888
13004TIP3    H238956   2.123   2.368   4.915
13005TIP3   OH238957   7.803   7.447   4.733
13005TIP3    H138958   7.846   7.491   4.660
13005TIP3    H238959   7.779   7.518   4.793
13006TIP3   OH238960   7.318   4.319   6.524
13006TIP3    H138961   7.254   4.249   6.533
13006TIP3    H238962   7.355   4.330   6.612
13007TIP3   OH238963   3.104   7.573   6.277
13007TIP3    H138964   3.084   7.541   6.189
13007TIP3    H238965   3.200   7.577   6.281
13008TIP3   OH238966   1.660   2.002   2.417
13008TIP3    H138967   1.720   2.053   2.470
13008TIP3    H238968   1.688   1.911   2.430
13009TIP3   OH238969   7.746   5.042   6.685
13009TIP3    H138970   7.842   5.044   6.690
13009TIP3    H238971   7.727   5.040   6.591
13010TIP3   OH238972   1.421   2.829   0.892
13010TIP3    H138973   1.513   2.842   0.918
13010TIP3    H238974   1.390   2.760   0.950
13011TIP3   OH238975   6.967   1.854   0.477
13011TIP3    H138976   7.062   1.849   0.463
13011TIP3    H238977   6.930   1.860   0.389
13012TIP3   OH238978   2.544   1.029   0.593
13012TIP3    H138979   2.605   1.066   0.529
13012TIP3    H238980   2.460   1.028   0.549
13013TIP3   OH238981   3.719   4.652   2.158
13013TIP3    H138982   3.790   4.717   2.155
13013TIP3    H238983   3.694   4.641   2.066
13014TIP3   OH238984   5.018   7.154   5.536
13014TIP3    H138985   4.964   7.221   5.494
13014TIP3    H238986   4.958   7.083   5.557
13015TIP3   OH238987   2.734   2.249   0.121
13015TIP3    H138988   2.776   2.332   0.145
13015TIP3    H238989   2.676   2.272   0.048
13016TIP3   OH238990   6.221   0.934   2.992
13016TIP3    H138991   6.206   1.020   2.953
13016TIP3    H238992   6.283   0.950   3.063
13017TIP3   OH238993   7.511   2.448   5.695
13017TIP3    H138994   7.548   2.466   5.782
13017TIP3    H238995   7.424   2.410   5.714
13018TIP3   OH238996   7.096   0.620   5.823
13018TIP3    H138997   7.010   0.625   5.780
13018TIP3    H238998   7.097   0.534   5.864
13019TIP3   OH238999   1.259   0.350   0.590
13019TIP3    H139000   1.199   0.337   0.517
13019TIP3    H239001   1.305   0.266   0.599
13020TIP3   OH239002   5.349   0.765   3.844
13020TIP3    H139003   5.397   0.733   3.768
13020TIP3    H239004   5.302   0.688   3.877
13021TIP3   OH239005   1.585   3.206   6.517
13021TIP3    H139006   1.554   3.251   6.439
13021TIP3    H239007   1.522   3.229   6.585
13022TIP3   OH239008   2.279   7.213   1.613
13022TIP3    H139009   2.238   7.283   1.564
13022TIP3    H239010   2.211   7.146   1.622
13023TIP3   OH239011   2.516   1.532   6.692
13023TIP3    H139012   2.495   1.586   6.616
13023TIP3    H239013   2.433   1.488   6.713
13024TIP3   OH239014   6.928   2.292   2.254
13024TIP3    H139015   6.838   2.325   2.254
13024TIP3    H239016   6.981   2.368   2.278
13025TIP3   OH239017   2.432   6.679   3.449
13025TIP3    H139018   2.475   6.745   3.504
13025TIP3    H239019   2.340   6.681   3.476
13026TIP3   OH239020   3.669   0.911   2.094
13026TIP3    H139021   3.646   0.895   2.185
13026TIP3    H239022   3.704   0.827   2.063
13027TIP3   OH239023   4.343   1.380   1.952
13027TIP3    H139024   4.290   1.344   1.881
13027TIP3    H239025   4.428   1.338   1.942
13028TIP3   OH239026   5.158   6.554   2.410
13028TIP3    H139027   5.152   6.552   2.505
13028TIP3    H239028   5.243   6.593   2.391
13029TIP3   OH239029   3.819   4.193   2.999
13029TIP3    H139030   3.740   4.145   2.976
13029TIP3    H239031   3.876   4.182   2.923
13030TIP3   OH239032   3.063   3.387   6.068
13030TIP3    H139033   3.059   3.342   5.984
13030TIP3    H239034   3.059   3.480   6.046
13031TIP3   OH239035   1.315   2.937   3.582
13031TIP3    H139036   1.346   2.906   3.667
13031TIP3    H239037   1.220   2.923   3.585
13032TIP3   OH239038   3.530   5.240   6.241
13032TIP3    H139039   3.468   5.223   6.312
13032TIP3    H239040   3.596   5.296   6.279
13033TIP3   OH239041   7.325   5.471   5.327
13033TIP3    H139042   7.245   5.517   5.352
13033TIP3    H239043   7.376   5.468   5.408
13034TIP3   OH239044   8.204   4.509   1.617
13034TIP3    H139045   8.214   4.428   1.668
13034TIP3    H239046   8.200   4.578   1.682
13035TIP3   OH239047   3.117   2.433   2.602
13035TIP3    H139048   3.108   2.476   2.687
13035TIP3    H239049   3.155   2.500   2.545
13036TIP3   OH239050   1.133   6.399   3.027
13036TIP3    H139051   1.129   6.358   3.113
13036TIP3    H239052   1.104   6.489   3.041
13037TIP3   OH239053   8.213   6.820   5.812
13037TIP3    H139054   8.213   6.822   5.907
13037TIP3    H239055   8.301   6.789   5.789
13038TIP3   OH239056   7.819   3.982   2.490
13038TIP3    H139057   7.797   3.986   2.397
13038TIP3    H239058   7.735   3.977   2.535
13039TIP3   OH239059   5.710   0.461   0.265
13039TIP3    H139060   5.756   0.455   0.349
13039TIP3    H239061   5.772   0.424   0.201
13040TIP3   OH239062   0.661   1.902   5.499
13040TIP3    H139063   0.721   1.965   5.539
13040TIP3    H239064   0.643   1.839   5.569
13041TIP3   OH239065   3.733   0.109   3.607
13041TIP3    H139066   3.708   0.081   3.519
13041TIP3    H239067   3.756   0.202   3.597
13042TIP3   OH239068   6.680   7.480   6.710
13042TIP3    H139069   6.603   7.486   6.767
13042TIP3    H239070   6.645   7.497   6.623
13043TIP3   OH239071   1.350   4.882   3.764
13043TIP3    H139072   1.301   4.825   3.822
13043TIP3    H239073   1.393   4.945   3.822
13044TIP3   OH239074   7.700   2.664   5.638
13044TIP3    H139075   7.635   2.597   5.619
13044TIP3    H239076   7.658   2.747   5.614
13045TIP3   OH239077   1.327   1.872   4.077
13045TIP3    H139078   1.310   1.875   3.983
13045TIP3    H239079   1.240   1.881   4.117
13046TIP3   OH239080   2.904   5.367   6.808
13046TIP3    H139081   2.871   5.359   6.718
13046TIP3    H239082   2.996   5.341   6.802
13047TIP3   OH239083   0.470   2.912   2.403
13047TIP3    H139084   0.471   2.855   2.326
13047TIP3    H239085   0.410   2.869   2.464
13048TIP3   OH239086   5.333   0.897   5.535
13048TIP3    H139087   5.273   0.828   5.510
13048TIP3    H239088   5.331   0.959   5.463
13049TIP3   OH239089   1.117   1.713   0.995
13049TIP3    H139090   1.065   1.636   1.015
13049TIP3    H239091   1.165   1.731   1.075
13050TIP3   OH239092   5.581   4.536   1.578
13050TIP3    H139093   5.639   4.582   1.518
13050TIP3    H239094   5.616   4.554   1.665
13051TIP3   OH239095   5.192   7.151   5.321
13051TIP3    H139096   5.151   7.221   5.270
13051TIP3    H239097   5.130   7.134   5.392
13052TIP3   OH239098   5.889   3.931   5.473
13052TIP3    H139099   5.798   3.909   5.494
13052TIP3    H239100   5.922   3.975   5.551
13053TIP3   OH239101   3.222   1.066   3.485
13053TIP3    H139102   3.304   1.112   3.466
13053TIP3    H239103   3.189   1.108   3.564
13054TIP3   OH239104   3.054   1.348   6.372
13054TIP3    H139105   3.014   1.358   6.459
13054TIP3    H239106   2.993   1.392   6.312
13055TIP3   OH239107   0.373   0.816   2.199
13055TIP3    H139108   0.386   0.726   2.169
13055TIP3    H239109   0.457   0.859   2.181
13056TIP3   OH239110   7.393   5.946   5.823
13056TIP3    H139111   7.381   5.906   5.910
13056TIP3    H239112   7.483   5.925   5.799
13057TIP3   OH239113   0.941   6.310   1.910
13057TIP3    H139114   0.859   6.296   1.864
13057TIP3    H239115   0.961   6.402   1.895
13058TIP3   OH239116   6.994   1.429   0.231
13058TIP3    H139117   6.923   1.365   0.223
13058TIP3    H239118   7.073   1.376   0.242
13059TIP3   OH239119   0.993   3.322   0.852
13059TIP3    H139120   0.903   3.355   0.861
13059TIP3    H239121   0.983   3.228   0.838
13060TIP3   OH239122   3.667   3.144   3.400
13060TIP3    H139123   3.689   3.237   3.406
13060TIP3    H239124   3.730   3.100   3.458
13061TIP3   OH239125   2.531   0.020   0.679
13061TIP3    H139126   2.530   0.103   0.726
13061TIP3    H239127   2.442   0.009   0.646
13062TIP3   OH239128   6.097   5.642   5.225
13062TIP3    H139129   6.124   5.559   5.264
13062TIP3    H239130   6.001   5.639   5.225
13063TIP3   OH239131   4.708   2.613   0.946
13063TIP3    H139132   4.774   2.579   1.005
13063TIP3    H239133   4.757   2.652   0.874
13064TIP3   OH239134   4.544   4.050   3.378
13064TIP3    H139135   4.472   4.002   3.337
13064TIP3    H239136   4.523   4.142   3.364
13065TIP3   OH239137   7.061   3.409   2.864
13065TIP3    H139138   7.095   3.437   2.779
13065TIP3    H239139   7.138   3.402   2.919
13066TIP3   OH239140   0.310   5.370   3.507
13066TIP3    H139141   0.251   5.342   3.437
13066TIP3    H239142   0.391   5.323   3.491
13067TIP3   OH239143   1.369   7.399   0.082
13067TIP3    H139144   1.283   7.391   0.123
13067TIP3    H239145   1.364   7.345   0.003
13068TIP3   OH239146   4.453   3.679   0.223
13068TIP3    H139147   4.514   3.741   0.262
13068TIP3    H239148   4.436   3.714   0.135
13069TIP3   OH239149   7.984   5.818   4.195
13069TIP3    H139150   8.003   5.890   4.135
13069TIP3    H239151   7.920   5.855   4.257
13070TIP3   OH239152   6.781   6.949   5.682
13070TIP3    H139153   6.859   6.964   5.736
13070TIP3    H239154   6.802   6.870   5.632
13071TIP3   OH239155   4.681   6.264   1.447
13071TIP3    H139156   4.653   6.180   1.412
13071TIP3    H239157   4.777   6.260   1.445
13072TIP3   OH239158   3.656   1.275   0.990
13072TIP3    H139159   3.578   1.329   1.002
13072TIP3    H239160   3.668   1.271   0.895
13073TIP3   OH239161   1.808   2.335   3.317
13073TIP3    H139162   1.823   2.367   3.228
13073TIP3    H239163   1.811   2.239   3.308
13074TIP3   OH239164   3.503   6.704   4.682
13074TIP3    H139165   3.490   6.757   4.603
13074TIP3    H239166   3.426   6.724   4.736
13075TIP3   OH239167   7.410   4.212   4.364
13075TIP3    H139168   7.346   4.194   4.295
13075TIP3    H239169   7.411   4.133   4.417
13076TIP3   OH239170   1.936   0.661   3.816
13076TIP3    H139171   1.966   0.674   3.726
13076TIP3    H239172   1.964   0.572   3.838
13077TIP3   OH239173   2.759   0.048   0.014
13077TIP3    H139174   2.715   0.117  -0.036
13077TIP3    H239175   2.755   0.078   0.105
13078TIP3   OH239176   2.991   5.393   0.297
13078TIP3    H139177   2.954   5.475   0.332
13078TIP3    H239178   2.949   5.324   0.349
13079TIP3   OH239179   4.021   6.739   3.511
13079TIP3    H139180   4.011   6.647   3.535
13079TIP3    H239181   3.931   6.769   3.497
13080TIP3   OH239182   2.424   4.532   1.348
13080TIP3    H139183   2.513   4.528   1.384
13080TIP3    H239184   2.369   4.559   1.421
13081TIP3   OH239185   1.344   5.864   1.900
13081TIP3    H139186   1.354   5.889   1.991
13081TIP3    H239187   1.254   5.832   1.893
13082TIP3   OH239188   4.359   6.980   2.372
13082TIP3    H139189   4.366   6.885   2.366
13082TIP3    H239190   4.268   6.998   2.346
13083TIP3   OH239191   3.347   2.618   2.163
13083TIP3    H139192   3.320   2.706   2.135
13083TIP3    H239193   3.354   2.568   2.081
13084TIP3   OH239194   6.007   0.695   1.232
13084TIP3    H139195   5.916   0.723   1.220
13084TIP3    H239196   6.057   0.753   1.175
13085TIP3   OH239197   3.576   3.216   0.266
13085TIP3    H139198   3.634   3.163   0.212
13085TIP3    H239199   3.503   3.158   0.288
13086TIP3   OH239200   2.596   4.484   5.817
13086TIP3    H139201   2.564   4.395   5.804
13086TIP3    H239202   2.614   4.515   5.728
13087TIP3   OH239203   6.231   2.474   5.624
13087TIP3    H139204   6.140   2.455   5.604
13087TIP3    H239205   6.231   2.564   5.655
13088TIP3   OH239206   2.337   0.926   1.334
13088TIP3    H139207   2.395   0.989   1.291
13088TIP3    H239208   2.325   0.857   1.270
13089TIP3   OH239209   6.421   0.766   4.885
13089TIP3    H139210   6.353   0.823   4.849
13089TIP3    H239211   6.498   0.785   4.831
13090TIP3   OH239212   6.976   4.118   3.079
13090TIP3    H139213   7.038   4.085   3.145
13090TIP3    H239214   6.987   4.059   3.004
13091TIP3   OH239215   4.015   3.855   3.484
13091TIP3    H139216   3.933   3.892   3.517
13091TIP3    H239217   4.009   3.865   3.389
13092TIP3   OH239218   6.160   7.800   3.277
13092TIP3    H139219   6.202   7.764   3.199
13092TIP3    H239220   6.141   7.723   3.331
13093TIP3   OH239221   2.484   0.835   6.410
13093TIP3    H139222   2.411   0.878   6.454
13093TIP3    H239223   2.445   0.760   6.365
13094TIP3   OH239224   6.854   0.572   1.232
13094TIP3    H139225   6.769   0.528   1.239
13094TIP3    H239226   6.854   0.635   1.304
13095TIP3   OH239227   2.776   7.883   4.768
13095TIP3    H139228   2.813   7.824   4.835
13095TIP3    H239229   2.685   7.854   4.759
13096TIP3   OH239230   3.018   6.198   3.589
13096TIP3    H139231   2.970   6.265   3.637
13096TIP3    H239232   2.952   6.157   3.533
13097TIP3   OH239233   6.326   6.719   3.753
13097TIP3    H139234   6.305   6.638   3.706
13097TIP3    H239235   6.283   6.788   3.703
13098TIP3   OH239236   7.370   5.095   2.171
13098TIP3    H139237   7.347   5.099   2.264
13098TIP3    H239238   7.299   5.044   2.132
13099TIP3   OH239239   3.946   0.721   0.748
13099TIP3    H139240   3.972   0.728   0.840
13099TIP3    H239241   3.855   0.691   0.752
13100TIP3   OH239242   1.567   4.840   4.592
13100TIP3    H139243   1.555   4.753   4.553
13100TIP3    H239244   1.658   4.841   4.620
13101TIP3   OH239245   1.058   7.012   4.126
13101TIP3    H139246   1.026   7.020   4.036
13101TIP3    H239247   1.047   7.099   4.163
13102TIP3   OH239248   3.443   0.211   3.188
13102TIP3    H139249   3.435   0.289   3.134
13102TIP3    H239250   3.354   0.176   3.192
13103TIP3   OH239251   5.709   2.749   2.788
13103TIP3    H139252   5.738   2.756   2.879
13103TIP3    H239253   5.684   2.838   2.764
13104TIP3   OH239254   1.346   5.195   2.804
13104TIP3    H139255   1.291   5.264   2.842
13104TIP3    H239256   1.286   5.123   2.787
13105TIP3   OH239257   0.519   3.570   6.587
13105TIP3    H139258   0.553   3.611   6.507
13105TIP3    H239259   0.595   3.563   6.645
13106TIP3   OH239260   3.173   1.812   5.762
13106TIP3    H139261   3.249   1.806   5.820
13106TIP3    H239262   3.166   1.724   5.723
13107TIP3   OH239263   1.667   4.980   1.893
13107TIP3    H139264   1.650   4.889   1.917
13107TIP3    H239265   1.712   5.017   1.969
13108TIP3   OH239266   1.252   6.456   6.198
13108TIP3    H139267   1.324   6.394   6.185
13108TIP3    H239268   1.192   6.410   6.257
13109TIP3   OH239269   2.447   7.874   3.975
13109TIP3    H139270   2.371   7.817   3.969
13109TIP3    H239271   2.483   7.857   4.062
13110TIP3   OH239272   0.365   1.774   0.854
13110TIP3    H139273   0.342   1.794   0.763
13110TIP3    H239274   0.455   1.742   0.849
13111TIP3   OH239275   6.110   6.338   0.449
13111TIP3    H139276   6.102   6.279   0.525
13111TIP3    H239277   6.088   6.425   0.484
13112TIP3   OH239278   6.844   5.307   4.495
13112TIP3    H139279   6.808   5.240   4.553
13112TIP3    H239280   6.925   5.336   4.538
13113TIP3   OH239281   0.351   2.317   0.953
13113TIP3    H139282   0.427   2.324   1.012
13113TIP3    H239283   0.338   2.222   0.943
13114TIP3   OH239284   3.325   3.010   4.254
13114TIP3    H139285   3.299   2.977   4.168
13114TIP3    H239286   3.341   2.931   4.307
13115TIP3   OH239287   6.439   6.266   0.465
13115TIP3    H139288   6.503   6.324   0.423
13115TIP3    H239289   6.354   6.303   0.441
13116TIP3   OH239290   0.573   1.586   3.243
13116TIP3    H139291   0.503   1.651   3.244
13116TIP3    H239292   0.652   1.635   3.222
13117TIP3   OH239293   4.688   1.723   1.513
13117TIP3    H139294   4.736   1.642   1.495
13117TIP3    H239295   4.750   1.793   1.491
13118TIP3   OH239296   5.683   5.157   4.678
13118TIP3    H139297   5.615   5.150   4.610
13118TIP3    H239298   5.640   5.201   4.751
13119TIP3   OH239299   6.560   3.531   5.232
13119TIP3    H139300   6.579   3.491   5.147
13119TIP3    H239301   6.476   3.494   5.258
13120TIP3   OH239302   6.941   2.000   1.797
13120TIP3    H139303   7.025   2.032   1.765
13120TIP3    H239304   6.877   2.062   1.763
13121TIP3   OH239305   3.811   2.238   5.089
13121TIP3    H139306   3.830   2.159   5.140
13121TIP3    H239307   3.716   2.235   5.076
13122TIP3   OH239308   2.736   2.083   2.110
13122TIP3    H139309   2.742   2.122   2.197
13122TIP3    H239310   2.797   2.010   2.112
13123TIP3   OH239311   5.696   1.575   0.267
13123TIP3    H139312   5.686   1.654   0.320
13123TIP3    H239313   5.774   1.591   0.215
13124TIP3   OH239314   2.860   1.644   6.507
13124TIP3    H139315   2.834   1.733   6.533
13124TIP3    H239316   2.927   1.619   6.569
13125TIP3   OH239317   5.376   4.636   5.072
13125TIP3    H139318   5.444   4.691   5.033
13125TIP3    H239319   5.425   4.565   5.115
13126TIP3   OH239320   6.218   2.648   4.352
13126TIP3    H139321   6.235   2.576   4.412
13126TIP3    H239322   6.289   2.644   4.289
13127TIP3   OH239323   0.733   5.536   3.666
13127TIP3    H139324   0.746   5.558   3.574
13127TIP3    H239325   0.818   5.551   3.707
13128TIP3   OH239326   7.944   3.923   5.529
13128TIP3    H139327   7.914   3.972   5.606
13128TIP3    H239328   8.016   3.868   5.562
13129TIP3   OH239329   1.166   6.665   2.364
13129TIP3    H139330   1.148   6.616   2.284
13129TIP3    H239331   1.237   6.725   2.340
13130TIP3   OH239332   7.881   3.041   1.374
13130TIP3    H139333   7.888   3.127   1.415
13130TIP3    H239334   7.967   3.026   1.335
13131TIP3   OH239335   4.270   0.532   4.511
13131TIP3    H139336   4.204   0.578   4.563
13131TIP3    H239337   4.294   0.456   4.565
13132TIP3   OH239338   5.255   3.493   6.199
13132TIP3    H139339   5.234   3.572   6.150
13132TIP3    H239340   5.171   3.461   6.231
13133TIP3   OH239341   2.240   2.158   6.066
13133TIP3    H139342   2.262   2.083   6.011
13133TIP3    H239343   2.248   2.234   6.008
13134TIP3   OH239344   8.222   1.418   1.907
13134TIP3    H139345   8.248   1.420   1.815
13134TIP3    H239346   8.273   1.488   1.948
13135TIP3   OH239347   0.353   5.424   3.204
13135TIP3    H139348   0.337   5.517   3.192
13135TIP3    H239349   0.280   5.381   3.161
13136TIP3   OH239350   4.445   5.264   5.346
13136TIP3    H139351   4.452   5.309   5.430
13136TIP3    H239352   4.401   5.327   5.289
13137TIP3   OH239353   6.713   5.321   3.447
13137TIP3    H139354   6.628   5.359   3.426
13137TIP3    H239355   6.721   5.330   3.542
13138TIP3   OH239356   4.034   5.403   2.802
13138TIP3    H139357   4.015   5.492   2.776
13138TIP3    H239358   3.956   5.353   2.780
13139TIP3   OH239359   5.992   7.716   3.993
13139TIP3    H139360   5.994   7.802   3.952
13139TIP3    H239361   6.077   7.677   3.973
13140TIP3   OH239362   5.483   6.522   4.764
13140TIP3    H139363   5.555   6.507   4.703
13140TIP3    H239364   5.413   6.558   4.709
13141TIP3   OH239365   1.206   5.687   4.045
13141TIP3    H139366   1.126   5.739   4.056
13141TIP3    H239367   1.216   5.680   3.950
13142TIP3   OH239368   0.974   4.364   1.056
13142TIP3    H139369   1.024   4.377   0.975
13142TIP3    H239370   1.034   4.390   1.126
13143TIP3   OH239371   4.425   4.360   1.931
13143TIP3    H139372   4.497   4.334   1.874
13143TIP3    H239373   4.466   4.416   1.997
13144TIP3   OH239374   8.119   5.665   5.890
13144TIP3    H139375   8.099   5.748   5.847
13144TIP3    H239376   8.082   5.674   5.978
13145TIP3   OH239377   2.066   5.662   3.374
13145TIP3    H139378   2.149   5.637   3.416
13145TIP3    H239379   2.092   5.695   3.288
13146TIP3   OH239380   4.928   0.818   5.429
13146TIP3    H139381   4.858   0.755   5.446
13146TIP3    H239382   5.008   0.766   5.425
13147TIP3   OH239383   4.941   7.003   2.403
13147TIP3    H139384   4.952   6.932   2.466
13147TIP3    H239385   4.919   7.079   2.456
13148TIP3   OH239386   3.863   5.844   1.528
13148TIP3    H139387   3.792   5.908   1.523
13148TIP3    H239388   3.904   5.846   1.442
13149TIP3   OH239389   5.158   0.187   2.949
13149TIP3    H139390   5.123   0.269   2.916
13149TIP3    H239391   5.230   0.212   3.007
13150TIP3   OH239392   2.033   5.251   1.115
13150TIP3    H139393   2.120   5.291   1.117
13150TIP3    H239394   1.984   5.298   1.183
13151TIP3   OH239395   3.792   1.747   4.571
13151TIP3    H139396   3.795   1.687   4.646
13151TIP3    H239397   3.763   1.830   4.609
13152TIP3   OH239398   0.665   5.819   2.496
13152TIP3    H139399   0.702   5.907   2.499
13152TIP3    H239400   0.740   5.761   2.482
13153TIP3   OH239401   2.869   2.984   1.963
13153TIP3    H139402   2.862   2.957   2.055
13153TIP3    H239403   2.782   3.017   1.941
13154TIP3   OH239404   0.827   0.722   1.522
13154TIP3    H139405   0.849   0.700   1.431
13154TIP3    H239406   0.797   0.639   1.560
13155TIP3   OH239407   1.667   0.702   3.821
13155TIP3    H139408   1.761   0.715   3.831
13155TIP3    H239409   1.630   0.724   3.906
13156TIP3   OH239410   7.933   1.307   4.917
13156TIP3    H139411   7.923   1.229   4.971
13156TIP3    H239412   7.995   1.282   4.849
13157TIP3   OH239413   5.508   0.617   6.406
13157TIP3    H139414   5.573   0.561   6.364
13157TIP3    H239415   5.534   0.706   6.382
13158TIP3   OH239416   6.362   1.330   6.288
13158TIP3    H139417   6.310   1.331   6.369
13158TIP3    H239418   6.442   1.283   6.311
13159TIP3   OH239419   4.352   6.985   0.424
13159TIP3    H139420   4.429   6.944   0.384
13159TIP3    H239421   4.290   6.997   0.351
13160TIP3   OH239422   4.396   1.682   1.460
13160TIP3    H139423   4.484   1.695   1.495
13160TIP3    H239424   4.348   1.760   1.486
13161TIP3   OH239425   3.806   6.343   0.497
13161TIP3    H139426   3.780   6.309   0.411
13161TIP3    H239427   3.747   6.300   0.559
13162TIP3   OH239428   2.349   6.557   6.131
13162TIP3    H139429   2.315   6.638   6.092
13162TIP3    H239430   2.430   6.540   6.084
13163TIP3   OH239431   6.856   5.273   1.641
13163TIP3    H139432   6.951   5.263   1.648
13163TIP3    H239433   6.840   5.290   1.549
13164TIP3   OH239434   3.706   4.515   0.557
13164TIP3    H139435   3.793   4.521   0.597
13164TIP3    H239436   3.662   4.596   0.582
13165TIP3   OH239437   5.320   1.545   2.921
13165TIP3    H139438   5.250   1.492   2.883
13165TIP3    H239439   5.298   1.635   2.895
13166TIP3   OH239440   0.504   7.233   5.627
13166TIP3    H139441   0.449   7.156   5.640
13166TIP3    H239442   0.456   7.304   5.669
13167TIP3   OH239443   5.609   4.844   0.271
13167TIP3    H139444   5.693   4.848   0.227
13167TIP3    H239445   5.548   4.888   0.211
13168TIP3   OH239446   2.959   5.778   4.400
13168TIP3    H139447   2.880   5.816   4.438
13168TIP3    H239448   2.973   5.698   4.451
13169TIP3   OH239449   6.320   4.098   1.177
13169TIP3    H139450   6.326   4.043   1.100
13169TIP3    H239451   6.345   4.185   1.146
13170TIP3   OH239452   4.523   5.416   1.479
13170TIP3    H139453   4.584   5.366   1.425
13170TIP3    H239454   4.579   5.472   1.533
13171TIP3   OH239455   1.248   5.868   2.371
13171TIP3    H139456   1.299   5.804   2.321
13171TIP3    H239457   1.214   5.928   2.305
13172TIP3   OH239458   7.734   6.482   3.393
13172TIP3    H139459   7.652   6.530   3.406
13172TIP3    H239460   7.713   6.416   3.327
13173TIP3   OH239461   5.478   3.950   1.169
13173TIP3    H139462   5.449   4.027   1.217
13173TIP3    H239463   5.544   3.983   1.108
13174TIP3   OH239464   4.613   3.172   6.498
13174TIP3    H139465   4.698   3.129   6.485
13174TIP3    H239466   4.563   3.110   6.551
13175TIP3   OH239467   4.087   4.644   2.399
13175TIP3    H139468   4.163   4.650   2.457
13175TIP3    H239469   4.122   4.607   2.318
13176TIP3   OH239470   6.710   7.725   5.621
13176TIP3    H139471   6.648   7.723   5.693
13176TIP3    H239472   6.657   7.711   5.543
13177TIP3   OH239473   6.978   2.583   3.009
13177TIP3    H139474   7.073   2.583   3.021
13177TIP3    H239475   6.958   2.496   2.975
13178TIP3   OH239476   4.244   2.858   3.155
13178TIP3    H139477   4.157   2.872   3.193
13178TIP3    H239478   4.241   2.770   3.119
13179TIP3   OH239479   0.315   6.235   6.470
13179TIP3    H139480   0.273   6.270   6.391
13179TIP3    H239481   0.263   6.157   6.491
13180TIP3   OH239482   4.737   4.595   4.071
13180TIP3    H139483   4.719   4.640   4.153
13180TIP3    H239484   4.738   4.502   4.093
13181TIP3   OH239485   7.964   6.300   3.108
13181TIP3    H139486   7.869   6.294   3.095
13181TIP3    H239487   7.992   6.209   3.121
13182TIP3   OH239488   6.299   6.963   1.411
13182TIP3    H139489   6.297   6.970   1.506
13182TIP3    H239490   6.262   6.877   1.392
13183TIP3   OH239491   4.540   1.720   3.388
13183TIP3    H139492   4.586   1.770   3.455
13183TIP3    H239493   4.559   1.628   3.409
13184TIP3   OH239494   6.897   7.247   0.300
13184TIP3    H139495   6.803   7.263   0.305
13184TIP3    H239496   6.918   7.206   0.384
13185TIP3   OH239497   2.798   4.793   0.163
13185TIP3    H139498   2.773   4.841   0.241
13185TIP3    H239499   2.823   4.860   0.099
13186TIP3   OH239500   8.006   3.814   0.172
13186TIP3    H139501   8.059   3.806   0.251
13186TIP3    H239502   8.051   3.758   0.108
13187TIP3   OH239503   2.604   1.094   4.552
13187TIP3    H139504   2.543   1.096   4.625
13187TIP3    H239505   2.689   1.113   4.591
13188TIP3   OH239506   0.284   7.662   5.287
13188TIP3    H139507   0.250   7.699   5.369
13188TIP3    H239508   0.311   7.739   5.236
13189TIP3   OH239509   1.173   7.638   3.135
13189TIP3    H139510   1.217   7.606   3.057
13189TIP3    H239511   1.080   7.627   3.117
13190TIP3   OH239512   2.070   5.159   3.018
13190TIP3    H139513   2.027   5.097   2.960
13190TIP3    H239514   2.091   5.234   2.962
13191TIP3   OH239515   7.622   5.368   1.876
13191TIP3    H139516   7.537   5.347   1.914
13191TIP3    H239517   7.618   5.334   1.786
13192TIP3   OH239518   1.391   5.828   2.620
13192TIP3    H139519   1.352   5.865   2.540
13192TIP3    H239520   1.358   5.883   2.691
13193TIP3   OH239521   3.800   2.325   4.340
13193TIP3    H139522   3.848   2.358   4.416
13193TIP3    H239523   3.730   2.272   4.376
13194TIP3   OH239524   7.159   6.153   3.295
13194TIP3    H139525   7.205   6.201   3.364
13194TIP3    H239526   7.226   6.094   3.259
13195TIP3   OH239527   8.317   2.340   0.589
13195TIP3    H139528   8.225   2.313   0.593
13195TIP3    H239529   8.365   2.259   0.570
13196TIP3   OH239530   7.014   5.406   4.303
13196TIP3    H139531   6.961   5.339   4.346
13196TIP3    H239532   7.079   5.431   4.368
13197TIP3   OH239533   1.380   7.335   3.551
13197TIP3    H139534   1.317   7.263   3.548
13197TIP3    H239535   1.346   7.399   3.489
13198TIP3   OH239536   1.176   0.562   4.704
13198TIP3    H139537   1.255   0.509   4.715
13198TIP3    H239538   1.208   0.649   4.681
13199TIP3   OH239539   1.727   3.402   1.087
13199TIP3    H139540   1.781   3.458   1.143
13199TIP3    H239541   1.675   3.463   1.035
13200TIP3   OH239542   5.297   4.042   2.498
13200TIP3    H139543   5.358   4.081   2.560
13200TIP3    H239544   5.231   4.000   2.554
13201TIP3   OH239545   0.279   7.201   6.585
13201TIP3    H139546   0.263   7.244   6.501
13201TIP3    H239547   0.370   7.172   6.580
13202TIP3   OH239548   2.693   1.234   5.366
13202TIP3    H139549   2.788   1.222   5.354
13202TIP3    H239550   2.671   1.306   5.307
13203TIP3   OH239551   6.475   3.806   5.928
13203TIP3    H139552   6.477   3.710   5.922
13203TIP3    H239553   6.454   3.835   5.839
13204TIP3   OH239554   2.973   3.311   4.196
13204TIP3    H139555   2.983   3.356   4.279
13204TIP3    H239556   2.927   3.230   4.218
13205TIP3   OH239557   2.192   4.258   3.634
13205TIP3    H139558   2.255   4.217   3.693
13205TIP3    H239559   2.192   4.350   3.661
13206TIP3   OH239560   3.264   5.544   3.070
13206TIP3    H139561   3.350   5.568   3.103
13206TIP3    H239562   3.281   5.502   2.986
13207TIP3   OH239563   4.629   2.864   3.509
13207TIP3    H139564   4.619   2.925   3.582
13207TIP3    H239565   4.548   2.813   3.509
13208TIP3   OH239566   2.398   1.348   3.563
13208TIP3    H139567   2.328   1.328   3.501
13208TIP3    H239568   2.357   1.406   3.628
13209TIP3   OH239569   6.567   2.785   1.202
13209TIP3    H139570   6.491   2.758   1.150
13209TIP3    H239571   6.609   2.703   1.227
13210TIP3   OH239572   1.555   3.258   5.106
13210TIP3    H139573   1.516   3.257   5.019
13210TIP3    H239574   1.554   3.166   5.134
13211TIP3   OH239575   0.131   5.315   0.722
13211TIP3    H139576   0.221   5.288   0.706
13211TIP3    H239577   0.119   5.393   0.667
13212TIP3   OH239578   7.579   6.868   2.470
13212TIP3    H139579   7.499   6.861   2.417
13212TIP3    H239580   7.574   6.955   2.510
13213TIP3   OH239581   2.972   0.650   3.114
13213TIP3    H139582   3.042   0.706   3.147
13213TIP3    H239583   2.953   0.684   3.027
13214TIP3   OH239584   4.124   6.358   1.400
13214TIP3    H139585   4.200   6.323   1.447
13214TIP3    H239586   4.151   6.445   1.372
13215TIP3   OH239587   5.925   2.422   1.393
13215TIP3    H139588   5.876   2.350   1.355
13215TIP3    H239589   6.008   2.422   1.345
13216TIP3   OH239590   4.414   3.433   5.387
13216TIP3    H139591   4.359   3.368   5.432
13216TIP3    H239592   4.406   3.411   5.294
13217TIP3   OH239593   0.286   6.686   1.674
13217TIP3    H139594   0.202   6.718   1.641
13217TIP3    H239595   0.313   6.620   1.611
13218TIP3   OH239596   6.730   3.593   3.555
13218TIP3    H139597   6.703   3.589   3.463
13218TIP3    H239598   6.763   3.682   3.566
13219TIP3   OH239599   5.851   2.605   2.290
13219TIP3    H139600   5.809   2.602   2.376
13219TIP3    H239601   5.778   2.619   2.229
13220TIP3   OH239602   6.423   5.208   6.342
13220TIP3    H139603   6.361   5.231   6.413
13220TIP3    H239604   6.372   5.219   6.262
13221TIP3   OH239605   0.954   3.663   0.422
13221TIP3    H139606   1.018   3.622   0.365
13221TIP3    H239607   0.874   3.612   0.410
13222TIP3   OH239608   4.412   5.962   2.833
13222TIP3    H139609   4.402   6.021   2.908
13222TIP3    H239610   4.492   5.991   2.790
13223TIP3   OH239611   6.147   7.524   4.328
13223TIP3    H139612   6.135   7.581   4.404
13223TIP3    H239613   6.209   7.571   4.273
13224TIP3   OH239614   0.331   7.770   6.100
13224TIP3    H139615   0.419   7.749   6.131
13224TIP3    H239616   0.292   7.821   6.171
13225TIP3   OH239617   4.238   2.668   0.611
13225TIP3    H139618   4.299   2.628   0.549
13225TIP3    H239619   4.157   2.617   0.602
13226TIP3   OH239620   5.035   7.381   5.211
13226TIP3    H139621   4.942   7.360   5.202
13226TIP3    H239622   5.060   7.415   5.125
13227TIP3   OH239623   1.180   7.295   0.666
13227TIP3    H139624   1.212   7.385   0.661
13227TIP3    H239625   1.246   7.249   0.719
13228TIP3   OH239626   1.481   6.807   1.163
13228TIP3    H139627   1.386   6.819   1.159
13228TIP3    H239628   1.510   6.812   1.072
13229TIP3   OH239629   8.182   3.161   6.678
13229TIP3    H139630   8.234   3.226   6.632
13229TIP3    H239631   8.245   3.093   6.704
13230TIP3   OH239632   4.386   6.305   2.590
13230TIP3    H139633   4.411   6.268   2.505
13230TIP3    H239634   4.397   6.399   2.579
13231TIP3   OH239635   1.891   2.257   5.037
13231TIP3    H139636   1.952   2.288   4.970
13231TIP3    H239637   1.933   2.179   5.073
13232TIP3   OH239638   4.779   3.221   1.601
13232TIP3    H139639   4.794   3.305   1.645
13232TIP3    H239640   4.839   3.222   1.527
13233TIP3   OH239641   6.609   7.104   0.997
13233TIP3    H139642   6.517   7.108   1.023
13233TIP3    H239643   6.616   7.165   0.924
13234TIP3   OH239644   0.651   6.344   6.784
13234TIP3    H139645   0.650   6.392   6.701
13234TIP3    H239646   0.577   6.284   6.778
13235TIP3   OH239647   2.611   7.570   6.750
13235TIP3    H139648   2.621   7.479   6.778
13235TIP3    H239649   2.538   7.569   6.688
13236TIP3   OH239650   6.706   0.289   1.965
13236TIP3    H139651   6.682   0.373   1.925
13236TIP3    H239652   6.649   0.282   2.041
13237TIP3   OH239653   2.318   5.009   6.214
13237TIP3    H139654   2.237   4.962   6.233
13237TIP3    H239655   2.357   5.027   6.300
13238TIP3   OH239656   6.178   5.647   3.975
13238TIP3    H139657   6.250   5.586   3.960
13238TIP3    H239658   6.213   5.711   4.037
13239TIP3   OH239659   5.818   0.480   4.555
13239TIP3    H139660   5.754   0.488   4.485
13239TIP3    H239661   5.771   0.438   4.627
13240TIP3   OH239662   1.520   5.120   3.368
13240TIP3    H139663   1.455   5.190   3.377
13240TIP3    H239664   1.530   5.107   3.274
13241TIP3   OH239665   4.389   0.147   2.074
13241TIP3    H139666   4.326   0.110   2.012
13241TIP3    H239667   4.376   0.241   2.069
13242TIP3   OH239668   1.524   6.136   6.382
13242TIP3    H139669   1.446   6.097   6.343
13242TIP3    H239670   1.531   6.095   6.468
13243TIP3   OH239671   1.354   0.590   2.858
13243TIP3    H139672   1.296   0.636   2.919
13243TIP3    H239673   1.298   0.572   2.782
13244TIP3   OH239674   4.884   0.235   1.037
13244TIP3    H139675   4.806   0.189   1.068
13244TIP3    H239676   4.949   0.165   1.025
13245TIP3   OH239677   1.552   4.821   2.356
13245TIP3    H139678   1.525   4.847   2.444
13245TIP3    H239679   1.608   4.892   2.326
13246TIP3   OH239680   8.103   7.523   3.313
13246TIP3    H139681   8.144   7.508   3.228
13246TIP3    H239682   8.164   7.485   3.376
13247TIP3   OH239683   2.779   5.236   0.990
13247TIP3    H139684   2.820   5.256   0.907
13247TIP3    H239685   2.820   5.155   1.020
13248TIP3   OH239686   0.250   4.315   0.698
13248TIP3    H139687   0.208   4.386   0.749
13248TIP3    H239688   0.185   4.245   0.697
13249TIP3   OH239689   2.978   0.899   0.000
13249TIP3    H139690   2.949   0.808   0.006
13249TIP3    H239691   2.975   0.930   0.091
13250TIP3   OH239692   0.486   7.147   5.974
13250TIP3    H139693   0.399   7.183   5.958
13250TIP3    H239694   0.545   7.204   5.925
13251TIP3   OH239695   6.316   6.547   1.528
13251TIP3    H139696   6.361   6.578   1.607
13251TIP3    H239697   6.223   6.559   1.547
13252TIP3   OH239698   7.316   0.971   6.203
13252TIP3    H139699   7.255   1.044   6.197
13252TIP3    H239700   7.261   0.893   6.202
13253TIP3   OH239701   3.143   5.440   3.889
13253TIP3    H139702   3.230   5.407   3.866
13253TIP3    H239703   3.109   5.476   3.808
13254TIP3   OH239704   5.968   5.270   5.468
13254TIP3    H139705   5.992   5.360   5.491
13254TIP3    H239706   5.887   5.280   5.417
13255TIP3   OH239707   6.289   4.588   4.786
13255TIP3    H139708   6.204   4.588   4.829
13255TIP3    H239709   6.351   4.572   4.858
13256TIP3   OH239710   0.729   1.642   1.000
13256TIP3    H139711   0.777   1.674   0.924
13256TIP3    H239712   0.682   1.564   0.969
13257TIP3   OH239713   5.550   2.951   1.819
13257TIP3    H139714   5.539   3.028   1.763
13257TIP3    H239715   5.600   2.984   1.894
13258TIP3   OH239716   1.931   0.449   4.576
13258TIP3    H139717   1.882   0.511   4.521
13258TIP3    H239718   1.864   0.390   4.611
13259TIP3   OH239719   1.928   5.443   5.545
13259TIP3    H139720   1.901   5.408   5.630
13259TIP3    H239721   1.993   5.510   5.566
13260TIP3   OH239722   3.325   1.786   4.537
13260TIP3    H139723   3.342   1.696   4.509
13260TIP3    H239724   3.363   1.840   4.468
13261TIP3   OH239725   1.454   2.063   2.003
13261TIP3    H139726   1.419   2.140   1.957
13261TIP3    H239727   1.453   2.088   2.095
13262TIP3   OH239728   1.100   6.094   4.665
13262TIP3    H139729   1.143   6.008   4.664
13262TIP3    H239730   1.146   6.143   4.734
13263TIP3   OH239731   5.557   5.137   5.890
13263TIP3    H139732   5.489   5.179   5.838
13263TIP3    H239733   5.635   5.139   5.834
13264TIP3   OH239734   6.249   1.404   1.368
13264TIP3    H139735   6.293   1.419   1.284
13264TIP3    H239736   6.222   1.312   1.365
13265TIP3   OH239737   6.920   1.456   4.067
13265TIP3    H139738   6.951   1.386   4.124
13265TIP3    H239739   6.830   1.431   4.046
13266TIP3   OH239740   0.981   6.601   1.870
13266TIP3    H139741   1.059   6.632   1.824
13266TIP3    H239742   0.950   6.678   1.918
13267TIP3   OH239743   0.197   6.923   0.217
13267TIP3    H139744   0.275   6.912   0.164
13267TIP3    H239745   0.228   6.961   0.299
13268TIP3   OH239746   3.824   2.797   3.469
13268TIP3    H139747   3.732   2.773   3.454
13268TIP3    H239748   3.820   2.874   3.525
13269TIP3   OH239749   2.287   7.301   3.998
13269TIP3    H139750   2.367   7.260   3.964
13269TIP3    H239751   2.238   7.326   3.920
13270TIP3   OH239752   6.325   2.038   3.147
13270TIP3    H139753   6.408   2.072   3.115
13270TIP3    H239754   6.324   2.060   3.240
13271TIP3   OH239755   0.026   1.513   5.806
13271TIP3    H139756  -0.064   1.504   5.838
13271TIP3    H239757   0.069   1.567   5.872
13272TIP3   OH239758   8.212   5.263   2.704
13272TIP3    H139759   8.130   5.277   2.750
13272TIP3    H239760   8.262   5.344   2.720
13273TIP3   OH239761   7.523   4.500   4.786
13273TIP3    H139762   7.609   4.493   4.746
13273TIP3    H239763   7.539   4.489   4.880
13274TIP3   OH239764   0.229   2.154   6.547
13274TIP3    H139765   0.309   2.119   6.587
13274TIP3    H239766   0.214   2.098   6.471
13275TIP3   OH239767   2.728   6.069   0.853
13275TIP3    H139768   2.682   6.125   0.915
13275TIP3    H239769   2.747   5.989   0.902
13276TIP3   OH239770   0.243   3.178   3.730
13276TIP3    H139771   0.194   3.243   3.779
13276TIP3    H239772   0.190   3.098   3.735
13277TIP3   OH239773   3.414   0.775   4.008
13277TIP3    H139774   3.356   0.701   3.988
13277TIP3    H239775   3.444   0.758   4.098
13278TIP3   OH239776   1.673   4.320   1.535
13278TIP3    H139777   1.695   4.340   1.444
13278TIP3    H239778   1.738   4.369   1.586
13279TIP3   OH239779   6.017   6.602   1.465
13279TIP3    H139780   5.985   6.525   1.511
13279TIP3    H239781   5.940   6.657   1.452
13280TIP3   OH239782   5.731   7.086   2.970
13280TIP3    H139783   5.798   7.060   2.907
13280TIP3    H239784   5.659   7.117   2.916
13281TIP3   OH239785   3.213   2.616   2.411
13281TIP3    H139786   3.262   2.608   2.329
13281TIP3    H239787   3.122   2.624   2.384
13282TIP3   OH239788   6.819   3.332   3.613
13282TIP3    H139789   6.773   3.416   3.606
13282TIP3    H239790   6.852   3.331   3.703
13283TIP3   OH239791   1.411   5.085   2.053
13283TIP3    H139792   1.495   5.101   2.096
13283TIP3    H239793   1.431   5.084   1.959
13284TIP3   OH239794   7.685   6.283   4.414
13284TIP3    H139795   7.610   6.232   4.442
13284TIP3    H239796   7.675   6.367   4.458
13285TIP3   OH239797   5.221   4.332   1.627
13285TIP3    H139798   5.268   4.399   1.578
13285TIP3    H239799   5.170   4.285   1.560
13286TIP3   OH239800   7.238   0.825   4.953
13286TIP3    H139801   7.304   0.801   5.018
13286TIP3    H239802   7.284   0.885   4.895
13287TIP3   OH239803   0.156   3.786   0.538
13287TIP3    H139804   0.228   3.763   0.597
13287TIP3    H239805   0.078   3.782   0.593
13288TIP3   OH239806   5.925   1.406   3.826
13288TIP3    H139807   5.960   1.437   3.909
13288TIP3    H239808   5.858   1.342   3.850
13289TIP3   OH239809   0.266   7.742   3.101
13289TIP3    H139810   0.198   7.809   3.096
13289TIP3    H239811   0.260   7.695   3.017
13290TIP3   OH239812   0.053   6.952   1.848
13290TIP3    H139813   0.015   6.866   1.864
13290TIP3    H239814   0.021   7.006   1.920
13291TIP3   OH239815   5.331   5.941   6.089
13291TIP3    H139816   5.250   5.992   6.086
13291TIP3    H239817   5.305   5.852   6.066
13292TIP3   OH239818   8.135   4.840   2.488
13292TIP3    H139819   8.176   4.780   2.426
13292TIP3    H239820   8.095   4.908   2.434
13293TIP3   OH239821   7.694   3.378   1.484
13293TIP3    H139822   7.635   3.322   1.534
13293TIP3    H239823   7.777   3.376   1.533
13294TIP3   OH239824   7.417   7.606   4.513
13294TIP3    H139825   7.401   7.546   4.586
13294TIP3    H239826   7.466   7.555   4.449
13295TIP3   OH239827   2.915   7.144   1.070
13295TIP3    H139828   2.914   7.238   1.090
13295TIP3    H239829   2.832   7.111   1.105
13296TIP3   OH239830   1.722   6.409   1.878
13296TIP3    H139831   1.667   6.454   1.815
13296TIP3    H239832   1.792   6.471   1.898
13297TIP3   OH239833   4.862   6.858   6.453
13297TIP3    H139834   4.921   6.827   6.521
13297TIP3    H239835   4.814   6.779   6.426
13298TIP3   OH239836   3.980   7.315   4.526
13298TIP3    H139837   4.067   7.340   4.554
13298TIP3    H239838   3.933   7.398   4.515
13299TIP3   OH239839   2.585   1.409   5.172
13299TIP3    H139840   2.665   1.406   5.120
13299TIP3    H239841   2.537   1.484   5.138
13300TIP3   OH239842   4.270   4.827   4.793
13300TIP3    H139843   4.356   4.786   4.785
13300TIP3    H239844   4.214   4.777   4.734
13301TIP3   OH239845   6.573   7.320   5.188
13301TIP3    H139846   6.483   7.332   5.158
13301TIP3    H239847   6.574   7.359   5.276
13302TIP3   OH239848   8.129   5.511   6.670
13302TIP3    H139849   8.089   5.459   6.601
13302TIP3    H239850   8.134   5.600   6.633
13303TIP3   OH239851   6.861   2.660   3.248
13303TIP3    H139852   6.885   2.753   3.246
13303TIP3    H239853   6.870   2.631   3.157
13304TIP3   OH239854   6.812   5.707   2.791
13304TIP3    H139855   6.850   5.760   2.720
13304TIP3    H239856   6.730   5.673   2.755
13305TIP3   OH239857   4.117   2.031   2.849
13305TIP3    H139858   4.136   2.115   2.889
13305TIP3    H239859   4.064   2.052   2.772
13306TIP3   OH239860   2.036   4.475   3.468
13306TIP3    H139861   2.114   4.481   3.412
13306TIP3    H239862   2.058   4.526   3.546
13307TIP3   OH239863   0.443   2.392   2.830
13307TIP3    H139864   0.409   2.481   2.832
13307TIP3    H239865   0.537   2.402   2.812
13308TIP3   OH239866   4.608   1.923   0.078
13308TIP3    H139867   4.527   1.902   0.125
13308TIP3    H239868   4.580   1.965  -0.003
13309TIP3   OH239869   7.764   0.230   3.873
13309TIP3    H139870   7.732   0.215   3.784
13309TIP3    H239871   7.697   0.286   3.913
13310TIP3   OH239872   2.274   3.484   2.321
13310TIP3    H139873   2.294   3.399   2.282
13310TIP3    H239874   2.340   3.543   2.285
13311TIP3   OH239875   6.907   6.323   6.448
13311TIP3    H139876   6.914   6.244   6.501
13311TIP3    H239877   6.996   6.339   6.418
13312TIP3   OH239878   7.235   1.799   5.084
13312TIP3    H139879   7.313   1.821   5.135
13312TIP3    H239880   7.233   1.863   5.013
13313TIP3   OH239881   6.251   4.125   4.117
13313TIP3    H139882   6.156   4.135   4.107
13313TIP3    H239883   6.288   4.180   4.047
13314TIP3   OH239884   2.657   7.729   1.162
13314TIP3    H139885   2.663   7.685   1.077
13314TIP3    H239886   2.648   7.822   1.142
13315TIP3   OH239887   6.314   6.822   5.656
13315TIP3    H139888   6.262   6.897   5.626
13315TIP3    H239889   6.399   6.834   5.614
13316TIP3   OH239890   5.840   6.498   0.841
13316TIP3    H139891   5.795   6.417   0.866
13316TIP3    H239892   5.875   6.480   0.754
13317TIP3   OH239893   6.137   3.917   1.904
13317TIP3    H139894   6.190   3.859   1.849
13317TIP3    H239895   6.054   3.924   1.857
13318TIP3   OH239896   7.560   3.293   3.722
13318TIP3    H139897   7.570   3.228   3.652
13318TIP3    H239898   7.466   3.308   3.728
13319TIP3   OH239899   5.574   5.976   0.390
13319TIP3    H139900   5.555   6.063   0.424
13319TIP3    H239901   5.669   5.967   0.397
13320TIP3   OH239902   5.883   5.789   3.160
13320TIP3    H139903   5.854   5.810   3.072
13320TIP3    H239904   5.809   5.813   3.216
13321TIP3   OH239905   4.735   6.441   2.810
13321TIP3    H139906   4.761   6.420   2.900
13321TIP3    H239907   4.780   6.524   2.791
13322TIP3   OH239908   3.495   6.110   2.568
13322TIP3    H139909   3.428   6.140   2.629
13322TIP3    H239910   3.542   6.041   2.615
13323TIP3   OH239911   4.215   7.531   2.507
13323TIP3    H139912   4.185   7.595   2.443
13323TIP3    H239913   4.170   7.450   2.482
13324TIP3   OH239914   4.064   6.748   5.458
13324TIP3    H139915   4.002   6.722   5.389
13324TIP3    H239916   4.050   6.843   5.467
13325TIP3   OH239917   3.293   7.265   5.861
13325TIP3    H139918   3.334   7.351   5.871
13325TIP3    H239919   3.236   7.257   5.937
13326TIP3   OH239920   2.802   0.634   1.643
13326TIP3    H139921   2.766   0.591   1.721
13326TIP3    H239922   2.850   0.709   1.678
13327TIP3   OH239923   2.825   5.610   6.228
13327TIP3    H139924   2.908   5.583   6.267
13327TIP3    H239925   2.758   5.568   6.283
13328TIP3   OH239926   0.609   1.158   0.554
13328TIP3    H139927   0.531   1.212   0.538
13328TIP3    H239928   0.682   1.220   0.550
13329TIP3   OH239929   1.456   6.896   6.470
13329TIP3    H139930   1.513   6.971   6.451
13329TIP3    H239931   1.502   6.820   6.434
13330TIP3   OH239932   8.276   6.655   3.610
13330TIP3    H139933   8.233   6.728   3.655
13330TIP3    H239934   8.230   6.647   3.526
13331TIP3   OH239935   2.570   5.863   2.588
13331TIP3    H139936   2.485   5.820   2.590
13331TIP3    H239937   2.550   5.956   2.574
13332TIP3   OH239938   0.485   1.372   5.301
13332TIP3    H139939   0.482   1.309   5.372
13332TIP3    H239940   0.576   1.369   5.270
13333TIP3   OH239941   3.815   5.997   4.486
13333TIP3    H139942   3.805   5.905   4.463
13333TIP3    H239943   3.897   6.024   4.444
13334TIP3   OH239944   1.483   3.687   3.368
13334TIP3    H139945   1.470   3.781   3.370
13334TIP3    H239946   1.578   3.676   3.374
13335TIP3   OH239947   1.056   4.243   0.138
13335TIP3    H139948   1.080   4.301   0.066
13335TIP3    H239949   0.966   4.218   0.121
13336TIP3   OH239950   7.337   1.069   6.670
13336TIP3    H139951   7.296   1.004   6.613
13336TIP3    H239952   7.428   1.073   6.641
13337TIP3   OH239953   7.315   3.686   4.240
13337TIP3    H139954   7.300   3.729   4.325
13337TIP3    H239955   7.406   3.706   4.219
13338TIP3   OH239956   4.955   3.897   1.603
13338TIP3    H139957   4.963   3.976   1.655
13338TIP3    H239958   4.862   3.874   1.608
13339TIP3   OH239959   4.405   5.721   6.236
13339TIP3    H139960   4.440   5.691   6.151
13339TIP3    H239961   4.483   5.729   6.292
13340TIP3   OH239962   2.841   6.093   1.841
13340TIP3    H139963   2.852   6.177   1.796
13340TIP3    H239964   2.930   6.060   1.852
13341TIP3   OH239965   0.872   0.200   0.539
13341TIP3    H139966   0.865   0.294   0.552
13341TIP3    H239967   0.949   0.189   0.482
13342TIP3   OH239968   5.083   5.473   2.848
13342TIP3    H139969   5.027   5.436   2.780
13342TIP3    H239970   5.134   5.541   2.802
13343TIP3   OH239971   7.737   0.842   0.801
13343TIP3    H139972   7.730   0.936   0.785
13343TIP3    H239973   7.664   0.804   0.754
13344TIP3   OH239974   1.787   7.549   2.175
13344TIP3    H139975   1.754   7.472   2.128
13344TIP3    H239976   1.794   7.617   2.108
13345TIP3   OH239977   8.148   0.256   2.311
13345TIP3    H139978   8.089   0.320   2.351
13345TIP3    H239979   8.141   0.273   2.217
13346TIP3   OH239980   2.902   4.567   2.693
13346TIP3    H139981   2.964   4.524   2.634
13346TIP3    H239982   2.956   4.628   2.744
13347TIP3   OH239983   7.640   3.839   1.234
13347TIP3    H139984   7.566   3.898   1.248
13347TIP3    H239985   7.639   3.781   1.310
13348TIP3   OH239986   8.181   1.982   1.787
13348TIP3    H139987   8.275   1.980   1.771
13348TIP3    H239988   8.152   1.893   1.766
13349TIP3   OH239989   4.956   0.443   1.226
13349TIP3    H139990   4.967   0.529   1.184
13349TIP3    H239991   4.882   0.403   1.179
13350TIP3   OH239992   3.723   5.774   4.979
13350TIP3    H139993   3.737   5.694   4.928
13350TIP3    H239994   3.656   5.822   4.930
13351TIP3   OH239995   2.946   4.656   1.019
13351TIP3    H139996   2.972   4.570   1.053
13351TIP3    H239997   3.014   4.715   1.051
13352TIP3   OH239998   7.917   6.431   1.684
13352TIP3    H139999   7.970   6.385   1.749
13352TIP3    H240000   7.952   6.520   1.682
13353TIP3   OH240001   7.666   0.739   0.398
13353TIP3    H140002   7.662   0.682   0.321
13353TIP3    H240003   7.760   0.751   0.414
13354TIP3   OH240004   4.529   5.438   6.390
13354TIP3    H140005   4.563   5.356   6.426
13354TIP3    H240006   4.598   5.468   6.330
13355TIP3   OH240007   8.018   2.332   3.490
13355TIP3    H140008   7.950   2.382   3.445
13355TIP3    H240009   7.979   2.246   3.504
13356TIP3   OH240010   4.665   7.248   0.703
13356TIP3    H140011   4.617   7.182   0.753
13356TIP3    H240012   4.711   7.198   0.636
13357TIP3   OH240013   4.530   7.269   4.672
13357TIP3    H140014   4.520   7.282   4.766
13357TIP3    H240015   4.544   7.175   4.662
13358TIP3   OH240016   0.144   2.983   6.719
13358TIP3    H140017   0.157   3.034   6.640
13358TIP3    H240018   0.179   3.037   6.789
13359TIP3   OH240019   3.265   5.260   4.109
13359TIP3    H140020   3.357   5.276   4.087
13359TIP3    H240021   3.245   5.175   4.071
13360TIP3   OH240022   3.683   7.398   0.730
13360TIP3    H140023   3.737   7.476   0.741
13360TIP3    H240024   3.665   7.368   0.819
13361TIP3   OH240025   0.971   7.129   1.485
13361TIP3    H140026   0.931   7.073   1.551
13361TIP3    H240027   0.936   7.096   1.402
13362TIP3   OH240028   1.872   6.271   2.219
13362TIP3    H140029   1.821   6.348   2.242
13362TIP3    H240030   1.807   6.205   2.195
13363TIP3   OH240031   0.980   0.653   4.512
13363TIP3    H140032   1.041   0.613   4.574
13363TIP3    H240033   0.947   0.731   4.558
13364TIP3   OH240034   5.821   4.929   2.949
13364TIP3    H140035   5.849   4.864   3.013
13364TIP3    H240036   5.726   4.915   2.940
13365TIP3   OH240037   5.333   0.954   4.059
13365TIP3    H140038   5.357   0.908   4.139
13365TIP3    H240039   5.346   0.890   3.989
13366TIP3   OH240040   0.802   0.592   4.963
13366TIP3    H140041   0.895   0.578   4.981
13366TIP3    H240042   0.784   0.539   4.885
13367TIP3   OH240043   0.786   4.599   1.191
13367TIP3    H140044   0.776   4.517   1.142
13367TIP3    H240045   0.867   4.589   1.239
13368TIP3   OH240046   2.181   6.282   1.866
13368TIP3    H140047   2.094   6.275   1.905
13368TIP3    H240048   2.210   6.191   1.855
13369TIP3   OH240049   4.299   0.847   6.254
13369TIP3    H140050   4.368   0.877   6.312
13369TIP3    H240051   4.278   0.923   6.200
13370TIP3   OH240052   5.103   6.910   4.240
13370TIP3    H140053   5.092   6.870   4.153
13370TIP3    H240054   5.172   6.858   4.282
13371TIP3   OH240055   4.082   2.839   6.317
13371TIP3    H140056   4.169   2.833   6.277
13371TIP3    H240057   4.027   2.876   6.249
13372TIP3   OH240058   1.698   4.062   4.232
13372TIP3    H140059   1.643   4.137   4.209
13372TIP3    H240060   1.784   4.100   4.251
13373TIP3   OH240061   0.256   3.336   0.186
13373TIP3    H140062   0.324   3.347   0.253
13373TIP3    H240063   0.298   3.364   0.105
13374TIP3   OH240064   5.345   1.058   5.318
13374TIP3    H140065   5.375   1.137   5.362
13374TIP3    H240066   5.295   1.089   5.243
13375TIP3   OH240067   4.718   5.156   0.508
13375TIP3    H140068   4.802   5.114   0.494
13375TIP3    H240069   4.702   5.205   0.427
13376TIP3   OH240070   8.092   4.527   0.970
13376TIP3    H140071   8.042   4.465   0.917
13376TIP3    H240072   8.036   4.544   1.046
13377TIP3   OH240073   6.145   5.649   2.425
13377TIP3    H140074   6.098   5.575   2.388
13377TIP3    H240075   6.096   5.726   2.398
13378TIP3   OH240076   6.067   4.192   0.979
13378TIP3    H140077   6.081   4.279   1.016
13378TIP3    H240078   6.034   4.208   0.891
13379TIP3   OH240079   7.256   0.976   1.563
13379TIP3    H140080   7.260   1.069   1.584
13379TIP3    H240081   7.346   0.952   1.541
13380TIP3   OH240082   1.077   5.824   3.744
13380TIP3    H140083   1.022   5.746   3.742
13380TIP3    H240084   1.019   5.894   3.772
13381TIP3   OH240085   1.528   1.624   5.534
13381TIP3    H140086   1.574   1.541   5.549
13381TIP3    H240087   1.512   1.658   5.622
13382TIP3   OH240088   5.844   6.793   1.136
13382TIP3    H140089   5.790   6.747   1.072
13382TIP3    H240090   5.854   6.730   1.208
13383TIP3   OH240091   4.665   2.648   3.062
13383TIP3    H140092   4.673   2.711   3.135
13383TIP3    H240093   4.572   2.629   3.057
13384TIP3   OH240094   3.376   5.514   4.718
13384TIP3    H140095   3.301   5.496   4.661
13384TIP3    H240096   3.387   5.609   4.715
13385TIP3   OH240097   7.633   4.070   5.425
13385TIP3    H140098   7.560   4.036   5.374
13385TIP3    H240099   7.594   4.136   5.482
13386TIP3   OH240100   5.375   2.829   6.471
13386TIP3    H140101   5.290   2.872   6.465
13386TIP3    H240102   5.354   2.737   6.487
13387TIP3   OH240103   5.851   3.408   6.608
13387TIP3    H140104   5.942   3.382   6.592
13387TIP3    H240105   5.839   3.487   6.555
13388TIP3   OH240106   3.933   3.679   3.818
13388TIP3    H140107   3.913   3.722   3.901
13388TIP3    H240108   3.988   3.604   3.842
13389TIP3   OH240109   2.080   7.491   0.198
13389TIP3    H140110   1.988   7.477   0.220
13389TIP3    H240111   2.101   7.576   0.236
13390TIP3   OH240112   5.366   4.815   5.360
13390TIP3    H140113   5.362   4.733   5.409
13390TIP3    H240114   5.367   4.787   5.268
13391TIP3   OH240115   4.725   6.682   4.017
13391TIP3    H140116   4.741   6.588   4.022
13391TIP3    H240117   4.652   6.697   4.077
13392TIP3   OH240118   3.180   2.870   4.722
13392TIP3    H140119   3.177   2.936   4.791
13392TIP3    H240120   3.159   2.918   4.642
13393TIP3   OH240121   0.675   1.825   4.890
13393TIP3    H140122   0.750   1.832   4.831
13393TIP3    H240123   0.599   1.848   4.837
13394TIP3   OH240124   8.055   5.285   4.927
13394TIP3    H140125   8.053   5.378   4.947
13394TIP3    H240126   8.122   5.276   4.860
13395TIP3   OH240127   2.471   4.567   0.865
13395TIP3    H140128   2.531   4.587   0.937
13395TIP3    H240129   2.471   4.472   0.860
13396TIP3   OH240130   1.886   7.049   6.150
13396TIP3    H140131   1.909   7.084   6.236
13396TIP3    H240132   1.887   6.954   6.161
13397TIP3   OH240133   5.498   5.169   0.526
13397TIP3    H140134   5.543   5.248   0.497
13397TIP3    H240135   5.429   5.156   0.462
13398TIP3   OH240136   8.237   0.378   0.483
13398TIP3    H140137   8.323   0.339   0.493
13398TIP3    H240138   8.178   0.304   0.472
13399TIP3   OH240139   8.220   2.445   1.169
13399TIP3    H140140   8.152   2.512   1.167
13399TIP3    H240141   8.281   2.472   1.100
13400TIP3   OH240142   1.018   3.143   5.508
13400TIP3    H140143   1.010   3.199   5.585
13400TIP3    H240144   1.112   3.140   5.490
13401TIP3   OH240145   0.184   3.422   1.407
13401TIP3    H140146   0.193   3.389   1.496
13401TIP3    H240147   0.135   3.354   1.361
13402TIP3   OH240148   4.077   5.093   3.901
13402TIP3    H140149   4.151   5.108   3.842
13402TIP3    H240150   4.013   5.046   3.847
13403TIP3   OH240151   1.662   6.069   2.199
13403TIP3    H140152   1.609   6.137   2.240
13403TIP3    H240153   1.603   5.994   2.190
13404TIP3   OH240154   1.850   0.535   2.645
13404TIP3    H140155   1.850   0.630   2.644
13404TIP3    H240156   1.759   0.510   2.659
13405TIP3   OH240157   2.660   0.253   1.631
13405TIP3    H140158   2.596   0.321   1.648
13405TIP3    H240159   2.723   0.293   1.571
13406TIP3   OH240160   8.194   3.836   0.370
13406TIP3    H140161   8.193   3.899   0.442
13406TIP3    H240162   8.286   3.828   0.345
13407TIP3   OH240163   7.980   3.451   6.239
13407TIP3    H140164   7.955   3.424   6.151
13407TIP3    H240165   8.037   3.381   6.271
13408TIP3   OH240166   5.852   0.254   1.928
13408TIP3    H140167   5.787   0.251   1.857
13408TIP3    H240168   5.865   0.163   1.953
13409TIP3   OH240169   6.934   4.923   1.590
13409TIP3    H140170   6.947   4.989   1.521
13409TIP3    H240171   6.843   4.932   1.615
13410TIP3   OH240172   3.115   1.812   4.715
13410TIP3    H140173   3.153   1.862   4.787
13410TIP3    H240174   3.189   1.795   4.656
13411TIP3   OH240175   8.234   6.667   4.470
13411TIP3    H140176   8.271   6.615   4.541
13411TIP3    H240177   8.139   6.661   4.483
13412TIP3   OH240178   3.688   2.979   0.919
13412TIP3    H140179   3.723   3.062   0.951
13412TIP3    H240180   3.731   2.912   0.972
13413TIP3   OH240181   1.169   0.412   5.815
13413TIP3    H140182   1.095   0.387   5.761
13413TIP3    H240183   1.193   0.333   5.863
13414TIP3   OH240184   6.404   5.299   2.668
13414TIP3    H140185   6.408   5.367   2.735
13414TIP3    H240186   6.433   5.220   2.713
13415TIP3   OH240187   4.684   6.819   2.363
13415TIP3    H140188   4.642   6.790   2.444
13415TIP3    H240189   4.754   6.756   2.347
13416TIP3   OH240190   2.312   2.051   6.300
13416TIP3    H140191   2.287   2.089   6.216
13416TIP3    H240192   2.233   2.058   6.354
13417TIP3   OH240193   3.027   4.997   1.446
13417TIP3    H140194   2.958   4.965   1.388
13417TIP3    H240195   3.023   5.092   1.437
13418TIP3   OH240196   3.052   2.848   3.641
13418TIP3    H140197   2.970   2.885   3.673
13418TIP3    H240198   3.046   2.755   3.662
13419TIP3   OH240199   7.847   1.465   2.572
13419TIP3    H140200   7.782   1.526   2.607
13419TIP3    H240201   7.911   1.456   2.643
13420TIP3   OH240202   5.357   4.071   3.094
13420TIP3    H140203   5.267   4.053   3.122
13420TIP3    H240204   5.395   4.122   3.165
13421TIP3   OH240205   1.609   0.799   4.060
13421TIP3    H140206   1.687   0.832   4.104
13421TIP3    H240207   1.546   0.870   4.065
13422TIP3   OH240208   0.439   5.090   5.247
13422TIP3    H140209   0.384   5.033   5.194
13422TIP3    H240210   0.397   5.176   5.242
13423TIP3   OH240211   6.459   0.845   5.575
13423TIP3    H140212   6.410   0.820   5.496
13423TIP3    H240213   6.448   0.771   5.635
13424TIP3   OH240214   2.673   4.231   2.789
13424TIP3    H140215   2.706   4.253   2.876
13424TIP3    H240216   2.669   4.314   2.743
13425TIP3   OH240217   4.146   0.015   0.094
13425TIP3    H140218   4.171   0.009   0.002
13425TIP3    H240219   4.201  -0.050   0.138
13426TIP3   OH240220   2.983   2.823   4.470
13426TIP3    H140221   2.921   2.834   4.543
13426TIP3    H240222   2.927   2.814   4.393
13427TIP3   OH240223   2.620   6.281   1.052
13427TIP3    H140224   2.663   6.367   1.059
13427TIP3    H240225   2.617   6.249   1.142
13428TIP3   OH240226   3.031   1.493   4.561
13428TIP3    H140227   2.964   1.562   4.554
13428TIP3    H240228   3.086   1.520   4.634
13429TIP3   OH240229   0.579   6.736   3.549
13429TIP3    H140230   0.547   6.649   3.574
13429TIP3    H240231   0.542   6.750   3.461
13430TIP3   OH240232   7.346   0.631   5.696
13430TIP3    H140233   7.402   0.655   5.770
13430TIP3    H240234   7.258   0.627   5.732
13431TIP3   OH240235   5.496   6.384   5.516
13431TIP3    H140236   5.413   6.418   5.550
13431TIP3    H240237   5.498   6.414   5.425
13432TIP3   OH240238   7.904   2.843   2.786
13432TIP3    H140239   7.969   2.866   2.720
13432TIP3    H240240   7.940   2.878   2.868
13433TIP3   OH240241   7.894   4.131   5.331
13433TIP3    H140242   7.850   4.088   5.258
13433TIP3    H240243   7.885   4.069   5.404
13434TIP3   OH240244   7.215   1.102   2.650
13434TIP3    H140245   7.149   1.067   2.590
13434TIP3    H240246   7.177   1.183   2.683
13435TIP3   OH240247   1.078   2.635   6.271
13435TIP3    H140248   1.116   2.620   6.357
13435TIP3    H240249   1.031   2.554   6.251
13436TIP3   OH240250   1.489   3.253   4.185
13436TIP3    H140251   1.509   3.165   4.154
13436TIP3    H240252   1.563   3.307   4.155
13437TIP3   OH240253   4.665   7.350   1.899
13437TIP3    H140254   4.749   7.384   1.931
13437TIP3    H240255   4.683   7.259   1.877
13438TIP3   OH240256   5.231   5.597   6.335
13438TIP3    H140257   5.240   5.673   6.393
13438TIP3    H240258   5.222   5.523   6.394
13439TIP3   OH240259   2.246   3.795   2.997
13439TIP3    H140260   2.206   3.754   3.074
13439TIP3    H240261   2.172   3.823   2.943
13440TIP3   OH240262   6.661   7.853   2.895
13440TIP3    H140263   6.709   7.774   2.869
13440TIP3    H240264   6.631   7.835   2.984
13441TIP3   OH240265   4.361   3.408   3.503
13441TIP3    H140266   4.281   3.455   3.480
13441TIP3    H240267   4.335   3.316   3.505
13442TIP3   OH240268   6.370   3.901   1.486
13442TIP3    H140269   6.279   3.885   1.460
13442TIP3    H240270   6.363   3.942   1.572
13443TIP3   OH240271   4.342   3.442   4.629
13443TIP3    H140272   4.292   3.509   4.584
13443TIP3    H240273   4.285   3.365   4.629
13444TIP3   OH240274   7.997   6.928   0.084
13444TIP3    H140275   7.965   7.015   0.109
13444TIP3    H240276   8.092   6.941   0.072
13445TIP3   OH240277   7.877   6.693   0.062
13445TIP3    H140278   7.939   6.761   0.089
13445TIP3    H240279   7.835   6.666   0.144
13446TIP3   OH240280   6.185   1.184   5.166
13446TIP3    H140281   6.265   1.232   5.144
13446TIP3    H240282   6.115   1.247   5.152
13447TIP3   OH240283   6.328   3.288   2.389
13447TIP3    H140284   6.345   3.273   2.482
13447TIP3    H240285   6.270   3.364   2.387
13448TIP3   OH240286   2.602   6.146   6.088
13448TIP3    H140287   2.688   6.129   6.049
13448TIP3    H240288   2.570   6.059   6.114
13449TIP3   OH240289   5.973   3.925   1.026
13449TIP3    H140290   6.001   4.016   1.031
13449TIP3    H240291   6.000   3.887   1.109
13450TIP3   OH240292   0.961   5.492   3.445
13450TIP3    H140293   0.905   5.556   3.400
13450TIP3    H240294   0.958   5.414   3.389
13451TIP3   OH240295   6.884   6.810   0.570
13451TIP3    H140296   6.815   6.869   0.601
13451TIP3    H240297   6.838   6.729   0.547
13452TIP3   OH240298   0.589   3.109   2.077
13452TIP3    H140299   0.582   3.024   2.034
13452TIP3    H240300   0.681   3.133   2.067
13453TIP3   OH240301   4.679   7.314   3.448
13453TIP3    H140302   4.689   7.257   3.525
13453TIP3    H240303   4.629   7.389   3.480
13454TIP3   OH240304   0.629   3.783   1.760
13454TIP3    H140305   0.723   3.800   1.759
13454TIP3    H240306   0.595   3.838   1.831
13455TIP3   OH240307   0.187   1.562   4.146
13455TIP3    H140308   0.165   1.564   4.239
13455TIP3    H240309   0.207   1.470   4.128
13456TIP3   OH240310   0.180   4.166   2.052
13456TIP3    H140311   0.269   4.198   2.068
13456TIP3    H240312   0.189   4.071   2.050
13457TIP3   OH240313   3.331   3.819   0.529
13457TIP3    H140314   3.266   3.765   0.574
13457TIP3    H240315   3.373   3.759   0.467
13458TIP3   OH240316   6.409   5.243   3.771
13458TIP3    H140317   6.497   5.207   3.756
13458TIP3    H240318   6.377   5.264   3.683
13459TIP3   OH240319   8.234   5.490   4.576
13459TIP3    H140320   8.235   5.495   4.480
13459TIP3    H240321   8.314   5.441   4.598
13460TIP3   OH240322   3.197   4.726   5.136
13460TIP3    H140323   3.183   4.662   5.207
13460TIP3    H240324   3.292   4.735   5.131
13461TIP3   OH240325   0.645   2.343   3.474
13461TIP3    H140326   0.603   2.360   3.389
13461TIP3    H240327   0.596   2.269   3.510
13462TIP3   OH240328   7.768   4.019   3.368
13462TIP3    H140329   7.805   3.931   3.368
13462TIP3    H240330   7.722   4.026   3.284
13463TIP3   OH240331   4.635   6.081   2.731
13463TIP3    H140332   4.631   6.167   2.690
13463TIP3    H240333   4.702   6.034   2.681
13464TIP3   OH240334   0.356   3.032   3.996
13464TIP3    H140335   0.295   3.037   3.922
13464TIP3    H240336   0.322   3.096   4.059
13465TIP3   OH240337   2.238   6.993   0.256
13465TIP3    H140338   2.199   7.074   0.222
13465TIP3    H240339   2.313   7.022   0.307
13466TIP3   OH240340   0.774   4.984   6.529
13466TIP3    H140341   0.735   5.053   6.475
13466TIP3    H240342   0.843   5.027   6.578
13467TIP3   OH240343   4.837   7.678   1.515
13467TIP3    H140344   4.907   7.732   1.553
13467TIP3    H240345   4.761   7.735   1.514
13468TIP3   OH240346   1.413   5.679   5.536
13468TIP3    H140347   1.417   5.592   5.496
13468TIP3    H240348   1.488   5.725   5.501
13469TIP3   OH240349   4.412   5.077   6.409
13469TIP3    H140350   4.318   5.089   6.421
13469TIP3    H240351   4.447   5.076   6.498
13470TIP3   OH240352   1.234   0.352   4.393
13470TIP3    H140353   1.291   0.277   4.413
13470TIP3    H240354   1.215   0.390   4.479
13471TIP3   OH240355   3.494   6.313   4.731
13471TIP3    H140356   3.541   6.355   4.803
13471TIP3    H240357   3.513   6.369   4.655
13472TIP3   OH240358   7.218   3.763   0.649
13472TIP3    H140359   7.202   3.775   0.556
13472TIP3    H240360   7.303   3.803   0.665
13473TIP3   OH240361   6.085   0.620   2.656
13473TIP3    H140362   6.104   0.618   2.750
13473TIP3    H240363   6.145   0.556   2.618
13474TIP3   OH240364   7.375   4.516   6.759
13474TIP3    H140365   7.463   4.503   6.723
13474TIP3    H240366   7.375   4.606   6.789
13475TIP3   OH240367   6.382   6.621   2.163
13475TIP3    H140368   6.371   6.675   2.241
13475TIP3    H240369   6.410   6.536   2.196
13476TIP3   OH240370   0.359   2.630   4.358
13476TIP3    H140371   0.389   2.718   4.384
13476TIP3    H240372   0.421   2.602   4.291
13477TIP3   OH240373   7.867   7.609   4.488
13477TIP3    H140374   7.803   7.539   4.478
13477TIP3    H240375   7.944   7.578   4.442
13478TIP3   OH240376   4.499   3.204   5.170
13478TIP3    H140377   4.425   3.266   5.173
13478TIP3    H240378   4.515   3.190   5.077
13479TIP3   OH240379   7.646   3.657   1.454
13479TIP3    H140380   7.614   3.569   1.471
13479TIP3    H240381   7.662   3.695   1.540
13480TIP3   OH240382   0.196   2.566   5.641
13480TIP3    H140383   0.193   2.598   5.731
13480TIP3    H240384   0.106   2.575   5.609
13481TIP3   OH240385   4.890   6.033   2.605
13481TIP3    H140386   4.840   6.089   2.546
13481TIP3    H240387   4.915   5.957   2.552
13482TIP3   OH240388   0.872   1.092   5.700
13482TIP3    H140389   0.801   1.057   5.646
13482TIP3    H240390   0.857   1.053   5.786
13483TIP3   OH240391   2.311   3.968   1.193
13483TIP3    H140392   2.338   3.876   1.193
13483TIP3    H240393   2.326   3.997   1.283
13484TIP3   OH240394   4.524   3.915   5.110
13484TIP3    H140395   4.582   3.856   5.159
13484TIP3    H240396   4.436   3.881   5.125
13485TIP3   OH240397   7.443   0.894   1.222
13485TIP3    H140398   7.369   0.928   1.271
13485TIP3    H240399   7.491   0.972   1.193
13486TIP3   OH240400   0.978   4.469   6.047
13486TIP3    H140401   1.012   4.557   6.064
13486TIP3    H240402   1.053   4.419   6.016
13487TIP3   OH240403   4.160   4.177   0.003
13487TIP3    H140404   4.169   4.095   0.052
13487TIP3    H240405   4.220   4.168  -0.070
13488TIP3   OH240406   4.926   3.247   5.410
13488TIP3    H140407   4.943   3.273   5.501
13488TIP3    H240408   4.834   3.268   5.395
13489TIP3   OH240409   0.902   1.363   0.772
13489TIP3    H140410   0.897   1.378   0.677
13489TIP3    H240411   0.941   1.276   0.780
13490TIP3   OH240412   2.309   0.656   3.531
13490TIP3    H140413   2.316   0.711   3.609
13490TIP3    H240414   2.394   0.666   3.487
13491TIP3   OH240415   5.109   2.006   0.905
13491TIP3    H140416   5.069   2.009   0.991
13491TIP3    H240417   5.148   2.093   0.893
13492TIP3   OH240418   1.521   7.632   0.230
13492TIP3    H140419   1.543   7.565   0.295
13492TIP3    H240420   1.428   7.650   0.244
13493TIP3   OH240421   4.653   7.133   3.673
13493TIP3    H140422   4.729   7.088   3.710
13493TIP3    H240423   4.581   7.072   3.686
13494TIP3   OH240424   2.758   5.685   2.693
13494TIP3    H140425   2.690   5.730   2.643
13494TIP3    H240426   2.711   5.635   2.759
13495TIP3   OH240427   2.174   2.898   2.222
13495TIP3    H140428   2.249   2.856   2.179
13495TIP3    H240429   2.105   2.832   2.221
13496TIP3   OH240430   5.207   2.620   1.243
13496TIP3    H140431   5.239   2.585   1.160
13496TIP3    H240432   5.195   2.543   1.299
13497TIP3   OH240433   2.918   4.705   0.520
13497TIP3    H140434   2.959   4.691   0.435
13497TIP3    H240435   2.979   4.761   0.568
13498TIP3   OH240436   7.231   7.338   4.237
13498TIP3    H140437   7.303   7.385   4.194
13498TIP3    H240438   7.169   7.407   4.261
13499TIP3   OH240439   1.345   6.184   5.135
13499TIP3    H140440   1.361   6.133   5.214
13499TIP3    H240441   1.304   6.123   5.074
13500TIP3   OH240442   3.193   1.444   1.149
13500TIP3    H140443   3.183   1.428   1.243
13500TIP3    H240444   3.157   1.531   1.135
13501TIP3   OH240445   4.039   1.236   3.783
13501TIP3    H140446   3.965   1.274   3.829
13501TIP3    H240447   4.105   1.219   3.851
13502TIP3   OH240448   6.779   2.282   3.614
13502TIP3    H140449   6.696   2.283   3.565
13502TIP3    H240450   6.845   2.259   3.549
13503TIP3   OH240451   2.759   4.686   3.672
13503TIP3    H140452   2.737   4.605   3.625
13503TIP3    H240453   2.833   4.722   3.624
13504TIP3   OH240454   7.639   4.791   0.739
13504TIP3    H140455   7.584   4.767   0.814
13504TIP3    H240456   7.687   4.869   0.769
13505TIP3   OH240457   0.976   3.157   3.544
13505TIP3    H140458   0.940   3.197   3.623
13505TIP3    H240459   1.009   3.231   3.493
13506TIP3   OH240460   3.410   2.857   2.406
13506TIP3    H140461   3.343   2.811   2.458
13506TIP3    H240462   3.364   2.883   2.326
13507TIP3   OH240463   2.873   0.173   1.302
13507TIP3    H140464   2.826   0.256   1.297
13507TIP3    H240465   2.805   0.107   1.316
13508TIP3   OH240466   3.102   0.813   4.159
13508TIP3    H140467   3.071   0.853   4.078
13508TIP3    H240468   3.137   0.887   4.210
13509TIP3   OH240469   2.121   2.215   4.177
13509TIP3    H140470   2.030   2.186   4.188
13509TIP3    H240471   2.135   2.277   4.248
13510TIP3   OH240472   1.707   1.241   2.945
13510TIP3    H140473   1.721   1.150   2.919
13510TIP3    H240474   1.641   1.274   2.883
13511TIP3   OH240475   6.722   1.096   2.774
13511TIP3    H140476   6.672   1.164   2.728
13511TIP3    H240477   6.812   1.126   2.771
13512TIP3   OH240478   3.702   1.424   5.079
13512TIP3    H140479   3.633   1.367   5.045
13512TIP3    H240480   3.705   1.497   5.018
13513TIP3   OH240481   2.288   0.964   0.500
13513TIP3    H140482   2.206   0.972   0.451
13513TIP3    H240483   2.264   0.916   0.579
13514TIP3   OH240484   3.558   7.024   1.098
13514TIP3    H140485   3.569   6.932   1.073
13514TIP3    H240486   3.543   7.070   1.015
13515TIP3   OH240487   5.553   7.424   1.822
13515TIP3    H140488   5.478   7.473   1.790
13515TIP3    H240489   5.626   7.486   1.818
13516TIP3   OH240490   4.041   6.063   6.396
13516TIP3    H140491   4.082   6.103   6.320
13516TIP3    H240492   4.088   5.980   6.407
13517TIP3   OH240493   5.355   1.545   4.688
13517TIP3    H140494   5.328   1.637   4.688
13517TIP3    H240495   5.439   1.545   4.643
13518TIP3   OH240496   2.096   6.538   1.472
13518TIP3    H140497   2.130   6.477   1.538
13518TIP3    H240498   2.004   6.551   1.496
13519TIP3   OH240499   5.928   3.166   3.959
13519TIP3    H140500   5.992   3.150   4.029
13519TIP3    H240501   5.916   3.080   3.918
13520TIP3   OH240502   0.286   6.622   0.948
13520TIP3    H140503   0.206   6.600   0.995
13520TIP3    H240504   0.339   6.542   0.952
13521TIP3   OH240505   4.364   2.404   4.149
13521TIP3    H140506   4.405   2.329   4.192
13521TIP3    H240507   4.341   2.464   4.220
13522TIP3   OH240508   0.648   5.202   2.613
13522TIP3    H140509   0.573   5.172   2.561
13522TIP3    H240510   0.665   5.131   2.675
13523TIP3   OH240511   4.030   1.546   6.424
13523TIP3    H140512   4.104   1.589   6.381
13523TIP3    H240513   4.014   1.468   6.371
13524TIP3   OH240514   4.609   4.862   0.623
13524TIP3    H140515   4.575   4.952   0.619
13524TIP3    H240516   4.564   4.816   0.552
13525TIP3   OH240517   1.767   3.962   5.691
13525TIP3    H140518   1.715   4.039   5.669
13525TIP3    H240519   1.767   3.959   5.787
13526TIP3   OH240520   0.480   5.708   2.675
13526TIP3    H140521   0.508   5.619   2.700
13526TIP3    H240522   0.558   5.746   2.634
13527TIP3   OH240523   3.584   6.275   2.353
13527TIP3    H140524   3.673   6.258   2.322
13527TIP3    H240525   3.566   6.203   2.414
13528TIP3   OH240526   0.830   3.886   4.702
13528TIP3    H140527   0.809   3.868   4.793
13528TIP3    H240528   0.761   3.947   4.673
13529TIP3   OH240529   0.279   5.059   0.493
13529TIP3    H140530   0.324   4.976   0.483
13529TIP3    H240531   0.333   5.109   0.554
13530TIP3   OH240532   1.811   0.857   1.585
13530TIP3    H140533   1.788   0.866   1.492
13530TIP3    H240534   1.907   0.851   1.585
13531TIP3   OH240535   0.447   6.288   1.676
13531TIP3    H140536   0.478   6.214   1.729
13531TIP3    H240537   0.358   6.303   1.707
13532TIP3   OH240538   5.971   5.346   3.662
13532TIP3    H140539   5.908   5.418   3.659
13532TIP3    H240540   6.043   5.376   3.606
13533TIP3   OH240541   0.914   1.090   5.355
13533TIP3    H140542   0.835   1.067   5.306
13533TIP3    H240543   0.952   1.006   5.379
13534TIP3   OH240544   1.357   3.557   4.884
13534TIP3    H140545   1.316   3.474   4.908
13534TIP3    H240546   1.449   3.547   4.911
13535TIP3   OH240547   6.481   3.405   4.551
13535TIP3    H140548   6.399   3.455   4.547
13535TIP3    H240549   6.476   3.358   4.634
13536TIP3   OH240550   7.688   3.689   1.736
13536TIP3    H140551   7.612   3.634   1.754
13536TIP3    H240552   7.762   3.628   1.732
13537TIP3   OH240553   5.188   5.932   1.969
13537TIP3    H140554   5.232   5.915   2.052
13537TIP3    H240555   5.127   5.859   1.958
13538TIP3   OH240556   6.639   7.495   6.437
13538TIP3    H140557   6.586   7.492   6.357
13538TIP3    H240558   6.729   7.494   6.407
13539TIP3   OH240559   6.667   6.898   1.490
13539TIP3    H140560   6.595   6.902   1.427
13539TIP3    H240561   6.746   6.915   1.439
13540TIP3   OH240562   3.714   1.013   6.282
13540TIP3    H140563   3.667   0.933   6.259
13540TIP3    H240564   3.691   1.028   6.374
13541TIP3   OH240565   3.479   1.800   2.169
13541TIP3    H140566   3.573   1.787   2.152
13541TIP3    H240567   3.441   1.712   2.162
13542TIP3   OH240568   1.977   2.482   3.501
13542TIP3    H140569   1.964   2.396   3.463
13542TIP3    H240570   1.903   2.534   3.471
13543TIP3   OH240571   6.732   6.167   3.258
13543TIP3    H140572   6.810   6.121   3.288
13543TIP3    H240573   6.664   6.143   3.320
13544TIP3   OH240574   1.837   1.971   3.534
13544TIP3    H140575   1.763   2.022   3.569
13544TIP3    H240576   1.805   1.938   3.450
13545TIP3   OH240577   4.005   0.816   4.799
13545TIP3    H140578   3.958   0.851   4.875
13545TIP3    H240579   4.026   0.894   4.747
13546TIP3   OH240580   3.060   1.361   0.134
13546TIP3    H140581   2.981   1.374   0.080
13546TIP3    H240582   3.058   1.433   0.196
13547TIP3   OH240583   4.173   0.467   1.550
13547TIP3    H140584   4.157   0.545   1.496
13547TIP3    H240585   4.247   0.424   1.508
13548TIP3   OH240586   4.717   1.283   1.118
13548TIP3    H140587   4.676   1.208   1.075
13548TIP3    H240588   4.692   1.359   1.065
13549TIP3   OH240589   7.505   7.236   3.333
13549TIP3    H140590   7.538   7.321   3.361
13549TIP3    H240591   7.566   7.208   3.264
13550TIP3   OH240592   7.378   5.280   6.317
13550TIP3    H140593   7.383   5.219   6.244
13550TIP3    H240594   7.298   5.255   6.363
13551TIP3   OH240595   6.487   7.444   0.600
13551TIP3    H140596   6.412   7.485   0.643
13551TIP3    H240597   6.451   7.403   0.522
13552TIP3   OH240598   0.336   6.236   5.373
13552TIP3    H140599   0.412   6.178   5.371
13552TIP3    H240600   0.317   6.254   5.281
13553TIP3   OH240601   5.096   3.452   0.629
13553TIP3    H140602   5.142   3.500   0.698
13553TIP3    H240603   5.100   3.509   0.553
13554TIP3   OH240604   3.442   1.034   1.429
13554TIP3    H140605   3.399   0.984   1.360
13554TIP3    H240606   3.456   0.971   1.500
13555TIP3   OH240607   1.017   6.347   1.144
13555TIP3    H140608   1.020   6.432   1.099
13555TIP3    H240609   0.994   6.285   1.075
13556TIP3   OH240610   8.207   7.608  -0.005
13556TIP3    H140611   8.237   7.698   0.005
13556TIP3    H240612   8.276   7.555   0.035
13557TIP3   OH240613   2.572   5.088   5.633
13557TIP3    H140614   2.519   5.029   5.580
13557TIP3    H240615   2.598   5.036   5.708
13558TIP3   OH240616   3.177   0.455   6.418
13558TIP3    H140617   3.121   0.469   6.495
13558TIP3    H240618   3.175   0.361   6.404
13559TIP3   OH240619   6.980   1.052   2.482
13559TIP3    H140620   6.964   0.968   2.526
13559TIP3    H240621   6.903   1.105   2.504
13560TIP3   OH240622   6.583   4.133   1.930
13560TIP3    H140623   6.588   4.133   1.835
13560TIP3    H240624   6.492   4.114   1.950
13561TIP3   OH240625   3.231   2.391   3.059
13561TIP3    H140626   3.174   2.437   3.121
13561TIP3    H240627   3.319   2.406   3.093
13562TIP3   OH240628   8.310   6.455   2.471
13562TIP3    H140629   8.297   6.400   2.548
13562TIP3    H240630   8.234   6.513   2.470
13563TIP3   OH240631   0.513   0.871   5.043
13563TIP3    H140632   0.457   0.811   5.092
13563TIP3    H240633   0.517   0.834   4.955
13564TIP3   OH240634   3.268   5.463   3.490
13564TIP3    H140635   3.249   5.556   3.487
13564TIP3    H240636   3.193   5.424   3.535
13565TIP3   OH240637   4.026   7.339   2.464
13565TIP3    H140638   4.029   7.336   2.560
13565TIP3    H240639   3.940   7.377   2.444
13566TIP3   OH240640   1.296   5.534   4.251
13566TIP3    H140641   1.336   5.461   4.205
13566TIP3    H240642   1.276   5.598   4.183
13567TIP3   OH240643   7.883   1.111   2.554
13567TIP3    H140644   7.844   1.178   2.498
13567TIP3    H240645   7.878   1.147   2.642
13568TIP3   OH240646   6.329   3.693   1.893
13568TIP3    H140647   6.373   3.702   1.809
13568TIP3    H240648   6.388   3.639   1.945
13569TIP3   OH240649   6.592   7.237   4.512
13569TIP3    H140650   6.647   7.159   4.523
13569TIP3    H240651   6.503   7.206   4.525
13570TIP3   OH240652   1.551   3.684   2.911
13570TIP3    H140653   1.623   3.659   2.969
13570TIP3    H240654   1.577   3.769   2.875
13571TIP3   OH240655   1.769   4.043   6.335
13571TIP3    H140656   1.847   4.084   6.300
13571TIP3    H240657   1.781   4.046   6.430
13572TIP3   OH240658   1.196   6.586   0.981
13572TIP3    H140659   1.172   6.549   0.896
13572TIP3    H240660   1.123   6.644   1.003
13573TIP3   OH240661   1.598   7.527   0.505
13573TIP3    H140662   1.619   7.546   0.597
13573TIP3    H240663   1.532   7.458   0.510
13574TIP3   OH240664   2.112   2.711   5.338
13574TIP3    H140665   2.073   2.642   5.392
13574TIP3    H240666   2.070   2.791   5.367
13575TIP3   OH240667   3.180   0.304   4.676
13575TIP3    H140668   3.109   0.261   4.628
13575TIP3    H240669   3.135   0.363   4.736
13576TIP3   OH240670   5.638   0.511   3.065
13576TIP3    H140671   5.733   0.526   3.057
13576TIP3    H240672   5.605   0.590   3.106
13577TIP3   OH240673   0.888   3.809   3.516
13577TIP3    H140674   0.983   3.801   3.516
13577TIP3    H240675   0.869   3.874   3.448
13578TIP3   OH240676   2.789   2.198   3.458
13578TIP3    H140677   2.783   2.234   3.546
13578TIP3    H240678   2.818   2.107   3.470
13579TIP3   OH240679   3.050   3.176   0.981
13579TIP3    H140680   3.027   3.115   1.051
13579TIP3    H240681   3.134   3.144   0.947
13580TIP3   OH240682   7.884   2.193   6.456
13580TIP3    H140683   7.914   2.281   6.430
13580TIP3    H240684   7.810   2.209   6.515
13581TIP3   OH240685   1.204   7.359   6.227
13581TIP3    H140686   1.242   7.322   6.307
13581TIP3    H240687   1.254   7.318   6.156
13582TIP3   OH240688   3.816   1.170   0.320
13582TIP3    H140689   3.888   1.127   0.368
13582TIP3    H240690   3.766   1.097   0.283
13583TIP3   OH240691   5.860   7.013   1.999
13583TIP3    H140692   5.865   7.100   2.039
13583TIP3    H240693   5.937   7.008   1.942
13584TIP3   OH240694   3.222   5.503   0.112
13584TIP3    H140695   3.226   5.420   0.066
13584TIP3    H240696   3.135   5.503   0.153
13585TIP3   OH240697   1.650   5.218   2.122
13585TIP3    H140698   1.713   5.220   2.051
13585TIP3    H240699   1.702   5.227   2.202
13586TIP3   OH240700   6.010   6.246   5.906
13586TIP3    H140701   5.916   6.235   5.921
13586TIP3    H240702   6.018   6.332   5.863
13587TIP3   OH240703   3.896   0.699   6.084
13587TIP3    H140704   3.939   0.626   6.130
13587TIP3    H240705   3.924   0.777   6.132
13588TIP3   OH240706   5.575   1.886   3.992
13588TIP3    H140707   5.626   1.810   3.965
13588TIP3    H240708   5.520   1.854   4.064
13589TIP3   OH240709   0.643  -0.059   1.791
13589TIP3    H140710   0.616  -0.071   1.882
13589TIP3    H240711   0.676   0.031   1.788
13590TIP3   OH240712   6.633   6.379   2.650
13590TIP3    H140713   6.577   6.317   2.603
13590TIP3    H240714   6.722   6.349   2.634
13591TIP3   OH240715   2.761   5.820   6.057
13591TIP3    H140716   2.792   5.751   6.117
13591TIP3    H240717   2.708   5.773   5.993
13592TIP3   OH240718   6.788   1.804   1.212
13592TIP3    H140719   6.738   1.840   1.139
13592TIP3    H240720   6.879   1.808   1.183
13593TIP3   OH240721   8.258   6.778   0.259
13593TIP3    H140722   8.239   6.833   0.183
13593TIP3    H240723   8.349   6.798   0.281
13594TIP3   OH240724   7.390   5.820   2.546
13594TIP3    H140725   7.340   5.757   2.598
13594TIP3    H240726   7.382   5.903   2.593
13595TIP3   OH240727   7.204   3.430   0.487
13595TIP3    H140728   7.158   3.376   0.422
13595TIP3    H240729   7.200   3.519   0.451
13596TIP3   OH240730   1.740   3.347   2.721
13596TIP3    H140731   1.745   3.349   2.626
13596TIP3    H240732   1.687   3.269   2.741
13597TIP3   OH240733   4.643   4.361   6.214
13597TIP3    H140734   4.725   4.388   6.172
13597TIP3    H240735   4.582   4.347   6.142
13598TIP3   OH240736   6.875   7.647   5.395
13598TIP3    H140737   6.930   7.569   5.395
13598TIP3    H240738   6.905   7.697   5.471
13599TIP3   OH240739   5.897   4.684   6.134
13599TIP3    H140740   5.893   4.648   6.045
13599TIP3    H240741   5.939   4.615   6.185
13600TIP3   OH240742   5.206   2.562   1.665
13600TIP3    H140743   5.215   2.531   1.576
13600TIP3    H240744   5.113   2.552   1.686
13601TIP3   OH240745   4.062   6.651   3.953
13601TIP3    H140746   4.146   6.615   3.926
13601TIP3    H240747   4.015   6.578   3.994
13602TIP3   OH240748   1.971   1.288   5.367
13602TIP3    H140749   1.884   1.248   5.364
13602TIP3    H240750   2.014   1.248   5.443
13603TIP3   OH240751   0.691   6.757   0.404
13603TIP3    H140752   0.717   6.844   0.373
13603TIP3    H240753   0.767   6.702   0.386
13604TIP3   OH240754   7.923   4.361   4.279
13604TIP3    H140755   7.853   4.297   4.269
13604TIP3    H240756   7.885   4.443   4.249
13605TIP3   OH240757   2.025   0.450   3.235
13605TIP3    H140758   1.955   0.399   3.276
13605TIP3    H240759   1.981   0.507   3.173
13606TIP3   OH240760   6.520   1.153   4.330
13606TIP3    H140761   6.573   1.220   4.287
13606TIP3    H240762   6.462   1.202   4.388
13607TIP3   OH240763   6.526   6.285   0.918
13607TIP3    H140764   6.570   6.338   0.986
13607TIP3    H240765   6.488   6.349   0.859
13608TIP3   OH240766   0.630   1.741   5.746
13608TIP3    H140767   0.665   1.691   5.819
13608TIP3    H240768   0.552   1.692   5.718
13609TIP3   OH240769   7.535   5.456   1.598
13609TIP3    H140770   7.504   5.487   1.683
13609TIP3    H240771   7.519   5.528   1.538
13610TIP3   OH240772   6.386   2.855   4.710
13610TIP3    H140773   6.387   2.908   4.629
13610TIP3    H240774   6.343   2.912   4.774
13611TIP3   OH240775   7.460   3.084   5.713
13611TIP3    H140776   7.491   3.157   5.660
13611TIP3    H240777   7.367   3.102   5.727
13612TIP3   OH240778   3.014   7.008   6.724
13612TIP3    H140779   2.921   7.023   6.705
13612TIP3    H240780   3.048   7.095   6.745
13613TIP3   OH240781   2.761   3.874   3.479
13613TIP3    H140782   2.823   3.818   3.433
13613TIP3    H240783   2.677   3.829   3.471
13614TIP3   OH240784   6.539   5.260   1.465
13614TIP3    H140785   6.537   5.336   1.408
13614TIP3    H240786   6.624   5.219   1.449
13615TIP3   OH240787   5.349   1.443   3.419
13615TIP3    H140788   5.333   1.483   3.334
13615TIP3    H240789   5.418   1.498   3.458
13616TIP3   OH240790   4.998   0.550   1.809
13616TIP3    H140791   4.980   0.465   1.767
13616TIP3    H240792   5.087   0.571   1.782
13617TIP3   OH240793   7.414   1.101   4.295
13617TIP3    H140794   7.359   1.052   4.234
13617TIP3    H240795   7.407   1.192   4.266
13618TIP3   OH240796   3.155   4.150   0.259
13618TIP3    H140797   3.214   4.207   0.309
13618TIP3    H240798   3.202   4.067   0.252
13619TIP3   OH240799   0.560   3.618   3.264
13619TIP3    H140800   0.553   3.582   3.175
13619TIP3    H240801   0.646   3.589   3.294
13620TIP3   OH240802   1.108   4.143   0.394
13620TIP3    H140803   1.092   4.166   0.302
13620TIP3    H240804   1.090   4.049   0.399
13621TIP3   OH240805   7.485   3.100   5.322
13621TIP3    H140806   7.545   3.147   5.380
13621TIP3    H240807   7.533   3.092   5.240
13622TIP3   OH240808   5.493   1.952   2.747
13622TIP3    H140809   5.570   2.007   2.732
13622TIP3    H240810   5.494   1.934   2.841
13623TIP3   OH240811   7.619   5.308   6.466
13623TIP3    H140812   7.543   5.295   6.410
13623TIP3    H240813   7.687   5.252   6.429
13624TIP3   OH240814   7.552   3.451   0.368
13624TIP3    H140815   7.613   3.381   0.342
13624TIP3    H240816   7.485   3.450   0.300
13625TIP3   OH240817   2.482   7.805   3.599
13625TIP3    H140818   2.470   7.728   3.654
13625TIP3    H240819   2.577   7.812   3.589
13626TIP3   OH240820   5.468   5.889   6.330
13626TIP3    H140821   5.378   5.884   6.364
13626TIP3    H240822   5.457   5.894   6.235
13627TIP3   OH240823   4.877   5.324   4.928
13627TIP3    H140824   4.922   5.377   4.862
13627TIP3    H240825   4.928   5.243   4.932
13628TIP3   OH240826   0.288   5.616   1.299
13628TIP3    H140827   0.288   5.645   1.208
13628TIP3    H240828   0.339   5.535   1.298
13629TIP3   OH240829   8.042   0.718   0.059
13629TIP3    H140830   8.087   0.778   0.119
13629TIP3    H240831   8.015   0.774  -0.014
13630TIP3   OH240832   0.831   5.506   6.107
13630TIP3    H140833   0.912   5.486   6.061
13630TIP3    H240834   0.859   5.543   6.191
13631TIP3   OH240835   0.072   3.918   6.216
13631TIP3    H140836   0.071   4.005   6.178
13631TIP3    H240837   0.064   3.858   6.142
13632TIP3   OH240838   6.071   1.484   5.384
13632TIP3    H140839   6.049   1.418   5.450
13632TIP3    H240840   5.992   1.536   5.375
13633TIP3   OH240841   6.750   6.809   1.188
13633TIP3    H140842   6.744   6.828   1.095
13633TIP3    H240843   6.674   6.852   1.227
13634TIP3   OH240844   6.844   4.109   4.850
13634TIP3    H140845   6.910   4.053   4.809
13634TIP3    H240846   6.822   4.173   4.782
13635TIP3   OH240847   1.941   3.635   3.300
13635TIP3    H140848   1.948   3.730   3.295
13635TIP3    H240849   1.898   3.610   3.218
13636TIP3   OH240850   5.906   3.964   6.232
13636TIP3    H140851   5.886   4.052   6.202
13636TIP3    H240852   5.962   3.977   6.309
13637TIP3   OH240853   1.861   2.020   2.674
13637TIP3    H140854   1.889   2.081   2.606
13637TIP3    H240855   1.768   2.039   2.686
13638TIP3   OH240856   0.773   6.969   3.970
13638TIP3    H140857   0.756   6.970   4.064
13638TIP3    H240858   0.699   6.922   3.932
13639TIP3   OH240859   6.418   1.422   1.131
13639TIP3    H140860   6.456   1.491   1.076
13639TIP3    H240861   6.493   1.369   1.158
13640TIP3   OH240862   3.814   0.579   2.758
13640TIP3    H140863   3.836   0.573   2.851
13640TIP3    H240864   3.843   0.666   2.731
13641TIP3   OH240865   0.113   3.726   4.203
13641TIP3    H140866   0.145   3.674   4.277
13641TIP3    H240867   0.187   3.781   4.178
13642TIP3   OH240868   2.733   1.006   2.277
13642TIP3    H140869   2.816   0.999   2.230
13642TIP3    H240870   2.695   0.918   2.273
13643TIP3   OH240871   0.058   3.206   2.975
13643TIP3    H140872   0.152   3.214   2.962
13643TIP3    H240873   0.028   3.154   2.900
13644TIP3   OH240874   6.583   3.190   5.300
13644TIP3    H140875   6.653   3.194   5.235
13644TIP3    H240876   6.509   3.150   5.254
13645TIP3   OH240877   6.362   4.434   1.449
13645TIP3    H140878   6.325   4.518   1.475
13645TIP3    H240879   6.299   4.399   1.385
13646TIP3   OH240880   5.044   0.971   0.222
13646TIP3    H140881   5.082   0.995   0.137
13646TIP3    H240882   4.987   1.045   0.244
13647TIP3   OH240883   1.784   6.864   5.919
13647TIP3    H140884   1.773   6.942   5.973
13647TIP3    H240885   1.754   6.792   5.975
13648TIP3   OH240886  -0.001   6.771   0.682
13648TIP3    H140887  -0.029   6.861   0.694
13648TIP3    H240888   0.094   6.775   0.683
13649TIP3   OH240889   5.819   6.379   0.580
13649TIP3    H140890   5.831   6.342   0.493
13649TIP3    H240891   5.768   6.458   0.566
13650TIP3   OH240892   0.728   7.784   0.893
13650TIP3    H140893   0.749   7.808   0.983
13650TIP3    H240894   0.640   7.819   0.878
13651TIP3   OH240895   3.216   4.732   4.138
13651TIP3    H140896   3.263   4.693   4.064
13651TIP3    H240897   3.256   4.818   4.149
13652TIP3   OH240898   5.146   7.676   6.237
13652TIP3    H140899   5.180   7.615   6.171
13652TIP3    H240900   5.130   7.621   6.314
13653TIP3   OH240901   5.744   6.532   3.291
13653TIP3    H140902   5.667   6.571   3.333
13653TIP3    H240903   5.763   6.590   3.217
13654TIP3   OH240904   3.128   3.458   2.870
13654TIP3    H140905   3.145   3.414   2.786
13654TIP3    H240906   3.214   3.464   2.911
13655TIP3   OH240907   2.566   3.962   0.454
13655TIP3    H140908   2.473   3.942   0.446
13655TIP3    H240909   2.580   4.038   0.398
13656TIP3   OH240910   7.537   6.961   5.803
13656TIP3    H140911   7.628   6.990   5.802
13656TIP3    H240912   7.508   6.970   5.713
13657TIP3   OH240913   6.726   5.449   6.351
13657TIP3    H140914   6.814   5.472   6.322
13657TIP3    H240915   6.707   5.509   6.423
13658TIP3   OH240916   3.842   3.035   3.586
13658TIP3    H140917   3.796   3.070   3.662
13658TIP3    H240918   3.935   3.044   3.607
13659TIP3   OH240919   3.033   2.426   4.311
13659TIP3    H140920   2.953   2.374   4.322
13659TIP3    H240921   3.046   2.469   4.395
13660TIP3   OH240922   5.269   1.296   1.825
13660TIP3    H140923   5.304   1.213   1.793
13660TIP3    H240924   5.190   1.310   1.773
13661TIP3   OH240925   1.489   1.027   2.899
13661TIP3    H140926   1.488   1.017   2.804
13661TIP3    H240927   1.574   0.993   2.927
13662TIP3   OH240928   6.707   3.582   6.539
13662TIP3    H140929   6.675   3.567   6.628
13662TIP3    H240930   6.800   3.561   6.543
13663TIP3   OH240931   4.745   7.710   2.880
13663TIP3    H140932   4.719   7.631   2.927
13663TIP3    H240933   4.685   7.716   2.806
13664TIP3   OH240934   6.399   0.236  -0.041
13664TIP3    H140935   6.441   0.193   0.033
13664TIP3    H240936   6.316   0.189  -0.051
13665TIP3   OH240937   1.494   1.434   4.070
13665TIP3    H140938   1.551   1.394   4.004
13665TIP3    H240939   1.509   1.528   4.062
13666TIP3   OH240940   1.544   0.091   5.083
13666TIP3    H140941   1.604   0.018   5.068
13666TIP3    H240942   1.475   0.054   5.138
13667TIP3   OH240943   1.167   7.059   6.655
13667TIP3    H140944   1.093   7.003   6.633
13667TIP3    H240945   1.233   7.000   6.691
13668TIP3   OH240946   1.713   2.506   0.076
13668TIP3    H140947   1.786   2.538   0.130
13668TIP3    H240948   1.637   2.510   0.133
13669TIP3   OH240949   1.072   2.181   2.898
13669TIP3    H140950   1.128   2.253   2.927
13669TIP3    H240951   1.040   2.209   2.812
13670TIP3   OH240952   1.532   0.037   3.458
13670TIP3    H140953   1.573  -0.029   3.402
13670TIP3    H240954   1.502   0.104   3.397
13671TIP3   OH240955   0.180   4.949   1.799
13671TIP3    H140956   0.211   5.034   1.829
13671TIP3    H240957   0.260   4.902   1.774
13672TIP3   OH240958   0.750   0.202   6.642
13672TIP3    H140959   0.755   0.211   6.547
13672TIP3    H240960   0.820   0.260   6.675
13673TIP3   OH240961   4.394   1.179   1.129
13673TIP3    H140962   4.377   1.271   1.110
13673TIP3    H240963   4.407   1.177   1.224
13674TIP3   OH240964   2.239   5.070   5.331
13674TIP3    H140965   2.166   5.122   5.298
13674TIP3    H240966   2.314   5.097   5.279
13675TIP3   OH240967   1.223   0.815   0.751
13675TIP3    H140968   1.273   0.895   0.768
13675TIP3    H240969   1.196   0.785   0.837
13676TIP3   OH240970   1.743   6.045   2.491
13676TIP3    H140971   1.735   5.980   2.421
13676TIP3    H240972   1.668   6.104   2.477
13677TIP3   OH240973   7.019   2.221   5.905
13677TIP3    H140974   7.034   2.181   5.820
13677TIP3    H240975   6.924   2.232   5.910
13678TIP3   OH240976   5.482   7.517   5.754
13678TIP3    H140977   5.534   7.438   5.768
13678TIP3    H240978   5.533   7.570   5.693
13679TIP3   OH240979   7.822   6.628   5.352
13679TIP3    H140980   7.765   6.698   5.320
13679TIP3    H240981   7.769   6.581   5.416
13680TIP3   OH240982   4.264   3.009   5.076
13680TIP3    H140983   4.264   3.021   5.171
13680TIP3    H240984   4.356   3.020   5.051
13681TIP3   OH240985   3.711   2.941   0.622
13681TIP3    H140986   3.708   2.935   0.718
13681TIP3    H240987   3.720   3.035   0.605
13682TIP3   OH240988   2.327   1.217   3.194
13682TIP3    H140989   2.406   1.267   3.175
13682TIP3    H240990   2.309   1.169   3.114
13683TIP3   OH240991   6.650   1.760   3.946
13683TIP3    H140992   6.655   1.666   3.966
13683TIP3    H240993   6.698   1.802   4.018
13684TIP3   OH240994   3.895   0.912   0.059
13684TIP3    H140995   3.819   0.969   0.053
13684TIP3    H240996   3.903   0.873  -0.029
13685TIP3   OH240997   4.403   0.098   2.361
13685TIP3    H140998   4.407   0.114   2.266
13685TIP3    H240999   4.317   0.059   2.375
13686TIP3   OH241000   8.125   1.694   2.956
13686TIP3    H141001   8.207   1.729   2.991
13686TIP3    H241002   8.094   1.633   3.023
13687TIP3   OH241003   0.986   1.262   3.202
13687TIP3    H141004   0.933   1.188   3.176
13687TIP3    H241005   0.933   1.309   3.266
13688TIP3   OH241006   3.706   6.285   2.826
13688TIP3    H141007   3.686   6.298   2.919
13688TIP3    H241008   3.801   6.274   2.823
13689TIP3   OH241009   2.305   5.183   0.434
13689TIP3    H141010   2.245   5.113   0.460
13689TIP3    H241011   2.249   5.260   0.425
13690TIP3   OH241012   8.059   5.344   1.879
13690TIP3    H141013   8.083   5.274   1.818
13690TIP3    H241014   8.071   5.425   1.830
13691TIP3   OH241015   6.897   0.070   0.646
13691TIP3    H141016   6.960  -0.001   0.642
13691TIP3    H241017   6.892   0.093   0.739
13692TIP3   OH241018   8.172   3.260   1.497
13692TIP3    H141019   8.171   3.309   1.580
13692TIP3    H241020   8.246   3.201   1.506
13693TIP3   OH241021   6.288   4.138   3.350
13693TIP3    H141022   6.201   4.113   3.381
13693TIP3    H241023   6.332   4.172   3.428
13694TIP3   OH241024   1.783   0.250   5.124
13694TIP3    H141025   1.690   0.229   5.118
13694TIP3    H241026   1.784   0.342   5.150
13695TIP3   OH241027   7.187   4.792   6.470
13695TIP3    H141028   7.099   4.826   6.488
13695TIP3    H241029   7.193   4.713   6.524
13696TIP3   OH241030   0.500   7.522   2.979
13696TIP3    H141031   0.430   7.460   3.002
13696TIP3    H241032   0.568   7.468   2.940
13697TIP3   OH241033   4.703   4.486   0.937
13697TIP3    H141034   4.711   4.574   0.898
13697TIP3    H241035   4.779   4.439   0.906
13698TIP3   OH241036   0.055   0.410   6.696
13698TIP3    H141037  -0.017   0.359   6.732
13698TIP3    H241038   0.126   0.400   6.759
13699TIP3   OH241039   5.780   6.867   4.896
13699TIP3    H141040   5.798   6.945   4.948
13699TIP3    H241041   5.695   6.835   4.928
13700TIP3   OH241042   7.799   4.405   2.133
13700TIP3    H141043   7.794   4.500   2.130
13700TIP3    H241044   7.836   4.380   2.048
13701TIP3   OH241045   1.988   1.307   2.983
13701TIP3    H141046   2.008   1.247   3.054
13701TIP3    H241047   1.904   1.277   2.949
13702TIP3   OH241048   1.845   4.808   1.169
13702TIP3    H141049   1.940   4.808   1.157
13702TIP3    H241050   1.810   4.826   1.081
13703TIP3   OH241051   6.439   7.749   0.057
13703TIP3    H141052   6.410   7.714   0.141
13703TIP3    H241053   6.372   7.813   0.033
13704TIP3   OH241054   2.253   3.227   2.220
13704TIP3    H141055   2.286   3.172   2.148
13704TIP3    H241056   2.172   3.264   2.186
13705TIP3   OH241057   7.469   1.563   6.084
13705TIP3    H141058   7.477   1.535   6.175
13705TIP3    H241059   7.528   1.505   6.036
13706TIP3   OH241060   7.380   6.343   0.813
13706TIP3    H141061   7.327   6.331   0.734
13706TIP3    H241062   7.424   6.259   0.826
13707TIP3   OH241063   3.524   6.625   3.848
13707TIP3    H141064   3.545   6.534   3.827
13707TIP3    H241065   3.460   6.651   3.782
13708TIP3   OH241066   2.821   6.060   5.935
13708TIP3    H141067   2.912   6.081   5.914
13708TIP3    H241068   2.825   5.972   5.974
13709TIP3   OH241069   0.905   4.827   5.590
13709TIP3    H141070   0.850   4.775   5.531
13709TIP3    H241071   0.862   4.820   5.675
13710TIP3   OH241072   4.562   3.494   0.885
13710TIP3    H141073   4.533   3.585   0.892
13710TIP3    H241074   4.481   3.444   0.891
13711TIP3   OH241075   3.212   0.734   4.873
13711TIP3    H141076   3.139   0.796   4.869
13711TIP3    H241077   3.191   0.668   4.807
13712TIP3   OH241078   7.153   4.871   2.549
13712TIP3    H141079   7.095   4.939   2.583
13712TIP3    H241080   7.177   4.902   2.462
13713TIP3   OH241081   6.569   4.067   1.301
13713TIP3    H141082   6.564   4.148   1.353
13713TIP3    H241083   6.480   4.033   1.301
13714TIP3   OH241084   2.985   7.163   2.252
13714TIP3    H141085   2.909   7.220   2.253
13714TIP3    H241086   2.994   7.137   2.161
13715TIP3   OH241087   5.968   2.871   1.760
13715TIP3    H141088   5.950   2.866   1.666
13715TIP3    H241089   5.987   2.964   1.775
13716TIP3   OH241090   2.692   4.816   6.510
13716TIP3    H141091   2.752   4.762   6.563
13716TIP3    H241092   2.722   4.802   6.420
13717TIP3   OH241093   4.899   2.482   6.472
13717TIP3    H141094   4.822   2.464   6.418
13717TIP3    H241095   4.871   2.552   6.531
13718TIP3   OH241096   3.727   4.638   3.360
13718TIP3    H141097   3.792   4.582   3.319
13718TIP3    H241098   3.683   4.583   3.424
13719TIP3   OH241099   8.015   2.416   0.098
13719TIP3    H141100   8.051   2.501   0.074
13719TIP3    H241101   8.091   2.362   0.120
13720TIP3   OH241102   5.624   1.934   0.669
13720TIP3    H141103   5.658   1.892   0.589
13720TIP3    H241104   5.532   1.907   0.672
13721TIP3   OH241105   2.705   4.572   4.034
13721TIP3    H141106   2.722   4.516   4.111
13721TIP3    H241107   2.668   4.512   3.969
13722TIP3   OH241108   6.563   6.563   2.939
13722TIP3    H141109   6.652   6.597   2.930
13722TIP3    H241110   6.512   6.610   2.873
13723TIP3   OH241111   8.090   0.884   6.680
13723TIP3    H141112   8.099   0.789   6.667
13723TIP3    H241113   7.997   0.901   6.667
13724TIP3   OH241114   1.867   3.353   6.490
13724TIP3    H141115   1.778   3.364   6.458
13724TIP3    H241116   1.856   3.316   6.578
13725TIP3   OH241117   0.341   5.008   3.820
13725TIP3    H141118   0.329   5.025   3.727
13725TIP3    H241119   0.311   5.088   3.863
13726TIP3   OH241120   2.282   2.990   3.783
13726TIP3    H141121   2.271   2.915   3.725
13726TIP3    H241122   2.230   3.060   3.743
13727TIP3   OH241123   2.755   6.231   4.251
13727TIP3    H141124   2.700   6.170   4.203
13727TIP3    H241125   2.814   6.175   4.303
13728TIP3   OH241126   7.918   5.195   3.036
13728TIP3    H141127   8.005   5.163   3.063
13728TIP3    H241128   7.862   5.118   3.040
13729TIP3   OH241129   2.902   5.132   2.648
13729TIP3    H141130   2.972   5.109   2.709
13729TIP3    H241131   2.871   5.048   2.615
13730TIP3   OH241132   1.293   0.728   3.887
13730TIP3    H141133   1.316   0.662   3.951
13730TIP3    H241134   1.313   0.811   3.930
13731TIP3   OH241135   3.247   1.675   0.754
13731TIP3    H141136   3.306   1.602   0.737
13731TIP3    H241137   3.279   1.746   0.698
13732TIP3   OH241138   3.735   5.222   2.139
13732TIP3    H141139   3.702   5.300   2.182
13732TIP3    H241140   3.707   5.230   2.048
13733TIP3   OH241141   4.075   6.251   0.528
13733TIP3    H141142   4.036   6.239   0.615
13733TIP3    H241143   4.056   6.170   0.482
13734TIP3   OH241144   2.754   2.329   3.706
13734TIP3    H141145   2.673   2.377   3.721
13734TIP3    H241146   2.805   2.386   3.649
13735TIP3   OH241147   1.442   2.330   2.681
13735TIP3    H141148   1.431   2.420   2.711
13735TIP3    H241149   1.357   2.306   2.645
13736TIP3   OH241150   0.648   5.246   0.041
13736TIP3    H141151   0.726   5.221   0.090
13736TIP3    H241152   0.619   5.327   0.083
13737TIP3   OH241153   7.179   1.545   6.032
13737TIP3    H141154   7.268   1.557   6.067
13737TIP3    H241155   7.191   1.543   5.937
13738TIP3   OH241156   7.818   1.902   1.557
13738TIP3    H141157   7.871   1.981   1.565
13738TIP3    H241158   7.802   1.875   1.648
13739TIP3   OH241159   2.241   4.825   5.801
13739TIP3    H141160   2.223   4.873   5.882
13739TIP3    H241161   2.334   4.802   5.807
13740TIP3   OH241162   2.588   2.146   1.045
13740TIP3    H141163   2.513   2.200   1.067
13740TIP3    H241164   2.566   2.107   0.960
13741TIP3   OH241165   6.334   4.159   5.391
13741TIP3    H141166   6.345   4.138   5.299
13741TIP3    H241167   6.412   4.123   5.433
13742TIP3   OH241168   7.201   0.332   6.825
13742TIP3    H141169   7.178   0.410   6.775
13742TIP3    H241170   7.189   0.259   6.764
13743TIP3   OH241171   0.239   2.051   2.448
13743TIP3    H141172   0.189   2.125   2.413
13743TIP3    H241173   0.250   1.992   2.373
13744TIP3   OH241174   0.285   2.462   4.585
13744TIP3    H141175   0.307   2.482   4.494
13744TIP3    H241176   0.351   2.397   4.612
13745TIP3   OH241177   3.808   3.437   1.431
13745TIP3    H141178   3.785   3.407   1.343
13745TIP3    H241179   3.900   3.412   1.442
13746TIP3   OH241180   4.368   2.285   0.524
13746TIP3    H141181   4.462   2.297   0.533
13746TIP3    H241182   4.350   2.298   0.431
13747TIP3   OH241183   3.890   2.234   0.182
13747TIP3    H141184   3.923   2.144   0.188
13747TIP3    H241185   3.919   2.276   0.263
13748TIP3   OH241186   3.888   4.896   4.604
13748TIP3    H141187   3.877   4.821   4.546
13748TIP3    H241188   3.909   4.969   4.546
13749TIP3   OH241189   2.499   3.106   3.092
13749TIP3    H141190   2.423   3.093   3.036
13749TIP3    H241191   2.565   3.144   3.034
13750TIP3   OH241192   3.906   5.520   5.271
13750TIP3    H141193   3.979   5.564   5.314
13750TIP3    H241194   3.947   5.470   5.201
13751TIP3   OH241195   1.756   0.287   3.918
13751TIP3    H141196   1.674   0.269   3.965
13751TIP3    H241197   1.809   0.335   3.981
13752TIP3   OH241198   1.207   5.720   6.282
13752TIP3    H141199   1.235   5.685   6.198
13752TIP3    H241200   1.235   5.654   6.346
13753TIP3   OH241201   1.942   3.352   3.908
13753TIP3    H141202   1.990   3.432   3.929
13753TIP3    H241203   1.956   3.339   3.814
13754TIP3   OH241204   8.020   1.694   4.642
13754TIP3    H141205   7.944   1.640   4.622
13754TIP3    H241206   8.007   1.775   4.592
13755TIP3   OH241207   1.769   5.429   1.715
13755TIP3    H141208   1.701   5.417   1.780
13755TIP3    H241209   1.822   5.502   1.747
13756TIP3   OH241210   4.060   5.372   4.986
13756TIP3    H141211   3.964   5.377   4.986
13756TIP3    H241212   4.087   5.458   4.952
13757TIP3   OH241213   0.768   2.390   6.362
13757TIP3    H141214   0.762   2.477   6.401
13757TIP3    H241215   0.858   2.383   6.331
13758TIP3   OH241216   5.194   1.999   3.798
13758TIP3    H141217   5.171   1.941   3.871
13758TIP3    H241218   5.200   1.940   3.722
13759TIP3   OH241219   6.889   4.385   3.066
13759TIP3    H141220   6.946   4.431   3.004
13759TIP3    H241221   6.931   4.301   3.080
13760TIP3   OH241222   7.188   4.157   3.543
13760TIP3    H141223   7.216   4.067   3.557
13760TIP3    H241224   7.140   4.180   3.623
13761TIP3   OH241225   0.162   0.676   6.666
13761TIP3    H141226   0.208   0.690   6.749
13761TIP3    H241227   0.121   0.590   6.675
13762TIP3   OH241228   4.708   4.372   2.479
13762TIP3    H141229   4.795   4.405   2.455
13762TIP3    H241230   4.681   4.429   2.551
13763TIP3   OH241231   7.203   2.472   5.061
13763TIP3    H141232   7.254   2.487   5.140
13763TIP3    H241233   7.150   2.551   5.051
13764TIP3   OH241234   0.507   7.630   6.273
13764TIP3    H141235   0.593   7.660   6.243
13764TIP3    H241236   0.523   7.542   6.307
13765TIP3   OH241237   1.638   1.301   0.553
13765TIP3    H141238   1.699   1.229   0.567
13765TIP3    H241239   1.661   1.365   0.622
13766TIP3   OH241240   7.206   3.919   1.448
13766TIP3    H141241   7.133   3.869   1.485
13766TIP3    H241242   7.255   3.854   1.396
13767TIP3   OH241243   4.871   6.003   0.215
13767TIP3    H141244   4.803   5.942   0.186
13767TIP3    H241245   4.881   6.064   0.142
13768TIP3   OH241246   3.718   3.828   2.882
13768TIP3    H141247   3.804   3.855   2.850
13768TIP3    H241248   3.736   3.761   2.948
13769TIP3   OH241249   6.735   4.721   6.344
13769TIP3    H141250   6.659   4.779   6.344
13769TIP3    H241251   6.764   4.720   6.253
13770TIP3   OH241252   3.892   5.899   5.510
13770TIP3    H141253   3.884   5.918   5.417
13770TIP3    H241254   3.810   5.929   5.548
13771TIP3   OH241255   0.320   3.716   2.194
13771TIP3    H141256   0.312   3.659   2.116
13771TIP3    H241257   0.300   3.804   2.161
13772TIP3   OH241258   4.567   6.020   1.369
13772TIP3    H141259   4.495   6.016   1.307
13772TIP3    H241260   4.644   5.994   1.319
13773TIP3   OH241261   7.866   5.488   6.312
13773TIP3    H141262   7.812   5.432   6.255
13773TIP3    H241263   7.854   5.576   6.277
13774TIP3   OH241264   7.554   7.344   4.831
13774TIP3    H141265   7.484   7.351   4.765
13774TIP3    H241266   7.633   7.369   4.784
13775TIP3   OH241267   3.489   2.537   1.881
13775TIP3    H141268   3.528   2.450   1.890
13775TIP3    H241269   3.396   2.523   1.894
13776TIP3   OH241270   4.966   3.350   6.232
13776TIP3    H141271   4.970   3.432   6.280
13776TIP3    H241272   4.957   3.377   6.140
13777TIP3   OH241273   3.004   7.053   2.004
13777TIP3    H141274   3.021   6.981   1.942
13777TIP3    H241275   2.997   7.131   1.949
13778TIP3   OH241276   0.062   0.415   5.619
13778TIP3    H141277   0.038   0.363   5.542
13778TIP3    H241278  -0.019   0.417   5.671
13779TIP3   OH241279   6.730   2.281   2.947
13779TIP3    H141280   6.721   2.320   2.860
13779TIP3    H241281   6.825   2.278   2.961
13780TIP3   OH241282   5.078   1.382   2.478
13780TIP3    H141283   5.132   1.337   2.543
13780TIP3    H241284   5.096   1.337   2.396
13781TIP3   OH241285   5.745   6.239   1.962
13781TIP3    H141286   5.713   6.327   1.944
13781TIP3    H241287   5.733   6.227   2.056
13782TIP3   OH241288   6.376   3.860   3.979
13782TIP3    H141289   6.315   3.935   3.979
13782TIP3    H241290   6.332   3.794   4.032
13783TIP3   OH241291   8.106   7.045   5.981
13783TIP3    H141292   8.021   7.004   5.994
13783TIP3    H241293   8.092   7.137   6.002
13784TIP3   OH241294   1.247   2.678   1.033
13784TIP3    H141295   1.271   2.714   1.118
13784TIP3    H241296   1.174   2.733   1.003
13785TIP3   OH241297   5.949   6.653   2.721
13785TIP3    H141298   5.862   6.679   2.688
13785TIP3    H241299   5.984   6.595   2.654
13786TIP3   OH241300   6.348   5.521   0.530
13786TIP3    H141301   6.268   5.572   0.538
13786TIP3    H241302   6.411   5.581   0.489
13787TIP3   OH241303   5.756   0.672   6.041
13787TIP3    H141304   5.784   0.742   5.982
13787TIP3    H241305   5.666   0.694   6.064
13788TIP3   OH241306   7.782   2.217   2.612
13788TIP3    H141307   7.720   2.229   2.684
13788TIP3    H241308   7.842   2.291   2.619
13789TIP3   OH241309   4.118   4.665   1.503
13789TIP3    H141310   4.023   4.678   1.504
13789TIP3    H241311   4.131   4.579   1.544
13790TIP3   OH241312   5.434   6.612   3.661
13790TIP3    H141313   5.484   6.625   3.580
13790TIP3    H241314   5.381   6.691   3.670
13791TIP3   OH241315   3.108   4.816   0.345
13791TIP3    H141316   3.163   4.772   0.281
13791TIP3    H241317   3.165   4.882   0.385
13792TIP3   OH241318   3.260   4.646   0.168
13792TIP3    H141319   3.288   4.626   0.079
13792TIP3    H241320   3.308   4.584   0.223
13793TIP3   OH241321   2.848   1.877   5.128
13793TIP3    H141322   2.838   1.818   5.054
13793TIP3    H241323   2.937   1.862   5.159
13794TIP3   OH241324   1.072   7.497   0.009
13794TIP3    H141325   1.062   7.569   0.072
13794TIP3    H241326   1.084   7.419   0.064
13795TIP3   OH241327   4.483   6.715   4.162
13795TIP3    H141328   4.486   6.747   4.252
13795TIP3    H241329   4.441   6.785   4.112
13796TIP3   OH241330   0.130   1.452   3.277
13796TIP3    H141331   0.115   1.522   3.341
13796TIP3    H241332   0.108   1.492   3.192
13797TIP3   OH241333   1.003   6.815   5.456
13797TIP3    H141334   0.936   6.836   5.521
13797TIP3    H241335   1.073   6.879   5.472
13798TIP3   OH241336   0.672   0.671   0.641
13798TIP3    H141337   0.670   0.743   0.579
13798TIP3    H241338   0.611   0.607   0.605
13799TIP3   OH241339   4.676   2.247   3.068
13799TIP3    H141340   4.769   2.224   3.070
13799TIP3    H241341   4.664   2.305   3.143
13800TIP3   OH241342   3.925   0.170   4.249
13800TIP3    H141343   3.985   0.193   4.320
13800TIP3    H241344   3.838   0.189   4.285
13801TIP3   OH241345   7.961   0.419   3.794
13801TIP3    H141346   7.988   0.365   3.720
13801TIP3    H241347   7.900   0.364   3.844
13802TIP3   OH241348   8.191   1.046   4.428
13802TIP3    H141349   8.103   1.060   4.463
13802TIP3    H241350   8.208   0.953   4.442
13803TIP3   OH241351   1.005   4.483   2.255
13803TIP3    H141352   1.082   4.539   2.263
13803TIP3    H241353   0.935   4.543   2.230
13804TIP3   OH241354   5.411   3.810   5.846
13804TIP3    H141355   5.374   3.864   5.776
13804TIP3    H241356   5.440   3.730   5.801
13805TIP3   OH241357   0.967   2.603   4.709
13805TIP3    H141358   0.906   2.658   4.659
13805TIP3    H241359   0.924   2.518   4.714
13806TIP3   OH241360   4.140   6.225   5.097
13806TIP3    H141361   4.206   6.218   5.028
13806TIP3    H241362   4.172   6.168   5.167
13807TIP3   OH241363   1.323   2.240   5.759
13807TIP3    H141364   1.302   2.201   5.674
13807TIP3    H241365   1.392   2.304   5.739
13808TIP3   OH241366   6.149   3.909   4.941
13808TIP3    H141367   6.222   3.945   4.891
13808TIP3    H241368   6.152   3.953   5.025
13809TIP3   OH241369   8.203   2.797   6.586
13809TIP3    H141370   8.151   2.833   6.514
13809TIP3    H241371   8.142   2.744   6.636
13810TIP3   OH241372   4.626   1.527   3.158
13810TIP3    H141373   4.549   1.584   3.167
13810TIP3    H241374   4.589   1.441   3.140
13811TIP3   OH241375   7.073   4.576   1.459
13811TIP3    H141376   7.035   4.513   1.398
13811TIP3    H241377   7.143   4.618   1.408
13812TIP3   OH241378   1.554   6.183   1.951
13812TIP3    H141379   1.585   6.139   2.030
13812TIP3    H241380   1.587   6.273   1.959
13813TIP3   OH241381   3.063   5.680   1.271
13813TIP3    H141382   3.001   5.746   1.302
13813TIP3    H241383   3.012   5.598   1.270
13814TIP3   OH241384   6.890   1.558   6.510
13814TIP3    H141385   6.825   1.576   6.442
13814TIP3    H241386   6.950   1.495   6.469
13815TIP3   OH241387   2.751   6.229   4.962
13815TIP3    H141388   2.678   6.289   4.950
13815TIP3    H241389   2.716   6.143   4.939
13816TIP3   OH241390   0.702   2.253   5.683
13816TIP3    H141391   0.757   2.318   5.726
13816TIP3    H241392   0.753   2.172   5.687
13817TIP3   OH241393   1.826   5.740   5.010
13817TIP3    H141394   1.819   5.700   5.097
13817TIP3    H241395   1.882   5.680   4.960
13818TIP3   OH241396   7.260   7.651   2.227
13818TIP3    H141397   7.246   7.741   2.256
13818TIP3    H241398   7.191   7.636   2.162
13819TIP3   OH241399   4.384   1.358   3.783
13819TIP3    H141400   4.329   1.283   3.806
13819TIP3    H241401   4.402   1.347   3.689
13820TIP3   OH241402   4.727   7.653   4.417
13820TIP3    H141403   4.737   7.560   4.399
13820TIP3    H241404   4.814   7.683   4.441
13821TIP3   OH241405   1.948   2.551   5.476
13821TIP3    H141406   1.925   2.502   5.397
13821TIP3    H241407   1.945   2.486   5.547
13822TIP3   OH241408   0.563   6.995   2.674
13822TIP3    H141409   0.513   6.929   2.721
13822TIP3    H241410   0.611   6.947   2.607
13823TIP3   OH241411   2.064   7.138   5.837
13823TIP3    H141412   2.104   7.209   5.887
13823TIP3    H241413   1.974   7.166   5.824
13824TIP3   OH241414   5.147   0.503   0.380
13824TIP3    H141415   5.089   0.489   0.454
13824TIP3    H241416   5.096   0.475   0.304
13825TIP3   OH241417   2.539   0.257   5.811
13825TIP3    H141418   2.596   0.211   5.872
13825TIP3    H241419   2.592   0.272   5.733
13826TIP3   OH241420   6.982   3.395   6.201
13826TIP3    H141421   7.026   3.477   6.180
13826TIP3    H241422   6.948   3.364   6.117
13827TIP3   OH241423   5.612   3.020   2.720
13827TIP3    H141424   5.604   3.081   2.793
13827TIP3    H241425   5.522   3.006   2.690
13828TIP3   OH241426   7.155   1.121   0.731
13828TIP3    H141427   7.152   1.057   0.659
13828TIP3    H241428   7.088   1.185   0.709
13829TIP3   OH241429   3.988   2.577   1.730
13829TIP3    H141430   3.927   2.518   1.685
13829TIP3    H241431   4.004   2.647   1.667
13830TIP3   OH241432   0.611   5.354   3.273
13830TIP3    H141433   0.521   5.368   3.242
13830TIP3    H241434   0.662   5.421   3.228
13831TIP3   OH241435   3.086   0.459   2.742
13831TIP3    H141436   3.034   0.435   2.818
13831TIP3    H241437   3.119   0.547   2.762
13832TIP3   OH241438   1.454   3.497   2.744
13832TIP3    H141439   1.531   3.440   2.753
13832TIP3    H241440   1.474   3.572   2.801
13833TIP3   OH241441   2.247   6.886   3.660
13833TIP3    H141442   2.157   6.871   3.688
13833TIP3    H241443   2.292   6.918   3.738
13834TIP3   OH241444   5.696   0.349   3.298
13834TIP3    H141445   5.791   0.357   3.307
13834TIP3    H241446   5.675   0.402   3.221
13835TIP3   OH241447   7.404   1.824   5.988
13835TIP3    H141448   7.439   1.744   6.027
13835TIP3    H241449   7.481   1.869   5.953
13836TIP3   OH241450   6.390   3.467   2.126
13836TIP3    H141451   6.405   3.392   2.184
13836TIP3    H241452   6.378   3.541   2.185
13837TIP3   OH241453   7.023   1.293   6.707
13837TIP3    H141454   7.048   1.215   6.757
13837TIP3    H241455   7.102   1.347   6.704
13838TIP3   OH241456   7.206   2.172   2.872
13838TIP3    H141457   7.155   2.096   2.901
13838TIP3    H241458   7.141   2.231   2.833
13839TIP3   OH241459   4.516   2.315   4.754
13839TIP3    H141460   4.503   2.283   4.664
13839TIP3    H241461   4.457   2.261   4.807
13840TIP3   OH241462   2.698   3.026   0.062
13840TIP3    H141463   2.715   2.935   0.036
13840TIP3    H241464   2.723   3.078  -0.015
13841TIP3   OH241465   1.936   7.730   5.555
13841TIP3    H141466   1.993   7.723   5.478
13841TIP3    H241467   1.991   7.769   5.622
13842TIP3   OH241468   8.162   4.299   0.426
13842TIP3    H141469   8.174   4.266   0.337
13842TIP3    H241470   8.075   4.339   0.426
13843TIP3   OH241471   7.545   5.725   0.944
13843TIP3    H141472   7.468   5.672   0.924
13843TIP3    H241473   7.606   5.664   0.985
13844TIP3   OH241474   7.207   6.362   0.036
13844TIP3    H141475   7.161   6.442   0.060
13844TIP3    H241476   7.242   6.328   0.118
13845TIP3   OH241477   0.701   3.666   3.677
13845TIP3    H141478   0.718   3.750   3.635
13845TIP3    H241479   0.637   3.686   3.746
13846TIP3   OH241480   0.995   5.439   1.332
13846TIP3    H141481   0.932   5.374   1.303
13846TIP3    H241482   0.984   5.512   1.271
13847TIP3   OH241483   0.768   4.278   2.757
13847TIP3    H141484   0.839   4.219   2.784
13847TIP3    H241485   0.726   4.304   2.839
13848TIP3   OH241486   3.178   0.954   0.779
13848TIP3    H141487   3.236   0.994   0.844
13848TIP3    H241488   3.217   0.869   0.760
13849TIP3   OH241489   3.789   2.784   1.376
13849TIP3    H141490   3.847   2.709   1.366
13849TIP3    H241491   3.759   2.803   1.287
13850TIP3   OH241492   7.038   5.879   3.914
13850TIP3    H141493   6.961   5.936   3.924
13850TIP3    H241494   7.109   5.939   3.889
13851TIP3   OH241495   7.196   6.613   5.277
13851TIP3    H141496   7.254   6.595   5.202
13851TIP3    H241497   7.138   6.537   5.281
13852TIP3   OH241498   6.513   6.677   0.260
13852TIP3    H141499   6.419   6.663   0.268
13852TIP3    H241500   6.535   6.644   0.173
13853TIP3   OH241501   5.594   0.409   2.617
13853TIP3    H141502   5.556   0.462   2.687
13853TIP3    H241503   5.528   0.343   2.598
13854TIP3   OH241504   2.123   4.966   0.105
13854TIP3    H141505   2.028   4.965   0.111
13854TIP3    H241506   2.153   4.936   0.192
13855TIP3   OH241507   5.233   0.471   1.062
13855TIP3    H141508   5.163   0.477   1.127
13855TIP3    H241509   5.313   0.492   1.111
13856TIP3   OH241510   6.841   5.245   1.361
13856TIP3    H141511   6.805   5.260   1.274
13856TIP3    H241512   6.924   5.200   1.345
13857TIP3   OH241513   0.444   5.504   6.083
13857TIP3    H141514   0.469   5.579   6.136
13857TIP3    H241515   0.488   5.430   6.124
13858TIP3   OH241516   3.495   1.716   0.083
13858TIP3    H141517   3.547   1.642   0.116
13858TIP3    H241518   3.560   1.778   0.051
13859TIP3   OH241519   3.628   3.022   4.521
13859TIP3    H141520   3.642   2.991   4.432
13859TIP3    H241521   3.580   3.104   4.510
13860TIP3   OH241522   7.959   5.428   3.973
13860TIP3    H141523   7.926   5.442   4.062
13860TIP3    H241524   7.880   5.424   3.918
13861TIP3   OH241525   6.124   5.457   1.963
13861TIP3    H141526   6.194   5.441   2.026
13861TIP3    H241527   6.127   5.552   1.948
13862TIP3   OH241528   2.400   1.218   5.004
13862TIP3    H141529   2.358   1.290   5.051
13862TIP3    H241530   2.494   1.231   5.017
13863TIP3   OH241531   5.767   1.954   2.983
13863TIP3    H141532   5.767   2.046   3.007
13863TIP3    H241533   5.812   1.910   3.055
13864TIP3   OH241534   1.926   0.624   4.245
13864TIP3    H141535   1.841   0.655   4.279
13864TIP3    H241536   1.980   0.703   4.241
13865TIP3   OH241537   3.985   3.221   0.435
13865TIP3    H141538   3.950   3.135   0.414
13865TIP3    H241539   3.917   3.264   0.487
13866TIP3   OH241540   2.645   6.066   5.713
13866TIP3    H141541   2.697   6.091   5.790
13866TIP3    H241542   2.582   6.138   5.704
13867TIP3   OH241543   6.132   6.703   5.148
13867TIP3    H141544   6.165   6.622   5.186
13867TIP3    H241545   6.069   6.675   5.082
13868TIP3   OH241546   8.305   1.436   1.640
13868TIP3    H141547   8.352   1.376   1.583
13868TIP3    H241548   8.216   1.401   1.644
13869TIP3   OH241549   0.613   2.872   1.928
13869TIP3    H141550   0.559   2.811   1.977
13869TIP3    H241551   0.597   2.849   1.836
13870TIP3   OH241552   5.154   4.560   0.251
13870TIP3    H141553   5.063   4.542   0.276
13870TIP3    H241554   5.170   4.502   0.176
13871TIP3   OH241555   2.589   0.578   3.787
13871TIP3    H141556   2.606   0.529   3.868
13871TIP3    H241557   2.621   0.521   3.717
13872TIP3   OH241558   5.157   3.805   1.912
13872TIP3    H141559   5.120   3.891   1.892
13872TIP3    H241560   5.186   3.772   1.827
13873TIP3   OH241561   2.648   4.181   3.126
13873TIP3    H141562   2.730   4.142   3.156
13873TIP3    H241563   2.590   4.107   3.112
13874TIP3   OH241564   0.055   6.497   4.632
13874TIP3    H141565   0.135   6.457   4.597
13874TIP3    H241566   0.061   6.485   4.727
13875TIP3   OH241567   0.804   4.877   2.572
13875TIP3    H141568   0.791   4.792   2.531
13875TIP3    H241569   0.724   4.892   2.623
13876TIP3   OH241570   1.016   7.254   5.213
13876TIP3    H141571   0.964   7.213   5.144
13876TIP3    H241572   0.962   7.246   5.291
13877TIP3   OH241573   6.437   0.370   0.672
13877TIP3    H141574   6.524   0.387   0.709
13877TIP3    H241575   6.430   0.430   0.598
13878TIP3   OH241576   0.074   0.920   4.085
13878TIP3    H141577   0.061   0.942   3.993
13878TIP3    H241578   0.113   0.999   4.123
13879TIP3   OH241579   5.552   6.694   3.387
13879TIP3    H141580   5.554   6.767   3.448
13879TIP3    H241581   5.501   6.727   3.312
13880TIP3   OH241582   1.098   4.564   4.398
13880TIP3    H141583   1.119   4.531   4.485
13880TIP3    H241584   1.180   4.601   4.366
13881TIP3   OH241585   4.351   4.650   3.434
13881TIP3    H141586   4.349   4.607   3.348
13881TIP3    H241587   4.433   4.621   3.474
13882TIP3   OH241588   7.592   1.918   6.756
13882TIP3    H141589   7.651   1.968   6.700
13882TIP3    H241590   7.597   1.962   6.841
13883TIP3   OH241591   2.371   6.828   1.864
13883TIP3    H141592   2.379   6.747   1.916
13883TIP3    H241593   2.458   6.841   1.827
13884TIP3   OH241594   4.871   2.319   4.366
13884TIP3    H141595   4.894   2.333   4.458
13884TIP3    H241596   4.809   2.390   4.346
13885TIP3   OH241597   7.688   7.344   4.150
13885TIP3    H141598   7.774   7.350   4.107
13885TIP3    H241599   7.667   7.251   4.148
13886TIP3   OH241600   7.804   0.860   2.496
13886TIP3    H141601   7.868   0.844   2.427
13886TIP3    H241602   7.835   0.939   2.540
13887TIP3   OH241603   3.067   7.717   2.772
13887TIP3    H141604   2.981   7.675   2.781
13887TIP3    H241605   3.128   7.650   2.803
13888TIP3   OH241606   0.338   1.124   1.047
13888TIP3    H141607   0.434   1.129   1.047
13888TIP3    H241608   0.312   1.153   0.960
13889TIP3   OH241609   0.698   5.474   4.007
13889TIP3    H141610   0.730   5.396   3.961
13889TIP3    H241611   0.768   5.495   4.069
13890TIP3   OH241612   2.971   5.871   2.706
13890TIP3    H141613   2.925   5.950   2.732
13890TIP3    H241614   2.905   5.802   2.712
13891TIP3   OH241615   1.441   3.140   2.520
13891TIP3    H141616   1.525   3.155   2.476
13891TIP3    H241617   1.378   3.127   2.449
13892TIP3   OH241618   6.575   2.416   2.007
13892TIP3    H141619   6.536   2.346   1.955
13892TIP3    H241620   6.560   2.390   2.098
13893TIP3   OH241621   2.753   7.603   0.359
13893TIP3    H141622   2.790   7.591   0.271
13893TIP3    H241623   2.740   7.698   0.366
13894TIP3   OH241624   4.607   1.787   5.518
13894TIP3    H141625   4.603   1.695   5.543
13894TIP3    H241626   4.532   1.800   5.460
13895TIP3   OH241627   0.117   7.224   5.330
13895TIP3    H141628   0.070   7.195   5.408
13895TIP3    H241629   0.079   7.309   5.308
13896TIP3   OH241630   6.554   6.475   5.860
13896TIP3    H141631   6.543   6.431   5.776
13896TIP3    H241632   6.569   6.403   5.922
13897TIP3   OH241633   7.780   4.440   4.637
13897TIP3    H141634   7.717   4.397   4.579
13897TIP3    H241635   7.859   4.386   4.631
13898TIP3   OH241636   6.806   5.333   3.196
13898TIP3    H141637   6.802   5.354   3.289
13898TIP3    H241638   6.842   5.244   3.193
13899TIP3   OH241639   2.657   3.841   5.271
13899TIP3    H141640   2.738   3.857   5.320
13899TIP3    H241641   2.664   3.750   5.241
13900TIP3   OH241642   4.482   6.076   0.879
13900TIP3    H141643   4.491   6.115   0.792
13900TIP3    H241644   4.539   6.000   0.878
13901TIP3   OH241645   2.070   2.117   5.244
13901TIP3    H141646   2.068   2.105   5.339
13901TIP3    H241647   2.140   2.059   5.214
13902TIP3   OH241648   1.965   0.084   2.885
13902TIP3    H141649   1.958   0.168   2.840
13902TIP3    H241650   2.003   0.025   2.820
13903TIP3   OH241651   7.931   2.454   2.650
13903TIP3    H141652   7.969   2.524   2.597
13903TIP3    H241653   7.907   2.498   2.732
13904TIP3   OH241654   3.891   0.534   0.423
13904TIP3    H141655   3.978   0.534   0.384
13904TIP3    H241656   3.907   0.543   0.517
13905TIP3   OH241657   2.993   1.550   4.270
13905TIP3    H141658   3.067   1.608   4.254
13905TIP3    H241659   2.937   1.598   4.331
13906TIP3   OH241660   5.576   4.248   1.514
13906TIP3    H141661   5.627   4.245   1.433
13906TIP3    H241662   5.586   4.337   1.546
13907TIP3   OH241663   1.378   1.815   2.546
13907TIP3    H141664   1.394   1.902   2.510
13907TIP3    H241665   1.383   1.827   2.641
13908TIP3   OH241666   7.605   0.873   0.028
13908TIP3    H141667   7.669   0.922   0.080
13908TIP3    H241668   7.658   0.817  -0.028
13909TIP3   OH241669   2.509   3.728   3.485
13909TIP3    H141670   2.415   3.713   3.491
13909TIP3    H241671   2.546   3.683   3.561
13910TIP3   OH241672   0.674   7.736   5.083
13910TIP3    H141673   0.641   7.809   5.032
13910TIP3    H241674   0.767   7.730   5.061
13911TIP3   OH241675   3.018   1.111   2.519
13911TIP3    H141676   2.929   1.112   2.554
13911TIP3    H241677   3.046   1.202   2.520
13912TIP3   OH241678   1.974   4.575   4.235
13912TIP3    H141679   2.019   4.641   4.289
13912TIP3    H241680   1.889   4.565   4.277
13913TIP3   OH241681   1.239   1.606  -0.057
13913TIP3    H141682   1.233   1.658   0.023
13913TIP3    H241683   1.175   1.645  -0.116
13914TIP3   OH241684   3.681   4.971   1.996
13914TIP3    H141685   3.697   4.973   2.091
13914TIP3    H241686   3.608   5.032   1.983
13915TIP3   OH241687   1.586   0.836   2.127
13915TIP3    H141688   1.632   0.811   2.047
13915TIP3    H241689   1.503   0.788   2.124
13916TIP3   OH241690   6.415   5.048   3.136
13916TIP3    H141691   6.468   4.986   3.086
13916TIP3    H241692   6.454   5.049   3.223
13917TIP3   OH241693   2.823   0.756   1.392
13917TIP3    H141694   2.856   0.691   1.330
13917TIP3    H241695   2.807   0.706   1.473
13918TIP3   OH241696   6.970   1.917   1.013
13918TIP3    H141697   6.944   2.008   0.997
13918TIP3    H241698   7.058   1.923   1.048
13919TIP3   OH241699   2.522   6.910   6.487
13919TIP3    H141700   2.525   6.921   6.392
13919TIP3    H241701   2.459   6.840   6.501
13920TIP3   OH241702   2.364   6.693   6.400
13920TIP3    H141703   2.400   6.633   6.465
13920TIP3    H241704   2.378   6.649   6.316
13921TIP3   OH241705   4.762   6.082   3.047
13921TIP3    H141706   4.704   6.012   3.017
13921TIP3    H241707   4.755   6.079   3.143
13922TIP3   OH241708   3.217   0.609   1.399
13922TIP3    H141709   3.192   0.684   1.452
13922TIP3    H241710   3.163   0.616   1.320
13923TIP3   OH241711   5.683   3.798   6.241
13923TIP3    H141712   5.630   3.845   6.177
13923TIP3    H241713   5.768   3.841   6.238
13924TIP3   OH241714   6.947   1.018   5.400
13924TIP3    H141715   7.022   0.962   5.381
13924TIP3    H241716   6.878   0.957   5.424
13925TIP3   OH241717   0.427   6.850   0.398
13925TIP3    H141718   0.507   6.812   0.363
13925TIP3    H241719   0.363   6.779   0.396
13926TIP3   OH241720   8.057   3.192   6.349
13926TIP3    H141721   8.070   3.099   6.333
13926TIP3    H241722   8.123   3.216   6.414
13927TIP3   OH241723   4.850   5.993   1.973
13927TIP3    H141724   4.759   5.967   1.986
13927TIP3    H241725   4.900   5.914   1.993
13928TIP3   OH241726   6.114   5.530   2.892
13928TIP3    H141727   6.084   5.447   2.856
13928TIP3    H241728   6.198   5.546   2.848
13929TIP3   OH241729   2.129   2.524   3.030
13929TIP3    H141730   2.066   2.485   3.090
13929TIP3    H241731   2.140   2.458   2.960
13930TIP3   OH241732   7.308   3.215   2.742
13930TIP3    H141733   7.220   3.179   2.735
13930TIP3    H241734   7.320   3.231   2.836
13931TIP3   OH241735   3.139   1.364   2.544
13931TIP3    H141736   3.227   1.357   2.579
13931TIP3    H241737   3.113   1.455   2.562
13932TIP3   OH241738   2.773   6.702   1.487
13932TIP3    H141739   2.711   6.641   1.447
13932TIP3    H241740   2.781   6.773   1.423
13933TIP3   OH241741   5.075   6.040   6.391
13933TIP3    H141742   5.019   6.071   6.319
13933TIP3    H241743   5.044   6.090   6.467
13934TIP3   OH241744   8.308   4.729   2.308
13934TIP3    H141745   8.299   4.634   2.312
13934TIP3    H241746   8.327   4.748   2.216
13935TIP3   OH241747   1.114   7.756   6.447
13935TIP3    H141748   1.199   7.763   6.491
13935TIP3    H241749   1.130   7.697   6.373
13936TIP3   OH241750   3.723   6.969   2.720
13936TIP3    H141751   3.736   6.874   2.713
13936TIP3    H241752   3.715   6.999   2.630
13937TIP3   OH241753   1.842   1.340   2.642
13937TIP3    H141754   1.929   1.368   2.613
13937TIP3    H241755   1.808   1.416   2.690
13938TIP3   OH241756   6.235   2.560   6.132
13938TIP3    H141757   6.177   2.522   6.199
13938TIP3    H241758   6.237   2.653   6.151
13939TIP3   OH241759   4.765   0.735   5.774
13939TIP3    H141760   4.857   0.751   5.750
13939TIP3    H241761   4.727   0.822   5.782
13940TIP3   OH241762   4.078   0.485   2.455
13940TIP3    H141763   4.077   0.579   2.471
13940TIP3    H241764   3.986   0.460   2.451
13941TIP3   OH241765   1.817   6.713   4.141
13941TIP3    H141766   1.780   6.705   4.229
13941TIP3    H241767   1.791   6.800   4.111
13942TIP3   OH241768   6.120   5.219   4.382
13942TIP3    H141769   6.171   5.285   4.334
13942TIP3    H241770   6.051   5.269   4.425
13943TIP3   OH241771   7.595   1.100   1.074
13943TIP3    H141772   7.577   1.170   1.011
13943TIP3    H241773   7.675   1.059   1.041
13944TIP3   OH241774   7.650   6.600   2.396
13944TIP3    H141775   7.720   6.581   2.333
13944TIP3    H241776   7.636   6.695   2.388
13945TIP3   OH241777   1.230   3.435   0.963
13945TIP3    H141778   1.229   3.531   0.957
13945TIP3    H241779   1.157   3.407   0.908
13946TIP3   OH241780   7.622   4.237   3.486
13946TIP3    H141781   7.689   4.296   3.452
13946TIP3    H241782   7.648   4.150   3.456
13947TIP3   OH241783   1.503   0.634   6.010
13947TIP3    H141784   1.572   0.686   6.052
13947TIP3    H241785   1.548   0.556   5.978
13948TIP3   OH241786   1.559   4.877   6.690
13948TIP3    H141787   1.592   4.962   6.716
13948TIP3    H241788   1.636   4.821   6.684
13949TIP3   OH241789   4.355   5.534   5.131
13949TIP3    H141790   4.320   5.603   5.074
13949TIP3    H241791   4.304   5.540   5.211
13950TIP3   OH241792   6.951   3.213   4.382
13950TIP3    H141793   6.980   3.128   4.349
13950TIP3    H241794   6.857   3.203   4.395
13951TIP3   OH241795   7.153   7.511   1.241
13951TIP3    H141796   7.240   7.476   1.258
13951TIP3    H241797   7.098   7.476   1.311
13952TIP3   OH241798   3.542   7.092   5.533
13952TIP3    H141799   3.523   7.072   5.625
13952TIP3    H241800   3.480   7.038   5.484
13953TIP3   OH241801   3.676   4.385   2.726
13953TIP3    H141802   3.702   4.298   2.696
13953TIP3    H241803   3.716   4.445   2.663
13954TIP3   OH241804   5.667   0.182   6.814
13954TIP3    H141805   5.675   0.210   6.722
13954TIP3    H241806   5.653   0.087   6.809
13955TIP3   OH241807   5.288   6.507   6.441
13955TIP3    H141808   5.312   6.422   6.403
13955TIP3    H241809   5.371   6.554   6.448
13956TIP3   OH241810   3.270   5.632   2.118
13956TIP3    H141811   3.330   5.559   2.103
13956TIP3    H241812   3.212   5.602   2.187
13957TIP3   OH241813   6.681   2.475   6.135
13957TIP3    H141814   6.730   2.470   6.053
13957TIP3    H241815   6.648   2.386   6.149
13958TIP3   OH241816   6.611   2.934   5.450
13958TIP3    H141817   6.575   3.011   5.406
13958TIP3    H241818   6.552   2.862   5.426
13959TIP3   OH241819   4.170   3.640   1.037
13959TIP3    H141820   4.193   3.596   1.119
13959TIP3    H241821   4.249   3.687   1.012
13960TIP3   OH241822   0.654   5.717   5.969
13960TIP3    H141823   0.715   5.764   5.913
13960TIP3    H241824   0.709   5.659   6.021
13961TIP3   OH241825   0.746   5.341   1.000
13961TIP3    H141826   0.840   5.340   1.018
13961TIP3    H241827   0.709   5.401   1.065
13962TIP3   OH241828   8.213   1.248   5.036
13962TIP3    H141829   8.155   1.186   5.080
13962TIP3    H241830   8.301   1.225   5.067
13963TIP3   OH241831   1.362   5.170   5.336
13963TIP3    H141832   1.338   5.157   5.245
13963TIP3    H241833   1.280   5.191   5.381
13964TIP3   OH241834   2.949   6.710   1.179
13964TIP3    H141835   2.963   6.666   1.262
13964TIP3    H241836   2.987   6.652   1.114
13965TIP3   OH241837   6.952   3.442   2.186
13965TIP3    H141838   6.944   3.396   2.270
13965TIP3    H241839   7.046   3.462   2.179
13966TIP3   OH241840   4.424   2.777   3.713
13966TIP3    H141841   4.420   2.686   3.745
13966TIP3    H241842   4.336   2.812   3.728
13967TIP3   OH241843   6.717   6.476   3.974
13967TIP3    H141844   6.627   6.501   3.954
13967TIP3    H241845   6.765   6.558   3.979
13968TIP3   OH241846   3.881   3.650   5.956
13968TIP3    H141847   3.937   3.700   6.016
13968TIP3    H241848   3.917   3.666   5.869
13969TIP3   OH241849   4.550   7.123   2.712
13969TIP3    H141850   4.578   7.132   2.621
13969TIP3    H241851   4.503   7.205   2.730
13970TIP3   OH241852   0.822   3.514   2.445
13970TIP3    H141853   0.816   3.607   2.423
13970TIP3    H241854   0.792   3.509   2.536
13971TIP3   OH241855   8.310   1.048   3.810
13971TIP3    H141856   8.299   0.990   3.735
13971TIP3    H241857   8.238   1.111   3.802
13972TIP3   OH241858   4.759   0.985   4.161
13972TIP3    H141859   4.811   0.961   4.085
13972TIP3    H241860   4.675   0.940   4.149
13973TIP3   OH241861   7.731   5.128   0.769
13973TIP3    H141862   7.780   5.187   0.827
13973TIP3    H241863   7.763   5.148   0.681
13974TIP3   OH241864   7.743   3.582   2.574
13974TIP3    H141865   7.737   3.616   2.485
13974TIP3    H241866   7.799   3.644   2.620
13975TIP3   OH241867   4.053   6.065   4.418
13975TIP3    H141868   4.096   6.023   4.344
13975TIP3    H241869   4.068   6.158   4.406
13976TIP3   OH241870   7.268   4.090   0.145
13976TIP3    H141871   7.302   4.133   0.224
13976TIP3    H241872   7.199   4.149   0.114
13977TIP3   OH241873   7.714   0.610   2.476
13977TIP3    H141874   7.799   0.568   2.465
13977TIP3    H241875   7.733   0.704   2.478
13978TIP3   OH241876   0.163   2.856   2.065
13978TIP3    H141877   0.114   2.821   2.140
13978TIP3    H241878   0.253   2.829   2.081
13979TIP3   OH241879   0.131   3.251   1.650
13979TIP3    H141880   0.217   3.225   1.683
13979TIP3    H241881   0.069   3.195   1.696
13980TIP3   OH241882   3.038   0.646   5.315
13980TIP3    H141883   2.985   0.726   5.318
13980TIP3    H241884   3.112   0.669   5.259
13981TIP3   OH241885   3.538   5.298   4.000
13981TIP3    H141886   3.619   5.307   3.950
13981TIP3    H241887   3.472   5.344   3.947
13982TIP3   OH241888   7.623   3.703   3.831
13982TIP3    H141889   7.549   3.647   3.856
13982TIP3    H241890   7.650   3.671   3.745
13983TIP3   OH241891   8.365   0.790   2.159
13983TIP3    H141892   8.297   0.727   2.183
13983TIP3    H241893   8.340   0.820   2.071
13984TIP3   OH241894   0.982   2.931   5.803
13984TIP3    H141895   0.922   3.002   5.779
13984TIP3    H241896   0.954   2.906   5.892
13985TIP3   OH241897   1.273   5.727   4.549
13985TIP3    H141898   1.210   5.797   4.530
13985TIP3    H241899   1.255   5.702   4.639
13986TIP3   OH241900   2.669   3.613   4.682
13986TIP3    H141901   2.589   3.572   4.649
13986TIP3    H241902   2.638   3.693   4.725
13987TIP3   OH241903   7.453   0.104   4.391
13987TIP3    H141904   7.502   0.124   4.470
13987TIP3    H241905   7.452   0.009   4.386
13988TIP3   OH241906   2.056   7.482   2.076
13988TIP3    H141907   1.995   7.540   2.122
13988TIP3    H241908   2.018   7.473   1.988
13989TIP3   OH241909   2.828   6.907   2.689
13989TIP3    H141910   2.814   6.948   2.603
13989TIP3    H241911   2.740   6.894   2.724
13990TIP3   OH241912   6.337   4.041   1.705
13990TIP3    H141913   6.338   4.049   1.800
13990TIP3    H241914   6.319   4.130   1.674
13991TIP3   OH241915   4.342   7.340   6.542
13991TIP3    H141916   4.267   7.282   6.528
13991TIP3    H241917   4.408   7.310   6.478
13992TIP3   OH241918   7.669   3.276   0.737
13992TIP3    H141919   7.591   3.328   0.718
13992TIP3    H241920   7.742   3.334   0.714
13993TIP3   OH241921   7.935   4.845   4.215
13993TIP3    H141922   7.876   4.878   4.283
13993TIP3    H241923   8.018   4.830   4.260
13994TIP3   OH241924   1.590   1.653   3.860
13994TIP3    H141925   1.656   1.633   3.926
13994TIP3    H241926   1.624   1.614   3.779
13995TIP3   OH241927   2.852   6.662   0.387
13995TIP3    H141928   2.899   6.643   0.306
13995TIP3    H241929   2.784   6.595   0.392
13996TIP3   OH241930   5.798   2.065   2.714
13996TIP3    H141931   5.813   2.004   2.787
13996TIP3    H241932   5.827   2.149   2.748
13997TIP3   OH241933   2.002   0.768   2.863
13997TIP3    H141934   1.966   0.803   2.782
13997TIP3    H241935   2.097   0.765   2.847
13998TIP3   OH241936   0.833   4.772   0.838
13998TIP3    H141937   0.807   4.744   0.750
13998TIP3    H241938   0.929   4.770   0.836
13999TIP3   OH241939   0.520   4.728   6.077
13999TIP3    H141940   0.524   4.809   6.026
13999TIP3    H241941   0.594   4.733   6.137
14000TIP3   OH241942   2.974   0.928   1.049
14000TIP3    H141943   3.040   0.993   1.027
14000TIP3    H241944   2.934   0.904   0.965
14001TIP3   OH241945   6.042   0.725   1.489
14001TIP3    H141946   5.949   0.703   1.491
14001TIP3    H241947   6.059   0.746   1.397
14002TIP3   OH241948   5.158   6.018   5.474
14002TIP3    H141949   5.245   5.989   5.500
14002TIP3    H241950   5.172   6.101   5.428
14003TIP3   OH241951   3.107   3.504   0.276
14003TIP3    H141952   3.043   3.540   0.214
14003TIP3    H241953   3.167   3.576   0.293
14004TIP3   OH241954   4.081   6.302   1.768
14004TIP3    H141955   4.079   6.392   1.801
14004TIP3    H241956   4.135   6.306   1.689
14005TIP3   OH241957   2.096   6.054   3.307
14005TIP3    H141958   2.157   6.122   3.338
14005TIP3    H241959   2.013   6.075   3.351
14006TIP3   OH241960   0.672   4.219   3.388
14006TIP3    H141961   0.736   4.280   3.426
14006TIP3    H241962   0.619   4.191   3.462
14007TIP3   OH241963   5.517   0.936   3.553
14007TIP3    H141964   5.466   0.865   3.515
14007TIP3    H241965   5.586   0.892   3.603
14008TIP3   OH241966   2.296   7.452   3.228
14008TIP3    H141967   2.265   7.513   3.161
14008TIP3    H241968   2.286   7.365   3.189
14009TIP3   OH241969   3.592   7.451   6.004
14009TIP3    H141970   3.620   7.411   5.921
14009TIP3    H241971   3.507   7.490   5.984
14010TIP3   OH241972   1.272   6.829   3.689
14010TIP3    H141973   1.344   6.861   3.635
14010TIP3    H241974   1.300   6.845   3.779
14011TIP3   OH241975   3.939   5.680   2.742
14011TIP3    H141976   4.017   5.735   2.736
14011TIP3    H241977   3.866   5.742   2.748
14012TIP3   OH241978   5.246   0.752   0.177
14012TIP3    H141979   5.322   0.695   0.170
14012TIP3    H241980   5.251   0.809   0.100
14013TIP3   OH241981   2.430   3.890   0.125
14013TIP3    H141982   2.367   3.896   0.053
14013TIP3    H241983   2.392   3.941   0.196
14014TIP3   OH241984   3.602   0.724   3.819
14014TIP3    H141985   3.537   0.715   3.750
14014TIP3    H241986   3.552   0.756   3.895
14015TIP3   OH241987   5.986   7.438   0.615
14015TIP3    H141988   6.064   7.436   0.670
14015TIP3    H241989   6.016   7.476   0.532
14016TIP3   OH241990   3.992   2.090   0.848
14016TIP3    H141991   4.076   2.108   0.806
14016TIP3    H241992   3.988   2.152   0.921
14017TIP3   OH241993   2.185   3.315   5.382
14017TIP3    H141994   2.250   3.382   5.361
14017TIP3    H241995   2.227   3.232   5.360
14018TIP3   OH241996   3.976   1.977   1.641
14018TIP3    H141997   4.026   2.000   1.719
14018TIP3    H241998   3.887   2.009   1.659
14019TIP3   OH241999   3.314   3.753   5.558
14019TIP3    H142000   3.388   3.763   5.617
14019TIP3    H242001   3.247   3.811   5.593
14020TIP3   OH242002   6.940   6.275   5.782
14020TIP3    H142003   6.877   6.234   5.841
14020TIP3    H242004   7.014   6.213   5.780
14021TIP3   OH242005   1.067   4.933   0.961
14021TIP3    H142006   1.129   4.932   1.033
14021TIP3    H242007   1.122   4.929   0.882
14022TIP3   OH242008   4.873   7.428   6.050
14022TIP3    H142009   4.834   7.396   6.131
14022TIP3    H242010   4.962   7.391   6.050
14023TIP3   OH242011   2.871   4.444   5.937
14023TIP3    H142012   2.875   4.351   5.961
14023TIP3    H242013   2.786   4.455   5.895
14024TIP3   OH242014   4.779   2.222   2.199
14024TIP3    H142015   4.775   2.179   2.284
14024TIP3    H242016   4.868   2.256   2.193
14025TIP3   OH242017   4.058   1.764   1.516
14025TIP3    H142018   4.025   1.771   1.426
14025TIP3    H242019   4.042   1.850   1.554
14026TIP3   OH242020   1.815   0.351   5.446
14026TIP3    H142021   1.838   0.303   5.367
14026TIP3    H242022   1.859   0.436   5.435
14027TIP3   OH242023   0.303   0.800   1.329
14027TIP3    H142024   0.352   0.718   1.325
14027TIP3    H242025   0.365   0.867   1.302
14028TIP3   OH242026   6.471   4.582   3.497
14028TIP3    H142027   6.542   4.644   3.480
14028TIP3    H242028   6.485   4.555   3.588
14029TIP3   OH242029   7.606   4.776   2.356
14029TIP3    H142030   7.551   4.774   2.278
14029TIP3    H242031   7.601   4.686   2.390
14030TIP3   OH242032   0.472   0.308   3.069
14030TIP3    H142033   0.448   0.393   3.033
14030TIP3    H242034   0.530   0.328   3.142
14031TIP3   OH242035   2.299   0.913   3.323
14031TIP3    H142036   2.337   0.847   3.264
14031TIP3    H242037   2.323   0.997   3.283
14032TIP3   OH242038   6.910   2.486   0.345
14032TIP3    H142039   6.937   2.557   0.287
14032TIP3    H242040   6.966   2.412   0.319
14033TIP3   OH242041   7.222   3.286   1.774
14033TIP3    H142042   7.161   3.215   1.753
14033TIP3    H242043   7.167   3.364   1.780
14034TIP3   OH242044   7.869   6.817   6.433
14034TIP3    H142045   7.878   6.739   6.488
14034TIP3    H242046   7.804   6.870   6.478
14035TIP3   OH242047   5.068   6.552   2.149
14035TIP3    H142048   5.092   6.571   2.240
14035TIP3    H242049   5.064   6.639   2.107
14036TIP3   OH242050   0.211   0.764   4.615
14036TIP3    H142051   0.206   0.688   4.556
14036TIP3    H242052   0.260   0.732   4.691
14037TIP3   OH242053   4.619   4.016   1.044
14037TIP3    H142054   4.571   4.087   1.002
14037TIP3    H242055   4.577   3.937   1.013
14038TIP3   OH242056   0.547   6.956   4.896
14038TIP3    H142057   0.533   6.973   4.990
14038TIP3    H242058   0.585   7.037   4.863
14039TIP3   OH242059   7.584   0.460   6.162
14039TIP3    H142060   7.538   0.436   6.081
14039TIP3    H242061   7.661   0.404   6.163
14040TIP3   OH242062   7.850   0.703   3.306
14040TIP3    H142063   7.843   0.627   3.364
14040TIP3    H242064   7.808   0.676   3.225
14041TIP3   OH242065   1.611   3.980   3.960
14041TIP3    H142066   1.571   3.899   3.991
14041TIP3    H242067   1.657   4.014   4.037
14042TIP3   OH242068   5.478   5.651   5.067
14042TIP3    H142069   5.519   5.720   5.119
14042TIP3    H242070   5.452   5.694   4.986
14043TIP3   OH242071   4.636   5.770   2.676
14043TIP3    H142072   4.623   5.685   2.719
14043TIP3    H242073   4.700   5.815   2.732
14044TIP3   OH242074   4.096   7.099   6.264
14044TIP3    H142075   4.126   7.028   6.207
14044TIP3    H242076   4.002   7.105   6.247
14045TIP3   OH242077   5.070   6.226   5.312
14045TIP3    H142078   5.158   6.242   5.279
14045TIP3    H242079   5.035   6.313   5.331
14046TIP3   OH242080   5.003   4.245   2.630
14046TIP3    H142081   5.012   4.312   2.698
14046TIP3    H242082   5.048   4.168   2.667
14047TIP3   OH242083   5.515   3.749   4.078
14047TIP3    H142084   5.427   3.776   4.104
14047TIP3    H242085   5.550   3.705   4.156
14048TIP3   OH242086   7.993   6.014   1.227
14048TIP3    H142087   8.002   5.933   1.176
14048TIP3    H242088   7.916   5.999   1.282
14049TIP3   OH242089   0.042   3.650   5.208
14049TIP3    H142090  -0.007   3.727   5.238
14049TIP3    H242091   0.056   3.598   5.287
14050TIP3   OH242092   6.618   3.351   1.016
14050TIP3    H142093   6.634   3.256   1.022
14050TIP3    H242094   6.631   3.371   0.924
14051TIP3   OH242095   3.483   1.945   5.415
14051TIP3    H142096   3.434   2.001   5.474
14051TIP3    H242097   3.525   1.881   5.472
14052TIP3   OH242098   0.926   3.317   4.916
14052TIP3    H142099   0.975   3.369   4.979
14052TIP3    H242100   0.896   3.241   4.965
14053TIP3   OH242101   3.354   1.426   1.697
14053TIP3    H142102   3.335   1.467   1.781
14053TIP3    H242103   3.402   1.492   1.648
14054TIP3   OH242104   2.410   3.079   4.294
14054TIP3    H142105   2.315   3.074   4.302
14054TIP3    H242106   2.437   2.992   4.266
14055TIP3   OH242107   3.827   2.529   6.152
14055TIP3    H142108   3.905   2.479   6.128
14055TIP3    H242109   3.784   2.546   6.068
14056TIP3   OH242110   5.484   3.395   5.201
14056TIP3    H142111   5.530   3.476   5.179
14056TIP3    H242112   5.542   3.351   5.263
14057TIP3   OH242113   5.470   7.119   2.154
14057TIP3    H142114   5.404   7.053   2.179
14057TIP3    H242115   5.497   7.158   2.236
14058TIP3   OH242116   0.908   1.197   4.681
14058TIP3    H142117   0.890   1.279   4.727
14058TIP3    H242118   0.837   1.188   4.618
14059TIP3   OH242119   0.625   7.101   6.258
14059TIP3    H142120   0.595   7.040   6.191
14059TIP3    H242121   0.628   7.186   6.214
14060TIP3   OH242122   5.108   1.932   5.506
14060TIP3    H142123   5.095   2.002   5.442
14060TIP3    H242124   5.163   1.972   5.574
14061TIP3   OH242125   3.542   6.982   0.394
14061TIP3    H142126   3.618   6.925   0.387
14061TIP3    H242127   3.467   6.925   0.379
14062TIP3   OH242128   1.767   5.826   2.033
14062TIP3    H142129   1.782   5.734   2.057
14062TIP3    H242130   1.852   5.868   2.044
14063TIP3   OH242131   2.650   1.264   0.489
14063TIP3    H142132   2.559   1.240   0.471
14063TIP3    H242133   2.646   1.311   0.573
14064TIP3   OH242134   4.192   4.401   2.976
14064TIP3    H142135   4.101   4.429   2.972
14064TIP3    H242136   4.195   4.322   2.922
14065TIP3   OH242137   4.490   2.925   2.878
14065TIP3    H142138   4.479   2.973   2.796
14065TIP3    H242139   4.572   2.958   2.915
14066TIP3   OH242140   4.076   2.900   5.644
14066TIP3    H142141   4.108   2.966   5.706
14066TIP3    H242142   3.995   2.938   5.610
14067TIP3   OH242143   8.055   0.327   6.536
14067TIP3    H142144   8.002   0.406   6.531
14067TIP3    H242145   8.052   0.290   6.448
14068TIP3   OH242146   1.880   7.734   5.174
14068TIP3    H142147   1.824   7.752   5.250
14068TIP3    H242148   1.967   7.718   5.212
14069TIP3   OH242149   4.781   6.186   1.777
14069TIP3    H142150   4.820   6.149   1.856
14069TIP3    H242151   4.828   6.144   1.705
14070TIP3   OH242152   1.735   6.990   4.080
14070TIP3    H142153   1.710   7.014   4.169
14070TIP3    H242154   1.810   7.046   4.060
14071TIP3   OH242155   4.023   6.458   2.308
14071TIP3    H142156   3.949   6.505   2.268
14071TIP3    H242157   4.059   6.519   2.372
14072TIP3   OH242158   5.559   7.358   3.362
14072TIP3    H142159   5.471   7.394   3.356
14072TIP3    H242160   5.608   7.402   3.293
14073TIP3   OH242161   5.872   3.691   1.921
14073TIP3    H142162   5.831   3.763   1.969
14073TIP3    H242163   5.911   3.732   1.844
14074TIP3   OH242164   7.416   7.740   5.656
14074TIP3    H142165   7.506   7.753   5.627
14074TIP3    H242166   7.365   7.804   5.607
14075TIP3   OH242167   1.969   6.496   3.738
14075TIP3    H142168   1.954   6.407   3.705
14075TIP3    H242169   1.885   6.540   3.728
14076TIP3   OH242170   5.029   4.794   2.012
14076TIP3    H142171   5.096   4.731   1.985
14076TIP3    H242172   4.988   4.820   1.930
14077TIP3   OH242173   0.234   6.787   5.771
14077TIP3    H142174   0.303   6.850   5.750
14077TIP3    H242175   0.280   6.704   5.785
14078TIP3   OH242176   7.992   4.367   2.350
14078TIP3    H142177   8.075   4.388   2.308
14078TIP3    H242178   7.928   4.365   2.279
14079TIP3   OH242179   5.435   1.704   5.582
14079TIP3    H142180   5.391   1.677   5.502
14079TIP3    H242181   5.366   1.702   5.649
14080TIP3   OH242182   1.526   2.419   2.379
14080TIP3    H142183   1.563   2.473   2.309
14080TIP3    H242184   1.474   2.480   2.432
14081TIP3   OH242185   4.692   4.576   2.082
14081TIP3    H142186   4.648   4.608   2.004
14081TIP3    H242187   4.707   4.655   2.134
14082TIP3   OH242188   3.996   0.922   3.339
14082TIP3    H142189   3.925   0.892   3.283
14082TIP3    H242190   4.073   0.872   3.310
14083TIP3   OH242191   2.027   4.025   4.683
14083TIP3    H142192   2.041   4.080   4.760
14083TIP3    H242193   1.979   3.949   4.716
14084TIP3   OH242194   0.144   2.309   2.460
14084TIP3    H142195   0.059   2.329   2.499
14084TIP3    H242196   0.183   2.394   2.442
14085TIP3   OH242197   2.030   6.053   5.535
14085TIP3    H142198   2.022   6.082   5.626
14085TIP3    H242199   2.104   6.103   5.501
14086TIP3   OH242200   8.066   7.115   2.328
14086TIP3    H142201   8.096   7.052   2.394
14086TIP3    H242202   7.970   7.112   2.335
14087TIP3   OH242203   0.209   7.108   2.057
14087TIP3    H142204   0.161   7.129   2.136
14087TIP3    H242205   0.200   7.013   2.048
14088TIP3   OH242206   6.923   4.841   6.549
14088TIP3    H142207   6.888   4.914   6.498
14088TIP3    H242208   6.915   4.765   6.491
14089TIP3   OH242209   5.344   7.155   5.927
14089TIP3    H142210   5.331   7.073   5.880
14089TIP3    H242211   5.302   7.221   5.871
14090TIP3   OH242212   2.879   3.593   4.513
14090TIP3    H142213   2.830   3.616   4.593
14090TIP3    H242214   2.828   3.523   4.474
14091TIP3   OH242215   2.686   7.115   5.985
14091TIP3    H142216   2.735   7.069   5.917
14091TIP3    H242217   2.655   7.195   5.943
14092TIP3   OH242218   0.400   0.203   1.741
14092TIP3    H142219   0.474   0.205   1.801
14092TIP3    H242220   0.437   0.227   1.656
14093TIP3   OH242221   2.085   0.437   2.510
14093TIP3    H142222   2.060   0.476   2.426
14093TIP3    H242223   2.032   0.483   2.575
14094TIP3   OH242224   6.886   2.520   4.379
14094TIP3    H142225   6.839   2.514   4.463
14094TIP3    H242226   6.817   2.514   4.313
14095TIP3   OH242227   8.281   0.294   4.640
14095TIP3    H142228   8.204   0.346   4.664
14095TIP3    H242229   8.348   0.319   4.703
14096TIP3   OH242230   0.375   1.638   6.485
14096TIP3    H142231   0.306   1.671   6.543
14096TIP3    H242232   0.387   1.546   6.512
14097TIP3   OH242233   3.239   6.451   2.096
14097TIP3    H142234   3.310   6.387   2.103
14097TIP3    H242235   3.233   6.490   2.184
14098TIP3   OH242236   1.540   4.273   4.168
14098TIP3    H142237   1.524   4.367   4.167
14098TIP3    H242238   1.473   4.237   4.226
14099TIP3   OH242239   5.228   1.284   6.650
14099TIP3    H142240   5.320   1.301   6.631
14099TIP3    H242241   5.217   1.190   6.638
14100TIP3   OH242242   1.987   6.210   6.486
14100TIP3    H142243   1.924   6.174   6.423
14100TIP3    H242244   1.933   6.242   6.558
14101TIP3   OH242245   1.286   4.420   6.762
14101TIP3    H142246   1.318   4.370   6.687
14101TIP3    H242247   1.347   4.493   6.769
14102TIP3   OH242248   2.329   0.512   0.799
14102TIP3    H142249   2.257   0.484   0.742
14102TIP3    H242250   2.314   0.466   0.881
14103TIP3   OH242251   4.004   7.117   1.319
14103TIP3    H142252   3.949   7.145   1.392
14103TIP3    H242253   4.082   7.173   1.325
14104TIP3   OH242254   1.676   3.737   3.758
14104TIP3    H142255   1.657   3.739   3.852
14104TIP3    H242256   1.601   3.691   3.719
14105TIP3   OH242257   6.238   2.257   6.043
14105TIP3    H142258   6.177   2.200   6.090
14105TIP3    H242259   6.186   2.334   6.019
14106TIP3   OH242260   3.087   2.383   1.335
14106TIP3    H142261   3.061   2.356   1.423
14106TIP3    H242262   3.005   2.402   1.290
14107TIP3   OH242263   3.655   0.177   2.728
14107TIP3    H142264   3.604   0.117   2.672
14107TIP3    H242265   3.645   0.141   2.816
14108TIP3   OH242266   0.586   6.371   6.308
14108TIP3    H142267   0.567   6.311   6.236
14108TIP3    H242268   0.612   6.314   6.380
14109TIP3   OH242269   3.305   6.099   4.975
14109TIP3    H142270   3.354   6.020   4.953
14109TIP3    H242271   3.226   6.094   4.921
14110TIP3   OH242272   4.033   2.215   6.688
14110TIP3    H142273   3.979   2.162   6.747
14110TIP3    H242274   4.081   2.152   6.635
14111TIP3   OH242275   4.835   1.221   0.239
14111TIP3    H142276   4.776   1.263   0.176
14111TIP3    H242277   4.779   1.190   0.309
14112TIP3   OH242278   3.934   2.736   4.603
14112TIP3    H142279   3.844   2.766   4.614
14112TIP3    H242280   3.926   2.648   4.565
14113TIP3   OH242281   7.567   2.682   1.079
14113TIP3    H142282   7.510   2.676   1.003
14113TIP3    H242283   7.556   2.773   1.109
14114TIP3   OH242284   2.441   4.477   0.179
14114TIP3    H142285   2.532   4.502   0.161
14114TIP3    H242286   2.424   4.404   0.119
14115TIP3   OH242287   0.198   2.187   0.215
14115TIP3    H142288   0.279   2.209   0.168
14115TIP3    H242289   0.221   2.194   0.307
14116TIP3   OH242290   3.602   3.884   0.608
14116TIP3    H142291   3.612   3.807   0.663
14116TIP3    H242292   3.510   3.883   0.580
14117TIP3   OH242293   8.155   1.816   5.603
14117TIP3    H142294   8.221   1.882   5.584
14117TIP3    H242295   8.182   1.740   5.552
14118TIP3   OH242296   5.150   4.984   4.428
14118TIP3    H142297   5.057   4.986   4.407
14118TIP3    H242298   5.194   4.977   4.344
14119TIP3   OH242299   5.531   1.948   5.509
14119TIP3    H142300   5.504   1.944   5.417
14119TIP3    H242301   5.508   1.862   5.545
14120TIP3   OH242302   1.346   6.154   3.921
14120TIP3    H142303   1.256   6.160   3.890
14120TIP3    H242304   1.356   6.229   3.980
14121TIP3   OH242305   5.612   6.374   1.045
14121TIP3    H142306   5.642   6.284   1.032
14121TIP3    H242307   5.547   6.387   0.975
14122TIP3   OH242308   0.461   7.681   0.618
14122TIP3    H142309   0.556   7.677   0.628
14122TIP3    H242310   0.431   7.593   0.639
14123TIP3   OH242311   0.291   2.219   6.050
14123TIP3    H142312   0.364   2.202   5.990
14123TIP3    H242313   0.333   2.255   6.128
14124TIP3   OH242314   7.266   4.894   1.442
14124TIP3    H142315   7.246   4.853   1.526
14124TIP3    H242316   7.279   4.821   1.381
14125TIP3   OH242317   3.517   1.644   2.460
14125TIP3    H142318   3.479   1.730   2.474
14125TIP3    H242319   3.489   1.620   2.372
14126TIP3   OH242320   7.895   1.694   0.890
14126TIP3    H142321   7.966   1.681   0.953
14126TIP3    H242322   7.823   1.730   0.943
14127TIP3   OH242323   3.222   4.931   4.827
14127TIP3    H142324   3.240   5.005   4.768
14127TIP3    H242325   3.307   4.890   4.840
14128TIP3   OH242326   0.490   3.939   3.051
14128TIP3    H142327   0.522   4.026   3.074
14128TIP3    H242328   0.435   3.914   3.125
14129TIP3   OH242329   6.332   7.428   6.663
14129TIP3    H142330   6.351   7.503   6.606
14129TIP3    H242331   6.236   7.422   6.663
14130TIP3   OH242332   4.773   3.744   1.817
14130TIP3    H142333   4.818   3.826   1.839
14130TIP3    H242334   4.713   3.768   1.746
14131TIP3   OH242335   7.403   0.949   0.628
14131TIP3    H142336   7.453   0.980   0.552
14131TIP3    H242337   7.417   0.854   0.629
14132TIP3   OH242338   4.022   7.164   0.535
14132TIP3    H142339   4.105   7.163   0.582
14132TIP3    H242340   4.011   7.256   0.508
14133TIP3   OH242341   6.033   3.050   2.835
14133TIP3    H142342   6.048   3.111   2.907
14133TIP3    H242343   5.996   2.972   2.876
14134TIP3   OH242344   5.736   6.470   1.803
14134TIP3    H142345   5.696   6.547   1.843
14134TIP3    H242346   5.689   6.459   1.720
14135TIP3   OH242347   4.812   3.188   3.414
14135TIP3    H142348   4.760   3.221   3.488
14135TIP3    H242349   4.893   3.238   3.418
14136TIP3   OH242350   3.406   5.299   3.294
14136TIP3    H142351   3.427   5.223   3.348
14136TIP3    H242352   3.380   5.366   3.357
14137TIP3   OH242353   7.521   2.786   3.494
14137TIP3    H142354   7.469   2.857   3.456
14137TIP3    H242355   7.466   2.750   3.564
14138TIP3   OH242356   4.636   7.553   0.669
14138TIP3    H142357   4.678   7.484   0.618
14138TIP3    H242358   4.644   7.631   0.615
14139TIP3   OH242359   1.972   0.404   1.830
14139TIP3    H142360   2.038   0.337   1.847
14139TIP3    H242361   2.007   0.455   1.757
14140TIP3   OH242362   3.810   7.074   5.445
14140TIP3    H142363   3.751   7.033   5.508
14140TIP3    H242364   3.751   7.111   5.379
14141TIP3   OH242365   5.555   5.782   2.544
14141TIP3    H142366   5.496   5.708   2.531
14141TIP3    H242367   5.608   5.785   2.465
14142TIP3   OH242368   0.165   6.356   1.791
14142TIP3    H142369   0.102   6.398   1.733
14142TIP3    H242370   0.132   6.267   1.803
14143TIP3   OH242371   3.943   7.133   1.045
14143TIP3    H142372   3.969   7.144   1.136
14143TIP3    H242373   3.921   7.221   1.015
14144TIP3   OH242374   2.054   2.876   0.218
14144TIP3    H142375   1.997   2.931   0.165
14144TIP3    H242376   2.028   2.895   0.308
14145TIP3   OH242377   5.319   7.522   1.689
14145TIP3    H142378   5.262   7.597   1.711
14145TIP3    H242379   5.343   7.537   1.598
14146TIP3   OH242380   0.893   6.535   4.991
14146TIP3    H142381   0.918   6.487   4.912
14146TIP3    H242382   0.949   6.501   5.060
14147TIP3   OH242383   5.458   7.386   4.066
14147TIP3    H142384   5.529   7.402   4.128
14147TIP3    H242385   5.381   7.423   4.109
14148TIP3   OH242386   7.896   4.574   0.688
14148TIP3    H142387   7.815   4.624   0.674
14148TIP3    H242388   7.962   4.623   0.639
14149TIP3   OH242389   2.136   2.461   1.048
14149TIP3    H142390   2.078   2.419   0.984
14149TIP3    H242391   2.079   2.483   1.121
14150TIP3   OH242392   7.523   4.977   4.466
14150TIP3    H142393   7.470   5.043   4.511
14150TIP3    H242394   7.461   4.909   4.441
14151TIP3   OH242395   1.550   4.326   5.048
14151TIP3    H142396   1.583   4.262   5.111
14151TIP3    H242397   1.524   4.401   5.101
14152TIP3   OH242398   5.565   5.861   0.907
14152TIP3    H142399   5.518   5.800   0.964
14152TIP3    H242400   5.596   5.807   0.834
14153TIP3   OH242401   1.484   5.649   1.784
14153TIP3    H142402   1.417   5.702   1.827
14153TIP3    H242403   1.563   5.705   1.785
14154TIP3   OH242404   1.096   6.129   5.684
14154TIP3    H142405   1.152   6.175   5.622
14154TIP3    H242406   1.008   6.136   5.647
14155TIP3   OH242407   4.381   3.366   2.582
14155TIP3    H142408   4.303   3.362   2.525
14155TIP3    H242409   4.454   3.375   2.521
14156TIP3   OH242410   0.812   1.655   5.437
14156TIP3    H142411   0.764   1.734   5.412
14156TIP3    H242412   0.746   1.597   5.474
14157TIP3   OH242413   1.480   1.084   1.510
14157TIP3    H142414   1.445   1.081   1.599
14157TIP3    H242415   1.526   1.168   1.504
14158TIP3   OH242416   5.771   4.934   3.947
14158TIP3    H142417   5.760   4.920   3.853
14158TIP3    H242418   5.733   4.856   3.987
14159TIP3   OH242419   0.054   5.790   4.446
14159TIP3    H142420   0.113   5.865   4.439
14159TIP3    H242421   0.013   5.785   4.360
14160TIP3   OH242422   6.086   2.490   1.853
14160TIP3    H142423   6.014   2.429   1.868
14160TIP3    H242424   6.069   2.528   1.767
14161TIP3   OH242425   4.687   5.430   3.032
14161TIP3    H142426   4.716   5.342   3.008
14161TIP3    H242427   4.752   5.460   3.096
14162TIP3   OH242428   5.642   0.967   2.344
14162TIP3    H142429   5.551   0.940   2.351
14162TIP3    H242430   5.677   0.959   2.432
14163TIP3   OH242431   2.299   5.185   4.581
14163TIP3    H142432   2.298   5.275   4.614
14163TIP3    H242433   2.371   5.184   4.518
14164TIP3   OH242434   2.427   2.684   5.605
14164TIP3    H142435   2.519   2.671   5.581
14164TIP3    H242436   2.386   2.599   5.590
14165TIP3   OH242437   3.738   6.120   4.978
14165TIP3    H142438   3.686   6.114   4.897
14165TIP3    H242439   3.685   6.075   5.043
14166TIP3   OH242440   2.775   3.514   0.862
14166TIP3    H142441   2.737   3.584   0.915
14166TIP3    H242442   2.813   3.558   0.786
14167TIP3   OH242443   0.271   6.989   2.438
14167TIP3    H142444   0.191   6.938   2.425
14167TIP3    H242445   0.341   6.929   2.414
14168TIP3   OH242446   3.004   0.813   1.695
14168TIP3    H142447   3.001   0.880   1.764
14168TIP3    H242448   3.076   0.841   1.638
14169TIP3   OH242449   1.242   6.671   1.841
14169TIP3    H142450   1.289   6.602   1.887
14169TIP3    H242451   1.309   6.718   1.792
14170TIP3   OH242452   3.916   1.180   4.830
14170TIP3    H142453   3.975   1.254   4.842
14170TIP3    H242454   3.878   1.164   4.917
14171TIP3   OH242455   2.022   1.980   1.302
14171TIP3    H142456   2.017   1.921   1.227
14171TIP3    H242457   2.091   2.042   1.279
14172TIP3   OH242458   2.229   7.059   0.804
14172TIP3    H142459   2.134   7.058   0.797
14172TIP3    H242460   2.256   6.968   0.794
14173TIP3   OH242461   4.801   0.273   4.053
14173TIP3    H142462   4.705   0.264   4.051
14173TIP3    H242463   4.819   0.322   4.133
14174TIP3   OH242464   5.198   6.138   2.306
14174TIP3    H142465   5.113   6.180   2.292
14174TIP3    H242466   5.256   6.180   2.243
14175TIP3   OH242467   1.541   7.524   4.437
14175TIP3    H142468   1.529   7.513   4.531
14175TIP3    H242469   1.633   7.551   4.427
14176TIP3   OH242470   4.656   2.311   0.533
14176TIP3    H142471   4.672   2.231   0.584
14176TIP3    H242472   4.713   2.303   0.457
14177TIP3   OH242473   0.752   6.198   4.414
14177TIP3    H142474   0.786   6.249   4.340
14177TIP3    H242475   0.779   6.108   4.395
14178TIP3   OH242476   2.274   7.123   5.639
14178TIP3    H142477   2.216   7.089   5.571
14178TIP3    H242478   2.216   7.140   5.714
14179TIP3   OH242479   5.147   5.468   1.389
14179TIP3    H142480   5.162   5.460   1.483
14179TIP3    H242481   5.179   5.556   1.367
14180TIP3   OH242482   3.722   1.690   1.056
14180TIP3    H142483   3.797   1.659   1.005
14180TIP3    H242484   3.647   1.682   0.997
14181TIP3   OH242485   5.029   0.990   1.792
14181TIP3    H142486   4.972   1.014   1.864
14181TIP3    H242487   5.076   0.912   1.823
14182TIP3   OH242488   3.150   2.894   5.745
14182TIP3    H142489   3.224   2.879   5.688
14182TIP3    H242490   3.186   2.889   5.834
14183TIP3   OH242491   4.373   2.423   0.750
14183TIP3    H142492   4.385   2.516   0.733
14183TIP3    H242493   4.371   2.382   0.663
14184TIP3   OH242494   8.148   7.685   2.418
14184TIP3    H142495   8.124   7.725   2.501
14184TIP3    H242496   8.088   7.611   2.408
14185TIP3   OH242497   3.078   4.587   6.456
14185TIP3    H142498   3.029   4.522   6.506
14185TIP3    H242499   3.061   4.564   6.364
14186TIP3   OH242500   1.971   2.818   0.947
14186TIP3    H142501   1.915   2.742   0.929
14186TIP3    H242502   1.931   2.890   0.898
14187TIP3   OH242503   2.682   2.093   5.564
14187TIP3    H142504   2.670   2.179   5.604
14187TIP3    H242505   2.769   2.065   5.592
14188TIP3   OH242506   2.814   7.468   4.869
14188TIP3    H142507   2.732   7.518   4.865
14188TIP3    H242508   2.877   7.529   4.908
14189TIP3   OH242509   3.992   7.798   4.756
14189TIP3    H142510   3.972   7.844   4.838
14189TIP3    H242511   3.971   7.707   4.774
14190TIP3   OH242512   4.891   4.580   1.854
14190TIP3    H142513   4.985   4.582   1.836
14190TIP3    H242514   4.877   4.499   1.903
14191TIP3   OH242515   6.605   0.325   5.480
14191TIP3    H142516   6.525   0.324   5.532
14191TIP3    H242517   6.585   0.272   5.403
14192TIP3   OH242518   0.087   5.577   5.884
14192TIP3    H142519   0.014   5.637   5.871
14192TIP3    H242520   0.094   5.567   5.979
14193TIP3   OH242521   0.173   4.395   6.381
14193TIP3    H142522   0.083   4.364   6.387
14193TIP3    H242523   0.225   4.316   6.365
14194TIP3   OH242524   2.889   2.645   2.420
14194TIP3    H142525   2.898   2.596   2.339
14194TIP3    H242526   2.826   2.594   2.472
14195TIP3   OH242527   6.389   3.495   3.337
14195TIP3    H142528   6.478   3.474   3.308
14195TIP3    H242529   6.346   3.526   3.257
14196TIP3   OH242530   4.472   4.087   2.384
14196TIP3    H142531   4.491   4.054   2.296
14196TIP3    H242532   4.448   4.179   2.370
14197TIP3   OH242533   1.870   7.517   5.908
14197TIP3    H142534   1.927   7.457   5.956
14197TIP3    H242535   1.827   7.462   5.843
14198TIP3   OH242536   4.552   5.831   1.582
14198TIP3    H142537   4.493   5.877   1.642
14198TIP3    H242538   4.586   5.900   1.525
14199TIP3   OH242539   2.933   4.175   5.963
14199TIP3    H142540   2.993   4.130   6.023
14199TIP3    H242541   2.890   4.105   5.914
14200TIP3   OH242542   0.384   7.245   2.994
14200TIP3    H142543   0.337   7.256   3.076
14200TIP3    H242544   0.454   7.182   3.014
14201TIP3   OH242545   7.835   7.582   2.400
14201TIP3    H142546   7.776   7.657   2.389
14201TIP3    H242547   7.847   7.547   2.312
14202TIP3   OH242548   3.134   6.618   3.960
14202TIP3    H142549   3.100   6.707   3.963
14202TIP3    H242550   3.188   6.616   3.881
14203TIP3   OH242551   2.255   6.400   2.119
14203TIP3    H142552   2.200   6.338   2.167
14203TIP3    H242553   2.222   6.396   2.029
14204TIP3   OH242554   6.466   5.093   2.353
14204TIP3    H142555   6.404   5.046   2.297
14204TIP3    H242556   6.511   5.025   2.403
14205TIP3   OH242557   6.856   4.501   0.023
14205TIP3    H142558   6.857   4.446  -0.055
14205TIP3    H242559   6.918   4.571   0.004
14206TIP3   OH242560   2.981   7.275   3.274
14206TIP3    H142561   2.977   7.182   3.296
14206TIP3    H242562   3.019   7.316   3.351
14207TIP3   OH242563   4.666   4.322   2.201
14207TIP3    H142564   4.674   4.410   2.166
14207TIP3    H242565   4.632   4.334   2.289
14208TIP3   OH242566   5.173   3.916   3.582
14208TIP3    H142567   5.102   3.869   3.626
14208TIP3    H242568   5.212   3.852   3.522
14209TIP3   OH242569   1.464   1.369   0.825
14209TIP3    H142570   1.429   1.447   0.869
14209TIP3    H242571   1.550   1.396   0.794
14210TIP3   OH242572   0.376   7.592   4.587
14210TIP3    H142573   0.355   7.499   4.601
14210TIP3    H242574   0.456   7.606   4.638
14211TIP3   OH242575   7.021   3.864   6.611
14211TIP3    H142576   6.981   3.925   6.549
14211TIP3    H242577   7.017   3.779   6.567
14212TIP3   OH242578   1.921   0.365   5.837
14212TIP3    H142579   1.947   0.284   5.881
14212TIP3    H242580   1.985   0.430   5.867
14213TIP3   OH242581   4.753   4.596   6.485
14213TIP3    H142582   4.738   4.691   6.487
14213TIP3    H242583   4.669   4.559   6.457
14214TIP3   OH242584   1.355   1.027   0.478
14214TIP3    H142585   1.446   0.997   0.486
14214TIP3    H242586   1.358   1.119   0.504
14215TIP3   OH242587   0.755   1.397   3.952
14215TIP3    H142588   0.781   1.431   3.867
14215TIP3    H242589   0.815   1.324   3.968
14216TIP3   OH242590   4.572   1.069   3.712
14216TIP3    H142591   4.587   0.975   3.704
14216TIP3    H242592   4.556   1.084   3.805
14217TIP3   OH242593   2.532   7.788   0.021
14217TIP3    H142594   2.459   7.848   0.003
14217TIP3    H242595   2.598   7.842   0.064
14218TIP3   OH242596   2.257   3.363   4.375
14218TIP3    H142597   2.207   3.287   4.346
14218TIP3    H242598   2.197   3.410   4.433
14219TIP3   OH242599   3.699   5.829   3.036
14219TIP3    H142600   3.734   5.871   3.114
14219TIP3    H242601   3.663   5.901   2.984
14220TIP3   OH242602   3.783   2.455   1.593
14220TIP3    H142603   3.744   2.377   1.632
14220TIP3    H242604   3.717   2.524   1.604
14221TIP3   OH242605   7.714   2.694   2.292
14221TIP3    H142606   7.735   2.725   2.380
14221TIP3    H242607   7.712   2.599   2.299
14222TIP3   OH242608   3.231   6.773   4.576
14222TIP3    H142609   3.265   6.861   4.594
14222TIP3    H242610   3.257   6.755   4.486
14223TIP3   OH242611   5.976   1.213   3.062
14223TIP3    H142612   5.908   1.278   3.045
14223TIP3    H242613   5.957   1.180   3.149
14224TIP3   OH242614   3.097   2.944   2.365
14224TIP3    H142615   3.094   2.911   2.455
14224TIP3    H242616   3.090   3.039   2.374
14225TIP3   OH242617   3.798   7.046   0.641
14225TIP3    H142618   3.850   6.970   0.666
14225TIP3    H242619   3.859   7.101   0.592
14226TIP3   OH242620   2.088   6.808   0.994
14226TIP3    H142621   2.132   6.761   1.066
14226TIP3    H242622   2.124   6.769   0.915
14227TIP3   OH242623   2.252   3.740   2.533
14227TIP3    H142624   2.289   3.681   2.599
14227TIP3    H242625   2.314   3.813   2.529
14228TIP3   OH242626   7.154   5.900   4.209
14228TIP3    H142627   7.217   5.828   4.210
14228TIP3    H242628   7.151   5.928   4.117
14229TIP3   OH242629   0.633   3.600   1.102
14229TIP3    H142630   0.547   3.570   1.133
14229TIP3    H242631   0.664   3.657   1.173
14230TIP3   OH242632   0.330   3.206   2.878
14230TIP3    H142633   0.416   3.222   2.839
14230TIP3    H242634   0.348   3.149   2.953
14231TIP3   OH242635   6.802   2.808   0.558
14231TIP3    H142636   6.772   2.743   0.622
14231TIP3    H242637   6.897   2.809   0.568
14232TIP3   OH242638   0.141   4.754   4.800
14232TIP3    H142639   0.079   4.821   4.829
14232TIP3    H242640   0.116   4.676   4.850
14233TIP3   OH242641   3.419   5.100   3.489
14233TIP3    H142642   3.446   5.149   3.568
14233TIP3    H242643   3.497   5.052   3.463
14234TIP3   OH242644   1.129   0.597   0.326
14234TIP3    H142645   1.175   0.668   0.370
14234TIP3    H242646   1.198   0.534   0.303
14235TIP3   OH242647   5.404   5.380   6.142
14235TIP3    H142648   5.408   5.292   6.178
14235TIP3    H242649   5.450   5.434   6.206
14236TIP3   OH242650   7.982   1.857   3.282
14236TIP3    H142651   7.928   1.780   3.303
14236TIP3    H242652   7.923   1.913   3.232
14237TIP3   OH242653   7.950   6.986   4.620
14237TIP3    H142654   7.998   6.937   4.687
14237TIP3    H242655   7.967   7.078   4.642
14238TIP3   OH242656   4.642   0.004   6.722
14238TIP3    H142657   4.634   0.072   6.789
14238TIP3    H242658   4.611   0.045   6.642
14239TIP3   OH242659   2.656   7.595   1.804
14239TIP3    H142660   2.739   7.609   1.758
14239TIP3    H242661   2.602   7.670   1.779
14240TIP3   OH242662   1.565   0.732   0.982
14240TIP3    H142663   1.500   0.743   0.913
14240TIP3    H242664   1.513   0.718   1.062
14241TIP3   OH242665   1.513   6.444   5.430
14241TIP3    H142666   1.501   6.403   5.344
14241TIP3    H242667   1.516   6.538   5.412
14242TIP3   OH242668  -0.019   2.744   6.269
14242TIP3    H142669   0.018   2.702   6.347
14242TIP3    H242670  -0.031   2.672   6.207
14243TIP3   OH242671   5.468   3.992   2.845
14243TIP3    H142672   5.439   4.046   2.918
14243TIP3    H242673   5.388   3.971   2.796
14244TIP3   OH242674   7.728   3.955   2.214
14244TIP3    H142675   7.741   3.894   2.142
14244TIP3    H242676   7.633   3.952   2.231
14245TIP3   OH242677   5.830   6.779   6.013
14245TIP3    H142678   5.812   6.697   6.059
14245TIP3    H242679   5.857   6.752   5.925
14246TIP3   OH242680   4.795   4.172   2.885
14246TIP3    H142681   4.789   4.167   2.790
14246TIP3    H242682   4.765   4.260   2.906
14247TIP3   OH242683   5.771   1.957   3.345
14247TIP3    H142684   5.847   1.913   3.306
14247TIP3    H242685   5.706   1.887   3.356
14248TIP3   OH242686   3.803   6.356   6.578
14248TIP3    H142687   3.791   6.443   6.541
14248TIP3    H242688   3.819   6.300   6.503
14249TIP3   OH242689   3.640   5.613   1.882
14249TIP3    H142690   3.612   5.696   1.844
14249TIP3    H242691   3.723   5.594   1.838
14250TIP3   OH242692   0.385   1.780   1.979
14250TIP3    H142693   0.321   1.723   1.935
14250TIP3    H242694   0.372   1.866   1.940
14251TIP3   OH242695   8.240   2.877   3.033
14251TIP3    H142696   8.241   2.897   3.126
14251TIP3    H242697   8.160   2.918   3.001
14252TIP3   OH242698   4.239   6.499   4.316
14252TIP3    H142699   4.184   6.453   4.252
14252TIP3    H242700   4.229   6.592   4.294
14253TIP3   OH242701   6.242   0.555   4.551
14253TIP3    H142702   6.194   0.607   4.616
14253TIP3    H242703   6.333   0.579   4.564
14254TIP3   OH242704   6.288   1.290   6.562
14254TIP3    H142705   6.338   1.365   6.593
14254TIP3    H242706   6.235   1.264   6.637
14255TIP3   OH242707   2.926   1.825   3.841
14255TIP3    H142708   2.878   1.906   3.861
14255TIP3    H242709   2.865   1.755   3.863
14256TIP3   OH242710   7.172   1.661   0.900
14256TIP3    H142711   7.221   1.716   0.963
14256TIP3    H242712   7.133   1.724   0.840
14257TIP3   OH242713   3.654   5.480   1.259
14257TIP3    H142714   3.739   5.441   1.237
14257TIP3    H242715   3.677   5.555   1.314
14258TIP3   OH242716   5.704   1.153   4.164
14258TIP3    H142717   5.667   1.087   4.223
14258TIP3    H242718   5.636   1.166   4.098
14259TIP3   OH242719   7.376   2.219   5.311
14259TIP3    H142720   7.322   2.170   5.374
14259TIP3    H242721   7.339   2.197   5.226
14260TIP3   OH242722   2.550   2.697   5.095
14260TIP3    H142723   2.581   2.782   5.064
14260TIP3    H242724   2.573   2.636   5.025
14261TIP3   OH242725   2.456   5.362   3.067
14261TIP3    H142726   2.448   5.310   2.987
14261TIP3    H242727   2.509   5.438   3.041
14262TIP3   OH242728   5.743   0.497   0.723
14262TIP3    H142729   5.798   0.527   0.796
14262TIP3    H242730   5.800   0.504   0.647
14263TIP3   OH242731   4.358   3.304   1.144
14263TIP3    H142732   4.413   3.338   1.215
14263TIP3    H242733   4.386   3.354   1.067
14264TIP3   OH242734   6.679   4.963   1.480
14264TIP3    H142735   6.669   5.006   1.395
14264TIP3    H242736   6.660   4.871   1.463
14265TIP3   OH242737   2.866   0.295   6.163
14265TIP3    H142738   2.860   0.275   6.256
14265TIP3    H242739   2.955   0.331   6.152
14266TIP3   OH242740   0.068   6.238   4.867
14266TIP3    H142741   0.019   6.259   4.787
14266TIP3    H242742   0.005   6.249   4.938
14267TIP3   OH242743   0.476   2.383   6.280
14267TIP3    H142744   0.389   2.422   6.291
14267TIP3    H242745   0.513   2.430   6.205
14268TIP3   OH242746   0.184   3.585   4.979
14268TIP3    H142747   0.143   3.635   5.050
14268TIP3    H242748   0.197   3.497   5.015
14269TIP3   OH242749   2.093   6.703   2.102
14269TIP3    H142750   2.104   6.727   2.194
14269TIP3    H242751   2.181   6.714   2.064
14270TIP3   OH242752   2.124   3.637   0.111
14270TIP3    H142753   2.141   3.544   0.097
14270TIP3    H242754   2.107   3.671   0.023
14271TIP3   OH242755   5.796   0.757   6.628
14271TIP3    H142756   5.821   0.720   6.543
14271TIP3    H242757   5.875   0.753   6.681
14272TIP3   OH242758   6.752   2.306   2.653
14272TIP3    H142759   6.824   2.251   2.621
14272TIP3    H242760   6.770   2.393   2.615
14273TIP3   OH242761   6.921   2.920   0.897
14273TIP3    H142762   6.999   2.887   0.853
14273TIP3    H242763   6.875   2.971   0.829
14274TIP3   OH242764   7.440   3.408   6.593
14274TIP3    H142765   7.433   3.423   6.687
14274TIP3    H242766   7.534   3.417   6.574
14275TIP3   OH242767   5.248   3.531   0.854
14275TIP3    H142768   5.327   3.479   0.843
14275TIP3    H242769   5.279   3.617   0.882
14276TIP3   OH242770   1.427   5.016   6.058
14276TIP3    H142771   1.437   4.950   6.127
14276TIP3    H242772   1.475   5.092   6.090
14277TIP3   OH242773   6.205   6.922   3.174
14277TIP3    H142774   6.256   7.001   3.196
14277TIP3    H242775   6.263   6.849   3.197
14278TIP3   OH242776   5.709   4.199   3.891
14278TIP3    H142777   5.662   4.120   3.920
14278TIP3    H242778   5.685   4.208   3.799
14279TIP3   OH242779   6.599   3.780   1.410
14279TIP3    H142780   6.560   3.751   1.327
14279TIP3    H242781   6.539   3.846   1.443
14280TIP3   OH242782   7.176   4.816   5.585
14280TIP3    H142783   7.222   4.872   5.522
14280TIP3    H242784   7.115   4.766   5.531
14281TIP3   OH242785   5.102   5.334   3.404
14281TIP3    H142786   5.069   5.245   3.390
14281TIP3    H242787   5.139   5.359   3.319
14282TIP3   OH242788   6.835   5.178   6.421
14282TIP3    H142789   6.924   5.190   6.455
14282TIP3    H242790   6.809   5.264   6.390
14283TIP3   OH242791   6.157   1.245   0.361
14283TIP3    H142792   6.179   1.234   0.269
14283TIP3    H242793   6.121   1.160   0.388
14284TIP3   OH242794   2.111   6.513   2.442
14284TIP3    H142795   2.041   6.503   2.377
14284TIP3    H242796   2.172   6.575   2.402
14285TIP3   OH242797   0.463   6.817   3.919
14285TIP3    H142798   0.458   6.750   3.986
14285TIP3    H242799   0.533   6.789   3.861
14286TIP3   OH242800   2.710   1.702   3.913
14286TIP3    H142801   2.638   1.735   3.967
14286TIP3    H242802   2.756   1.640   3.969
14287TIP3   OH242803   2.282   7.272   0.617
14287TIP3    H142804   2.191   7.278   0.590
14287TIP3    H242805   2.284   7.198   0.677
14288TIP3   OH242806   4.576   1.747   6.598
14288TIP3    H142807   4.630   1.818   6.561
14288TIP3    H242808   4.636   1.699   6.655
14289TIP3   OH242809   6.954   7.117   5.393
14289TIP3    H142810   7.022   7.050   5.394
14289TIP3    H242811   6.899   7.096   5.468
14290TIP3   OH242812   5.121   0.620   4.756
14290TIP3    H142813   5.207   0.578   4.750
14290TIP3    H242814   5.121   0.686   4.686
14291TIP3   OH242815   4.338   0.658   0.263
14291TIP3    H142816   4.250   0.622   0.259
14291TIP3    H242817   4.385   0.602   0.324
14292TIP3   OH242818   8.061   6.541   6.643
14292TIP3    H142819   8.101   6.479   6.582
14292TIP3    H242820   7.968   6.543   6.619
14293TIP3   OH242821   8.065   2.111   3.849
14293TIP3    H142822   8.097   2.192   3.810
14293TIP3    H242823   7.972   2.109   3.827
14294TIP3   OH242824   1.393   5.898   0.369
14294TIP3    H142825   1.345   5.964   0.318
14294TIP3    H242826   1.327   5.831   0.388
14295TIP3   OH242827   6.542   2.804   0.922
14295TIP3    H142828   6.594   2.764   0.853
14295TIP3    H242829   6.466   2.747   0.932
14296TIP3   OH242830   2.220   4.484   0.989
14296TIP3    H142831   2.187   4.415   1.046
14296TIP3    H242832   2.305   4.508   1.027
14297TIP3   OH242833   5.823   5.007   1.167
14297TIP3    H142834   5.873   4.994   1.087
14297TIP3    H242835   5.890   5.009   1.236
14298TIP3   OH242836   2.448   4.838   4.326
14298TIP3    H142837   2.524   4.897   4.327
14298TIP3    H242838   2.405   4.856   4.243
14299TIP3   OH242839   8.223   0.869   5.206
14299TIP3    H142840   8.148   0.828   5.163
14299TIP3    H242841   8.289   0.875   5.137
14300TIP3   OH242842   8.023   7.211   3.470
14300TIP3    H142843   8.090   7.234   3.535
14300TIP3    H242844   8.002   7.119   3.489
14301TIP3   OH242845   6.665   0.577   0.876
14301TIP3    H142846   6.604   0.513   0.914
14301TIP3    H242847   6.751   0.538   0.889
14302TIP3   OH242848   0.260   6.609   0.357
14302TIP3    H142849   0.180   6.562   0.378
14302TIP3    H242850   0.324   6.541   0.337
14303TIP3   OH242851   7.750   7.111   2.315
14303TIP3    H142852   7.764   7.159   2.233
14303TIP3    H242853   7.659   7.129   2.339
14304TIP3   OH242854   4.202   0.976   0.778
14304TIP3    H142855   4.176   0.935   0.696
14304TIP3    H242856   4.119   1.003   0.818
14305TIP3   OH242857   4.794   4.516   4.984
14305TIP3    H142858   4.809   4.478   5.070
14305TIP3    H242859   4.699   4.510   4.971
14306TIP3   OH242860   2.339   6.198   4.210
14306TIP3    H142861   2.309   6.245   4.287
14306TIP3    H242862   2.382   6.120   4.245
14307TIP3   OH242863   0.294   3.026   1.365
14307TIP3    H142864   0.347   3.065   1.295
14307TIP3    H242865   0.205   3.025   1.330
14308TIP3   OH242866   1.352   5.842   5.785
14308TIP3    H142867   1.388   5.809   5.702
14308TIP3    H242868   1.386   5.932   5.791
14309TIP3   OH242869   2.693   3.434   5.959
14309TIP3    H142870   2.612   3.426   5.910
14309TIP3    H242871   2.739   3.351   5.944
14310TIP3   OH242872   5.412   6.293   3.425
14310TIP3    H142873   5.355   6.328   3.494
14310TIP3    H242874   5.500   6.323   3.450
14311TIP3   OH242875   0.158   5.629   5.473
14311TIP3    H142876   0.191   5.715   5.498
14311TIP3    H242877   0.230   5.569   5.495
14312TIP3   OH242878   3.771   1.936   0.863
14312TIP3    H142879   3.763   1.946   0.958
14312TIP3    H242880   3.860   1.964   0.843
14313TIP3   OH242881   1.240   0.842   4.677
14313TIP3    H142882   1.216   0.912   4.738
14313TIP3    H242883   1.326   0.868   4.644
14314TIP3   OH242884   2.292   0.914   5.003
14314TIP3    H142885   2.277   1.008   4.996
14314TIP3    H242886   2.217   0.882   5.054
14315TIP3   OH242887   5.377   6.909   4.076
14315TIP3    H142888   5.321   6.832   4.068
14315TIP3    H242889   5.378   6.947   3.987
14316TIP3   OH242890   1.150   5.977   5.930
14316TIP3    H142891   1.129   6.037   5.858
14316TIP3    H242892   1.237   5.943   5.909
14317TIP3   OH242893   4.634   5.737   6.412
14317TIP3    H142894   4.711   5.682   6.425
14317TIP3    H242895   4.588   5.734   6.496
14318TIP3   OH242896   0.841   0.145   3.326
14318TIP3    H142897   0.763   0.094   3.303
14318TIP3    H242898   0.902   0.130   3.253
14319TIP3   OH242899   2.012   1.362   5.842
14319TIP3    H142900   1.986   1.430   5.779
14319TIP3    H242901   2.100   1.387   5.869
14320TIP3   OH242902   6.382   6.380   1.342
14320TIP3    H142903   6.371   6.452   1.405
14320TIP3    H242904   6.350   6.416   1.259
14321TIP3   OH242905   5.204   2.701   3.478
14321TIP3    H142906   5.176   2.732   3.564
14321TIP3    H242907   5.290   2.662   3.494
14322TIP3   OH242908   0.089   2.514   4.118
14322TIP3    H142909   0.157   2.578   4.097
14322TIP3    H242910   0.115   2.435   4.071
14323TIP3   OH242911   7.802   3.617   0.091
14323TIP3    H142912   7.829   3.545   0.148
14323TIP3    H242913   7.812   3.696   0.145
14324TIP3   OH242914   7.771   0.262   1.288
14324TIP3    H142915   7.781   0.166   1.282
14324TIP3    H242916   7.734   0.277   1.374
14325TIP3   OH242917   7.840   2.540   4.433
14325TIP3    H142918   7.890   2.597   4.376
14325TIP3    H242919   7.891   2.459   4.437
14326TIP3   OH242920   7.344   4.585   5.312
14326TIP3    H142921   7.385   4.647   5.251
14326TIP3    H242922   7.344   4.502   5.265
14327TIP3   OH242923   6.734   2.193   5.955
14327TIP3    H142924   6.765   2.112   5.995
14327TIP3    H242925   6.657   2.218   6.007
14328TIP3   OH242926   3.920   3.051   1.416
14328TIP3    H142927   3.894   3.130   1.368
14328TIP3    H242928   3.907   2.980   1.353
14329TIP3   OH242929   1.487   7.596   2.638
14329TIP3    H142930   1.456   7.622   2.551
14329TIP3    H242931   1.454   7.507   2.649
14330TIP3   OH242932   1.199   1.482   6.157
14330TIP3    H142933   1.287   1.496   6.122
14330TIP3    H242934   1.141   1.520   6.092
14331TIP3   OH242935   0.508   0.074   2.864
14331TIP3    H142936   0.483   0.137   2.932
14331TIP3    H242937   0.449   0.000   2.876
14332TIP3   OH242938   3.732   5.055   6.550
14332TIP3    H142939   3.739   5.092   6.462
14332TIP3    H242940   3.741   5.131   6.608
14333TIP3   OH242941   6.615   1.603   2.684
14333TIP3    H142942   6.616   1.508   2.694
14333TIP3    H242943   6.681   1.634   2.746
14334TIP3   OH242944   6.908   0.422   1.460
14334TIP3    H142945   6.863   0.426   1.544
14334TIP3    H242946   6.926   0.513   1.438
14335TIP3   OH242947   6.967   6.369   3.934
14335TIP3    H142948   6.874   6.388   3.946
14335TIP3    H242949   6.990   6.410   3.851
14336TIP3   OH242950   3.544   2.134   1.292
14336TIP3    H142951   3.492   2.209   1.262
14336TIP3    H242952   3.556   2.080   1.214
14337TIP3   OH242953   5.783   6.344   4.874
14337TIP3    H142954   5.876   6.327   4.888
14337TIP3    H242955   5.782   6.417   4.812
14338TIP3   OH242956   4.787   3.014   5.549
14338TIP3    H142957   4.860   3.064   5.512
14338TIP3    H242958   4.709   3.058   5.515
14339TIP3   OH242959   1.309   7.092   3.323
14339TIP3    H142960   1.270   7.074   3.237
14339TIP3    H242961   1.347   7.180   3.314
14340TIP3   OH242962   7.758   0.856   6.397
14340TIP3    H142963   7.790   0.888   6.482
14340TIP3    H242964   7.834   0.818   6.355
14341TIP3   OH242965   1.860   5.912   2.688
14341TIP3    H142966   1.894   5.980   2.746
14341TIP3    H242967   1.835   5.958   2.609
14342TIP3   OH242968   4.066   6.426   6.467
14342TIP3    H142969   4.006   6.449   6.396
14342TIP3    H242970   4.124   6.503   6.475
14343TIP3   OH242971   2.096   1.658   1.606
14343TIP3    H142972   2.032   1.602   1.563
14343TIP3    H242973   2.056   1.680   1.690
14344TIP3   OH242974   7.788   2.642   5.294
14344TIP3    H142975   7.692   2.639   5.290
14344TIP3    H242976   7.815   2.552   5.279
14345TIP3   OH242977   6.167   6.479   3.250
14345TIP3    H142978   6.122   6.436   3.178
14345TIP3    H242979   6.256   6.495   3.216
14346TIP3   OH242980   0.094   5.623   1.662
14346TIP3    H142981   0.119   5.532   1.644
14346TIP3    H242982  -0.001   5.619   1.672
14347TIP3   OH242983   7.098   5.951   3.577
14347TIP3    H142984   7.155   5.896   3.524
14347TIP3    H242985   7.154   6.022   3.608
14348TIP3   OH242986   2.168   1.223   1.316
14348TIP3    H142987   2.242   1.238   1.374
14348TIP3    H242988   2.191   1.268   1.235
14349TIP3   OH242989   6.121   0.976   0.432
14349TIP3    H142990   6.106   0.899   0.377
14349TIP3    H242991   6.051   0.971   0.498
14350TIP3   OH242992   3.864   4.010   2.394
14350TIP3    H142993   3.937   3.951   2.370
14350TIP3    H242994   3.786   3.958   2.376
14351TIP3   OH242995   5.453   2.098   3.886
14351TIP3    H142996   5.370   2.074   3.846
14351TIP3    H242997   5.495   2.015   3.907
14352TIP3   OH242998   3.360   2.498   5.423
14352TIP3    H142999   3.453   2.475   5.419
14352TIP3    H243000   3.357   2.592   5.407
14353TIP3   OH243001   4.097   2.689   3.547
14353TIP3    H143002   4.147   2.763   3.511
14353TIP3    H243003   4.009   2.700   3.512
14354TIP3   OH243004   5.606   4.047   5.011
14354TIP3    H143005   5.633   4.043   5.103
14354TIP3    H243006   5.681   4.082   4.965
14355TIP3   OH243007   3.307   4.035   1.047
14355TIP3    H143008   3.271   4.100   0.986
14355TIP3    H243009   3.232   4.005   1.098
14356TIP3   OH243010   1.436   0.838   1.394
14356TIP3    H143011   1.486   0.919   1.401
14356TIP3    H243012   1.500   0.773   1.363
14357TIP3   OH243013   7.272   0.185   0.719
14357TIP3    H143014   7.335   0.187   0.791
14357TIP3    H243015   7.197   0.137   0.753
14358TIP3   OH243016   1.237   0.374   2.674
14358TIP3    H143017   1.259   0.352   2.764
14358TIP3    H243018   1.142   0.383   2.674
14359TIP3   OH243019   2.845   2.132   5.794
14359TIP3    H143020   2.902   2.119   5.869
14359TIP3    H243021   2.825   2.225   5.794
14360TIP3   OH243022   4.358   0.247   5.155
14360TIP3    H143023   4.419   0.315   5.126
14360TIP3    H243024   4.316   0.285   5.232
14361TIP3   OH243025   3.237   0.527   0.924
14361TIP3    H143026   3.239   0.433   0.941
14361TIP3    H243027   3.149   0.542   0.887
14362TIP3   OH243028   8.163   2.692   3.458
14362TIP3    H143029   8.186   2.658   3.372
14362TIP3    H243030   8.218   2.643   3.519
14363TIP3   OH243031   1.570   4.671   3.602
14363TIP3    H143032   1.478   4.647   3.610
14363TIP3    H243033   1.571   4.742   3.537
14364TIP3   OH243034   7.726   6.540   5.993
14364TIP3    H143035   7.657   6.606   5.998
14364TIP3    H243036   7.783   6.561   6.068
14365TIP3   OH243037   6.530   2.298   3.505
14365TIP3    H143038   6.493   2.384   3.529
14365TIP3    H243039   6.465   2.235   3.535
14366TIP3   OH243040   1.092   2.609   2.548
14366TIP3    H143041   1.027   2.590   2.616
14366TIP3    H243042   1.053   2.576   2.467
14367TIP3   OH243043   6.894   3.999   0.253
14367TIP3    H143044   6.803   4.025   0.243
14367TIP3    H243045   6.908   3.992   0.347
14368TIP3   OH243046   5.607   5.277   3.872
14368TIP3    H143047   5.633   5.221   3.799
14368TIP3    H243048   5.668   5.255   3.942
14369TIP3   OH243049   1.522   4.606   5.133
14369TIP3    H143050   1.441   4.627   5.087
14369TIP3    H243051   1.591   4.620   5.067
14370TIP3   OH243052   1.929   7.521   2.904
14370TIP3    H143053   1.847   7.559   2.873
14370TIP3    H243054   1.952   7.456   2.838
14371TIP3   OH243055   4.751   2.884   3.951
14371TIP3    H143056   4.811   2.958   3.962
14371TIP3    H243057   4.735   2.853   4.040
14372TIP3   OH243058   5.136   7.403   4.748
14372TIP3    H143059   5.127   7.472   4.682
14372TIP3    H243060   5.104   7.324   4.705
14373TIP3   OH243061   3.573   4.265   5.656
14373TIP3    H143062   3.600   4.270   5.747
14373TIP3    H243063   3.580   4.354   5.624
14374TIP3   OH243064   1.828   1.073   4.956
14374TIP3    H143065   1.835   1.154   4.905
14374TIP3    H243066   1.734   1.063   4.972
14375TIP3   OH243067   6.647   2.936   1.897
14375TIP3    H143068   6.588   2.877   1.944
14375TIP3    H243069   6.729   2.887   1.889
14376TIP3   OH243070   7.689   3.807   6.220
14376TIP3    H143071   7.760   3.822   6.283
14376TIP3    H243072   7.630   3.881   6.232
14377TIP3   OH243073   5.213   6.774   2.102
14377TIP3    H143074   5.233   6.817   2.185
14377TIP3    H243075   5.297   6.768   2.057
14378TIP3   OH243076   7.582   5.403   0.648
14378TIP3    H143077   7.576   5.327   0.590
14378TIP3    H243078   7.646   5.461   0.605
14379TIP3   OH243079   5.066   5.792   0.242
14379TIP3    H143080   5.010   5.865   0.219
14379TIP3    H243081   5.120   5.825   0.314
14380TIP3   OH243082   6.525   0.020   1.954
14380TIP3    H143083   6.620   0.012   1.961
14380TIP3    H243084   6.495  -0.068   1.932
14381TIP3   OH243085   1.891   3.127   1.802
14381TIP3    H143086   1.923   3.067   1.870
14381TIP3    H243087   1.796   3.126   1.813
14382TIP3   OH243088   3.790   3.954   5.148
14382TIP3    H143089   3.799   4.048   5.168
14382TIP3    H243090   3.842   3.941   5.069
14383TIP3   OH243091   3.227   1.490   6.211
14383TIP3    H143092   3.179   1.414   6.243
14383TIP3    H243093   3.284   1.454   6.142
14384TIP3   OH243094   2.894   7.648   1.644
14384TIP3    H143095   2.842   7.710   1.594
14384TIP3    H243096   2.973   7.697   1.669
14385TIP3   OH243097   6.959   2.072   5.684
14385TIP3    H143098   6.888   2.090   5.622
14385TIP3    H243099   6.950   1.979   5.704
14386TIP3   OH243100   1.473   3.710   6.473
14386TIP3    H143101   1.498   3.756   6.393
14386TIP3    H243102   1.387   3.673   6.454
14387TIP3   OH243103   4.141   2.421   4.766
14387TIP3    H143104   4.079   2.367   4.815
14387TIP3    H243105   4.192   2.467   4.833
14388TIP3   OH243106   2.432   7.095   0.414
14388TIP3    H143107   2.479   7.105   0.331
14388TIP3    H243108   2.395   7.182   0.430
14389TIP3   OH243109   0.834   5.925   5.369
14389TIP3    H143110   0.899   5.963   5.309
14389TIP3    H243111   0.828   5.833   5.344
14390TIP3   OH243112   6.133   7.193   6.094
14390TIP3    H143113   6.182   7.179   6.174
14390TIP3    H243114   6.048   7.152   6.110
14391TIP3   OH243115   5.313   6.757   4.332
14391TIP3    H143116   5.365   6.713   4.399
14391TIP3    H243117   5.377   6.783   4.265
14392TIP3   OH243118   0.149   3.299   5.865
14392TIP3    H143119   0.233   3.254   5.858
14392TIP3    H243120   0.171   3.392   5.863
14393TIP3   OH243121   7.607   4.224   2.236
14393TIP3    H143122   7.660   4.303   2.222
14393TIP3    H243123   7.640   4.162   2.171
14394TIP3   OH243124   4.319   4.562   2.168
14394TIP3    H143125   4.359   4.583   2.084
14394TIP3    H243126   4.360   4.622   2.230
14395TIP3   OH243127   6.782   6.378   4.616
14395TIP3    H143128   6.842   6.393   4.543
14395TIP3    H243129   6.803   6.290   4.647
14396TIP3   OH243130   1.201   4.501   1.192
14396TIP3    H143131   1.287   4.541   1.206
14396TIP3    H243132   1.142   4.548   1.251
14397TIP3   OH243133   7.200   0.638   3.072
14397TIP3    H143134   7.185   0.725   3.035
14397TIP3    H243135   7.152   0.579   3.014
14398TIP3   OH243136   0.726   5.475   0.535
14398TIP3    H143137   0.718   5.444   0.626
14398TIP3    H243138   0.813   5.514   0.530
14399TIP3   OH243139   0.834   6.549   0.948
14399TIP3    H143140   0.857   6.595   0.867
14399TIP3    H243141   0.846   6.614   1.017
14400TIP3   OH243142   8.163   5.138   1.725
14400TIP3    H143143   8.199   5.107   1.807
14400TIP3    H243144   8.218   5.098   1.657
14401TIP3   OH243145   3.111   0.910   0.478
14401TIP3    H143146   3.103   0.975   0.408
14401TIP3    H243147   3.164   0.954   0.545
14402TIP3   OH243148   0.711   2.403   0.216
14402TIP3    H143149   0.714   2.437   0.127
14402TIP3    H243150   0.737   2.312   0.208
14403TIP3   OH243151   7.456  -0.015   0.608
14403TIP3    H143152   7.430   0.052   0.671
14403TIP3    H243153   7.410   0.009   0.527
14404TIP3   OH243154   0.085   2.633   5.313
14404TIP3    H143155   0.018   2.699   5.332
14404TIP3    H243156   0.165   2.684   5.300
14405TIP3   OH243157   7.284   2.132   5.078
14405TIP3    H143158   7.205   2.175   5.045
14405TIP3    H243159   7.321   2.087   5.002
14406TIP3   OH243160   1.176   0.073   4.870
14406TIP3    H143161   1.258   0.026   4.855
14406TIP3    H243162   1.198   0.139   4.936
14407TIP3   OH243163   1.961   4.436   5.147
14407TIP3    H143164   1.919   4.367   5.199
14407TIP3    H243165   2.054   4.426   5.166
14408TIP3   OH243166   1.835   6.877   1.285
14408TIP3    H143167   1.920   6.865   1.328
14408TIP3    H243168   1.834   6.811   1.216
14409TIP3   OH243169   3.881   6.141   3.504
14409TIP3    H143170   3.967   6.148   3.462
14409TIP3    H243171   3.886   6.060   3.554
14410TIP3   OH243172   6.649   6.795   6.343
14410TIP3    H143173   6.622   6.861   6.406
14410TIP3    H243174   6.738   6.770   6.371
14411TIP3   OH243175   3.924   6.874   4.037
14411TIP3    H143176   3.973   6.802   3.998
14411TIP3    H243177   3.834   6.844   4.039
14412TIP3   OH243178   1.090   7.610   5.667
14412TIP3    H143179   1.081   7.670   5.741
14412TIP3    H243180   1.019   7.547   5.678
14413TIP3   OH243181   0.291   2.750   6.641
14413TIP3    H143182   0.373   2.777   6.598
14413TIP3    H243183   0.246   2.832   6.659
14414TIP3   OH243184   6.406   2.613   0.447
14414TIP3    H143185   6.369   2.539   0.398
14414TIP3    H243186   6.499   2.613   0.424
14415TIP3   OH243187   1.184   3.118   4.913
14415TIP3    H143188   1.146   3.175   4.981
14415TIP3    H243189   1.245   3.062   4.961
14416TIP3   OH243190   6.764   6.492   3.486
14416TIP3    H143191   6.699   6.561   3.497
14416TIP3    H243192   6.713   6.415   3.462
14417TIP3   OH243193   1.043   6.129   6.181
14417TIP3    H143194   1.106   6.083   6.126
14417TIP3    H243195   1.007   6.198   6.126
14418TIP3   OH243196   5.709   2.808   5.098
14418TIP3    H143197   5.725   2.743   5.030
14418TIP3    H243198   5.737   2.891   5.059
14419TIP3   OH243199   2.549   3.323   3.690
14419TIP3    H143200   2.531   3.261   3.761
14419TIP3    H243201   2.533   3.274   3.610
14420TIP3   OH243202   3.328   3.874   2.766
14420TIP3    H143203   3.331   3.779   2.775
14420TIP3    H243204   3.302   3.906   2.852
14421TIP3   OH243205   8.299   0.134   6.540
14421TIP3    H143206   8.215   0.140   6.493
14421TIP3    H243207   8.274   0.109   6.629
14422TIP3   OH243208   6.757   2.004   1.427
14422TIP3    H143209   6.666   2.021   1.403
14422TIP3    H243210   6.782   1.927   1.375
14423TIP3   OH243211   2.219   2.482   1.408
14423TIP3    H143212   2.161   2.543   1.363
14423TIP3    H243213   2.177   2.469   1.493
14424TIP3   OH243214   5.916   4.627   2.803
14424TIP3    H143215   5.927   4.616   2.708
14424TIP3    H243216   5.897   4.539   2.835
14425TIP3   OH243217   5.975   6.244   1.794
14425TIP3    H143218   5.896   6.259   1.846
14425TIP3    H243219   6.039   6.305   1.829
14426TIP3   OH243220   7.563   4.799   6.444
14426TIP3    H143221   7.482   4.771   6.401
14426TIP3    H243222   7.539   4.807   6.537
14427TIP3   OH243223   7.119   2.725   1.728
14427TIP3    H143224   7.045   2.774   1.692
14427TIP3    H243225   7.167   2.789   1.780
14428TIP3   OH243226   8.211   7.494   4.710
14428TIP3    H143227   8.265   7.415   4.710
14428TIP3    H243228   8.185   7.504   4.801
14429TIP3   OH243229   6.749   4.106   5.839
14429TIP3    H143230   6.680   4.123   5.903
14429TIP3    H243231   6.824   4.157   5.869
14430TIP3   OH243232   0.425   4.404   3.319
14430TIP3    H143233   0.467   4.432   3.238
14430TIP3    H243234   0.395   4.314   3.301
14431TIP3   OH243235   6.378   1.611   6.215
14431TIP3    H143236   6.468   1.631   6.243
14431TIP3    H243237   6.372   1.516   6.223
14432TIP3   OH243238   1.725   2.868   2.527
14432TIP3    H143239   1.818   2.873   2.550
14432TIP3    H243240   1.722   2.894   2.435
14433TIP3   OH243241   2.966   6.437   6.619
14433TIP3    H143242   2.941   6.413   6.709
14433TIP3    H243243   2.924   6.522   6.605
14434TIP3   OH243244   2.026   3.928   3.322
14434TIP3    H143245   1.960   3.941   3.390
14434TIP3    H243246   2.080   4.007   3.325
14435TIP3   OH243247   6.181   2.065   1.316
14435TIP3    H143248   6.141   1.978   1.316
14435TIP3    H243249   6.250   2.059   1.250
14436TIP3   OH243250   7.488   3.830   2.934
14436TIP3    H143251   7.574   3.860   2.903
14436TIP3    H243252   7.465   3.891   3.004
14437TIP3   OH243253   4.464   1.727   2.599
14437TIP3    H143254   4.396   1.737   2.666
14437TIP3    H243255   4.442   1.645   2.554
14438TIP3   OH243256   4.595   1.122   3.424
14438TIP3    H143257   4.529   1.190   3.439
14438TIP3    H243258   4.620   1.094   3.512
14439TIP3   OH243259   6.157   4.217   0.634
14439TIP3    H143260   6.083   4.157   0.645
14439TIP3    H243261   6.133   4.295   0.684
14440TIP3   OH243262   5.190   2.712   0.544
14440TIP3    H143263   5.251   2.751   0.482
14440TIP3    H243264   5.240   2.643   0.587
14441TIP3   OH243265   3.805   6.424   5.375
14441TIP3    H143266   3.713   6.403   5.393
14441TIP3    H243267   3.836   6.351   5.322
14442TIP3   OH243268   7.087   2.389   6.311
14442TIP3    H143269   7.176   2.401   6.346
14442TIP3    H243270   7.099   2.333   6.235
14443TIP3   OH243271   4.943   4.333   6.021
14443TIP3    H143272   5.004   4.377   6.081
14443TIP3    H243273   4.983   4.344   5.935
14444TIP3   OH243274   4.232   0.945   0.045
14444TIP3    H143275   4.208   0.929  -0.046
14444TIP3    H243276   4.156   0.916   0.096
14445TIP3   OH243277   1.996   0.652   1.979
14445TIP3    H143278   2.072   0.680   1.929
14445TIP3    H243279   1.968   0.570   1.939
14446TIP3   OH243280   1.614   5.698   3.601
14446TIP3    H143281   1.558   5.755   3.654
14446TIP3    H243282   1.586   5.714   3.511
14447TIP3   OH243283   6.898   0.095   6.107
14447TIP3    H143284   6.924   0.076   6.197
14447TIP3    H243285   6.925   0.185   6.092
14448TIP3   OH243286   4.230   2.564   3.771
14448TIP3    H143287   4.269   2.489   3.728
14448TIP3    H243288   4.185   2.612   3.701
14449TIP3   OH243289   7.626   1.517   1.087
14449TIP3    H143290   7.557   1.451   1.098
14449TIP3    H243291   7.695   1.472   1.038
14450TIP3   OH243292   2.320   6.293   2.429
14450TIP3    H143293   2.277   6.229   2.371
14450TIP3    H243294   2.252   6.357   2.449
14451TIP3   OH243295   6.942   4.045   2.647
14451TIP3    H143296   6.997   4.105   2.698
14451TIP3    H243297   6.852   4.070   2.668
14452TIP3   OH243298   3.580   1.725   4.110
14452TIP3    H143299   3.587   1.820   4.120
14452TIP3    H243300   3.647   1.704   4.045
14453TIP3   OH243301   1.711   2.086   1.889
14453TIP3    H143302   1.721   2.006   1.837
14453TIP3    H243303   1.620   2.084   1.919
14454TIP3   OH243304   2.926   5.167   3.440
14454TIP3    H143305   2.863   5.227   3.400
14454TIP3    H243306   2.892   5.080   3.422
14455TIP3   OH243307   0.649   4.436   3.956
14455TIP3    H143308   0.729   4.458   3.908
14455TIP3    H243309   0.657   4.483   4.039
14456TIP3   OH243310   1.817   1.850   2.115
14456TIP3    H143311   1.753   1.823   2.181
14456TIP3    H243312   1.775   1.830   2.031
14457TIP3   OH243313   5.813   3.482   5.297
14457TIP3    H143314   5.860   3.498   5.379
14457TIP3    H243315   5.777   3.394   5.307
14458TIP3   OH243316   0.212   4.728   0.759
14458TIP3    H143317   0.221   4.743   0.665
14458TIP3    H243318   0.121   4.703   0.770
14459TIP3   OH243319   3.785   0.213   1.449
14459TIP3    H143320   3.842   0.235   1.523
14459TIP3    H243321   3.824   0.133   1.412
14460TIP3   OH243322   3.915   6.903   4.464
14460TIP3    H143323   3.936   6.974   4.404
14460TIP3    H243324   3.928   6.940   4.551
14461TIP3   OH243325   5.097   0.931   1.062
14461TIP3    H143326   5.077   0.998   1.127
14461TIP3    H243327   5.031   0.944   0.993
14462TIP3   OH243328   0.513   6.169   2.350
14462TIP3    H143329   0.473   6.083   2.333
14462TIP3    H243330   0.605   6.159   2.323
14463TIP3   OH243331   4.804   0.497   6.676
14463TIP3    H143332   4.769   0.523   6.591
14463TIP3    H243333   4.899   0.495   6.664
14464TIP3   OH243334   4.354   5.943   1.769
14464TIP3    H143335   4.378   5.873   1.829
14464TIP3    H243336   4.320   6.013   1.825
14465TIP3   OH243337   6.462   3.807   1.131
14465TIP3    H143338   6.487   3.863   1.056
14465TIP3    H243339   6.370   3.826   1.145
14466TIP3   OH243340   5.428   7.660   5.208
14466TIP3    H143341   5.416   7.685   5.116
14466TIP3    H243342   5.349   7.689   5.252
14467TIP3   OH243343   2.311   6.521   5.460
14467TIP3    H143344   2.318   6.585   5.531
14467TIP3    H243345   2.246   6.458   5.490
14468TIP3   OH243346   1.355   3.297   5.294
14468TIP3    H143347   1.355   3.383   5.337
14468TIP3    H243348   1.419   3.306   5.224
14469TIP3   OH243349   4.627   5.603   0.921
14469TIP3    H143350   4.553   5.561   0.877
14469TIP3    H243351   4.593   5.630   1.006
14470TIP3   OH243352   2.606   7.005   2.172
14470TIP3    H143353   2.613   7.083   2.117
14470TIP3    H243354   2.529   6.959   2.141
14471TIP3   OH243355   4.969   1.501   3.159
14471TIP3    H143356   4.954   1.489   3.252
14471TIP3    H243357   4.943   1.592   3.142
14472TIP3   OH243358   4.148   0.544   3.343
14472TIP3    H143359   4.080   0.479   3.328
14472TIP3    H243360   4.137   0.607   3.271
14473TIP3   OH243361   2.127   2.253   2.284
14473TIP3    H143362   2.213   2.239   2.245
14473TIP3    H243363   2.090   2.328   2.237
14474TIP3   OH243364   3.442   5.481   5.457
14474TIP3    H143365   3.448   5.485   5.362
14474TIP3    H243366   3.533   5.488   5.487
14475TIP3   OH243367   4.697   5.947   3.536
14475TIP3    H143368   4.647   5.999   3.600
14475TIP3    H243369   4.788   5.963   3.560
14476TIP3   OH243370   3.736   7.556   3.160
14476TIP3    H143371   3.791   7.492   3.114
14476TIP3    H243372   3.774   7.641   3.138
14477TIP3   OH243373   7.181   4.152   4.562
14477TIP3    H143374   7.263   4.117   4.528
14477TIP3    H243375   7.177   4.242   4.530
14478TIP3   OH243376   2.988   6.319   5.815
14478TIP3    H143377   3.031   6.235   5.800
14478TIP3    H243378   2.975   6.324   5.910
14479TIP3   OH243379   6.500   7.311   3.893
14479TIP3    H143380   6.558   7.259   3.948
14479TIP3    H243381   6.553   7.385   3.864
14480TIP3   OH243382   0.328   7.002   1.326
14480TIP3    H143383   0.320   7.089   1.287
14480TIP3    H243384   0.398   7.011   1.391
14481TIP3   OH243385   4.327   6.624   3.872
14481TIP3    H143386   4.409   6.652   3.911
14481TIP3    H243387   4.348   6.610   3.779
14482TIP3   OH243388   7.098   4.903   5.036
14482TIP3    H143389   7.180   4.953   5.037
14482TIP3    H243390   7.121   4.821   4.993
14483TIP3   OH243391   1.774   1.201   1.690
14483TIP3    H143392   1.825   1.144   1.632
14483TIP3    H243393   1.725   1.258   1.630
14484TIP3   OH243394   3.755   0.490   0.702
14484TIP3    H143395   3.830   0.435   0.722
14484TIP3    H243396   3.693   0.432   0.658
14485TIP3   OH243397   1.274   3.132   5.537
14485TIP3    H143398   1.279   3.225   5.559
14485TIP3    H243399   1.362   3.111   5.503
14486TIP3   OH243400   4.290   5.226   3.770
14486TIP3    H143401   4.377   5.264   3.788
14486TIP3    H243402   4.303   5.172   3.692
14487TIP3   OH243403   1.834   2.094   3.111
14487TIP3    H143404   1.886   2.067   3.036
14487TIP3    H243405   1.797   2.012   3.145
14488TIP3   OH243406   0.989   6.858   6.557
14488TIP3    H143407   1.059   6.815   6.508
14488TIP3    H243408   0.969   6.797   6.628
14489TIP3   OH243409   5.853   6.553   6.501
14489TIP3    H143410   5.861   6.462   6.532
14489TIP3    H243411   5.760   6.564   6.482
14490TIP3   OH243412   3.898   1.182   2.654
14490TIP3    H143413   3.872   1.211   2.741
14490TIP3    H243414   3.816   1.156   2.611
14491TIP3   OH243415   5.274   0.101   4.911
14491TIP3    H143416   5.287   0.085   5.004
14491TIP3    H243417   5.325   0.179   4.892
14492TIP3   OH243418   2.443   0.783   3.146
14492TIP3    H143419   2.493   0.845   3.093
14492TIP3    H243420   2.509   0.729   3.188
14493TIP3   OH243421   7.427   2.181   3.972
14493TIP3    H143422   7.349   2.167   4.025
14493TIP3    H243423   7.394   2.191   3.883
14494TIP3   OH243424   5.107   2.829   5.460
14494TIP3    H143425   5.075   2.918   5.450
14494TIP3    H243426   5.090   2.807   5.552
14495TIP3   OH243427   8.208   0.306   1.165
14495TIP3    H143428   8.277   0.332   1.103
14495TIP3    H243429   8.248   0.318   1.251
14496TIP3   OH243430   5.849   3.655   4.914
14496TIP3    H143431   5.881   3.720   4.853
14496TIP3    H243432   5.819   3.582   4.859
14497TIP3   OH243433   2.819   0.562   3.322
14497TIP3    H143434   2.863   0.598   3.245
14497TIP3    H243435   2.867   0.599   3.397
14498TIP3   OH243436   4.086   6.974   6.703
14498TIP3    H143437   4.178   6.953   6.723
14498TIP3    H243438   4.090   7.041   6.636
14499TIP3   OH243439   0.720   1.881   3.431
14499TIP3    H143440   0.748   1.972   3.436
14499TIP3    H243441   0.722   1.850   3.521
14500TIP3   OH243442   5.838   2.674   5.761
14500TIP3    H143443   5.873   2.606   5.703
14500TIP3    H243444   5.776   2.627   5.817
14501TIP3   OH243445   3.310   3.410   4.251
14501TIP3    H143446   3.255   3.376   4.181
14501TIP3    H243447   3.251   3.421   4.325
14502TIP3   OH243448   1.397   5.404   3.285
14502TIP3    H143449   1.440   5.486   3.260
14502TIP3    H243450   1.341   5.383   3.210
14503TIP3   OH243451   6.497   0.047   0.877
14503TIP3    H143452   6.554   0.013   0.808
14503TIP3    H243453   6.414   0.064   0.833
14504TIP3   OH243454   8.228   3.718   2.625
14504TIP3    H143455   8.191   3.732   2.538
14504TIP3    H243456   8.217   3.802   2.670
14505TIP3   OH243457   4.899   2.093   5.370
14505TIP3    H143458   4.869   2.065   5.283
14505TIP3    H243459   4.971   2.153   5.352
14506TIP3   OH243460   4.070   5.626   4.449
14506TIP3    H143461   4.131   5.699   4.448
14506TIP3    H243462   4.102   5.566   4.381
14507TIP3   OH243463   8.322   5.420   2.185
14507TIP3    H143464   8.246   5.367   2.208
14507TIP3    H243465   8.395   5.375   2.228
14508TIP3   OH243466   5.132   3.144   3.215
14508TIP3    H143467   5.119   3.053   3.241
14508TIP3    H243468   5.158   3.189   3.295
14509TIP3   OH243469   5.810   4.737   2.243
14509TIP3    H143470   5.766   4.652   2.246
14509TIP3    H243471   5.748   4.795   2.198
14510TIP3   OH243472   0.422   3.050   3.577
14510TIP3    H143473   0.367   3.099   3.638
14510TIP3    H243474   0.372   2.969   3.560
14511TIP3   OH243475   6.745   0.093   5.021
14511TIP3    H143476   6.818   0.154   5.014
14511TIP3    H243477   6.667   0.149   5.024
14512TIP3   OH243478   1.553   6.361   5.138
14512TIP3    H143479   1.640   6.322   5.128
14512TIP3    H243480   1.493   6.292   5.111
14513TIP3   OH243481   1.158   5.704   1.392
14513TIP3    H143482   1.106   5.684   1.470
14513TIP3    H243483   1.248   5.681   1.417
14514TIP3   OH243484   0.460   1.920   3.353
14514TIP3    H143485   0.550   1.909   3.383
14514TIP3    H243486   0.422   1.983   3.415
14515TIP3   OH243487   2.469   4.008   3.431
14515TIP3    H143488   2.501   4.097   3.450
14515TIP3    H243489   2.458   3.968   3.517
14516TIP3   OH243490   2.189   5.058   5.018
14516TIP3    H143491   2.146   5.124   5.072
14516TIP3    H243492   2.283   5.075   5.030
14517TIP3   OH243493   0.218   5.213   1.884
14517TIP3    H143494   0.135   5.205   1.930
14517TIP3    H243495   0.284   5.219   1.953
14518TIP3   OH243496   3.546   1.941   3.064
14518TIP3    H143497   3.493   1.886   3.006
14518TIP3    H243498   3.484   1.977   3.127
14519TIP3   OH243499   7.381   6.993   0.685
14519TIP3    H143500   7.369   7.036   0.770
14519TIP3    H243501   7.297   6.951   0.668
14520TIP3   OH243502   4.931   3.191   2.880
14520TIP3    H143503   4.947   3.215   2.971
14520TIP3    H243504   4.857   3.246   2.854
14521TIP3   OH243505   6.157   1.095   6.296
14521TIP3    H143506   6.192   1.011   6.266
14521TIP3    H243507   6.228   1.133   6.348
14522TIP3   OH243508   7.977   2.569   1.164
14522TIP3    H143509   7.919   2.494   1.173
14522TIP3    H243510   7.923   2.644   1.189
14523TIP3   OH243511   0.807   3.767   2.335
14523TIP3    H143512   0.799   3.789   2.428
14523TIP3    H243513   0.726   3.798   2.295
14524TIP3   OH243514   8.240   2.036   0.460
14524TIP3    H143515   8.206   2.073   0.541
14524TIP3    H243516   8.247   1.942   0.477
14525TIP3   OH243517   4.668   5.874   0.841
14525TIP3    H143518   4.692   5.892   0.750
14525TIP3    H243519   4.689   5.782   0.854
14526TIP3   OH243520   0.191   7.588   0.891
14526TIP3    H143521   0.152   7.661   0.843
14526TIP3    H243522   0.118   7.551   0.940
14527TIP3   OH243523   1.838   1.519   1.813
14527TIP3    H143524   1.920   1.476   1.837
14527TIP3    H243525   1.770   1.462   1.849
14528TIP3   OH243526   1.035   3.795   3.881
14528TIP3    H143527   0.940   3.802   3.890
14528TIP3    H243528   1.048   3.721   3.821
14529TIP3   OH243529   5.651   1.122   6.399
14529TIP3    H143530   5.727   1.131   6.456
14529TIP3    H243531   5.686   1.133   6.310
14530TIP3   OH243532   0.831   2.144   3.311
14530TIP3    H143533   0.885   2.186   3.379
14530TIP3    H243534   0.752   2.197   3.307
14531TIP3   OH243535   4.126   0.710   6.441
14531TIP3    H143536   4.189   0.648   6.477
14531TIP3    H243537   4.176   0.761   6.378
14532TIP3   OH243538   3.550   7.187   4.735
14532TIP3    H143539   3.470   7.200   4.787
14532TIP3    H243540   3.609   7.140   4.795
14533TIP3   OH243541   5.320   4.297   5.141
14533TIP3    H143542   5.372   4.223   5.171
14533TIP3    H243543   5.301   4.347   5.220
14534TIP3   OH243544   5.944   6.031   5.568
14534TIP3    H143545   5.866   5.979   5.586
14534TIP3    H243546   5.984   6.046   5.654
14535TIP3   OH243547   7.089   6.343   6.067
14535TIP3    H143548   7.143   6.405   6.115
14535TIP3    H243549   7.019   6.396   6.029
14536TIP3   OH243550   5.609   0.085   4.323
14536TIP3    H143551   5.548   0.050   4.257
14536TIP3    H243552   5.557   0.149   4.371
14537TIP3   OH243553   5.932   5.313   1.238
14537TIP3    H143554   6.012   5.288   1.286
14537TIP3    H243555   5.882   5.231   1.233
14538TIP3   OH243556   2.136   7.384   5.228
14538TIP3    H143557   2.171   7.469   5.203
14538TIP3    H243558   2.068   7.365   5.163
14539TIP3   OH243559   1.301   4.641   5.000
14539TIP3    H143560   1.240   4.714   4.996
14539TIP3    H243561   1.251   4.570   5.042
14540TIP3   OH243562   8.156   6.226   4.678
14540TIP3    H143563   8.110   6.144   4.693
14540TIP3    H243564   8.144   6.245   4.585
14541TIP3   OH243565   6.314   7.561   5.210
14541TIP3    H143566   6.273   7.645   5.187
14541TIP3    H243567   6.253   7.521   5.271
14542TIP3   OH243568   0.645   1.978   0.875
14542TIP3    H143569   0.629   1.912   0.808
14542TIP3    H243570   0.636   2.061   0.829
14543TIP3   OH243571   4.629   7.775   5.158
14543TIP3    H143572   4.697   7.715   5.189
14543TIP3    H243573   4.553   7.757   5.214
14544TIP3   OH243574   6.337   0.712   2.870
14544TIP3    H143575   6.297   0.791   2.904
14544TIP3    H243576   6.286   0.641   2.909
14545TIP3   OH243577   7.248   7.029   1.991
14545TIP3    H143578   7.225   6.949   1.944
14545TIP3    H243579   7.208   7.018   2.078
14546TIP3   OH243580   6.092   5.829   2.951
14546TIP3    H143581   6.108   5.772   2.876
14546TIP3    H243582   6.045   5.773   3.014
14547TIP3   OH243583   1.799   4.658   0.263
14547TIP3    H143584   1.882   4.614   0.247
14547TIP3    H243585   1.759   4.665   0.176
14548TIP3   OH243586   1.924   1.947   4.913
14548TIP3    H143587   1.962   1.861   4.932
14548TIP3    H243588   1.833   1.929   4.891
14549TIP3   OH243589   7.929   6.664   1.996
14549TIP3    H143590   7.866   6.655   1.924
14549TIP3    H243591   7.990   6.591   1.983
14550TIP3   OH243592   7.931   3.141   3.720
14550TIP3    H143593   7.842   3.159   3.749
14550TIP3    H243594   7.976   3.111   3.799
14551TIP3   OH243595   6.659   5.587   5.699
14551TIP3    H143596   6.622   5.674   5.682
14551TIP3    H243597   6.608   5.552   5.772
14552TIP3   OH243598   2.330   4.094   5.711
14552TIP3    H143599   2.319   4.114   5.618
14552TIP3    H243600   2.241   4.092   5.746
14553TIP3   OH243601   3.130   1.319   6.711
14553TIP3    H143602   3.104   1.411   6.708
14553TIP3    H243603   3.188   1.313   6.787
14554TIP3   OH243604   5.326   0.467   3.729
14554TIP3    H143605   5.319   0.471   3.825
14554TIP3    H243606   5.387   0.394   3.714
14555TIP3   OH243607   4.371   5.310   4.384
14555TIP3    H143608   4.343   5.254   4.313
14555TIP3    H243609   4.442   5.362   4.348
14556TIP3   OH243610   0.949   3.001   6.381
14556TIP3    H143611   1.021   2.941   6.364
14556TIP3    H243612   0.939   3.000   6.477
14557TIP3   OH243613   6.806   1.599   5.346
14557TIP3    H143614   6.770   1.520   5.305
14557TIP3    H243615   6.812   1.577   5.439
14558TIP3   OH243616   1.824   3.466   3.027
14558TIP3    H143617   1.893   3.399   3.021
14558TIP3    H243618   1.847   3.530   2.960
14559TIP3   OH243619   4.108   4.106   2.540
14559TIP3    H143620   4.067   4.070   2.461
14559TIP3    H243621   4.200   4.084   2.532
14560TIP3   OH243622   2.330   4.453   2.166
14560TIP3    H143623   2.392   4.486   2.101
14560TIP3    H243624   2.342   4.510   2.242
14561TIP3   OH243625   6.452   1.310   5.506
14561TIP3    H143626   6.369   1.305   5.553
14561TIP3    H243627   6.479   1.401   5.516
14562TIP3   OH243628   0.495   5.680   1.939
14562TIP3    H143629   0.493   5.603   1.996
14562TIP3    H243630   0.533   5.648   1.857
14563TIP3   OH243631   3.768   0.640   1.765
14563TIP3    H143632   3.845   0.584   1.762
14563TIP3    H243633   3.696   0.582   1.789
14564TIP3   OH243634   8.307   5.999   2.315
14564TIP3    H143635   8.344   6.020   2.400
14564TIP3    H243636   8.333   6.072   2.258
14565TIP3   OH243637   0.150   2.497   6.511
14565TIP3    H143638   0.135   2.433   6.581
14565TIP3    H243639   0.211   2.560   6.550
14566TIP3   OH243640   0.841   7.188   1.742
14566TIP3    H143641   0.884   7.270   1.717
14566TIP3    H243642   0.749   7.201   1.716
14567TIP3   OH243643   5.798   7.414   2.663
14567TIP3    H143644   5.722   7.374   2.707
14567TIP3    H243645   5.762   7.489   2.617
14568TIP3   OH243646   3.366   1.053   0.963
14568TIP3    H143647   3.372   1.140   0.921
14568TIP3    H243648   3.452   1.015   0.951
14569TIP3   OH243649   0.726   5.924   4.121
14569TIP3    H143650   0.819   5.901   4.131
14569TIP3    H243651   0.682   5.841   4.104
14570TIP3   OH243652   1.159   7.165   3.546
14570TIP3    H143653   1.121   7.088   3.589
14570TIP3    H243654   1.176   7.136   3.456
14571TIP3   OH243655   3.454   1.210   2.043
14571TIP3    H143656   3.526   1.190   1.983
14571TIP3    H243657   3.403   1.129   2.048
14572TIP3   OH243658   7.098   0.779   4.065
14572TIP3    H143659   7.121   0.854   4.120
14572TIP3    H243660   7.013   0.750   4.097
14573TIP3   OH243661   3.000   7.279   3.601
14573TIP3    H143662   3.018   7.373   3.598
14573TIP3    H243663   3.079   7.239   3.564
14574TIP3   OH243664   6.913   5.634   1.585
14574TIP3    H143665   6.843   5.691   1.619
14574TIP3    H243666   6.928   5.571   1.655
14575TIP3   OH243667   1.800   7.840   4.916
14575TIP3    H143668   1.830   7.806   5.000
14575TIP3    H243669   1.705   7.852   4.928
14576TIP3   OH243670   7.764   0.974   3.266
14576TIP3    H143671   7.760   0.978   3.171
14576TIP3    H243672   7.794   0.885   3.285
14577TIP3   OH243673   4.209   7.137  -0.004
14577TIP3    H143674   4.118   7.112   0.012
14577TIP3    H243675   4.260   7.058   0.017
14578TIP3   OH243676   3.239   3.260   3.979
14578TIP3    H143677   3.207   3.343   3.943
14578TIP3    H243678   3.168   3.230   4.035
14579TIP3   OH243679   2.878   2.926   5.600
14579TIP3    H143680   2.959   2.903   5.646
14579TIP3    H243681   2.888   3.018   5.578
14580TIP3   OH243682   0.273   5.319   4.493
14580TIP3    H143683   0.253   5.398   4.443
14580TIP3    H243684   0.232   5.248   4.442
14581TIP3   OH243685   4.954   5.712   1.498
14581TIP3    H143686   5.004   5.788   1.529
14581TIP3    H243687   5.019   5.644   1.485
14582TIP3   OH243688   2.188   5.643   1.030
14582TIP3    H143689   2.135   5.601   0.963
14582TIP3    H243690   2.218   5.571   1.086
14583TIP3   OH243691   4.252   5.653   6.804
14583TIP3    H143692   4.222   5.734   6.846
14583TIP3    H243693   4.178   5.594   6.810
14584TIP3   OH243694   2.268   3.201   6.307
14584TIP3    H143695   2.198   3.138   6.289
14584TIP3    H243696   2.227   3.268   6.361
14585TIP3   OH243697   1.505   3.775   6.038
14585TIP3    H143698   1.564   3.763   6.113
14585TIP3    H243699   1.467   3.861   6.051
14586TIP3   OH243700   6.378   6.957   2.557
14586TIP3    H143701   6.313   6.978   2.490
14586TIP3    H243702   6.350   7.005   2.635
14587TIP3   OH243703   1.169   2.843   3.989
14587TIP3    H143704   1.111   2.864   3.915
14587TIP3    H243705   1.187   2.928   4.029
14588TIP3   OH243706   6.144   6.848   0.613
14588TIP3    H143707   6.191   6.892   0.683
14588TIP3    H243708   6.175   6.889   0.532
14589TIP3   OH243709   6.411   2.749   5.475
14589TIP3    H143710   6.326   2.783   5.445
14589TIP3    H243711   6.426   2.671   5.422
14590TIP3   OH243712   2.842   0.831   3.439
14590TIP3    H143713   2.859   0.872   3.524
14590TIP3    H243714   2.768   0.879   3.403
14591TIP3   OH243715   0.230   5.765   1.925
14591TIP3    H143716   0.321   5.740   1.937
14591TIP3    H243717   0.205   5.724   1.842
14592TIP3   OH243718   7.264   4.982   1.162
14592TIP3    H143719   7.220   4.906   1.125
14592TIP3    H243720   7.299   4.951   1.245
14593TIP3   OH243721   4.132   5.782   5.383
14593TIP3    H143722   4.055   5.823   5.423
14593TIP3    H243723   4.193   5.771   5.455
14594TIP3   OH243724   7.429   0.192   2.933
14594TIP3    H143725   7.427   0.282   2.966
14594TIP3    H243726   7.458   0.140   3.008
14595TIP3   OH243727   2.766   1.670   0.795
14595TIP3    H143728   2.802   1.592   0.752
14595TIP3    H243729   2.817   1.743   0.760
14596TIP3   OH243730   6.019   4.511   5.294
14596TIP3    H143731   6.003   4.553   5.378
14596TIP3    H243732   6.114   4.517   5.282
14597TIP3   OH243733   1.743   7.686   5.736
14597TIP3    H143734   1.796   7.699   5.657
14597TIP3    H243735   1.802   7.640   5.796
14598TIP3   OH243736   0.762   3.695   6.529
14598TIP3    H143737   0.789   3.758   6.462
14598TIP3    H243738   0.781   3.740   6.612
14599TIP3   OH243739   2.496   6.058   0.323
14599TIP3    H143740   2.428   6.124   0.336
14599TIP3    H243741   2.523   6.034   0.412
14600TIP3   OH243742   6.843   6.395   5.554
14600TIP3    H143743   6.753   6.381   5.525
14600TIP3    H243744   6.855   6.336   5.628
14601TIP3   OH243745   2.749   7.320   4.475
14601TIP3    H143746   2.821   7.338   4.414
14601TIP3    H243747   2.670   7.343   4.426
14602TIP3   OH243748   7.457   3.066   4.920
14602TIP3    H143749   7.512   3.048   4.844
14602TIP3    H243750   7.471   3.159   4.938
14603TIP3   OH243751   2.038   2.499   2.178
14603TIP3    H143752   2.116   2.539   2.139
14603TIP3    H243753   1.966   2.523   2.120
14604TIP3   OH243754   6.210   2.967   3.553
14604TIP3    H143755   6.289   2.972   3.607
14604TIP3    H243756   6.147   3.022   3.599
14605TIP3   OH243757   0.433   1.571   5.592
14605TIP3    H143758   0.407   1.545   5.680
14605TIP3    H243759   0.500   1.507   5.567
14606TIP3   OH243760   5.470   0.212   5.930
14606TIP3    H143761   5.539   0.261   5.975
14606TIP3    H243762   5.409   0.187   5.999
14607TIP3   OH243763   0.047   7.533   0.607
14607TIP3    H143764   0.046   7.466   0.538
14607TIP3    H243765   0.113   7.502   0.669
14608TIP3   OH243766   0.087   4.137   3.170
14608TIP3    H143767   0.037   4.101   3.097
14608TIP3    H243768   0.022   4.151   3.240
14609TIP3   OH243769   0.144   1.964   1.657
14609TIP3    H143770   0.170   2.016   1.581
14609TIP3    H243771   0.124   1.877   1.620
14610TIP3   OH243772   8.310   7.557   4.993
14610TIP3    H143773   8.368   7.623   4.957
14610TIP3    H243774   8.229   7.604   5.013
14611TIP3   OH243775   8.300   2.517   6.088
14611TIP3    H143776   8.255   2.439   6.119
14611TIP3    H243777   8.245   2.550   6.017
14612TIP3   OH243778   7.422   5.185   0.886
14612TIP3    H143779   7.515   5.167   0.904
14612TIP3    H243780   7.396   5.114   0.826
14613TIP3   OH243781   7.134   2.983   5.028
14613TIP3    H143782   7.227   2.994   5.012
14613TIP3    H243783   7.093   2.996   4.943
14614TIP3   OH243784   0.970   2.301   2.664
14614TIP3    H143785   1.053   2.299   2.617
14614TIP3    H243786   0.905   2.274   2.598
14615TIP3   OH243787   8.319   4.160   2.521
14615TIP3    H143788   8.374   4.151   2.599
14615TIP3    H243789   8.231   4.178   2.555
14616TIP3   OH243790   8.158   1.835   2.645
14616TIP3    H143791   8.126   1.893   2.576
14616TIP3    H243792   8.080   1.792   2.679
14617TIP3   OH243793   3.443   4.660   3.732
14617TIP3    H143794   3.390   4.690   3.657
14617TIP3    H243795   3.489   4.738   3.761
14618TIP3   OH243796   7.023   7.408   5.865
14618TIP3    H143797   6.969   7.482   5.838
14618TIP3    H243798   7.062   7.435   5.948
14619TIP3   OH243799   4.637   2.026   3.330
14619TIP3    H143800   4.719   2.062   3.296
14619TIP3    H243801   4.628   1.942   3.286
14620TIP3   OH243802   7.009   4.188   6.541
14620TIP3    H143803   7.039   4.134   6.468
14620TIP3    H243804   6.915   4.170   6.547
14621TIP3   OH243805   5.255   4.827   6.357
14621TIP3    H143806   5.262   4.909   6.308
14621TIP3    H243807   5.161   4.812   6.366
14622TIP3   OH243808   6.151   0.675   0.371
14622TIP3    H143809   6.199   0.610   0.422
14622TIP3    H243810   6.191   0.673   0.284
14623TIP3   OH243811   7.169   2.864   6.217
14623TIP3    H143812   7.210   2.946   6.190
14623TIP3    H243813   7.181   2.862   6.312
14624TIP3   OH243814   7.857   5.760   5.080
14624TIP3    H143815   7.920   5.717   5.137
14624TIP3    H243816   7.891   5.745   4.991
14625TIP3   OH243817   5.559   0.875   6.323
14625TIP3    H143818   5.566   0.926   6.242
14625TIP3    H243819   5.602   0.930   6.389
14626TIP3   OH243820   3.466   7.097   6.523
14626TIP3    H143821   3.435   7.007   6.527
14626TIP3    H243822   3.561   7.090   6.533
14627TIP3   OH243823   7.979   2.449   5.346
14627TIP3    H143824   8.054   2.470   5.291
14627TIP3    H243825   7.980   2.353   5.353
14628TIP3   OH243826   4.855   0.659   2.844
14628TIP3    H143827   4.887   0.570   2.834
14628TIP3    H243828   4.762   0.653   2.821
14629TIP3   OH243829   1.961   2.417   0.837
14629TIP3    H143830   2.020   2.460   0.776
14629TIP3    H243831   1.969   2.324   0.816
14630TIP3   OH243832   3.529   4.379   4.501
14630TIP3    H143833   3.447   4.329   4.498
14630TIP3    H243834   3.548   4.398   4.409
14631TIP3   OH243835   2.484   6.554   4.883
14631TIP3    H143836   2.400   6.569   4.839
14631TIP3    H243837   2.521   6.478   4.838
14632TIP3   OH243838   6.482   0.809   6.461
14632TIP3    H143839   6.442   0.887   6.423
14632TIP3    H243840   6.538   0.775   6.391
14633TIP3   OH243841   6.179   7.491   5.809
14633TIP3    H143842   6.145   7.506   5.897
14633TIP3    H243843   6.221   7.574   5.785
14634TIP3   OH243844   4.093   3.556   0.604
14634TIP3    H143845   4.022   3.617   0.588
14634TIP3    H243846   4.131   3.539   0.517
14635TIP3   OH243847   5.204   1.870   2.992
14635TIP3    H143848   5.168   1.842   3.076
14635TIP3    H243849   5.296   1.887   3.010
14636TIP3   OH243850   0.357   1.395   3.437
14636TIP3    H143851   0.333   1.471   3.384
14636TIP3    H243852   0.273   1.355   3.460
14637TIP3   OH243853   6.665   5.042   3.333
14637TIP3    H143854   6.709   5.043   3.248
14637TIP3    H243855   6.686   5.128   3.371
14638TIP3   OH243856   2.668   0.381   4.576
14638TIP3    H143857   2.692   0.350   4.488
14638TIP3    H243858   2.737   0.444   4.598
14639TIP3   OH243859   3.373   7.096   1.929
14639TIP3    H143860   3.304   7.100   1.996
14639TIP3    H243861   3.454   7.107   1.979
14640TIP3   OH243862   3.339   0.635   0.226
14640TIP3    H143863   3.275   0.602   0.289
14640TIP3    H243864   3.423   0.607   0.260
14641TIP3   OH243865   5.424   7.622   3.376
14641TIP3    H143866   5.506   7.628   3.426
14641TIP3    H243867   5.435   7.686   3.305
14642TIP3   OH243868   6.256   1.854   6.291
14642TIP3    H143869   6.282   1.898   6.210
14642TIP3    H243870   6.293   1.766   6.284
14643TIP3   OH243871   0.962   4.692   6.334
14643TIP3    H143872   1.036   4.633   6.318
14643TIP3    H243873   0.946   4.686   6.428
14644TIP3   OH243874   5.491   5.144   4.469
14644TIP3    H143875   5.503   5.062   4.421
14644TIP3    H243876   5.492   5.212   4.402
14645TIP3   OH243877   5.294   0.056   0.856
14645TIP3    H143878   5.211   0.085   0.817
14645TIP3    H243879   5.328  -0.009   0.795
14646TIP3   OH243880   3.385   7.634   6.289
14646TIP3    H143881   3.395   7.543   6.315
14646TIP3    H243882   3.472   7.662   6.262
14647TIP3   OH243883   2.357   2.500   4.779
14647TIP3    H143884   2.320   2.522   4.864
14647TIP3    H243885   2.451   2.492   4.795
14648TIP3   OH243886   4.328   5.072   4.223
14648TIP3    H143887   4.269   5.023   4.280
14648TIP3    H243888   4.404   5.014   4.212
14649TIP3   OH243889   6.756   0.187   3.946
14649TIP3    H143890   6.679   0.244   3.945
14649TIP3    H243891   6.827   0.242   3.915
14650TIP3   OH243892   4.699   7.544   2.131
14650TIP3    H143893   4.625   7.538   2.191
14650TIP3    H243894   4.659   7.554   2.045
14651TIP3   OH243895   7.441   0.491   2.999
14651TIP3    H143896   7.376   0.558   3.021
14651TIP3    H243897   7.448   0.495   2.903
14652TIP3   OH243898   3.821   4.179   5.362
14652TIP3    H143899   3.872   4.259   5.348
14652TIP3    H243900   3.735   4.199   5.327
14653TIP3   OH243901   3.889   5.352   1.330
14653TIP3    H143902   3.859   5.269   1.292
14653TIP3    H243903   3.949   5.389   1.265
14654TIP3   OH243904   7.690   6.443   1.999
14654TIP3    H143905   7.635   6.480   2.068
14654TIP3    H243906   7.709   6.517   1.942
14655TIP3   OH243907   1.405   2.407   3.898
14655TIP3    H143908   1.438   2.323   3.931
14655TIP3    H243909   1.337   2.432   3.962
14656TIP3   OH243910   3.807   0.315   2.934
14656TIP3    H143911   3.858   0.234   2.935
14656TIP3    H243912   3.730   0.293   2.881
14657TIP3   OH243913   1.219   1.584   4.568
14657TIP3    H143914   1.227   1.600   4.474
14657TIP3    H243915   1.211   1.489   4.576
14658TIP3   OH243916   4.042   5.082   5.568
14658TIP3    H143917   4.101   5.151   5.538
14658TIP3    H243918   3.981   5.068   5.496
14659TIP3   OH243919   1.005   1.567   6.655
14659TIP3    H143920   0.923   1.520   6.672
14659TIP3    H243921   0.994   1.606   6.569
14660TIP3   OH243922   1.742   0.140   6.075
14660TIP3    H143923   1.744   0.056   6.120
14660TIP3    H243924   1.688   0.126   5.998
14661TIP3   OH243925   2.771   2.505   1.975
14661TIP3    H143926   2.706   2.520   1.906
14661TIP3    H243927   2.830   2.439   1.939
14662TIP3   OH243928   6.953   0.837   2.644
14662TIP3    H143929   6.969   0.801   2.732
14662TIP3    H243930   6.858   0.846   2.639
14663TIP3   OH243931   6.636   4.044   2.675
14663TIP3    H143932   6.578   4.102   2.626
14663TIP3    H243933   6.587   4.025   2.756
14664TIP3   OH243934   0.586   7.418   6.414
14664TIP3    H143935   0.583   7.323   6.409
14664TIP3    H243936   0.599   7.437   6.507
14665TIP3   OH243937   6.040   7.311   2.680
14665TIP3    H143938   5.948   7.334   2.667
14665TIP3    H243939   6.066   7.362   2.757
14666TIP3   OH243940   0.861   3.352   6.301
14666TIP3    H143941   0.827   3.438   6.275
14666TIP3    H243942   0.920   3.372   6.375
14667TIP3   OH243943   4.836   0.787   3.153
14667TIP3    H143944   4.829   0.693   3.171
14667TIP3    H243945   4.804   0.829   3.233
14668TIP3   OH243946   5.249   5.447   5.607
14668TIP3    H143947   5.165   5.454   5.652
14668TIP3    H243948   5.269   5.537   5.581
14669TIP3   OH243949   0.546   4.269   0.671
14669TIP3    H143950   0.468   4.310   0.708
14669TIP3    H243951   0.527   4.175   0.673
14670TIP3   OH243952   2.376   2.257   5.440
14670TIP3    H143953   2.444   2.277   5.376
14670TIP3    H243954   2.295   2.287   5.399
14671TIP3   OH243955   7.621   0.944   3.963
14671TIP3    H143956   7.698   0.963   3.910
14671TIP3    H243957   7.651   0.955   4.053
14672TIP3   OH243958   0.391   3.486   2.365
14672TIP3    H143959   0.373   3.561   2.308
14672TIP3    H243960   0.486   3.473   2.357
14673TIP3   OH243961   2.521   1.894   2.300
14673TIP3    H143962   2.578   1.851   2.236
14673TIP3    H243963   2.434   1.890   2.261
14674TIP3   OH243964   4.604   5.454   4.415
14674TIP3    H143965   4.665   5.515   4.456
14674TIP3    H243966   4.565   5.405   4.488
14675TIP3   OH243967   2.350   4.011   6.202
14675TIP3    H143968   2.360   4.051   6.289
14675TIP3    H243969   2.436   4.024   6.160
14676TIP3   OH243970   5.639   4.805   5.767
14676TIP3    H143971   5.572   4.841   5.708
14676TIP3    H243972   5.708   4.871   5.768
14677TIP3   OH243973   5.670   7.588   5.331
14677TIP3    H143974   5.599   7.632   5.285
14677TIP3    H243975   5.710   7.531   5.265
14678TIP3   OH243976   5.843   0.759   5.111
14678TIP3    H143977   5.850   0.829   5.176
14678TIP3    H243978   5.852   0.678   5.160
14679TIP3   OH243979   6.491   5.809   6.560
14679TIP3    H143980   6.471   5.902   6.560
14679TIP3    H243981   6.421   5.770   6.613
14680TIP3   OH243982   6.331   3.303   0.976
14680TIP3    H143983   6.410   3.355   0.994
14680TIP3    H243984   6.362   3.213   0.972
14681TIP3   OH243985   6.733   1.461   4.910
14681TIP3    H143986   6.698   1.449   4.821
14681TIP3    H243987   6.659   1.445   4.967
14682TIP3   OH243988   7.032   1.328   3.017
14682TIP3    H143989   7.004   1.303   3.105
14682TIP3    H243990   7.127   1.338   3.024
14683TIP3   OH243991   1.277   2.830   1.299
14683TIP3    H143992   1.271   2.904   1.238
14683TIP3    H243993   1.371   2.820   1.315
14684TIP3   OH243994   1.509   6.741   4.606
14684TIP3    H143995   1.539   6.730   4.516
14684TIP3    H243996   1.474   6.654   4.630
14685TIP3   OH243997   6.861   6.692   3.864
14685TIP3    H143998   6.899   6.777   3.884
14685TIP3    H243999   6.921   6.653   3.800
14686TIP3   OH244000   2.994   2.947   6.342
14686TIP3    H144001   2.971   3.013   6.277
14686TIP3    H244002   2.916   2.940   6.397
14687TIP3   OH244003   7.222   1.290   0.241
14687TIP3    H144004   7.202   1.198   0.258
14687TIP3    H244005   7.247   1.326   0.327
14688TIP3   OH244006   2.974   2.967   1.536
14688TIP3    H144007   2.894   3.019   1.527
14688TIP3    H244008   2.943   2.879   1.560
14689TIP3   OH244009   7.785   7.054   0.316
14689TIP3    H144010   7.856   6.997   0.346
14689TIP3    H244011   7.822   7.102   0.242
14690TIP3   OH244012   6.488   4.519   3.802
14690TIP3    H144013   6.447   4.441   3.838
14690TIP3    H244014   6.455   4.591   3.855
14691TIP3   OH244015   4.514   4.554   6.681
14691TIP3    H144016   4.581   4.507   6.631
14691TIP3    H244017   4.485   4.624   6.622
14692TIP3   OH244018   7.090   4.777   6.152
14692TIP3    H144019   7.050   4.703   6.197
14692TIP3    H244020   7.027   4.801   6.084
14693TIP3   OH244021   1.473   6.462   4.653
14693TIP3    H144022   1.406   6.405   4.615
14693TIP3    H244023   1.452   6.466   4.746
14694TIP3   OH244024   2.270   3.476   4.748
14694TIP3    H144025   2.299   3.567   4.746
14694TIP3    H244026   2.240   3.462   4.837
14695TIP3   OH244027   3.280   1.021   5.802
14695TIP3    H144028   3.203   1.037   5.749
14695TIP3    H244029   3.246   0.992   5.886
14696TIP3   OH244030   3.555   1.621   4.499
14696TIP3    H144031   3.593   1.709   4.494
14696TIP3    H244032   3.599   1.580   4.573
14697TIP3   OH244033   5.493   3.574   1.587
14697TIP3    H144034   5.413   3.533   1.553
14697TIP3    H244035   5.461   3.639   1.650
14698TIP3   OH244036   5.652   5.684   5.396
14698TIP3    H144037   5.614   5.769   5.375
14698TIP3    H244038   5.598   5.650   5.467
14699TIP3   OH244039   6.256   2.305   2.135
14699TIP3    H144040   6.284   2.394   2.113
14699TIP3    H244041   6.161   2.309   2.135
14700TIP3   OH244042   5.440   4.843   6.540
14700TIP3    H144043   5.372   4.840   6.473
14700TIP3    H244044   5.502   4.775   6.514
14701TIP3   OH244045   1.399   4.114   2.805
14701TIP3    H144046   1.371   4.042   2.862
14701TIP3    H244047   1.431   4.070   2.726
14702TIP3   OH244048   5.413   0.987   3.149
14702TIP3    H144049   5.481   1.019   3.209
14702TIP3    H244050   5.430   1.032   3.067
14703TIP3   OH244051   6.420   2.577   0.742
14703TIP3    H144052   6.433   2.580   0.647
14703TIP3    H244053   6.354   2.509   0.755
14704TIP3   OH244054   5.750   6.762   3.726
14704TIP3    H144055   5.760   6.680   3.775
14704TIP3    H244056   5.810   6.752   3.652
14705TIP3   OH244057   2.836   0.968   0.486
14705TIP3    H144058   2.833   1.062   0.470
14705TIP3    H244059   2.888   0.958   0.565
14706TIP3   OH244060   1.322   4.215   4.330
14706TIP3    H144061   1.268   4.249   4.258
14706TIP3    H244062   1.267   4.225   4.408
14707TIP3   OH244063   5.331   4.166   4.453
14707TIP3    H144064   5.351   4.254   4.420
14707TIP3    H244065   5.290   4.182   4.538
14708TIP3   OH244066   7.191   0.767   4.442
14708TIP3    H144067   7.169   0.844   4.390
14708TIP3    H244068   7.195   0.800   4.532
14709TIP3   OH244069   3.716   6.228   1.197
14709TIP3    H144070   3.665   6.261   1.271
14709TIP3    H244071   3.797   6.279   1.200
14710TIP3   OH244072   8.036   2.867   0.860
14710TIP3    H144073   8.102   2.830   0.919
14710TIP3    H244074   7.953   2.831   0.892
14711TIP3   OH244075   3.496   6.873   0.729
14711TIP3    H144076   3.412   6.829   0.716
14711TIP3    H244077   3.550   6.846   0.655
14712TIP3   OH244078   6.971   3.663   4.312
14712TIP3    H144079   6.958   3.626   4.225
14712TIP3    H244080   7.034   3.734   4.298
14713TIP3   OH244081   3.910   5.488   1.075
14713TIP3    H144082   3.889   5.478   0.983
14713TIP3    H244083   3.867   5.570   1.101
14714TIP3   OH244084   6.997   1.179   2.026
14714TIP3    H144085   6.958   1.113   1.969
14714TIP3    H244086   6.933   1.249   2.030
14715TIP3   OH244087   5.344   6.775   5.618
14715TIP3    H144088   5.389   6.756   5.701
14715TIP3    H244089   5.299   6.858   5.635
14716TIP3   OH244090   5.093   6.365   4.768
14716TIP3    H144091   5.132   6.438   4.816
14716TIP3    H244092   5.089   6.294   4.832
14717TIP3   OH244093   0.297   5.760   1.527
14717TIP3    H144094   0.234   5.710   1.579
14717TIP3    H244095   0.290   5.724   1.439
14718TIP3   OH244096   0.518   0.754   6.174
14718TIP3    H144097   0.514   0.811   6.098
14718TIP3    H244098   0.552   0.809   6.244
14719TIP3   OH244099   6.073   0.575   0.894
14719TIP3    H144100   6.103   0.664   0.907
14719TIP3    H244101   6.008   0.561   0.962
14720TIP3   OH244102   0.288   0.275   2.657
14720TIP3    H144103   0.220   0.339   2.639
14720TIP3    H244104   0.370   0.322   2.644
14721TIP3   OH244105   3.206   7.738   2.290
14721TIP3    H144106   3.188   7.650   2.256
14721TIP3    H244107   3.275   7.725   2.355
14722TIP3   OH244108   0.952   4.028   5.423
14722TIP3    H144109   0.969   4.036   5.329
14722TIP3    H244110   0.886   4.095   5.442
14723TIP3   OH244111   6.003   2.547   2.845
14723TIP3    H144112   5.982   2.577   2.757
14723TIP3    H244113   6.098   2.538   2.845
14724TIP3   OH244114   0.998   4.021   1.510
14724TIP3    H144115   1.063   4.081   1.472
14724TIP3    H244116   0.986   3.954   1.443
14725TIP3   OH244117   1.051   2.656   4.353
14725TIP3    H144118   1.035   2.635   4.445
14725TIP3    H244119   1.141   2.687   4.350
14726TIP3   OH244120   3.030   1.387   3.467
14726TIP3    H144121   3.094   1.414   3.402
14726TIP3    H244122   3.077   1.326   3.523
14727TIP3   OH244123   2.091   4.224   1.136
14727TIP3    H144124   2.160   4.234   1.202
14727TIP3    H244125   2.100   4.134   1.106
14728TIP3   OH244126   2.775   6.336   2.695
14728TIP3    H144127   2.760   6.428   2.677
14728TIP3    H244128   2.777   6.294   2.609
14729TIP3   OH244129   2.617   7.333   5.804
14729TIP3    H144130   2.577   7.295   5.727
14729TIP3    H244131   2.670   7.405   5.770
14730TIP3   OH244132   6.335   2.618   4.104
14730TIP3    H144133   6.405   2.637   4.041
14730TIP3    H244134   6.264   2.583   4.051
14731TIP3   OH244135   6.745   7.383   6.057
14731TIP3    H144136   6.699   7.313   6.105
14731TIP3    H244137   6.784   7.339   5.982
14732TIP3   OH244138   4.591   1.424   0.327
14732TIP3    H144139   4.643   1.428   0.247
14732TIP3    H244140   4.569   1.332   0.337
14733TIP3   OH244141   4.512   4.558   4.975
14733TIP3    H144142   4.429   4.606   4.977
14733TIP3    H244143   4.540   4.555   5.067
14734TIP3   OH244144   2.036   6.974   4.615
14734TIP3    H144145   2.058   6.881   4.627
14734TIP3    H244146   2.103   7.021   4.664
14735TIP3   OH244147   3.583   2.725   5.141
14735TIP3    H144148   3.520   2.739   5.212
14735TIP3    H244149   3.568   2.799   5.081
14736TIP3   OH244150   4.111   3.470   6.536
14736TIP3    H144151   4.179   3.535   6.550
14736TIP3    H244152   4.157   3.387   6.531
14737TIP3   OH244153   5.975   4.402   0.778
14737TIP3    H144154   5.938   4.450   0.705
14737TIP3    H244155   5.903   4.395   0.841
14738TIP3   OH244156   1.370   3.539   2.028
14738TIP3    H144157   1.392   3.619   1.980
14738TIP3    H244158   1.390   3.558   2.119
14739TIP3   OH244159   2.772   6.005   0.199
14739TIP3    H144160   2.755   6.012   0.105
14739TIP3    H244161   2.685   6.010   0.239
14740TIP3   OH244162   3.328   7.248   0.908
14740TIP3    H144163   3.273   7.171   0.921
14740TIP3    H244164   3.404   7.215   0.860
14741TIP3   OH244165   4.539   4.700   5.631
14741TIP3    H144166   4.491   4.709   5.549
14741TIP3    H244167   4.521   4.611   5.661
14742TIP3   OH244168   1.698   5.563   2.107
14742TIP3    H144169   1.647   5.493   2.149
14742TIP3    H244170   1.692   5.543   2.013
14743TIP3   OH244171   5.750   1.280   6.132
14743TIP3    H144172   5.785   1.341   6.197
14743TIP3    H244173   5.825   1.260   6.075
14744TIP3   OH244174   7.019   5.589   4.102
14744TIP3    H144175   6.998   5.508   4.149
14744TIP3    H244176   6.959   5.654   4.138
14745TIP3   OH244177   6.339   4.462   6.493
14745TIP3    H144178   6.331   4.556   6.510
14745TIP3    H244179   6.295   4.420   6.567
14746TIP3   OH244180   1.795   5.666   0.916
14746TIP3    H144181   1.864   5.621   0.867
14746TIP3    H244182   1.781   5.612   0.993
14747TIP3   OH244183   6.939   3.724   6.325
14747TIP3    H144184   7.015   3.686   6.368
14747TIP3    H244185   6.958   3.716   6.231
14748TIP3   OH244186   4.319   2.123   4.808
14748TIP3    H144187   4.260   2.113   4.733
14748TIP3    H244188   4.319   2.037   4.850
14749TIP3   OH244189   5.581   5.815   3.043
14749TIP3    H144190   5.646   5.776   2.985
14749TIP3    H244191   5.608   5.907   3.051
14750TIP3   OH244192   5.795   2.693   0.570
14750TIP3    H144193   5.764   2.602   0.565
14750TIP3    H244194   5.861   2.699   0.501
14751TIP3   OH244195   2.257   2.790   4.879
14751TIP3    H144196   2.260   2.883   4.902
14751TIP3    H244197   2.244   2.745   4.963
14752TIP3   OH244198   4.306   7.047   3.160
14752TIP3    H144199   4.372   7.070   3.225
14752TIP3    H244200   4.224   7.081   3.195
14753TIP3   OH244201   1.209   3.140   3.197
14753TIP3    H144202   1.245   3.217   3.152
14753TIP3    H244203   1.262   3.131   3.276
14754TIP3   OH244204   5.179   0.995   5.936
14754TIP3    H144205   5.190   0.987   6.031
14754TIP3    H244206   5.085   0.984   5.922
14755TIP3   OH244207   2.532   7.388   4.232
14755TIP3    H144208   2.580   7.446   4.174
14755TIP3    H244209   2.532   7.304   4.188
14756TIP3   OH244210   7.447   6.755   6.526
14756TIP3    H144211   7.423   6.759   6.434
14756TIP3    H244212   7.479   6.843   6.546
14757TIP3   OH244213   7.014   4.206   0.106
14757TIP3    H144214   6.978   4.135   0.160
14757TIP3    H244215   7.020   4.281   0.165
14758TIP3   OH244216   4.648   1.527   1.005
14758TIP3    H144217   4.621   1.587   1.073
14758TIP3    H244218   4.639   1.576   0.924
14759TIP3   OH244219   4.881   2.767   6.679
14759TIP3    H144220   4.946   2.768   6.749
14759TIP3    H244221   4.819   2.698   6.705
14760TIP3   OH244222   1.543   1.318   2.600
14760TIP3    H144223   1.528   1.373   2.677
14760TIP3    H244224   1.636   1.296   2.605
14761TIP3   OH244225   1.367   2.025   0.698
14761TIP3    H144226   1.386   2.079   0.775
14761TIP3    H244227   1.371   2.086   0.624
14762TIP3   OH244228   7.516   2.510   2.588
14762TIP3    H144229   7.442   2.506   2.527
14762TIP3    H244230   7.588   2.470   2.539
14763TIP3   OH244231   4.031   2.489   6.652
14763TIP3    H144232   4.025   2.394   6.660
14763TIP3    H244233   3.978   2.510   6.576
14764TIP3   OH244234   3.418   0.033   2.624
14764TIP3    H144235   3.364   0.110   2.607
14764TIP3    H244236   3.386  -0.033   2.561
14765TIP3   OH244237   6.351   2.443   1.466
14765TIP3    H144238   6.352   2.491   1.549
14765TIP3    H244239   6.284   2.377   1.476
14766TIP3   OH244240   1.016   3.188   2.774
14766TIP3    H144241   0.967   3.159   2.697
14766TIP3    H244242   1.108   3.178   2.749
14767TIP3   OH244243   1.663   6.271   4.012
14767TIP3    H144244   1.658   6.367   4.011
14767TIP3    H244245   1.711   6.250   4.092
14768TIP3   OH244246   3.304   1.492   1.959
14768TIP3    H144247   3.322   1.544   2.037
14768TIP3    H244248   3.341   1.406   1.978
14769TIP3   OH244249   4.829   1.977   0.537
14769TIP3    H144250   4.752   2.012   0.581
14769TIP3    H244251   4.795   1.925   0.465
14770TIP3   OH244252   7.894   1.902   6.022
14770TIP3    H144253   7.892   1.903   5.926
14770TIP3    H244254   7.909   1.994   6.046
14771TIP3   OH244255   3.705   7.578   5.042
14771TIP3    H144256   3.630   7.613   5.091
14771TIP3    H244257   3.666   7.535   4.966
14772TIP3   OH244258   4.773   5.962   0.611
14772TIP3    H144259   4.868   5.973   0.606
14772TIP3    H244260   4.741   5.983   0.523
14773TIP3   OH244261   6.418   6.421   4.656
14773TIP3    H144262   6.464   6.340   4.678
14773TIP3    H244263   6.368   6.400   4.578
14774TIP3   OH244264   0.317   6.023   5.735
14774TIP3    H144265   0.402   6.058   5.761
14774TIP3    H244266   0.337   5.951   5.675
14775TIP3   OH244267   7.041   0.704   0.698
14775TIP3    H144268   7.029   0.609   0.703
14775TIP3    H244269   6.953   0.739   0.691
14776TIP3   OH244270   5.736   5.081   5.658
14776TIP3    H144271   5.797   5.144   5.619
14776TIP3    H244272   5.649   5.114   5.634
14777TIP3   OH244273   7.075   3.350   0.735
14777TIP3    H144274   7.119   3.355   0.651
14777TIP3    H244275   7.133   3.298   0.790
14778TIP3   OH244276   3.062   1.482   1.769
14778TIP3    H144277   3.145   1.434   1.770
14778TIP3    H244278   3.001   1.423   1.726
14779TIP3   OH244279   2.535   1.524   1.073
14779TIP3    H144280   2.542   1.428   1.071
14779TIP3    H244281   2.561   1.548   1.162
14780TIP3   OH244282   2.980   0.070   4.708
14780TIP3    H144283   3.028   0.057   4.627
14780TIP3    H244284   2.893   0.033   4.691
14781TIP3   OH244285   7.596   0.308   2.708
14781TIP3    H144286   7.683   0.307   2.668
14781TIP3    H244287   7.597   0.234   2.769
14782TIP3   OH244288   3.204   2.879   4.030
14782TIP3    H144289   3.137   2.815   4.054
14782TIP3    H244290   3.156   2.949   3.986
14783TIP3   OH244291   3.506   7.431   6.483
14783TIP3    H144292   3.487   7.368   6.552
14783TIP3    H244293   3.499   7.381   6.401
14784TIP3   OH244294   4.069   3.386   1.465
14784TIP3    H144295   4.131   3.436   1.412
14784TIP3    H244296   4.118   3.365   1.545
14785TIP3   OH244297   6.287   0.564   5.934
14785TIP3    H144298   6.206   0.562   5.983
14785TIP3    H244299   6.352   0.599   5.995
14786TIP3   OH244300   5.499   2.263   3.533
14786TIP3    H144301   5.531   2.196   3.593
14786TIP3    H244302   5.403   2.260   3.543
14787TIP3   OH244303   1.177   2.412   0.935
14787TIP3    H144304   1.181   2.482   1.000
14787TIP3    H244305   1.130   2.450   0.861
14788TIP3   OH244306   2.870   3.239   4.919
14788TIP3    H144307   2.779   3.211   4.933
14788TIP3    H244308   2.873   3.329   4.953
14789TIP3   OH244309   5.969   6.525   2.447
14789TIP3    H144310   5.992   6.600   2.393
14789TIP3    H244311   6.007   6.450   2.401
14790TIP3   OH244312   3.701   5.311   6.702
14790TIP3    H144313   3.738   5.375   6.763
14790TIP3    H244314   3.634   5.359   6.654
14791TIP3   OH244315   1.407   0.988   4.259
14791TIP3    H144316   1.458   0.980   4.340
14791TIP3    H244317   1.362   0.904   4.250
14792TIP3   OH244318   0.440   4.527   2.365
14792TIP3    H144319   0.436   4.446   2.314
14792TIP3    H244320   0.417   4.596   2.303
14793TIP3   OH244321   4.258   5.148  -0.023
14793TIP3    H144322   4.351   5.149  -0.043
14793TIP3    H244323   4.249   5.086   0.049
14794TIP3   OH244324   1.605   3.303   1.859
14794TIP3    H144325   1.528   3.249   1.876
14794TIP3    H244326   1.622   3.348   1.942
14795TIP3   OH244327   6.767   5.808   2.037
14795TIP3    H144328   6.704   5.877   2.059
14795TIP3    H244329   6.826   5.804   2.112
14796TIP3   OH244330   1.270   1.336   1.065
14796TIP3    H144331   1.239   1.325   1.155
14796TIP3    H244332   1.363   1.311   1.068
14797TIP3   OH244333   7.741   6.844   0.970
14797TIP3    H144334   7.695   6.873   1.049
14797TIP3    H244335   7.786   6.763   0.996
14798TIP3   OH244336   5.692   0.948   6.060
14798TIP3    H144337   5.741   0.986   5.987
14798TIP3    H244338   5.760   0.924   6.124
14799TIP3   OH244339   4.558   2.645   5.721
14799TIP3    H144340   4.554   2.551   5.739
14799TIP3    H244341   4.469   2.668   5.695
14800TIP3   OH244342   4.417   4.859   3.900
14800TIP3    H144343   4.391   4.862   3.993
14800TIP3    H244344   4.343   4.815   3.857
14801TIP3   OH244345   2.976   5.134   6.307
14801TIP3    H144346   3.008   5.046   6.327
14801TIP3    H244347   2.905   5.119   6.244
14802TIP3   OH244348   5.022   3.778   2.959
14802TIP3    H144349   4.974   3.697   2.972
14802TIP3    H244350   5.030   3.787   2.864
14803TIP3   OH244351   1.760   7.045   0.444
14803TIP3    H144352   1.806   7.109   0.390
14803TIP3    H244353   1.726   6.982   0.381
14804TIP3   OH244354   2.556   4.585   6.312
14804TIP3    H144355   2.570   4.521   6.243
14804TIP3    H244356   2.512   4.536   6.382
14805TIP3   OH244357   2.364   3.341   1.046
14805TIP3    H144358   2.369   3.352   0.951
14805TIP3    H244359   2.444   3.382   1.079
14806TIP3   OH244360   7.388   6.236   0.281
14806TIP3    H144361   7.442   6.216   0.357
14806TIP3    H244362   7.436   6.199   0.207
14807TIP3   OH244363   3.852   6.481   4.743
14807TIP3    H144364   3.802   6.439   4.674
14807TIP3    H244365   3.810   6.566   4.755
14808TIP3   OH244366   4.360   6.790   5.831
14808TIP3    H144367   4.363   6.781   5.736
14808TIP3    H244368   4.435   6.740   5.862
14809TIP3   OH244369   5.613   7.121   4.087
14809TIP3    H144370   5.625   7.027   4.101
14809TIP3    H244371   5.535   7.127   4.032
14810TIP3   OH244372   7.023   3.396   2.458
14810TIP3    H144373   7.105   3.348   2.446
14810TIP3    H244374   7.042   3.460   2.527
14811TIP3   OH244375   3.878   1.518   4.410
14811TIP3    H144376   3.893   1.534   4.316
14811TIP3    H244377   3.816   1.586   4.436
14812TIP3   OH244378   2.722   4.342   4.203
14812TIP3    H144379   2.807   4.359   4.242
14812TIP3    H244380   2.661   4.346   4.276
14813TIP3   OH244381   7.190   3.090   1.216
14813TIP3    H144382   7.225   3.039   1.289
14813TIP3    H244383   7.265   3.104   1.158
14814TIP3   OH244384   4.011   0.161   2.126
14814TIP3    H144385   4.091   0.135   2.079
14814TIP3    H244386   3.948   0.180   2.056
14815TIP3   OH244387   0.113   7.408   2.274
14815TIP3    H144388   0.019   7.401   2.260
14815TIP3    H244389   0.150   7.412   2.186
14816TIP3   OH244390   5.841   1.184   5.200
14816TIP3    H144391   5.913   1.236   5.163
14816TIP3    H244392   5.777   1.178   5.129
14817TIP3   OH244393   0.486   7.517   5.754
14817TIP3    H144394   0.469   7.521   5.660
14817TIP3    H244395   0.504   7.608   5.779
14818TIP3   OH244396   4.772   3.289   3.866
14818TIP3    H144397   4.720   3.336   3.932
14818TIP3    H244398   4.707   3.249   3.809
14819TIP3   OH244399   2.524   0.015   4.754
14819TIP3    H144400   2.470   0.047   4.682
14819TIP3    H244401   2.541   0.092   4.808
14820TIP3   OH244402   2.702   4.111   0.759
14820TIP3    H144403   2.653   4.185   0.723
14820TIP3    H244404   2.766   4.090   0.691
14821TIP3   OH244405   3.465   5.476   5.170
14821TIP3    H144406   3.467   5.562   5.126
14821TIP3    H244407   3.473   5.413   5.099
14822TIP3   OH244408   2.995   5.563   3.676
14822TIP3    H144409   2.901   5.550   3.692
14822TIP3    H244410   3.006   5.658   3.677
14823TIP3   OH244411   0.489   6.706   2.786
14823TIP3    H144412   0.463   6.617   2.763
14823TIP3    H244413   0.581   6.698   2.812
14824TIP3   OH244414   8.187   0.143   4.429
14824TIP3    H144415   8.271   0.163   4.471
14824TIP3    H244416   8.154   0.228   4.399
14825TIP3   OH244417   0.176   7.575   4.403
14825TIP3    H144418   0.224   7.610   4.478
14825TIP3    H244419   0.084   7.581   4.427
14826TIP3   OH244420   8.016   0.359   4.962
14826TIP3    H144421   8.052   0.277   4.927
14826TIP3    H244422   7.974   0.333   5.044
14827TIP3   OH244423   6.681   2.377   2.332
14827TIP3    H144424   6.615   2.310   2.348
14827TIP3    H244425   6.650   2.454   2.381
14828TIP3   OH244426   1.386   0.149   4.462
14828TIP3    H144427   1.480   0.130   4.466
14828TIP3    H244428   1.348   0.090   4.528
14829TIP3   OH244429   4.884   1.748   1.953
14829TIP3    H144430   4.826   1.756   2.028
14829TIP3    H244431   4.832   1.704   1.887
14830TIP3   OH244432   7.564   6.160   3.600
14830TIP3    H144433   7.528   6.104   3.531
14830TIP3    H244434   7.622   6.102   3.649
   8.29827   7.82369   6.77551   0.00000   0.00000  -2.76609   0.00000  -2.76609  -3.91184
