Title t= 313.00000 step= 156500
19942
    1ASP      N    1   1.237   2.386   3.466
    1ASP    HT1    2   1.257   2.422   3.562
    1ASP    HT2    3   1.167   2.310   3.470
    1ASP    HT3    4   1.194   2.464   3.413
    1ASP     CA    5   1.366   2.342   3.400
    1ASP     HA    6   1.426   2.432   3.398
    1ASP     CB    7   1.418   2.226   3.484
    1ASP    HB1    8   1.349   2.142   3.502
    1ASP    HB2    9   1.431   2.268   3.586
    1ASP     CG   10   1.553   2.179   3.427
    1ASP    OD1   11   1.589   2.061   3.428
    1ASP    OD2   12   1.625   2.266   3.370
    1ASP      C   13   1.348   2.306   3.250
    1ASP      O   14   1.398   2.376   3.163
    2ALA      N   15   1.291   2.189   3.220
    2ALA     HN   16   1.261   2.129   3.294
    2ALA     CA   17   1.275   2.141   3.083
    2ALA     HA   18   1.274   2.223   3.013
    2ALA     CB   19   1.393   2.047   3.042
    2ALA    HB1   20   1.394   2.021   2.934
    2ALA    HB2   21   1.397   1.962   3.112
    2ALA    HB3   22   1.485   2.103   3.070
    2ALA      C   23   1.141   2.077   3.052
    2ALA      O   24   1.074   2.014   3.138
    3ASP      N   25   1.097   2.087   2.929
    3ASP     HN   26   1.157   2.127   2.860
    3ASP     CA   27   0.982   2.025   2.864
    3ASP     HA   28   0.900   2.020   2.935
    3ASP     CB   29   0.954   2.107   2.737
    3ASP    HB1   30   0.896   2.045   2.665
    3ASP    HB2   31   1.047   2.128   2.681
    3ASP     CG   32   0.883   2.235   2.767
    3ASP    OD1   33   0.852   2.279   2.883
    3ASP    OD2   34   0.862   2.310   2.669
    3ASP      C   35   1.017   1.879   2.823
    3ASP      O   36   1.133   1.835   2.821
    4GLY      N   37   0.921   1.799   2.800
    4GLY     HN   38   0.829   1.827   2.829
    4GLY     CA   39   0.946   1.665   2.757
    4GLY    HA1   40   0.855   1.615   2.730
    4GLY    HA2   41   0.983   1.618   2.848
    4GLY      C   42   1.034   1.632   2.641
    4GLY      O   43   1.029   1.712   2.546
    5PRO      N   44   1.111   1.531   2.637
    5PRO     CD   45   1.164   1.458   2.752
    5PRO    HD1   46   1.072   1.432   2.810
    5PRO    HD2   47   1.214   1.532   2.818
    5PRO     CA   48   1.187   1.492   2.513
    5PRO     HA   49   1.276   1.553   2.510
    5PRO     CB   50   1.238   1.345   2.546
    5PRO    HB1   51   1.326   1.323   2.482
    5PRO    HB2   52   1.161   1.272   2.513
    5PRO     CG   53   1.261   1.353   2.693
    5PRO    HG1   54   1.250   1.252   2.736
    5PRO    HG2   55   1.366   1.385   2.707
    5PRO      C   56   1.127   1.503   2.373
    5PRO      O   57   1.015   1.463   2.351
    6GLY      N   58   1.199   1.565   2.270
    6GLY     HN   59   1.293   1.599   2.277
    6GLY     CA   60   1.152   1.578   2.137
    6GLY    HA1   61   1.191   1.672   2.104
    6GLY    HA2   62   1.044   1.576   2.142
    6GLY      C   63   1.207   1.466   2.048
    6GLY      O   64   1.131   1.408   1.973
    7ASP      N   65   1.338   1.439   2.055
    7ASP     HN   66   1.402   1.493   2.108
    7ASP     CA   67   1.402   1.320   2.005
    7ASP     HA   68   1.365   1.310   1.903
    7ASP     CB   69   1.549   1.342   2.009
    7ASP    HB1   70   1.568   1.352   2.118
    7ASP    HB2   71   1.558   1.414   1.925
    7ASP     CG   72   1.639   1.229   1.973
    7ASP    OD1   73   1.600   1.136   1.904
    7ASP    OD2   74   1.762   1.234   2.009
    7ASP      C   75   1.354   1.196   2.088
    7ASP      O   76   1.360   1.196   2.207
    8PRO      N   77   1.315   1.082   2.029
    8PRO     CD   78   1.261   1.081   1.890
    8PRO    HD1   79   1.342   1.040   1.825
    8PRO    HD2   80   1.238   1.184   1.856
    8PRO     CA   81   1.261   0.967   2.107
    8PRO     HA   82   1.186   1.000   2.178
    8PRO     CB   83   1.200   0.879   1.999
    8PRO    HB1   84   1.121   0.816   2.044
    8PRO    HB2   85   1.271   0.814   1.943
    8PRO     CG   86   1.144   0.981   1.897
    8PRO    HG1   87   1.115   0.931   1.802
    8PRO    HG2   88   1.057   1.031   1.945
    8PRO      C   89   1.365   0.890   2.182
    8PRO      O   90   1.329   0.824   2.277
    9ASP      N   91   1.501   0.909   2.147
    9ASP     HN   92   1.533   0.977   2.081
    9ASP     CA   93   1.606   0.835   2.209
    9ASP     HA   94   1.569   0.753   2.268
    9ASP     CB   95   1.707   0.804   2.098
    9ASP    HB1   96   1.809   0.770   2.126
    9ASP    HB2   97   1.728   0.894   2.038
    9ASP     CG   98   1.648   0.686   2.023
    9ASP    OD1   99   1.653   0.691   1.894
    9ASP    OD2  100   1.601   0.588   2.078
    9ASP      C  101   1.669   0.925   2.313
    9ASP      O  102   1.774   0.894   2.375
   10ALA      N  103   1.612   1.048   2.340
   10ALA     HN  104   1.539   1.081   2.281
   10ALA     CA  105   1.650   1.135   2.459
   10ALA     HA  106   1.756   1.119   2.475
   10ALA     CB  107   1.620   1.278   2.421
   10ALA    HB1  108   1.686   1.305   2.336
   10ALA    HB2  109   1.631   1.354   2.503
   10ALA    HB3  110   1.516   1.285   2.383
   10ALA      C  111   1.563   1.091   2.572
   10ALA      O  112   1.444   1.067   2.559
   11GLY      N  113   1.627   1.072   2.691
   11GLY     HN  114   1.721   1.104   2.700
   11GLY     CA  115   1.565   1.003   2.802
   11GLY    HA1  116   1.459   0.993   2.784
   11GLY    HA2  117   1.596   1.057   2.891
   11GLY      C  118   1.621   0.865   2.827
   11GLY    OT1  119   1.563   0.788   2.906
   11GLY    OT2  120   1.726   0.826   2.767
   12LIT    LIT  121   4.997   4.668   2.230
   13LIT    LIT  122   1.873   2.802   0.509
   14LIT    LIT  123   1.639   5.746   4.765
   15LIT    LIT  124   5.101   0.480   4.076
   16LIT    LIT  125   0.591   0.824   4.222
   17LIT    LIT  126   1.982   5.862   3.855
   18LIT    LIT  127   1.802   3.106   3.695
   19LIT    LIT  128   4.543   5.914   1.429
   20LIT    LIT  129   1.380   1.923   4.489
   21LIT    LIT  130   4.649   3.278   0.821
   22LIT    LIT  131   0.099   3.299   1.947
   23LIT    LIT  132   0.452   0.651   2.400
   24LIT    LIT  133   0.529   5.038   4.820
   25LIT    LIT  134   1.125   4.558   2.084
   26LIT    LIT  135   3.421   2.132   5.149
   27LIT    LIT  136   5.847   5.335   4.371
   28LIT    LIT  137   1.740   2.091   3.321
   29LIT    LIT  138   2.597   5.222   3.025
   30LIT    LIT  139   2.706   0.360   4.575
   31LIT    LIT  140   4.731   3.287   2.018
   32LIT    LIT  141   5.270   5.913   2.283
   33LIT    LIT  142   4.093   0.385   0.364
   34CLA    CLA  143   2.140   4.365   1.923
   35CLA    CLA  144   4.598   5.937   3.205
   36CLA    CLA  145   5.151   3.368   2.865
   37CLA    CLA  146   4.465   1.967   3.195
   38CLA    CLA  147   1.483   2.701   3.429
   39CLA    CLA  148   1.317   5.935   2.043
   40CLA    CLA  149   0.557   0.455   5.105
   41CLA    CLA  150   1.227   3.243   0.378
   42CLA    CLA  151   5.573   5.615   1.033
   43CLA    CLA  152   0.740   1.772   4.462
   44CLA    CLA  153   2.123   5.742   0.746
   45CLA    CLA  154   1.749   2.427   4.066
   46CLA    CLA  155   4.480   2.706   3.717
   47CLA    CLA  156   3.629   2.238   5.095
   48CLA    CLA  157   5.219   3.379   0.186
   49CLA    CLA  158   5.203   5.749   2.668
   50CLA    CLA  159   2.334   4.564   1.206
   51CLA    CLA  160   2.792   5.581   0.924
   52TIP3   OH2  161   3.434   1.511   3.966
   52TIP3    H1  162   3.402   1.458   3.893
   52TIP3    H2  163   3.500   1.569   3.926
   53TIP3   OH2  164   1.119   2.688   1.189
   53TIP3    H1  165   1.166   2.730   1.117
   53TIP3    H2  166   1.038   2.656   1.149
   54TIP3   OH2  167   1.377   0.851   3.967
   54TIP3    H1  168   1.363   0.907   4.043
   54TIP3    H2  169   1.397   0.911   3.896
   55TIP3   OH2  170   1.488   0.090   1.571
   55TIP3    H1  171   1.500   0.179   1.603
   55TIP3    H2  172   1.444   0.101   1.486
   56TIP3   OH2  173   5.100   4.521   4.538
   56TIP3    H1  174   5.097   4.581   4.464
   56TIP3    H2  175   5.066   4.571   4.612
   57TIP3   OH2  176   4.274   4.328   3.025
   57TIP3    H1  177   4.300   4.271   2.953
   57TIP3    H2  178   4.356   4.368   3.055
   58TIP3   OH2  179   6.283   2.534   4.943
   58TIP3    H1  180   6.268   2.603   5.008
   58TIP3    H2  181   6.321   2.579   4.868
   59TIP3   OH2  182   1.817   4.245   2.791
   59TIP3    H1  183   1.860   4.187   2.728
   59TIP3    H2  184   1.793   4.187   2.864
   60TIP3   OH2  185   4.275   2.993   0.258
   60TIP3    H1  186   4.255   3.083   0.282
   60TIP3    H2  187   4.258   2.943   0.338
   61TIP3   OH2  188   3.737   0.630   0.475
   61TIP3    H1  189   3.742   0.689   0.399
   61TIP3    H2  190   3.692   0.552   0.441
   62TIP3   OH2  191   4.101   2.383   0.761
   62TIP3    H1  192   4.140   2.442   0.696
   62TIP3    H2  193   4.042   2.327   0.711
   63TIP3   OH2  194   1.492   1.153   0.121
   63TIP3    H1  195   1.422   1.095   0.149
   63TIP3    H2  196   1.462   1.189   0.038
   64TIP3   OH2  197   1.833   4.210   3.095
   64TIP3    H1  198   1.758   4.154   3.117
   64TIP3    H2  199   1.826   4.284   3.154
   65TIP3   OH2  200   5.314   1.452   1.991
   65TIP3    H1  201   5.298   1.358   2.002
   65TIP3    H2  202   5.284   1.491   2.072
   66TIP3   OH2  203   1.806   4.244   4.404
   66TIP3    H1  204   1.759   4.190   4.467
   66TIP3    H2  205   1.817   4.329   4.447
   67TIP3   OH2  206   1.547   0.708   4.549
   67TIP3    H1  207   1.544   0.630   4.494
   67TIP3    H2  208   1.457   0.738   4.554
   68TIP3   OH2  209   3.795   1.021   2.846
   68TIP3    H1  210   3.753   0.956   2.791
   68TIP3    H2  211   3.846   1.075   2.786
   69TIP3   OH2  212   2.219   4.799   0.453
   69TIP3    H1  213   2.188   4.860   0.385
   69TIP3    H2  214   2.304   4.769   0.420
   70TIP3   OH2  215   4.321   0.599   4.131
   70TIP3    H1  216   4.323   0.677   4.075
   70TIP3    H2  217   4.343   0.527   4.072
   71TIP3   OH2  218   5.058   1.774   2.771
   71TIP3    H1  219   5.073   1.857   2.817
   71TIP3    H2  220   4.968   1.779   2.741
   72TIP3   OH2  221   5.243   4.214   1.638
   72TIP3    H1  222   5.271   4.250   1.554
   72TIP3    H2  223   5.159   4.172   1.619
   73TIP3   OH2  224   0.341   3.662   4.611
   73TIP3    H1  225   0.334   3.614   4.693
   73TIP3    H2  226   0.354   3.753   4.637
   74TIP3   OH2  227   4.851   1.506   2.502
   74TIP3    H1  228   4.778   1.444   2.505
   74TIP3    H2  229   4.857   1.540   2.592
   75TIP3   OH2  230   5.588   0.799   1.300
   75TIP3    H1  231   5.652   0.870   1.295
   75TIP3    H2  232   5.505   0.841   1.278
   76TIP3   OH2  233   2.587   4.696   4.631
   76TIP3    H1  234   2.564   4.705   4.539
   76TIP3    H2  235   2.580   4.602   4.648
   77TIP3   OH2  236   1.485   2.350   2.893
   77TIP3    H1  237   1.556   2.414   2.883
   77TIP3    H2  238   1.448   2.370   2.979
   78TIP3   OH2  239   5.583   3.153   2.774
   78TIP3    H1  240   5.541   3.232   2.810
   78TIP3    H2  241   5.578   3.164   2.679
   79TIP3   OH2  242   2.578   0.124   0.867
   79TIP3    H1  243   2.539   0.155   0.948
   79TIP3    H2  244   2.672   0.124   0.884
   80TIP3   OH2  245   0.075   4.955   0.540
   80TIP3    H1  246   0.099   4.892   0.608
   80TIP3    H2  247  -0.009   4.990   0.568
   81TIP3   OH2  248   1.044   2.358   4.778
   81TIP3    H1  249   1.087   2.351   4.863
   81TIP3    H2  250   0.971   2.419   4.792
   82TIP3   OH2  251   0.121   1.067   3.588
   82TIP3    H1  252   0.213   1.071   3.614
   82TIP3    H2  253   0.092   0.979   3.615
   83TIP3   OH2  254   4.467   3.759   2.474
   83TIP3    H1  255   4.479   3.835   2.531
   83TIP3    H2  256   4.383   3.775   2.430
   84TIP3   OH2  257   1.395   2.072   1.894
   84TIP3    H1  258   1.380   2.027   1.811
   84TIP3    H2  259   1.371   2.007   1.961
   85TIP3   OH2  260   1.187   1.470   0.072
   85TIP3    H1  261   1.272   1.495   0.109
   85TIP3    H2  262   1.177   1.528  -0.004
   86TIP3   OH2  263   3.045   3.964   0.658
   86TIP3    H1  264   3.054   3.920   0.573
   86TIP3    H2  265   3.135   3.979   0.687
   87TIP3   OH2  266   0.132   1.490   1.741
   87TIP3    H1  267   0.131   1.403   1.781
   87TIP3    H2  268   0.224   1.506   1.721
   88TIP3   OH2  269   2.173   1.774   2.889
   88TIP3    H1  270   2.112   1.814   2.826
   88TIP3    H2  271   2.239   1.841   2.904
   89TIP3   OH2  272   1.134   5.831   1.582
   89TIP3    H1  273   1.073   5.873   1.643
   89TIP3    H2  274   1.079   5.775   1.528
   90TIP3   OH2  275   5.434   5.345   2.107
   90TIP3    H1  276   5.450   5.259   2.070
   90TIP3    H2  277   5.434   5.404   2.032
   91TIP3   OH2  278   3.028   2.272   1.983
   91TIP3    H1  279   3.023   2.177   1.977
   91TIP3    H2  280   2.994   2.304   1.900
   92TIP3   OH2  281   5.483   3.157   0.783
   92TIP3    H1  282   5.464   3.202   0.865
   92TIP3    H2  283   5.504   3.227   0.721
   93TIP3   OH2  284   3.188   4.997   3.581
   93TIP3    H1  285   3.182   5.020   3.674
   93TIP3    H2  286   3.158   5.075   3.535
   94TIP3   OH2  287   5.586   4.381   2.460
   94TIP3    H1  288   5.625   4.442   2.524
   94TIP3    H2  289   5.492   4.390   2.474
   95TIP3   OH2  290   3.560   4.269   2.419
   95TIP3    H1  291   3.482   4.213   2.420
   95TIP3    H2  292   3.529   4.354   2.449
   96TIP3   OH2  293   6.271   4.626   1.277
   96TIP3    H1  294   6.249   4.541   1.238
   96TIP3    H2  295   6.188   4.674   1.277
   97TIP3   OH2  296   6.099   2.213   4.040
   97TIP3    H1  297   6.119   2.191   3.949
   97TIP3    H2  298   6.005   2.196   4.048
   98TIP3   OH2  299   2.922   4.451   0.259
   98TIP3    H1  300   2.887   4.456   0.348
   98TIP3    H2  301   3.017   4.456   0.270
   99TIP3   OH2  302   1.280   1.926   2.134
   99TIP3    H1  303   1.281   1.896   2.225
   99TIP3    H2  304   1.187   1.930   2.111
  100TIP3   OH2  305   5.469   4.368   3.620
  100TIP3    H1  306   5.425   4.406   3.696
  100TIP3    H2  307   5.553   4.414   3.616
  101TIP3   OH2  308   6.204   0.115   3.188
  101TIP3    H1  309   6.288   0.117   3.234
  101TIP3    H2  310   6.192   0.022   3.165
  102TIP3   OH2  311   4.485   2.277   3.267
  102TIP3    H1  312   4.469   2.183   3.271
  102TIP3    H2  313   4.415   2.316   3.318
  103TIP3   OH2  314   0.492   5.896   3.736
  103TIP3    H1  315   0.503   5.943   3.653
  103TIP3    H2  316   0.398   5.902   3.753
  104TIP3   OH2  317   2.120   4.960   0.238
  104TIP3    H1  318   2.115   4.887   0.175
  104TIP3    H2  319   2.141   5.036   0.184
  105TIP3   OH2  320   3.686   0.819   3.633
  105TIP3    H1  321   3.759   0.804   3.572
  105TIP3    H2  322   3.727   0.817   3.719
  106TIP3   OH2  323   6.318   5.164   2.595
  106TIP3    H1  324   6.236   5.114   2.590
  106TIP3    H2  325   6.369   5.135   2.520
  107TIP3   OH2  326   0.081   2.401   3.471
  107TIP3    H1  327   0.124   2.336   3.526
  107TIP3    H2  328   0.010   2.435   3.525
  108TIP3   OH2  329   5.712   2.258   3.162
  108TIP3    H1  330   5.663   2.179   3.183
  108TIP3    H2  331   5.795   2.226   3.127
  109TIP3   OH2  332   4.229   0.418   3.083
  109TIP3    H1  333   4.243   0.473   3.160
  109TIP3    H2  334   4.149   0.452   3.043
  110TIP3   OH2  335   3.997   1.703   3.544
  110TIP3    H1  336   3.985   1.637   3.476
  110TIP3    H2  337   3.981   1.657   3.626
  111TIP3   OH2  338   0.714   2.987   2.360
  111TIP3    H1  339   0.761   3.067   2.335
  111TIP3    H2  340   0.622   3.008   2.344
  112TIP3   OH2  341   4.143   5.148   1.473
  112TIP3    H1  342   4.196   5.210   1.522
  112TIP3    H2  343   4.179   5.062   1.495
  113TIP3   OH2  344   1.271   0.508   1.357
  113TIP3    H1  345   1.289   0.587   1.409
  113TIP3    H2  346   1.352   0.458   1.361
  114TIP3   OH2  347   5.409   1.139   2.654
  114TIP3    H1  348   5.399   1.190   2.735
  114TIP3    H2  349   5.494   1.165   2.620
  115TIP3   OH2  350   3.272   2.826   2.401
  115TIP3    H1  351   3.329   2.876   2.459
  115TIP3    H2  352   3.275   2.873   2.318
  116TIP3   OH2  353   2.818   2.600   2.092
  116TIP3    H1  354   2.808   2.689   2.126
  116TIP3    H2  355   2.907   2.575   2.116
  117TIP3   OH2  356   0.823   0.154   0.556
  117TIP3    H1  357   0.877   0.223   0.594
  117TIP3    H2  358   0.784   0.110   0.631
  118TIP3   OH2  359   0.070   0.566   3.993
  118TIP3    H1  360   0.092   0.640   4.049
  118TIP3    H2  361   0.091   0.488   4.045
  119TIP3   OH2  362   2.032   4.903   1.723
  119TIP3    H1  363   1.991   4.816   1.729
  119TIP3    H2  364   2.014   4.932   1.634
  120TIP3   OH2  365   0.545   1.425   2.557
  120TIP3    H1  366   0.553   1.366   2.482
  120TIP3    H2  367   0.635   1.443   2.583
  121TIP3   OH2  368   5.092   0.449   3.626
  121TIP3    H1  369   5.006   0.421   3.657
  121TIP3    H2  370   5.073   0.506   3.551
  122TIP3   OH2  371   2.436   6.025   0.794
  122TIP3    H1  372   2.448   6.030   0.889
  122TIP3    H2  373   2.460   5.936   0.771
  123TIP3   OH2  374   3.916   1.561   3.816
  123TIP3    H1  375   3.886   1.471   3.808
  123TIP3    H2  376   3.931   1.573   3.910
  124TIP3   OH2  377   4.941   3.657   2.198
  124TIP3    H1  378   4.932   3.741   2.243
  124TIP3    H2  379   4.937   3.591   2.268
  125TIP3   OH2  380   3.351   4.366   0.856
  125TIP3    H1  381   3.290   4.435   0.828
  125TIP3    H2  382   3.311   4.330   0.935
  126TIP3   OH2  383   0.176   5.649   3.480
  126TIP3    H1  384   0.198   5.738   3.454
  126TIP3    H2  385   0.259   5.602   3.479
  127TIP3   OH2  386   3.694   3.710   4.106
  127TIP3    H1  387   3.624   3.774   4.119
  127TIP3    H2  388   3.749   3.719   4.184
  128TIP3   OH2  389   3.594   3.983   1.395
  128TIP3    H1  390   3.509   4.024   1.415
  128TIP3    H2  391   3.573   3.918   1.328
  129TIP3   OH2  392   2.908   1.238   2.453
  129TIP3    H1  393   2.844   1.284   2.399
  129TIP3    H2  394   2.868   1.154   2.473
  130TIP3   OH2  395   5.355   4.424   4.736
  130TIP3    H1  396   5.276   4.376   4.711
  130TIP3    H2  397   5.427   4.368   4.707
  131TIP3   OH2  398   3.691   4.841   0.283
  131TIP3    H1  399   3.704   4.906   0.352
  131TIP3    H2  400   3.755   4.863   0.216
  132TIP3   OH2  401   4.775   1.391   0.799
  132TIP3    H1  402   4.786   1.484   0.781
  132TIP3    H2  403   4.746   1.353   0.716
  133TIP3   OH2  404   3.094   1.586   3.788
  133TIP3    H1  405   3.003   1.574   3.763
  133TIP3    H2  406   3.113   1.678   3.768
  134TIP3   OH2  407   2.167   3.035   4.950
  134TIP3    H1  408   2.104   2.970   4.981
  134TIP3    H2  409   2.221   2.987   4.887
  135TIP3   OH2  410   4.744   0.062   1.471
  135TIP3    H1  411   4.757   0.045   1.565
  135TIP3    H2  412   4.751   0.157   1.462
  136TIP3   OH2  413   4.529   2.872   4.659
  136TIP3    H1  414   4.439   2.851   4.681
  136TIP3    H2  415   4.549   2.816   4.584
  137TIP3   OH2  416   0.085   1.537   0.324
  137TIP3    H1  417   0.126   1.515   0.407
  137TIP3    H2  418   0.070   1.631   0.328
  138TIP3   OH2  419   4.506   5.949   4.719
  138TIP3    H1  420   4.424   5.946   4.669
  138TIP3    H2  421   4.528   5.857   4.734
  139TIP3   OH2  422   3.872   1.127   2.187
  139TIP3    H1  423   3.780   1.120   2.213
  139TIP3    H2  424   3.920   1.091   2.262
  140TIP3   OH2  425   5.940   0.654   2.501
  140TIP3    H1  426   5.991   0.733   2.485
  140TIP3    H2  427   5.861   0.664   2.447
  141TIP3   OH2  428   5.048   0.375   2.850
  141TIP3    H1  429   5.044   0.461   2.810
  141TIP3    H2  430   5.030   0.390   2.943
  142TIP3   OH2  431   1.170   5.824   0.260
  142TIP3    H1  432   1.122   5.817   0.178
  142TIP3    H2  433   1.122   5.767   0.321
  143TIP3   OH2  434   4.282   0.315   2.437
  143TIP3    H1  435   4.286   0.411   2.433
  143TIP3    H2  436   4.335   0.286   2.364
  144TIP3   OH2  437   0.521   5.203   3.895
  144TIP3    H1  438   0.461   5.172   3.827
  144TIP3    H2  439   0.596   5.145   3.889
  145TIP3   OH2  440   2.619   0.693   4.902
  145TIP3    H1  441   2.574   0.633   4.843
  145TIP3    H2  442   2.602   0.779   4.866
  146TIP3   OH2  443   1.798   4.680   4.791
  146TIP3    H1  444   1.850   4.710   4.717
  146TIP3    H2  445   1.831   4.593   4.811
  147TIP3   OH2  446   4.782   2.983   2.754
  147TIP3    H1  447   4.787   2.924   2.829
  147TIP3    H2  448   4.845   2.947   2.691
  148TIP3   OH2  449   1.076   3.265   2.992
  148TIP3    H1  450   1.127   3.342   2.966
  148TIP3    H2  451   1.141   3.203   3.025
  149TIP3   OH2  452   0.063   2.015   4.009
  149TIP3    H1  453   0.069   2.059   3.924
  149TIP3    H2  454  -0.029   1.988   4.016
  150TIP3   OH2  455   1.212   0.520   2.585
  150TIP3    H1  456   1.168   0.594   2.628
  150TIP3    H2  457   1.305   0.531   2.608
  151TIP3   OH2  458   5.426   1.686   2.584
  151TIP3    H1  459   5.362   1.616   2.595
  151TIP3    H2  460   5.377   1.757   2.542
  152TIP3   OH2  461   3.894   5.239   4.855
  152TIP3    H1  462   3.965   5.258   4.917
  152TIP3    H2  463   3.933   5.180   4.791
  153TIP3   OH2  464   6.346   0.481   3.730
  153TIP3    H1  465   6.284   0.553   3.725
  153TIP3    H2  466   6.392   0.493   3.813
  154TIP3   OH2  467   1.503   3.642   3.300
  154TIP3    H1  468   1.465   3.563   3.262
  154TIP3    H2  469   1.434   3.708   3.294
  155TIP3   OH2  470   2.284   4.277   0.804
  155TIP3    H1  471   2.267   4.235   0.889
  155TIP3    H2  472   2.379   4.286   0.800
  156TIP3   OH2  473   6.113   3.578   2.814
  156TIP3    H1  474   6.188   3.582   2.874
  156TIP3    H2  475   6.145   3.528   2.739
  157TIP3   OH2  476   1.096   3.649   1.805
  157TIP3    H1  477   1.171   3.615   1.757
  157TIP3    H2  478   1.102   3.607   1.891
  158TIP3   OH2  479   5.150   0.113   4.756
  158TIP3    H1  480   5.203   0.192   4.768
  158TIP3    H2  481   5.098   0.106   4.836
  159TIP3   OH2  482   5.373   3.735   4.745
  159TIP3    H1  483   5.375   3.800   4.815
  159TIP3    H2  484   5.342   3.782   4.669
  160TIP3   OH2  485   0.872   3.997   1.046
  160TIP3    H1  486   0.915   3.927   0.997
  160TIP3    H2  487   0.787   3.961   1.072
  161TIP3   OH2  488   4.036   0.650   2.759
  161TIP3    H1  489   4.065   0.600   2.682
  161TIP3    H2  490   4.078   0.735   2.749
  162TIP3   OH2  491   0.146   1.607   3.811
  162TIP3    H1  492   0.229   1.579   3.849
  162TIP3    H2  493   0.097   1.643   3.886
  163TIP3   OH2  494   2.334   1.853   3.736
  163TIP3    H1  495   2.298   1.941   3.723
  163TIP3    H2  496   2.317   1.833   3.828
  164TIP3   OH2  497   5.667   1.128   3.770
  164TIP3    H1  498   5.734   1.157   3.832
  164TIP3    H2  499   5.710   1.062   3.717
  165TIP3   OH2  500   2.625   1.631   1.239
  165TIP3    H1  501   2.556   1.646   1.173
  165TIP3    H2  502   2.705   1.625   1.188
  166TIP3   OH2  503   3.925   1.159   4.127
  166TIP3    H1  504   3.855   1.206   4.172
  166TIP3    H2  505   3.942   1.082   4.182
  167TIP3   OH2  506   1.448   0.277   4.268
  167TIP3    H1  507   1.386   0.333   4.315
  167TIP3    H2  508   1.510   0.337   4.229
  168TIP3   OH2  509   0.063   2.204   4.474
  168TIP3    H1  510   0.043   2.197   4.567
  168TIP3    H2  511   0.101   2.119   4.452
  169TIP3   OH2  512   4.723   0.361   2.796
  169TIP3    H1  513   4.795   0.313   2.837
  169TIP3    H2  514   4.644   0.324   2.836
  170TIP3   OH2  515   5.361   2.784   3.556
  170TIP3    H1  516   5.366   2.861   3.498
  170TIP3    H2  517   5.406   2.715   3.508
  171TIP3   OH2  518   5.974   0.749   1.126
  171TIP3    H1  519   5.956   0.722   1.216
  171TIP3    H2  520   5.892   0.789   1.097
  172TIP3   OH2  521   2.170   4.154   3.793
  172TIP3    H1  522   2.171   4.074   3.846
  172TIP3    H2  523   2.235   4.139   3.724
  173TIP3   OH2  524   3.126   0.368   1.652
  173TIP3    H1  525   3.185   0.343   1.724
  173TIP3    H2  526   3.040   0.338   1.681
  174TIP3   OH2  527   4.728   1.772   2.004
  174TIP3    H1  528   4.747   1.680   2.024
  174TIP3    H2  529   4.642   1.788   2.042
  175TIP3   OH2  530   5.006   1.879   0.565
  175TIP3    H1  531   5.034   1.889   0.656
  175TIP3    H2  532   4.996   1.785   0.553
  176TIP3   OH2  533   6.251   3.393   3.173
  176TIP3    H1  534   6.199   3.322   3.135
  176TIP3    H2  535   6.196   3.470   3.166
  177TIP3   OH2  536   6.008   4.587   0.674
  177TIP3    H1  537   5.968   4.513   0.720
  177TIP3    H2  538   6.096   4.557   0.652
  178TIP3   OH2  539   1.569   2.094   2.650
  178TIP3    H1  540   1.606   2.024   2.595
  178TIP3    H2  541   1.608   2.080   2.736
  179TIP3   OH2  542   0.727   0.065   0.801
  179TIP3    H1  543   0.714  -0.017   0.849
  179TIP3    H2  544   0.719   0.133   0.868
  180TIP3   OH2  545   0.661   3.509   4.597
  180TIP3    H1  546   0.618   3.430   4.630
  180TIP3    H2  547   0.601   3.580   4.618
  181TIP3   OH2  548   5.924   3.831   2.315
  181TIP3    H1  549   6.015   3.805   2.329
  181TIP3    H2  550   5.905   3.890   2.388
  182TIP3   OH2  551   1.558   3.525   5.147
  182TIP3    H1  552   1.626   3.472   5.189
  182TIP3    H2  553   1.574   3.613   5.179
  183TIP3   OH2  554   5.826   4.392   1.453
  183TIP3    H1  555   5.851   4.484   1.455
  183TIP3    H2  556   5.862   4.355   1.534
  184TIP3   OH2  557   4.589   4.938   0.986
  184TIP3    H1  558   4.510   4.976   0.949
  184TIP3    H2  559   4.558   4.881   1.056
  185TIP3   OH2  560   4.371   5.728   3.608
  185TIP3    H1  561   4.416   5.795   3.660
  185TIP3    H2  562   4.442   5.674   3.573
  186TIP3   OH2  563   3.868   3.594   2.470
  186TIP3    H1  564   3.864   3.604   2.375
  186TIP3    H2  565   3.831   3.507   2.487
  187TIP3   OH2  566   4.683   5.798   1.468
  187TIP3    H1  567   4.648   5.710   1.478
  187TIP3    H2  568   4.772   5.793   1.502
  188TIP3   OH2  569   0.769   5.636   2.218
  188TIP3    H1  570   0.784   5.649   2.125
  188TIP3    H2  571   0.674   5.626   2.226
  189TIP3   OH2  572   2.382   1.388   0.460
  189TIP3    H1  573   2.320   1.461   0.465
  189TIP3    H2  574   2.448   1.409   0.527
  190TIP3   OH2  575   5.505   1.236   1.134
  190TIP3    H1  576   5.520   1.184   1.055
  190TIP3    H2  577   5.551   1.189   1.203
  191TIP3   OH2  578   5.185   2.504   4.496
  191TIP3    H1  579   5.125   2.517   4.423
  191TIP3    H2  580   5.256   2.566   4.478
  192TIP3   OH2  581   0.431   1.052   3.609
  192TIP3    H1  582   0.468   1.121   3.663
  192TIP3    H2  583   0.420   1.092   3.523
  193TIP3   OH2  584   3.269   3.408   0.192
  193TIP3    H1  585   3.212   3.452   0.255
  193TIP3    H2  586   3.318   3.479   0.151
  194TIP3   OH2  587   3.580   5.671   3.886
  194TIP3    H1  588   3.546   5.597   3.836
  194TIP3    H2  589   3.572   5.644   3.977
  195TIP3   OH2  590   3.909   0.799   0.588
  195TIP3    H1  591   3.943   0.779   0.676
  195TIP3    H2  592   3.836   0.738   0.576
  196TIP3   OH2  593   3.501   5.108   3.525
  196TIP3    H1  594   3.473   5.020   3.550
  196TIP3    H2  595   3.580   5.124   3.576
  197TIP3   OH2  596   3.635   5.500   1.508
  197TIP3    H1  597   3.694   5.550   1.564
  197TIP3    H2  598   3.578   5.565   1.467
  198TIP3   OH2  599   6.174   0.380   1.740
  198TIP3    H1  600   6.084   0.347   1.734
  198TIP3    H2  601   6.225   0.303   1.766
  199TIP3   OH2  602   1.859   3.547   4.739
  199TIP3    H1  603   1.937   3.602   4.735
  199TIP3    H2  604   1.866   3.501   4.823
  200TIP3   OH2  605   5.526   3.413   0.654
  200TIP3    H1  606   5.475   3.446   0.579
  200TIP3    H2  607   5.613   3.450   0.642
  201TIP3   OH2  608   0.708   3.301   3.376
  201TIP3    H1  609   0.777   3.305   3.310
  201TIP3    H2  610   0.703   3.391   3.410
  202TIP3   OH2  611   1.727   5.838   4.135
  202TIP3    H1  612   1.773   5.867   4.214
  202TIP3    H2  613   1.685   5.756   4.161
  203TIP3   OH2  614   2.195   3.775   4.213
  203TIP3    H1  615   2.273   3.738   4.173
  203TIP3    H2  616   2.128   3.708   4.202
  204TIP3   OH2  617  -0.017   4.044   2.431
  204TIP3    H1  618   0.018   4.133   2.444
  204TIP3    H2  619   0.001   4.026   2.339
  205TIP3   OH2  620   5.884   0.414   1.191
  205TIP3    H1  621   5.872   0.329   1.149
  205TIP3    H2  622   5.976   0.415   1.216
  206TIP3   OH2  623   6.211   5.059   0.076
  206TIP3    H1  624   6.133   5.008   0.053
  206TIP3    H2  625   6.278   4.993   0.094
  207TIP3   OH2  626   3.553   0.156   0.273
  207TIP3    H1  627   3.548   0.182   0.181
  207TIP3    H2  628   3.620   0.087   0.274
  208TIP3   OH2  629   2.567   3.395   3.533
  208TIP3    H1  630   2.597   3.308   3.508
  208TIP3    H2  631   2.589   3.402   3.626
  209TIP3   OH2  632   2.374   4.916   2.119
  209TIP3    H1  633   2.296   4.968   2.138
  209TIP3    H2  634   2.385   4.923   2.024
  210TIP3   OH2  635   3.248   1.900   1.725
  210TIP3    H1  636   3.202   1.978   1.693
  210TIP3    H2  637   3.317   1.934   1.781
  211TIP3   OH2  638   5.834   3.972   2.556
  211TIP3    H1  639   5.814   3.887   2.595
  211TIP3    H2  640   5.776   4.034   2.600
  212TIP3   OH2  641   4.579   0.145   0.405
  212TIP3    H1  642   4.591   0.097   0.486
  212TIP3    H2  643   4.542   0.229   0.432
  213TIP3   OH2  644   3.109   2.415   0.810
  213TIP3    H1  645   3.184   2.458   0.767
  213TIP3    H2  646   3.036   2.476   0.798
  214TIP3   OH2  647   2.954   4.411   4.191
  214TIP3    H1  648   2.901   4.482   4.226
  214TIP3    H2  649   2.970   4.436   4.100
  215TIP3   OH2  650   5.551   1.534   3.611
  215TIP3    H1  651   5.569   1.565   3.699
  215TIP3    H2  652   5.503   1.453   3.623
  216TIP3   OH2  653   5.244   1.524   2.259
  216TIP3    H1  654   5.257   1.452   2.321
  216TIP3    H2  655   5.233   1.602   2.313
  217TIP3   OH2  656   4.102   2.480   1.020
  217TIP3    H1  657   4.104   2.436   0.935
  217TIP3    H2  658   4.073   2.569   1.000
  218TIP3   OH2  659   2.927   3.757   3.766
  218TIP3    H1  660   2.837   3.728   3.782
  218TIP3    H2  661   2.980   3.679   3.783
  219TIP3   OH2  662   2.862   5.314   0.234
  219TIP3    H1  663   2.933   5.335   0.174
  219TIP3    H2  664   2.830   5.399   0.265
  220TIP3   OH2  665   4.417   3.885   3.442
  220TIP3    H1  666   4.350   3.951   3.461
  220TIP3    H2  667   4.401   3.861   3.350
  221TIP3   OH2  668   2.212   0.983   5.041
  221TIP3    H1  669   2.138   0.967   5.099
  221TIP3    H2  670   2.203   1.074   5.014
  222TIP3   OH2  671   3.998   3.031   0.652
  222TIP3    H1  672   4.020   3.118   0.686
  222TIP3    H2  673   3.902   3.030   0.647
  223TIP3   OH2  674   5.808   4.237   3.686
  223TIP3    H1  675   5.819   4.159   3.741
  223TIP3    H2  676   5.895   4.276   3.682
  224TIP3   OH2  677   5.345   3.558   0.971
  224TIP3    H1  678   5.400   3.484   0.997
  224TIP3    H2  679   5.395   3.603   0.904
  225TIP3   OH2  680   4.428   3.730   0.106
  225TIP3    H1  681   4.512   3.765   0.075
  225TIP3    H2  682   4.395   3.797   0.165
  226TIP3   OH2  683   6.105   4.083   2.182
  226TIP3    H1  684   6.191   4.040   2.186
  226TIP3    H2  685   6.080   4.094   2.273
  227TIP3   OH2  686   1.355   2.170   2.289
  227TIP3    H1  687   1.326   2.144   2.376
  227TIP3    H2  688   1.293   2.126   2.230
  228TIP3   OH2  689   5.239   4.522   0.605
  228TIP3    H1  690   5.327   4.502   0.572
  228TIP3    H2  691   5.202   4.581   0.539
  229TIP3   OH2  692   2.612   2.492   3.804
  229TIP3    H1  693   2.570   2.523   3.884
  229TIP3    H2  694   2.629   2.399   3.820
  230TIP3   OH2  695   0.407   0.537   2.235
  230TIP3    H1  696   0.451   0.554   2.151
  230TIP3    H2  697   0.397   0.442   2.238
  231TIP3   OH2  698   1.934   0.389   0.720
  231TIP3    H1  699   1.949   0.474   0.761
  231TIP3    H2  700   2.021   0.358   0.696
  232TIP3   OH2  701   2.613   2.685   1.937
  232TIP3    H1  702   2.694   2.675   1.987
  232TIP3    H2  703   2.563   2.752   1.984
  233TIP3   OH2  704   5.614   0.655   1.030
  233TIP3    H1  705   5.649   0.589   0.971
  233TIP3    H2  706   5.610   0.612   1.115
  234TIP3   OH2  707   2.050   5.767   4.561
  234TIP3    H1  708   2.134   5.741   4.599
  234TIP3    H2  709   2.032   5.853   4.599
  235TIP3   OH2  710   5.798   2.936   3.085
  235TIP3    H1  711   5.712   2.965   3.114
  235TIP3    H2  712   5.790   2.841   3.077
  236TIP3   OH2  713   3.029   4.853   1.745
  236TIP3    H1  714   2.990   4.859   1.832
  236TIP3    H2  715   2.993   4.928   1.697
  237TIP3   OH2  716   3.266   5.875   1.394
  237TIP3    H1  717   3.181   5.918   1.388
  237TIP3    H2  718   3.267   5.812   1.323
  238TIP3   OH2  719   4.716   4.444   2.798
  238TIP3    H1  720   4.633   4.397   2.792
  238TIP3    H2  721   4.692   4.536   2.788
  239TIP3   OH2  722   2.109   0.319   2.566
  239TIP3    H1  723   2.017   0.344   2.561
  239TIP3    H2  724   2.152   0.372   2.499
  240TIP3   OH2  725   2.912   4.354   5.029
  240TIP3    H1  726   2.933   4.436   4.985
  240TIP3    H2  727   2.817   4.357   5.041
  241TIP3   OH2  728   3.551   3.492   1.849
  241TIP3    H1  729   3.603   3.466   1.773
  241TIP3    H2  730   3.461   3.467   1.827
  242TIP3   OH2  731   2.620   3.514   1.328
  242TIP3    H1  732   2.536   3.536   1.287
  242TIP3    H2  733   2.660   3.599   1.348
  243TIP3   OH2  734   4.454   5.730   1.023
  243TIP3    H1  735   4.427   5.756   0.935
  243TIP3    H2  736   4.464   5.634   1.017
  244TIP3   OH2  737   3.053   3.268   3.975
  244TIP3    H1  738   3.047   3.347   3.921
  244TIP3    H2  739   3.083   3.200   3.915
  245TIP3   OH2  740   3.535   2.464   3.397
  245TIP3    H1  741   3.589   2.543   3.400
  245TIP3    H2  742   3.488   2.471   3.313
  246TIP3   OH2  743   1.088   5.289   2.474
  246TIP3    H1  744   1.077   5.359   2.409
  246TIP3    H2  745   1.022   5.306   2.540
  247TIP3   OH2  746   3.581   3.250   3.204
  247TIP3    H1  747   3.595   3.268   3.297
  247TIP3    H2  748   3.600   3.333   3.161
  248TIP3   OH2  749   4.065   4.029   0.330
  248TIP3    H1  750   3.977   3.999   0.307
  248TIP3    H2  751   4.087   3.980   0.410
  249TIP3   OH2  752   5.454   0.153   0.785
  249TIP3    H1  753   5.433   0.244   0.764
  249TIP3    H2  754   5.501   0.121   0.708
  250TIP3   OH2  755   3.581   5.145   1.380
  250TIP3    H1  756   3.644   5.195   1.431
  250TIP3    H2  757   3.575   5.192   1.297
  251TIP3   OH2  758   0.727   5.694   0.290
  251TIP3    H1  759   0.733   5.616   0.235
  251TIP3    H2  760   0.649   5.740   0.258
  252TIP3   OH2  761   4.459   5.414   3.904
  252TIP3    H1  762   4.397   5.446   3.839
  252TIP3    H2  763   4.450   5.318   3.899
  253TIP3   OH2  764   1.137   1.659   0.391
  253TIP3    H1  765   1.225   1.665   0.429
  253TIP3    H2  766   1.130   1.737   0.336
  254TIP3   OH2  767   1.525   5.811   0.575
  254TIP3    H1  768   1.616   5.799   0.602
  254TIP3    H2  769   1.503   5.899   0.607
  255TIP3   OH2  770   3.966   2.551   3.198
  255TIP3    H1  771   3.881   2.587   3.224
  255TIP3    H2  772   3.944   2.475   3.144
  256TIP3   OH2  773   5.158   5.974   3.711
  256TIP3    H1  774   5.172   5.921   3.632
  256TIP3    H2  775   5.240   6.022   3.722
  257TIP3   OH2  776   0.160   1.544   2.261
  257TIP3    H1  777   0.103   1.598   2.315
  257TIP3    H2  778   0.234   1.601   2.239
  258TIP3   OH2  779   5.039   2.509   2.965
  258TIP3    H1  780   4.965   2.471   2.919
  258TIP3    H2  781   5.077   2.572   2.903
  259TIP3   OH2  782   0.766   1.666   2.426
  259TIP3    H1  783   0.819   1.630   2.355
  259TIP3    H2  784   0.830   1.707   2.485
  260TIP3   OH2  785   2.879   5.561   3.248
  260TIP3    H1  786   2.908   5.498   3.314
  260TIP3    H2  787   2.960   5.589   3.205
  261TIP3   OH2  788   3.018   0.614   2.922
  261TIP3    H1  789   3.079   0.592   2.851
  261TIP3    H2  790   2.950   0.548   2.916
  262TIP3   OH2  791   1.969   2.712   4.513
  262TIP3    H1  792   1.984   2.728   4.420
  262TIP3    H2  793   1.893   2.653   4.515
  263TIP3   OH2  794   3.689   2.374   4.142
  263TIP3    H1  795   3.739   2.299   4.172
  263TIP3    H2  796   3.730   2.449   4.185
  264TIP3   OH2  797   1.111   2.688   4.838
  264TIP3    H1  798   1.202   2.668   4.859
  264TIP3    H2  799   1.116   2.758   4.773
  265TIP3   OH2  800   3.937   2.218   0.276
  265TIP3    H1  801   4.032   2.225   0.287
  265TIP3    H2  802   3.901   2.271   0.348
  266TIP3   OH2  803   1.923   4.159   4.974
  266TIP3    H1  804   1.997   4.100   4.966
  266TIP3    H2  805   1.848   4.108   4.943
  267TIP3   OH2  806   2.421   5.563   1.714
  267TIP3    H1  807   2.339   5.529   1.750
  267TIP3    H2  808   2.446   5.634   1.773
  268TIP3   OH2  809   2.575   1.790   2.376
  268TIP3    H1  810   2.536   1.710   2.340
  268TIP3    H2  811   2.560   1.857   2.309
  269TIP3   OH2  812   4.745   2.108   2.939
  269TIP3    H1  813   4.757   2.014   2.951
  269TIP3    H2  814   4.651   2.121   2.946
  270TIP3   OH2  815   0.763   0.043   1.504
  270TIP3    H1  816   0.799   0.105   1.567
  270TIP3    H2  817   0.742  -0.035   1.555
  271TIP3   OH2  818   6.190   0.198   0.934
  271TIP3    H1  819   6.135   0.178   1.009
  271TIP3    H2  820   6.222   0.113   0.905
  272TIP3   OH2  821   1.259   3.940   4.274
  272TIP3    H1  822   1.341   3.972   4.314
  272TIP3    H2  823   1.287   3.894   4.195
  273TIP3   OH2  824   4.903   2.136   5.053
  273TIP3    H1  825   4.825   2.164   5.101
  273TIP3    H2  826   4.909   2.197   4.980
  274TIP3   OH2  827   1.869   0.192   4.893
  274TIP3    H1  828   1.842   0.103   4.873
  274TIP3    H2  829   1.805   0.247   4.848
  275TIP3   OH2  830   0.876   4.138   3.366
  275TIP3    H1  831   0.788   4.130   3.330
  275TIP3    H2  832   0.864   4.188   3.447
  276TIP3   OH2  833   4.263   5.149   4.909
  276TIP3    H1  834   4.319   5.189   4.842
  276TIP3    H2  835   4.208   5.221   4.940
  277TIP3   OH2  836   6.180   3.018   3.738
  277TIP3    H1  837   6.266   3.045   3.705
  277TIP3    H2  838   6.120   3.038   3.666
  278TIP3   OH2  839   6.011   3.436   1.088
  278TIP3    H1  840   5.988   3.526   1.111
  278TIP3    H2  841   5.928   3.389   1.093
  279TIP3   OH2  842   5.165   1.002   2.591
  279TIP3    H1  843   5.252   1.039   2.605
  279TIP3    H2  844   5.180   0.908   2.579
  280TIP3   OH2  845   5.480   5.975   1.430
  280TIP3    H1  846   5.529   5.895   1.409
  280TIP3    H2  847   5.464   6.016   1.346
  281TIP3   OH2  848   3.590   5.048   4.483
  281TIP3    H1  849   3.573   5.030   4.575
  281TIP3    H2  850   3.635   5.133   4.482
  282TIP3   OH2  851   1.737   3.451   3.723
  282TIP3    H1  852   1.686   3.394   3.667
  282TIP3    H2  853   1.713   3.540   3.695
  283TIP3   OH2  854   3.796   5.949   0.637
  283TIP3    H1  855   3.806   5.861   0.599
  283TIP3    H2  856   3.711   5.979   0.605
  284TIP3   OH2  857   1.902   2.097   1.205
  284TIP3    H1  858   1.847   2.051   1.269
  284TIP3    H2  859   1.890   2.189   1.226
  285TIP3   OH2  860   4.420   3.954   1.825
  285TIP3    H1  861   4.465   3.924   1.745
  285TIP3    H2  862   4.379   4.036   1.800
  286TIP3   OH2  863   3.404   0.755   3.611
  286TIP3    H1  864   3.487   0.775   3.654
  286TIP3    H2  865   3.417   0.784   3.520
  287TIP3   OH2  866   4.110   4.838   3.457
  287TIP3    H1  867   4.130   4.745   3.453
  287TIP3    H2  868   4.066   4.857   3.374
  288TIP3   OH2  869   6.119   1.529   3.454
  288TIP3    H1  870   6.050   1.594   3.449
  288TIP3    H2  871   6.158   1.542   3.541
  289TIP3   OH2  872   3.501   3.695   0.419
  289TIP3    H1  873   3.519   3.615   0.371
  289TIP3    H2  874   3.406   3.699   0.426
  290TIP3   OH2  875   2.889   1.954   3.643
  290TIP3    H1  876   2.848   1.934   3.558
  290TIP3    H2  877   2.977   1.918   3.636
  291TIP3   OH2  878   1.272   5.663   1.184
  291TIP3    H1  879   1.257   5.753   1.158
  291TIP3    H2  880   1.293   5.667   1.277
  292TIP3   OH2  881   0.002   1.017   1.334
  292TIP3    H1  882  -0.023   1.085   1.398
  292TIP3    H2  883   0.017   1.065   1.253
  293TIP3   OH2  884   0.203   5.387   4.974
  293TIP3    H1  885   0.228   5.375   5.065
  293TIP3    H2  886   0.285   5.408   4.929
  294TIP3   OH2  887   6.081   0.269   2.995
  294TIP3    H1  888   6.129   0.213   3.056
  294TIP3    H2  889   6.095   0.229   2.909
  295TIP3   OH2  890   4.498   1.009   0.158
  295TIP3    H1  891   4.502   0.919   0.189
  295TIP3    H2  892   4.464   1.058   0.232
  296TIP3   OH2  893   0.805   4.011   2.548
  296TIP3    H1  894   0.852   4.049   2.474
  296TIP3    H2  895   0.739   4.077   2.570
  297TIP3   OH2  896   5.202   5.920   4.518
  297TIP3    H1  897   5.270   5.894   4.456
  297TIP3    H2  898   5.188   5.842   4.572
  298TIP3   OH2  899   0.646   2.787   0.160
  298TIP3    H1  900   0.593   2.759   0.085
  298TIP3    H2  901   0.641   2.713   0.221
  299TIP3   OH2  902   1.742   5.088   1.371
  299TIP3    H1  903   1.697   5.116   1.292
  299TIP3    H2  904   1.706   5.143   1.440
  300TIP3   OH2  905   3.405   4.307   1.433
  300TIP3    H1  906   3.359   4.383   1.470
  300TIP3    H2  907   3.452   4.269   1.507
  301TIP3   OH2  908   4.858   4.219   0.300
  301TIP3    H1  909   4.928   4.157   0.323
  301TIP3    H2  910   4.878   4.245   0.210
  302TIP3   OH2  911   5.437   0.874   2.672
  302TIP3    H1  912   5.423   0.967   2.688
  302TIP3    H2  913   5.355   0.833   2.699
  303TIP3   OH2  914   1.907   5.077   3.923
  303TIP3    H1  915   1.965   5.030   3.864
  303TIP3    H2  916   1.964   5.106   3.994
  304TIP3   OH2  917   5.472   5.370   3.616
  304TIP3    H1  918   5.511   5.457   3.603
  304TIP3    H2  919   5.453   5.338   3.528
  305TIP3   OH2  920   4.307   5.254   0.691
  305TIP3    H1  921   4.385   5.204   0.670
  305TIP3    H2  922   4.309   5.328   0.631
  306TIP3   OH2  923   2.340   0.654   3.339
  306TIP3    H1  924   2.330   0.576   3.393
  306TIP3    H2  925   2.342   0.726   3.402
  307TIP3   OH2  926   3.367   1.693   5.067
  307TIP3    H1  927   3.410   1.688   4.982
  307TIP3    H2  928   3.291   1.749   5.052
  308TIP3   OH2  929   3.845   5.461   5.113
  308TIP3    H1  930   3.812   5.520   5.180
  308TIP3    H2  931   3.771   5.404   5.092
  309TIP3   OH2  932   3.602   4.454   1.305
  309TIP3    H1  933   3.522   4.412   1.339
  309TIP3    H2  934   3.620   4.525   1.366
  310TIP3   OH2  935   2.296   1.897   0.085
  310TIP3    H1  936   2.310   1.816   0.133
  310TIP3    H2  937   2.236   1.948   0.139
  311TIP3   OH2  938   3.310   5.406   4.496
  311TIP3    H1  939   3.251   5.480   4.485
  311TIP3    H2  940   3.326   5.374   4.407
  312TIP3   OH2  941   1.161   5.020   2.265
  312TIP3    H1  942   1.152   5.010   2.360
  312TIP3    H2  943   1.255   5.019   2.250
  313TIP3   OH2  944   5.584   4.379   1.325
  313TIP3    H1  945   5.606   4.372   1.232
  313TIP3    H2  946   5.668   4.373   1.370
  314TIP3   OH2  947   0.689   0.972   3.333
  314TIP3    H1  948   0.615   0.956   3.274
  314TIP3    H2  949   0.656   1.036   3.396
  315TIP3   OH2  950   0.642   1.142   0.362
  315TIP3    H1  951   0.587   1.064   0.354
  315TIP3    H2  952   0.592   1.211   0.319
  316TIP3   OH2  953   0.830   3.011   4.988
  316TIP3    H1  954   0.781   2.973   5.061
  316TIP3    H2  955   0.824   3.106   5.002
  317TIP3   OH2  956   5.355   2.717   4.585
  317TIP3    H1  957   5.425   2.713   4.650
  317TIP3    H2  958   5.377   2.793   4.531
  318TIP3   OH2  959   2.094   5.361   2.892
  318TIP3    H1  960   2.072   5.272   2.920
  318TIP3    H2  961   2.037   5.417   2.943
  319TIP3   OH2  962   1.546   4.839   3.238
  319TIP3    H1  963   1.463   4.833   3.286
  319TIP3    H2  964   1.546   4.929   3.203
  320TIP3   OH2  965   5.561   3.684   1.216
  320TIP3    H1  966   5.516   3.600   1.231
  320TIP3    H2  967   5.587   3.681   1.124
  321TIP3   OH2  968   3.576   3.669   5.025
  321TIP3    H1  969   3.634   3.745   5.030
  321TIP3    H2  970   3.490   3.704   5.049
  322TIP3   OH2  971   6.266   2.899   3.259
  322TIP3    H1  972   6.236   2.815   3.294
  322TIP3    H2  973   6.362   2.892   3.260
  323TIP3   OH2  974   4.337   1.781   4.416
  323TIP3    H1  975   4.244   1.772   4.435
  323TIP3    H2  976   4.343   1.858   4.360
  324TIP3   OH2  977   3.485   0.045   0.778
  324TIP3    H1  978   3.578   0.038   0.801
  324TIP3    H2  979   3.442   0.073   0.859
  325TIP3   OH2  980   2.711   0.904   4.386
  325TIP3    H1  981   2.634   0.903   4.442
  325TIP3    H2  982   2.783   0.928   4.444
  326TIP3   OH2  983   3.286   2.157   2.669
  326TIP3    H1  984   3.222   2.147   2.739
  326TIP3    H2  985   3.265   2.086   2.608
  327TIP3   OH2  986   3.285   5.908   0.347
  327TIP3    H1  987   3.259   5.968   0.277
  327TIP3    H2  988   3.234   5.936   0.423
  328TIP3   OH2  989   0.044   1.107   1.064
  328TIP3    H1  990   0.036   1.185   1.010
  328TIP3    H2  991  -0.045   1.073   1.070
  329TIP3   OH2  992   3.125   1.510   0.065
  329TIP3    H1  993   3.056   1.577   0.061
  329TIP3    H2  994   3.099   1.453   0.137
  330TIP3   OH2  995   3.645   2.113   3.893
  330TIP3    H1  996   3.630   2.206   3.906
  330TIP3    H2  997   3.681   2.107   3.804
  331TIP3   OH2  998   2.619   3.181   2.841
  331TIP3    H1  999   2.617   3.147   2.751
  331TIP3    H2 1000   2.571   3.115   2.892
  332TIP3   OH2 1001   4.029   2.028   1.041
  332TIP3    H1 1002   3.957   1.966   1.052
  332TIP3    H2 1003   3.991   2.101   0.993
  333TIP3   OH2 1004   4.851   0.998   1.053
  333TIP3    H1 1005   4.812   0.993   1.140
  333TIP3    H2 1006   4.889   0.911   1.039
  334TIP3   OH2 1007   3.867   0.050   1.258
  334TIP3    H1 1008   3.855   0.033   1.351
  334TIP3    H2 1009   3.957   0.021   1.240
  335TIP3   OH2 1010   0.976   0.581   3.950
  335TIP3    H1 1011   0.914   0.524   3.995
  335TIP3    H2 1012   0.994   0.652   4.012
  336TIP3   OH2 1013   2.499   5.086   2.906
  336TIP3    H1 1014   2.410   5.066   2.934
  336TIP3    H2 1015   2.495   5.091   2.811
  337TIP3   OH2 1016   0.634   3.486   1.106
  337TIP3    H1 1017   0.584   3.552   1.154
  337TIP3    H2 1018   0.631   3.515   1.015
  338TIP3   OH2 1019   3.442   2.459   4.700
  338TIP3    H1 1020   3.358   2.430   4.665
  338TIP3    H2 1021   3.473   2.385   4.752
  339TIP3   OH2 1022   2.995   0.727   2.545
  339TIP3    H1 1023   2.983   0.671   2.468
  339TIP3    H2 1024   2.963   0.674   2.618
  340TIP3   OH2 1025   0.981   0.243   0.228
  340TIP3    H1 1026   1.056   0.289   0.190
  340TIP3    H2 1027   0.932   0.311   0.274
  341TIP3   OH2 1028   2.518   0.605   3.134
  341TIP3    H1 1029   2.449   0.633   3.194
  341TIP3    H2 1030   2.580   0.677   3.132
  342TIP3   OH2 1031   0.959   0.513   0.979
  342TIP3    H1 1032   0.954   0.608   0.974
  342TIP3    H2 1033   0.981   0.495   1.071
  343TIP3   OH2 1034   6.285   4.934   0.780
  343TIP3    H1 1035   6.313   4.861   0.837
  343TIP3    H2 1036   6.204   4.904   0.740
  344TIP3   OH2 1037   5.100   0.994   4.528
  344TIP3    H1 1038   5.018   1.022   4.487
  344TIP3    H2 1039   5.168   1.039   4.478
  345TIP3   OH2 1040   0.517   5.128   5.018
  345TIP3    H1 1041   0.572   5.103   5.092
  345TIP3    H2 1042   0.434   5.155   5.058
  346TIP3   OH2 1043   3.307   1.026   5.092
  346TIP3    H1 1044   3.225   1.034   5.140
  346TIP3    H2 1045   3.285   0.972   5.016
  347TIP3   OH2 1046   1.105   3.147   4.391
  347TIP3    H1 1047   1.057   3.221   4.355
  347TIP3    H2 1048   1.197   3.174   4.389
  348TIP3   OH2 1049   4.470   1.905   2.213
  348TIP3    H1 1050   4.533   1.977   2.220
  348TIP3    H2 1051   4.469   1.865   2.300
  349TIP3   OH2 1052   5.820   3.204   0.489
  349TIP3    H1 1053   5.746   3.161   0.446
  349TIP3    H2 1054   5.844   3.276   0.431
  350TIP3   OH2 1055   2.294   5.719   1.935
  350TIP3    H1 1056   2.361   5.748   1.996
  350TIP3    H2 1057   2.232   5.669   1.990
  351TIP3   OH2 1058   5.438   4.341   5.134
  351TIP3    H1 1059   5.398   4.416   5.179
  351TIP3    H2 1060   5.452   4.372   5.044
  352TIP3   OH2 1061   4.459   4.875   0.500
  352TIP3    H1 1062   4.497   4.794   0.466
  352TIP3    H2 1063   4.416   4.915   0.425
  353TIP3   OH2 1064   3.587   2.418   1.750
  353TIP3    H1 1065   3.578   2.505   1.711
  353TIP3    H2 1066   3.682   2.401   1.751
  354TIP3   OH2 1067   4.625   5.388   4.217
  354TIP3    H1 1068   4.693   5.353   4.275
  354TIP3    H2 1069   4.659   5.372   4.129
  355TIP3   OH2 1070   1.359   4.074   2.570
  355TIP3    H1 1071   1.281   4.065   2.625
  355TIP3    H2 1072   1.416   4.133   2.618
  356TIP3   OH2 1073   5.314   2.047   3.645
  356TIP3    H1 1074   5.246   2.104   3.610
  356TIP3    H2 1075   5.294   2.040   3.738
  357TIP3   OH2 1076   2.346   1.454   2.816
  357TIP3    H1 1077   2.294   1.377   2.839
  357TIP3    H2 1078   2.297   1.496   2.745
  358TIP3   OH2 1079   4.195   5.199   0.368
  358TIP3    H1 1080   4.213   5.130   0.304
  358TIP3    H2 1081   4.163   5.152   0.445
  359TIP3   OH2 1082   4.006   1.392   3.587
  359TIP3    H1 1083   3.990   1.314   3.639
  359TIP3    H2 1084   4.070   1.442   3.637
  360TIP3   OH2 1085   3.149   0.763   2.122
  360TIP3    H1 1086   3.168   0.857   2.130
  360TIP3    H2 1087   3.231   0.725   2.090
  361TIP3   OH2 1088   2.110   1.048   1.012
  361TIP3    H1 1089   2.122   0.999   1.093
  361TIP3    H2 1090   2.173   1.010   0.951
  362TIP3   OH2 1091   3.655   1.104   3.072
  362TIP3    H1 1092   3.704   1.080   2.993
  362TIP3    H2 1093   3.638   1.198   3.061
  363TIP3   OH2 1094   6.182   4.294   0.468
  363TIP3    H1 1095   6.216   4.370   0.515
  363TIP3    H2 1096   6.259   4.248   0.435
  364TIP3   OH2 1097   1.780   1.513   3.130
  364TIP3    H1 1098   1.768   1.449   3.060
  364TIP3    H2 1099   1.831   1.466   3.196
  365TIP3   OH2 1100   3.169   5.676   4.933
  365TIP3    H1 1101   3.231   5.650   5.002
  365TIP3    H2 1102   3.219   5.737   4.878
  366TIP3   OH2 1103   2.805   3.365   4.123
  366TIP3    H1 1104   2.821   3.277   4.090
  366TIP3    H2 1105   2.745   3.353   4.197
  367TIP3   OH2 1106   1.054   2.444   2.929
  367TIP3    H1 1107   0.988   2.375   2.920
  367TIP3    H2 1108   1.013   2.509   2.986
  368TIP3   OH2 1109   1.967   4.184   2.300
  368TIP3    H1 1110   1.948   4.278   2.299
  368TIP3    H2 1111   1.898   4.145   2.247
  369TIP3   OH2 1112   5.578   2.761   2.962
  369TIP3    H1 1113   5.648   2.700   2.980
  369TIP3    H2 1114   5.607   2.810   2.885
  370TIP3   OH2 1115   6.157   4.635   4.711
  370TIP3    H1 1116   6.241   4.642   4.666
  370TIP3    H2 1117   6.167   4.559   4.768
  371TIP3   OH2 1118   3.071   0.852   4.003
  371TIP3    H1 1119   3.113   0.913   3.941
  371TIP3    H2 1120   2.986   0.833   3.964
  372TIP3   OH2 1121   4.652   3.230   2.732
  372TIP3    H1 1122   4.675   3.285   2.807
  372TIP3    H2 1123   4.675   3.141   2.760
  373TIP3   OH2 1124   3.802   2.457  -0.040
  373TIP3    H1 1125   3.753   2.446   0.042
  373TIP3    H2 1126   3.881   2.404  -0.027
  374TIP3   OH2 1127   3.607   1.327   1.406
  374TIP3    H1 1128   3.654   1.277   1.473
  374TIP3    H2 1129   3.552   1.387   1.455
  375TIP3   OH2 1130   0.402   2.681   3.645
  375TIP3    H1 1131   0.490   2.691   3.681
  375TIP3    H2 1132   0.413   2.690   3.551
  376TIP3   OH2 1133   3.993   4.764   2.813
  376TIP3    H1 1134   3.971   4.693   2.753
  376TIP3    H2 1135   4.032   4.720   2.889
  377TIP3   OH2 1136   4.801   2.121   4.228
  377TIP3    H1 1137   4.831   2.046   4.176
  377TIP3    H2 1138   4.777   2.187   4.163
  378TIP3   OH2 1139   4.508   4.989   3.809
  378TIP3    H1 1140   4.453   5.014   3.734
  378TIP3    H2 1141   4.581   4.941   3.770
  379TIP3   OH2 1142   4.966   1.187   1.820
  379TIP3    H1 1143   4.951   1.119   1.886
  379TIP3    H2 1144   4.903   1.169   1.751
  380TIP3   OH2 1145   2.203   3.368   4.707
  380TIP3    H1 1146   2.232   3.285   4.668
  380TIP3    H2 1147   2.130   3.395   4.651
  381TIP3   OH2 1148   2.432   2.233   4.081
  381TIP3    H1 1149   2.380   2.160   4.114
  381TIP3    H2 1150   2.497   2.250   4.150
  382TIP3   OH2 1151   0.963   0.293   3.025
  382TIP3    H1 1152   1.055   0.267   3.019
  382TIP3    H2 1153   0.963   0.367   3.086
  383TIP3   OH2 1154   2.459   2.006   4.546
  383TIP3    H1 1155   2.528   2.049   4.496
  383TIP3    H2 1156   2.430   1.934   4.490
  384TIP3   OH2 1157   6.253   1.253   3.692
  384TIP3    H1 1158   6.205   1.271   3.610
  384TIP3    H2 1159   6.340   1.290   3.677
  385TIP3   OH2 1160   0.868   2.741   0.740
  385TIP3    H1 1161   0.831   2.814   0.790
  385TIP3    H2 1162   0.866   2.770   0.649
  386TIP3   OH2 1163   3.527   1.604   0.688
  386TIP3    H1 1164   3.532   1.519   0.643
  386TIP3    H2 1165   3.525   1.668   0.617
  387TIP3   OH2 1166   4.693   3.961   4.713
  387TIP3    H1 1167   4.653   3.981   4.629
  387TIP3    H2 1168   4.627   3.909   4.760
  388TIP3   OH2 1169   5.937   4.233   4.157
  388TIP3    H1 1170   5.927   4.326   4.135
  388TIP3    H2 1171   5.877   4.218   4.230
  389TIP3   OH2 1172   3.359   3.166   4.623
  389TIP3    H1 1173   3.374   3.075   4.650
  389TIP3    H2 1174   3.306   3.203   4.693
  390TIP3   OH2 1175   3.936   5.900   4.136
  390TIP3    H1 1176   3.895   5.868   4.056
  390TIP3    H2 1177   3.991   5.827   4.165
  391TIP3   OH2 1178   5.531   0.314   2.206
  391TIP3    H1 1179   5.582   0.242   2.170
  391TIP3    H2 1180   5.442   0.280   2.212
  392TIP3   OH2 1181   2.339   3.481   2.290
  392TIP3    H1 1182   2.407   3.451   2.350
  392TIP3    H2 1183   2.268   3.417   2.301
  393TIP3   OH2 1184   5.406   3.084   1.321
  393TIP3    H1 1185   5.346   3.030   1.270
  393TIP3    H2 1186   5.479   3.026   1.344
  394TIP3   OH2 1187   4.628   2.333   1.979
  394TIP3    H1 1188   4.707   2.343   1.926
  394TIP3    H2 1189   4.569   2.279   1.926
  395TIP3   OH2 1190   3.867   2.407   3.849
  395TIP3    H1 1191   3.802   2.457   3.800
  395TIP3    H2 1192   3.927   2.374   3.783
  396TIP3   OH2 1193   0.422   3.083   0.504
  396TIP3    H1 1194   0.327   3.081   0.515
  396TIP3    H2 1195   0.445   3.176   0.505
  397TIP3   OH2 1196   4.317   5.107   4.579
  397TIP3    H1 1197   4.274   5.191   4.568
  397TIP3    H2 1198   4.409   5.123   4.559
  398TIP3   OH2 1199   5.738   4.685   3.851
  398TIP3    H1 1200   5.703   4.764   3.810
  398TIP3    H2 1201   5.713   4.691   3.943
  399TIP3   OH2 1202   3.502   2.796   2.574
  399TIP3    H1 1203   3.498   2.703   2.553
  399TIP3    H2 1204   3.422   2.814   2.623
  400TIP3   OH2 1205   4.620   4.100   2.331
  400TIP3    H1 1206   4.607   4.184   2.376
  400TIP3    H2 1207   4.575   4.110   2.247
  401TIP3   OH2 1208   3.457   2.208   2.863
  401TIP3    H1 1209   3.418   2.180   2.781
  401TIP3    H2 1210   3.391   2.265   2.903
  402TIP3   OH2 1211   2.106   4.763   2.232
  402TIP3    H1 1212   2.158   4.843   2.233
  402TIP3    H2 1213   2.110   4.733   2.141
  403TIP3   OH2 1214   2.354   1.203   1.567
  403TIP3    H1 1215   2.380   1.265   1.635
  403TIP3    H2 1216   2.270   1.168   1.596
  404TIP3   OH2 1217   4.435   1.034   3.640
  404TIP3    H1 1218   4.504   1.098   3.629
  404TIP3    H2 1219   4.362   1.083   3.677
  405TIP3   OH2 1220   3.601   0.405   0.397
  405TIP3    H1 1221   3.510   0.427   0.418
  405TIP3    H2 1222   3.597   0.314   0.368
  406TIP3   OH2 1223   6.013   2.781   4.551
  406TIP3    H1 1224   5.926   2.741   4.557
  406TIP3    H2 1225   6.018   2.840   4.627
  407TIP3   OH2 1226   3.293   0.065   0.440
  407TIP3    H1 1227   3.316  -0.001   0.375
  407TIP3    H2 1228   3.285   0.146   0.390
  408TIP3   OH2 1229   2.767   0.989   2.538
  408TIP3    H1 1230   2.733   0.900   2.547
  408TIP3    H2 1231   2.812   1.006   2.621
  409TIP3   OH2 1232   1.223   2.266   4.994
  409TIP3    H1 1233   1.291   2.199   4.991
  409TIP3    H2 1234   1.163   2.237   5.063
  410TIP3   OH2 1235   4.474   3.080   2.321
  410TIP3    H1 1236   4.442   3.169   2.303
  410TIP3    H2 1237   4.442   3.060   2.409
  411TIP3   OH2 1238   5.232   0.434   4.228
  411TIP3    H1 1239   5.316   0.387   4.229
  411TIP3    H2 1240   5.189   0.409   4.309
  412TIP3   OH2 1241   1.004   2.999   1.246
  412TIP3    H1 1242   1.070   2.943   1.287
  412TIP3    H2 1243   0.970   2.947   1.173
  413TIP3   OH2 1244   5.563   5.970   3.432
  413TIP3    H1 1245   5.592   6.041   3.375
  413TIP3    H2 1246   5.625   5.899   3.415
  414TIP3   OH2 1247   5.204   0.311   4.478
  414TIP3    H1 1248   5.220   0.379   4.543
  414TIP3    H2 1249   5.284   0.259   4.477
  415TIP3   OH2 1250   5.913   3.347   4.498
  415TIP3    H1 1251   5.936   3.274   4.441
  415TIP3    H2 1252   5.979   3.346   4.567
  416TIP3   OH2 1253   5.218   2.826   4.004
  416TIP3    H1 1254   5.273   2.782   3.940
  416TIP3    H2 1255   5.238   2.919   3.993
  417TIP3   OH2 1256   2.355   0.162   4.170
  417TIP3    H1 1257   2.337   0.074   4.137
  417TIP3    H2 1258   2.335   0.158   4.263
  418TIP3   OH2 1259   1.375   1.056   0.869
  418TIP3    H1 1260   1.323   1.045   0.948
  418TIP3    H2 1261   1.453   1.003   0.883
  419TIP3   OH2 1262   3.731   1.860   3.750
  419TIP3    H1 1263   3.820   1.846   3.783
  419TIP3    H2 1264   3.742   1.908   3.669
  420TIP3   OH2 1265   5.455   2.109   4.932
  420TIP3    H1 1266   5.506   2.090   4.854
  420TIP3    H2 1267   5.376   2.055   4.924
  421TIP3   OH2 1268   2.536   1.430   3.439
  421TIP3    H1 1269   2.535   1.372   3.515
  421TIP3    H2 1270   2.455   1.409   3.392
  422TIP3   OH2 1271   1.592   2.587   0.123
  422TIP3    H1 1272   1.604   2.678   0.148
  422TIP3    H2 1273   1.527   2.553   0.184
  423TIP3   OH2 1274   5.416   1.207   1.459
  423TIP3    H1 1275   5.333   1.165   1.439
  423TIP3    H2 1276   5.410   1.294   1.418
  424TIP3   OH2 1277   5.993   3.837   2.807
  424TIP3    H1 1278   5.914   3.825   2.755
  424TIP3    H2 1279   6.047   3.761   2.784
  425TIP3   OH2 1280   1.552   1.538   3.907
  425TIP3    H1 1281   1.525   1.595   3.835
  425TIP3    H2 1282   1.633   1.577   3.939
  426TIP3   OH2 1283   6.134   0.292   4.326
  426TIP3    H1 1284   6.107   0.263   4.413
  426TIP3    H2 1285   6.052   0.299   4.277
  427TIP3   OH2 1286   0.936   3.772   0.871
  427TIP3    H1 1287   0.981   3.840   0.820
  427TIP3    H2 1288   0.955   3.691   0.824
  428TIP3   OH2 1289   4.813   4.419   4.325
  428TIP3    H1 1290   4.786   4.354   4.391
  428TIP3    H2 1291   4.870   4.369   4.266
  429TIP3   OH2 1292   1.807   2.533   4.781
  429TIP3    H1 1293   1.755   2.608   4.752
  429TIP3    H2 1294   1.848   2.500   4.701
  430TIP3   OH2 1295   5.656   5.188   3.259
  430TIP3    H1 1296   5.710   5.213   3.184
  430TIP3    H2 1297   5.686   5.100   3.281
  431TIP3   OH2 1298   4.590   2.708   4.438
  431TIP3    H1 1299   4.543   2.626   4.450
  431TIP3    H2 1300   4.661   2.687   4.378
  432TIP3   OH2 1301   0.496   0.079   4.685
  432TIP3    H1 1302   0.411   0.039   4.702
  432TIP3    H2 1303   0.490   0.166   4.725
  433TIP3   OH2 1304   3.758   4.010   4.916
  433TIP3    H1 1305   3.842   4.053   4.929
  433TIP3    H2 1306   3.748   3.953   4.992
  434TIP3   OH2 1307   5.694   0.818   0.182
  434TIP3    H1 1308   5.654   0.732   0.194
  434TIP3    H2 1309   5.737   0.837   0.265
  435TIP3   OH2 1310   2.351   0.452   2.986
  435TIP3    H1 1311   2.420   0.512   3.013
  435TIP3    H2 1312   2.273   0.483   3.032
  436TIP3   OH2 1313   4.703   3.624   4.659
  436TIP3    H1 1314   4.675   3.654   4.746
  436TIP3    H2 1315   4.632   3.566   4.630
  437TIP3   OH2 1316   3.611   2.543   2.912
  437TIP3    H1 1317   3.548   2.596   2.863
  437TIP3    H2 1318   3.615   2.460   2.863
  438TIP3   OH2 1319   0.630   5.518   1.596
  438TIP3    H1 1320   0.619   5.478   1.510
  438TIP3    H2 1321   0.556   5.578   1.604
  439TIP3   OH2 1322   3.945  -0.037   3.810
  439TIP3    H1 1323   3.869  -0.048   3.867
  439TIP3    H2 1324   3.930   0.047   3.767
  440TIP3   OH2 1325   4.199   1.966   4.193
  440TIP3    H1 1326   4.134   2.013   4.246
  440TIP3    H2 1327   4.205   2.016   4.112
  441TIP3   OH2 1328   6.053   0.397   2.413
  441TIP3    H1 1329   6.119   0.463   2.390
  441TIP3    H2 1330   5.993   0.444   2.471
  442TIP3   OH2 1331   3.612   3.659   3.839
  442TIP3    H1 1332   3.692   3.625   3.800
  442TIP3    H2 1333   3.636   3.682   3.928
  443TIP3   OH2 1334   6.115   3.346   4.712
  443TIP3    H1 1335   6.171   3.396   4.652
  443TIP3    H2 1336   6.173   3.322   4.785
  444TIP3   OH2 1337   3.302   4.093   1.004
  444TIP3    H1 1338   3.221   4.054   1.035
  444TIP3    H2 1339   3.286   4.112   0.912
  445TIP3   OH2 1340   5.489   2.044   2.925
  445TIP3    H1 1341   5.444   1.987   2.862
  445TIP3    H2 1342   5.445   2.129   2.917
  446TIP3   OH2 1343   0.249   4.604   4.386
  446TIP3    H1 1344   0.282   4.645   4.306
  446TIP3    H2 1345   0.328   4.590   4.439
  447TIP3   OH2 1346   1.768   5.643   1.928
  447TIP3    H1 1347   1.809   5.720   1.889
  447TIP3    H2 1348   1.675   5.666   1.932
  448TIP3   OH2 1349   1.816   5.752   0.706
  448TIP3    H1 1350   1.787   5.803   0.783
  448TIP3    H2 1351   1.910   5.739   0.720
  449TIP3   OH2 1352   3.053   0.570   3.981
  449TIP3    H1 1353   3.062   0.665   3.975
  449TIP3    H2 1354   3.055   0.539   3.890
  450TIP3   OH2 1355   0.308   2.990   3.526
  450TIP3    H1 1356   0.372   3.061   3.522
  450TIP3    H2 1357   0.346   2.921   3.471
  451TIP3   OH2 1358   4.046   2.377   1.387
  451TIP3    H1 1359   3.982   2.372   1.316
  451TIP3    H2 1360   4.123   2.331   1.353
  452TIP3   OH2 1361   1.203   3.666   0.758
  452TIP3    H1 1362   1.223   3.734   0.822
  452TIP3    H2 1363   1.179   3.714   0.679
  453TIP3   OH2 1364   0.317   1.241   0.819
  453TIP3    H1 1365   0.392   1.253   0.760
  453TIP3    H2 1366   0.263   1.318   0.805
  454TIP3   OH2 1367   1.422   5.499   3.767
  454TIP3    H1 1368   1.369   5.459   3.836
  454TIP3    H2 1369   1.504   5.523   3.810
  455TIP3   OH2 1370   5.875   0.574   5.020
  455TIP3    H1 1371   5.937   0.628   4.972
  455TIP3    H2 1372   5.789   0.602   4.989
  456TIP3   OH2 1373   2.672   2.130   4.418
  456TIP3    H1 1374   2.766   2.146   4.405
  456TIP3    H2 1375   2.636   2.217   4.436
  457TIP3   OH2 1376   4.779   5.827   0.694
  457TIP3    H1 1377   4.823   5.745   0.716
  457TIP3    H2 1378   4.806   5.888   0.764
  458TIP3   OH2 1379   6.222   5.482   1.808
  458TIP3    H1 1380   6.184   5.473   1.720
  458TIP3    H2 1381   6.254   5.572   1.811
  459TIP3   OH2 1382   5.789   0.816   0.721
  459TIP3    H1 1383   5.792   0.732   0.765
  459TIP3    H2 1384   5.766   0.879   0.789
  460TIP3   OH2 1385   1.700   2.465   3.209
  460TIP3    H1 1386   1.612   2.494   3.185
  460TIP3    H2 1387   1.687   2.381   3.253
  461TIP3   OH2 1388   4.930   5.261   4.043
  461TIP3    H1 1389   4.938   5.234   4.135
  461TIP3    H2 1390   4.978   5.343   4.038
  462TIP3   OH2 1391   5.795   2.984   0.111
  462TIP3    H1 1392   5.784   3.062   0.057
  462TIP3    H2 1393   5.779   2.911   0.052
  463TIP3   OH2 1394   3.163   3.251   3.464
  463TIP3    H1 1395   3.227   3.323   3.471
  463TIP3    H2 1396   3.121   3.248   3.550
  464TIP3   OH2 1397   2.637   4.888   0.819
  464TIP3    H1 1398   2.633   4.965   0.874
  464TIP3    H2 1399   2.553   4.844   0.832
  465TIP3   OH2 1400   6.204   2.099   0.197
  465TIP3    H1 1401   6.194   2.171   0.260
  465TIP3    H2 1402   6.298   2.085   0.191
  466TIP3   OH2 1403   1.821   3.862   4.705
  466TIP3    H1 1404   1.900   3.824   4.743
  466TIP3    H2 1405   1.783   3.916   4.774
  467TIP3   OH2 1406   1.712   0.035   4.119
  467TIP3    H1 1407   1.713   0.131   4.123
  467TIP3    H2 1408   1.639   0.013   4.062
  468TIP3   OH2 1409   0.208   3.493   5.110
  468TIP3    H1 1410   0.150   3.430   5.153
  468TIP3    H2 1411   0.174   3.579   5.136
  469TIP3   OH2 1412   1.054   5.959   3.040
  469TIP3    H1 1413   1.088   6.012   2.968
  469TIP3    H2 1414   1.037   6.023   3.110
  470TIP3   OH2 1415   4.147   4.214   1.133
  470TIP3    H1 1416   4.155   4.283   1.067
  470TIP3    H2 1417   4.065   4.169   1.112
  471TIP3   OH2 1418   2.696   3.504   2.740
  471TIP3    H1 1419   2.710   3.462   2.655
  471TIP3    H2 1420   2.784   3.513   2.777
  472TIP3   OH2 1421   1.756   0.082   1.625
  472TIP3    H1 1422   1.797   0.000   1.598
  472TIP3    H2 1423   1.663   0.069   1.609
  473TIP3   OH2 1424   5.120   2.524   4.811
  473TIP3    H1 1425   5.146   2.484   4.728
  473TIP3    H2 1426   5.121   2.618   4.793
  474TIP3   OH2 1427   0.828   3.833   3.541
  474TIP3    H1 1428   0.765   3.763   3.561
  474TIP3    H2 1429   0.773   3.905   3.510
  475TIP3   OH2 1430   2.327   1.786   2.594
  475TIP3    H1 1431   2.317   1.783   2.499
  475TIP3    H2 1432   2.280   1.709   2.625
  476TIP3   OH2 1433   0.324   3.547   1.085
  476TIP3    H1 1434   0.259   3.572   1.151
  476TIP3    H2 1435   0.320   3.451   1.084
  477TIP3   OH2 1436   3.154   2.174   4.784
  477TIP3    H1 1437   3.234   2.188   4.733
  477TIP3    H2 1438   3.104   2.110   4.733
  478TIP3   OH2 1439   1.383   2.449   0.395
  478TIP3    H1 1440   1.399   2.488   0.481
  478TIP3    H2 1441   1.341   2.518   0.344
  479TIP3   OH2 1442   0.901   3.726   3.817
  479TIP3    H1 1443   0.949   3.651   3.783
  479TIP3    H2 1444   0.814   3.720   3.776
  480TIP3   OH2 1445   0.747   1.146   4.670
  480TIP3    H1 1446   0.835   1.117   4.648
  480TIP3    H2 1447   0.753   1.172   4.762
  481TIP3   OH2 1448   3.445   3.767   2.819
  481TIP3    H1 1449   3.385   3.693   2.810
  481TIP3    H2 1450   3.388   3.841   2.840
  482TIP3   OH2 1451   2.428   1.508   3.077
  482TIP3    H1 1452   2.457   1.599   3.074
  482TIP3    H2 1453   2.401   1.488   2.988
  483TIP3   OH2 1454   0.197   1.539   0.792
  483TIP3    H1 1455   0.135   1.608   0.773
  483TIP3    H2 1456   0.261   1.579   0.850
  484TIP3   OH2 1457   4.834   2.735   2.255
  484TIP3    H1 1458   4.794   2.770   2.334
  484TIP3    H2 1459   4.786   2.654   2.238
  485TIP3   OH2 1460   1.547   1.942   2.166
  485TIP3    H1 1461   1.584   1.868   2.118
  485TIP3    H2 1462   1.452   1.929   2.161
  486TIP3   OH2 1463   0.927   0.868   3.211
  486TIP3    H1 1464   0.856   0.914   3.257
  486TIP3    H2 1465   1.003   0.878   3.268
  487TIP3   OH2 1466   1.681   1.319   1.380
  487TIP3    H1 1467   1.776   1.330   1.375
  487TIP3    H2 1468   1.659   1.340   1.471
  488TIP3   OH2 1469   1.349   2.011   4.001
  488TIP3    H1 1470   1.401   1.935   4.028
  488TIP3    H2 1471   1.309   2.043   4.082
  489TIP3   OH2 1472   4.218   0.545   4.402
  489TIP3    H1 1473   4.214   0.640   4.410
  489TIP3    H2 1474   4.259   0.529   4.317
  490TIP3   OH2 1475   1.733   4.372   1.698
  490TIP3    H1 1476   1.753   4.438   1.632
  490TIP3    H2 1477   1.792   4.393   1.771
  491TIP3   OH2 1478   0.151   4.886   3.930
  491TIP3    H1 1479   0.125   4.978   3.924
  491TIP3    H2 1480   0.088   4.847   3.991
  492TIP3   OH2 1481   5.980   4.684   2.219
  492TIP3    H1 1482   5.980   4.687   2.314
  492TIP3    H2 1483   5.948   4.597   2.196
  493TIP3   OH2 1484   2.388   0.633   3.845
  493TIP3    H1 1485   2.401   0.573   3.919
  493TIP3    H2 1486   2.308   0.681   3.867
  494TIP3   OH2 1487   0.892   4.519   2.765
  494TIP3    H1 1488   0.971   4.562   2.797
  494TIP3    H2 1489   0.834   4.517   2.842
  495TIP3   OH2 1490   0.636   3.019   0.342
  495TIP3    H1 1491   0.617   2.942   0.288
  495TIP3    H2 1492   0.552   3.040   0.384
  496TIP3   OH2 1493   2.973   4.286   0.564
  496TIP3    H1 1494   2.894   4.328   0.530
  496TIP3    H2 1495   2.940   4.215   0.619
  497TIP3   OH2 1496   1.158   1.736   1.786
  497TIP3    H1 1497   1.172   1.814   1.733
  497TIP3    H2 1498   1.246   1.708   1.812
  498TIP3   OH2 1499   0.772   3.004   2.664
  498TIP3    H1 1500   0.757   3.057   2.586
  498TIP3    H2 1501   0.781   3.067   2.735
  499TIP3   OH2 1502   0.806   5.235   0.664
  499TIP3    H1 1503   0.822   5.150   0.622
  499TIP3    H2 1504   0.882   5.288   0.640
  500TIP3   OH2 1505   4.032   4.513   1.648
  500TIP3    H1 1506   4.026   4.430   1.600
  500TIP3    H2 1507   3.944   4.526   1.683
  501TIP3   OH2 1508   1.757   0.356   1.043
  501TIP3    H1 1509   1.785   0.352   1.135
  501TIP3    H2 1510   1.766   0.266   1.012
  502TIP3   OH2 1511   1.586   5.002   5.099
  502TIP3    H1 1512   1.657   4.973   5.042
  502TIP3    H2 1513   1.614   4.975   5.187
  503TIP3   OH2 1514   3.487   5.088   0.964
  503TIP3    H1 1515   3.407   5.054   0.924
  503TIP3    H2 1516   3.541   5.010   0.980
  504TIP3   OH2 1517   1.298   3.742   4.725
  504TIP3    H1 1518   1.343   3.716   4.806
  504TIP3    H2 1519   1.257   3.825   4.746
  505TIP3   OH2 1520   2.046   2.912   0.755
  505TIP3    H1 1521   2.087   2.998   0.766
  505TIP3    H2 1522   2.114   2.859   0.712
  506TIP3   OH2 1523   0.313   3.306   1.365
  506TIP3    H1 1524   0.380   3.239   1.353
  506TIP3    H2 1525   0.361   3.388   1.369
  507TIP3   OH2 1526   2.450   2.605   1.519
  507TIP3    H1 1527   2.532   2.642   1.551
  507TIP3    H2 1528   2.465   2.594   1.425
  508TIP3   OH2 1529   0.476   4.717   0.371
  508TIP3    H1 1530   0.542   4.694   0.437
  508TIP3    H2 1531   0.412   4.770   0.418
  509TIP3   OH2 1532   4.954   0.983   2.807
  509TIP3    H1 1533   4.863   0.981   2.780
  509TIP3    H2 1534   5.004   0.990   2.726
  510TIP3   OH2 1535   3.963   5.412   2.649
  510TIP3    H1 1536   4.021   5.337   2.662
  510TIP3    H2 1537   4.018   5.477   2.603
  511TIP3   OH2 1538   5.345   3.696   1.885
  511TIP3    H1 1539   5.328   3.779   1.841
  511TIP3    H2 1540   5.406   3.650   1.827
  512TIP3   OH2 1541   1.976   0.539   0.974
  512TIP3    H1 1542   1.883   0.522   0.963
  512TIP3    H2 1543   1.993   0.519   1.066
  513TIP3   OH2 1544   3.522   0.343   1.293
  513TIP3    H1 1545   3.547   0.268   1.239
  513TIP3    H2 1546   3.464   0.394   1.237
  514TIP3   OH2 1547   3.928   3.050   2.615
  514TIP3    H1 1548   3.832   3.056   2.619
  514TIP3    H2 1549   3.957   3.138   2.592
  515TIP3   OH2 1550   2.762   4.989   0.040
  515TIP3    H1 1551   2.669   4.992   0.018
  515TIP3    H2 1552   2.765   5.015   0.133
  516TIP3   OH2 1553   0.778   4.779   0.341
  516TIP3    H1 1554   0.788   4.852   0.280
  516TIP3    H2 1555   0.798   4.702   0.289
  517TIP3   OH2 1556   2.810   2.376   0.718
  517TIP3    H1 1557   2.733   2.327   0.747
  517TIP3    H2 1558   2.790   2.467   0.739
  518TIP3   OH2 1559   5.264   1.394   0.603
  518TIP3    H1 1560   5.232   1.460   0.664
  518TIP3    H2 1561   5.359   1.396   0.612
  519TIP3   OH2 1562   0.513   5.439   2.923
  519TIP3    H1 1563   0.523   5.388   2.842
  519TIP3    H2 1564   0.420   5.465   2.923
  520TIP3   OH2 1565   5.609   5.730   1.346
  520TIP3    H1 1566   5.702   5.746   1.329
  520TIP3    H2 1567   5.574   5.703   1.261
  521TIP3   OH2 1568   0.209   3.124   2.826
  521TIP3    H1 1569   0.138   3.157   2.882
  521TIP3    H2 1570   0.287   3.133   2.880
  522TIP3   OH2 1571   5.667   2.448   3.640
  522TIP3    H1 1572   5.610   2.382   3.600
  522TIP3    H2 1573   5.711   2.489   3.565
  523TIP3   OH2 1574   4.965   0.052   0.466
  523TIP3    H1 1575   4.886   0.031   0.516
  523TIP3    H2 1576   5.010   0.117   0.519
  524TIP3   OH2 1577   5.734   4.444   0.511
  524TIP3    H1 1578   5.786   4.515   0.474
  524TIP3    H2 1579   5.792   4.402   0.574
  525TIP3   OH2 1580   3.265   4.201   2.279
  525TIP3    H1 1581   3.216   4.120   2.262
  525TIP3    H2 1582   3.201   4.271   2.266
  526TIP3   OH2 1583   0.683   3.267   0.808
  526TIP3    H1 1584   0.643   3.353   0.805
  526TIP3    H2 1585   0.609   3.206   0.806
  527TIP3   OH2 1586   4.792   0.011   4.572
  527TIP3    H1 1587   4.826   0.100   4.568
  527TIP3    H2 1588   4.748  -0.002   4.488
  528TIP3   OH2 1589   1.987   2.729   0.037
  528TIP3    H1 1590   2.004   2.649   0.088
  528TIP3    H2 1591   1.906   2.711  -0.010
  529TIP3   OH2 1592   4.990   5.062   1.697
  529TIP3    H1 1593   5.057   5.126   1.721
  529TIP3    H2 1594   4.996   5.054   1.602
  530TIP3   OH2 1595   3.666   2.401   0.807
  530TIP3    H1 1596   3.648   2.358   0.723
  530TIP3    H2 1597   3.691   2.490   0.783
  531TIP3   OH2 1598   0.875   0.915   3.919
  531TIP3    H1 1599   0.787   0.908   3.882
  531TIP3    H2 1600   0.926   0.960   3.852
  532TIP3   OH2 1601   5.364   3.769   3.926
  532TIP3    H1 1602   5.336   3.727   4.008
  532TIP3    H2 1603   5.297   3.744   3.863
  533TIP3   OH2 1604   1.035   3.600   2.410
  533TIP3    H1 1605   0.952   3.582   2.365
  533TIP3    H2 1606   1.017   3.577   2.502
  534TIP3   OH2 1607   3.929   5.936   2.643
  534TIP3    H1 1608   3.922   6.031   2.634
  534TIP3    H2 1609   4.021   5.921   2.663
  535TIP3   OH2 1610   0.021   0.196   3.509
  535TIP3    H1 1611   0.077   0.203   3.586
  535TIP3    H2 1612   0.046   0.112   3.469
  536TIP3   OH2 1613   2.378   0.793   0.030
  536TIP3    H1 1614   2.311   0.751  -0.024
  536TIP3    H2 1615   2.340   0.794   0.118
  537TIP3   OH2 1616   4.180   0.570   5.007
  537TIP3    H1 1617   4.227   0.545   4.927
  537TIP3    H2 1618   4.108   0.624   4.976
  538TIP3   OH2 1619   4.199   2.420   0.460
  538TIP3    H1 1620   4.210   2.375   0.376
  538TIP3    H2 1621   4.282   2.406   0.506
  539TIP3   OH2 1622   3.531   1.575   0.959
  539TIP3    H1 1623   3.480   1.645   1.002
  539TIP3    H2 1624   3.510   1.584   0.866
  540TIP3   OH2 1625   6.049   3.644   4.230
  540TIP3    H1 1626   6.106   3.567   4.234
  540TIP3    H2 1627   6.109   3.718   4.219
  541TIP3   OH2 1628   5.421   1.085   2.277
  541TIP3    H1 1629   5.502   1.036   2.292
  541TIP3    H2 1630   5.447   1.177   2.285
  542TIP3   OH2 1631   0.909   1.251   1.886
  542TIP3    H1 1632   0.965   1.323   1.915
  542TIP3    H2 1633   0.967   1.174   1.887
  543TIP3   OH2 1634   3.285   1.629   0.453
  543TIP3    H1 1635   3.265   1.655   0.362
  543TIP3    H2 1636   3.370   1.670   0.471
  544TIP3   OH2 1637   0.013   4.483   1.762
  544TIP3    H1 1638  -0.045   4.524   1.697
  544TIP3    H2 1639   0.101   4.513   1.737
  545TIP3   OH2 1640   2.585   1.718   5.091
  545TIP3    H1 1641   2.672   1.687   5.115
  545TIP3    H2 1642   2.531   1.638   5.088
  546TIP3   OH2 1643   3.998   2.631   5.169
  546TIP3    H1 1644   3.920   2.657   5.121
  546TIP3    H2 1645   4.015   2.702   5.230
  547TIP3   OH2 1646   5.508   2.224   2.119
  547TIP3    H1 1647   5.536   2.249   2.208
  547TIP3    H2 1648   5.589   2.206   2.072
  548TIP3   OH2 1649   1.217   0.240   0.119
  548TIP3    H1 1650   1.261   0.197   0.193
  548TIP3    H2 1651   1.268   0.320   0.105
  549TIP3   OH2 1652   4.762   4.506   4.597
  549TIP3    H1 1653   4.806   4.515   4.513
  549TIP3    H2 1654   4.777   4.588   4.642
  550TIP3   OH2 1655   5.256   0.267   2.347
  550TIP3    H1 1656   5.173   0.310   2.329
  550TIP3    H2 1657   5.284   0.303   2.431
  551TIP3   OH2 1658   5.186   3.335   0.750
  551TIP3    H1 1659   5.231   3.299   0.673
  551TIP3    H2 1660   5.115   3.388   0.714
  552TIP3   OH2 1661   2.439   4.055   1.124
  552TIP3    H1 1662   2.365   4.114   1.133
  552TIP3    H2 1663   2.459   4.028   1.214
  553TIP3   OH2 1664   3.906   2.647   4.826
  553TIP3    H1 1665   3.877   2.566   4.784
  553TIP3    H2 1666   4.000   2.635   4.839
  554TIP3   OH2 1667   2.484   4.712   4.350
  554TIP3    H1 1668   2.426   4.691   4.276
  554TIP3    H2 1669   2.485   4.807   4.353
  555TIP3   OH2 1670   4.010   1.293   1.411
  555TIP3    H1 1671   4.045   1.311   1.498
  555TIP3    H2 1672   3.933   1.239   1.427
  556TIP3   OH2 1673   5.583   1.388   0.038
  556TIP3    H1 1674   5.587   1.452   0.109
  556TIP3    H2 1675   5.665   1.402  -0.010
  557TIP3   OH2 1676   1.420   2.853   1.449
  557TIP3    H1 1677   1.346   2.914   1.454
  557TIP3    H2 1678   1.391   2.776   1.497
  558TIP3   OH2 1679   3.019   0.368   0.763
  558TIP3    H1 1680   2.970   0.415   0.697
  558TIP3    H2 1681   3.004   0.275   0.744
  559TIP3   OH2 1682   1.442   5.990   2.900
  559TIP3    H1 1683   1.529   5.969   2.866
  559TIP3    H2 1684   1.427   5.924   2.968
  560TIP3   OH2 1685   3.711   2.851   4.710
  560TIP3    H1 1686   3.636   2.800   4.741
  560TIP3    H2 1687   3.785   2.792   4.719
  561TIP3   OH2 1688   1.056   0.525   1.983
  561TIP3    H1 1689   1.003   0.605   1.989
  561TIP3    H2 1690   1.042   0.494   1.894
  562TIP3   OH2 1691   5.305   4.189   0.670
  562TIP3    H1 1692   5.281   4.200   0.578
  562TIP3    H2 1693   5.239   4.239   0.718
  563TIP3   OH2 1694   0.089   0.614   3.463
  563TIP3    H1 1695   0.013   0.641   3.411
  563TIP3    H2 1696   0.097   0.683   3.529
  564TIP3   OH2 1697   0.310   0.150   1.760
  564TIP3    H1 1698   0.268   0.228   1.724
  564TIP3    H2 1699   0.401   0.176   1.775
  565TIP3   OH2 1700   6.291   1.712   0.746
  565TIP3    H1 1701   6.300   1.738   0.838
  565TIP3    H2 1702   6.198   1.721   0.727
  566TIP3   OH2 1703   1.535   2.361   5.146
  566TIP3    H1 1704   1.469   2.347   5.214
  566TIP3    H2 1705   1.583   2.278   5.141
  567TIP3   OH2 1706   2.930   2.650   0.687
  567TIP3    H1 1707   3.022   2.671   0.672
  567TIP3    H2 1708   2.892   2.645   0.600
  568TIP3   OH2 1709   6.171   2.518   1.745
  568TIP3    H1 1710   6.236   2.462   1.786
  568TIP3    H2 1711   6.087   2.482   1.771
  569TIP3   OH2 1712   4.895   4.519   3.669
  569TIP3    H1 1713   4.931   4.584   3.730
  569TIP3    H2 1714   4.830   4.566   3.618
  570TIP3   OH2 1715   3.196   0.885   4.805
  570TIP3    H1 1716   3.208   0.979   4.790
  570TIP3    H2 1717   3.230   0.844   4.726
  571TIP3   OH2 1718   4.253   5.165   3.179
  571TIP3    H1 1719   4.216   5.253   3.187
  571TIP3    H2 1720   4.185   5.107   3.212
  572TIP3   OH2 1721   2.574   3.006   4.847
  572TIP3    H1 1722   2.635   3.077   4.867
  572TIP3    H2 1723   2.620   2.927   4.873
  573TIP3   OH2 1724   1.717   0.532   0.050
  573TIP3    H1 1725   1.642   0.492   0.093
  573TIP3    H2 1726   1.791   0.475   0.073
  574TIP3   OH2 1727   1.348   0.295   3.489
  574TIP3    H1 1728   1.340   0.376   3.439
  574TIP3    H2 1729   1.262   0.282   3.528
  575TIP3   OH2 1730   4.324   2.805   4.863
  575TIP3    H1 1731   4.369   2.826   4.945
  575TIP3    H2 1732   4.238   2.846   4.871
  576TIP3   OH2 1733   6.356   5.218   1.805
  576TIP3    H1 1734   6.285   5.237   1.743
  576TIP3    H2 1735   6.318   5.235   1.891
  577TIP3   OH2 1736   2.618   3.915   3.012
  577TIP3    H1 1737   2.649   3.843   3.066
  577TIP3    H2 1738   2.682   3.985   3.027
  578TIP3   OH2 1739   3.076   1.060   3.817
  578TIP3    H1 1740   3.155   1.045   3.765
  578TIP3    H2 1741   3.004   1.046   3.757
  579TIP3   OH2 1742   1.953   2.908   1.759
  579TIP3    H1 1743   1.999   2.984   1.793
  579TIP3    H2 1744   1.918   2.864   1.836
  580TIP3   OH2 1745   2.983   5.866   2.716
  580TIP3    H1 1746   3.002   5.909   2.632
  580TIP3    H2 1747   3.053   5.896   2.774
  581TIP3   OH2 1748   3.738   0.081   0.893
  581TIP3    H1 1749   3.809   0.120   0.842
  581TIP3    H2 1750   3.778   0.004   0.934
  582TIP3   OH2 1751   5.932   3.968   3.407
  582TIP3    H1 1752   5.888   3.886   3.433
  582TIP3    H2 1753   6.010   3.939   3.360
  583TIP3   OH2 1754   0.885   5.334   1.918
  583TIP3    H1 1755   0.942   5.321   1.842
  583TIP3    H2 1756   0.803   5.289   1.895
  584TIP3   OH2 1757   6.265   0.138   1.829
  584TIP3    H1 1758   6.206   0.068   1.800
  584TIP3    H2 1759   6.329   0.094   1.884
  585TIP3   OH2 1760   4.186   1.928   3.856
  585TIP3    H1 1761   4.093   1.906   3.862
  585TIP3    H2 1762   4.191   2.020   3.882
  586TIP3   OH2 1763   0.504   0.797   1.492
  586TIP3    H1 1764   0.431   0.740   1.517
  586TIP3    H2 1765   0.550   0.748   1.424
  587TIP3   OH2 1766   5.282   3.119   3.628
  587TIP3    H1 1767   5.355   3.078   3.581
  587TIP3    H2 1768   5.222   3.047   3.645
  588TIP3   OH2 1769   4.777   2.726   2.930
  588TIP3    H1 1770   4.724   2.681   2.995
  588TIP3    H2 1771   4.796   2.660   2.863
  589TIP3   OH2 1772   0.429   0.278   2.195
  589TIP3    H1 1773   0.357   0.222   2.223
  589TIP3    H2 1774   0.494   0.271   2.265
  590TIP3   OH2 1775   3.563   2.579   5.027
  590TIP3    H1 1776   3.601   2.655   5.071
  590TIP3    H2 1777   3.604   2.504   5.069
  591TIP3   OH2 1778   2.309   4.494   4.458
  591TIP3    H1 1779   2.362   4.523   4.532
  591TIP3    H2 1780   2.307   4.569   4.399
  592TIP3   OH2 1781   1.954   0.313   3.945
  592TIP3    H1 1782   2.018   0.255   3.988
  592TIP3    H2 1783   1.900   0.347   4.017
  593TIP3   OH2 1784   2.529   0.186   2.059
  593TIP3    H1 1785   2.498   0.142   1.980
  593TIP3    H2 1786   2.456   0.242   2.085
  594TIP3   OH2 1787   0.247   5.861   4.492
  594TIP3    H1 1788   0.218   5.848   4.582
  594TIP3    H2 1789   0.188   5.808   4.439
  595TIP3   OH2 1790   3.752   1.031   0.569
  595TIP3    H1 1791   3.811   0.958   0.552
  595TIP3    H2 1792   3.703   1.041   0.487
  596TIP3   OH2 1793   0.569   1.773   0.771
  596TIP3    H1 1794   0.637   1.706   0.762
  596TIP3    H2 1795   0.521   1.769   0.688
  597TIP3   OH2 1796   3.187   4.996   4.944
  597TIP3    H1 1797   3.173   5.088   4.923
  597TIP3    H2 1798   3.110   4.951   4.909
  598TIP3   OH2 1799   1.003   5.490   2.330
  598TIP3    H1 1800   0.921   5.539   2.328
  598TIP3    H2 1801   1.022   5.471   2.238
  599TIP3   OH2 1802   2.079   1.363   4.816
  599TIP3    H1 1803   2.052   1.435   4.759
  599TIP3    H2 1804   2.020   1.292   4.793
  600TIP3   OH2 1805   3.118   0.394   4.629
  600TIP3    H1 1806   3.158   0.308   4.618
  600TIP3    H2 1807   3.182   0.443   4.681
  601TIP3   OH2 1808   1.674   4.590  -0.002
  601TIP3    H1 1809   1.630   4.672  -0.026
  601TIP3    H2 1810   1.678   4.592   0.093
  602TIP3   OH2 1811   5.716   5.264   1.700
  602TIP3    H1 1812   5.762   5.230   1.624
  602TIP3    H2 1813   5.769   5.236   1.775
  603TIP3   OH2 1814   3.684   1.374   2.525
  603TIP3    H1 1815   3.712   1.355   2.436
  603TIP3    H2 1816   3.705   1.296   2.575
  604TIP3   OH2 1817   2.637   1.298   3.077
  604TIP3    H1 1818   2.547   1.330   3.082
  604TIP3    H2 1819   2.690   1.371   3.109
  605TIP3   OH2 1820   6.170   0.738   2.801
  605TIP3    H1 1821   6.086   0.725   2.846
  605TIP3    H2 1822   6.203   0.649   2.787
  606TIP3   OH2 1823   4.611   0.983   3.114
  606TIP3    H1 1824   4.588   0.981   3.021
  606TIP3    H2 1825   4.695   0.936   3.118
  607TIP3   OH2 1826   0.212   0.777   4.448
  607TIP3    H1 1827   0.203   0.873   4.454
  607TIP3    H2 1828   0.175   0.745   4.530
  608TIP3   OH2 1829   2.997   5.692   2.241
  608TIP3    H1 1830   2.947   5.744   2.178
  608TIP3    H2 1831   2.934   5.671   2.310
  609TIP3   OH2 1832   2.393   4.029   3.670
  609TIP3    H1 1833   2.439   3.979   3.602
  609TIP3    H2 1834   2.462   4.079   3.713
  610TIP3   OH2 1835   0.334   0.671   0.408
  610TIP3    H1 1836   0.299   0.583   0.398
  610TIP3    H2 1837   0.259   0.725   0.432
  611TIP3   OH2 1838   6.095   0.891   0.015
  611TIP3    H1 1839   6.167   0.950  -0.007
  611TIP3    H2 1840   6.069   0.916   0.103
  612TIP3   OH2 1841   5.378   4.645   2.643
  612TIP3    H1 1842   5.416   4.627   2.729
  612TIP3    H2 1843   5.290   4.609   2.648
  613TIP3   OH2 1844   5.537   5.899   4.687
  613TIP3    H1 1845   5.625   5.900   4.648
  613TIP3    H2 1846   5.491   5.971   4.645
  614TIP3   OH2 1847   5.326   3.308   1.929
  614TIP3    H1 1848   5.347   3.231   1.982
  614TIP3    H2 1849   5.249   3.282   1.878
  615TIP3   OH2 1850   4.875   3.201   2.929
  615TIP3    H1 1851   4.951   3.258   2.921
  615TIP3    H2 1852   4.891   3.130   2.866
  616TIP3   OH2 1853   1.674   5.607   3.413
  616TIP3    H1 1854   1.586   5.627   3.443
  616TIP3    H2 1855   1.666   5.600   3.317
  617TIP3   OH2 1856   1.205   4.724   0.534
  617TIP3    H1 1857   1.235   4.636   0.559
  617TIP3    H2 1858   1.273   4.756   0.475
  618TIP3   OH2 1859   1.866   2.665   1.936
  618TIP3    H1 1860   1.770   2.660   1.941
  618TIP3    H2 1861   1.896   2.640   2.024
  619TIP3   OH2 1862   1.047   0.767   4.161
  619TIP3    H1 1863   1.113   0.781   4.229
  619TIP3    H2 1864   0.979   0.832   4.179
  620TIP3   OH2 1865   5.140   1.323   4.449
  620TIP3    H1 1866   5.085   1.354   4.377
  620TIP3    H2 1867   5.085   1.331   4.527
  621TIP3   OH2 1868   5.844   5.494   2.192
  621TIP3    H1 1869   5.917   5.458   2.242
  621TIP3    H2 1870   5.860   5.466   2.102
  622TIP3   OH2 1871   0.695   2.049   4.348
  622TIP3    H1 1872   0.677   2.041   4.442
  622TIP3    H2 1873   0.718   1.960   4.320
  623TIP3   OH2 1874   3.643   3.092   2.608
  623TIP3    H1 1875   3.631   3.040   2.687
  623TIP3    H2 1876   3.555   3.097   2.569
  624TIP3   OH2 1877   3.952   0.205   3.684
  624TIP3    H1 1878   3.953   0.231   3.592
  624TIP3    H2 1879   3.998   0.276   3.729
  625TIP3   OH2 1880   3.271   4.880   2.230
  625TIP3    H1 1881   3.239   4.955   2.280
  625TIP3    H2 1882   3.356   4.908   2.196
  626TIP3   OH2 1883   4.680   2.676   0.156
  626TIP3    H1 1884   4.691   2.583   0.140
  626TIP3    H2 1885   4.720   2.691   0.241
  627TIP3   OH2 1886   1.364   4.237   2.109
  627TIP3    H1 1887   1.362   4.164   2.171
  627TIP3    H2 1888   1.317   4.205   2.033
  628TIP3   OH2 1889   5.105   5.599   5.047
  628TIP3    H1 1890   5.014   5.584   5.070
  628TIP3    H2 1891   5.105   5.682   4.999
  629TIP3   OH2 1892   0.740   4.750   4.284
  629TIP3    H1 1893   0.758   4.668   4.330
  629TIP3    H2 1894   0.676   4.727   4.217
  630TIP3   OH2 1895   4.601   3.380   4.781
  630TIP3    H1 1896   4.545   3.303   4.787
  630TIP3    H2 1897   4.673   3.354   4.724
  631TIP3   OH2 1898   4.986   4.395   1.093
  631TIP3    H1 1899   4.998   4.301   1.110
  631TIP3    H2 1900   5.068   4.435   1.121
  632TIP3   OH2 1901   3.911   0.655   4.644
  632TIP3    H1 1902   3.876   0.708   4.573
  632TIP3    H2 1903   3.862   0.684   4.721
  633TIP3   OH2 1904   2.881   4.928   3.234
  633TIP3    H1 1905   2.958   4.873   3.218
  633TIP3    H2 1906   2.806   4.873   3.209
  634TIP3   OH2 1907   5.839   3.199   1.362
  634TIP3    H1 1908   5.934   3.211   1.365
  634TIP3    H2 1909   5.813   3.229   1.275
  635TIP3   OH2 1910   3.895   0.119   0.486
  635TIP3    H1 1911   3.894   0.023   0.487
  635TIP3    H2 1912   3.803   0.144   0.473
  636TIP3   OH2 1913   3.605   2.910   2.287
  636TIP3    H1 1914   3.625   2.903   2.380
  636TIP3    H2 1915   3.646   2.993   2.260
  637TIP3   OH2 1916   6.149   2.853   4.989
  637TIP3    H1 1917   6.072   2.887   5.033
  637TIP3    H2 1918   6.214   2.842   5.059
  638TIP3   OH2 1919   0.963   1.096   0.507
  638TIP3    H1 1920   0.943   1.090   0.601
  638TIP3    H2 1921   0.887   1.058   0.464
  639TIP3   OH2 1922   4.562   1.260   3.211
  639TIP3    H1 1923   4.590   1.178   3.171
  639TIP3    H2 1924   4.627   1.324   3.183
  640TIP3   OH2 1925   5.953   3.034   2.183
  640TIP3    H1 1926   5.935   2.960   2.241
  640TIP3    H2 1927   5.866   3.072   2.165
  641TIP3   OH2 1928   5.653   1.438   4.230
  641TIP3    H1 1929   5.735   1.400   4.198
  641TIP3    H2 1930   5.678   1.521   4.270
  642TIP3   OH2 1931   5.445   4.440   0.495
  642TIP3    H1 1932   5.537   4.461   0.507
  642TIP3    H2 1933   5.443   4.384   0.418
  643TIP3   OH2 1934   4.165   3.694   4.188
  643TIP3    H1 1935   4.239   3.634   4.198
  643TIP3    H2 1936   4.205   3.780   4.171
  644TIP3   OH2 1937   2.631   3.022   2.612
  644TIP3    H1 1938   2.541   3.043   2.586
  644TIP3    H2 1939   2.645   2.933   2.581
  645TIP3   OH2 1940   3.725   2.172   2.855
  645TIP3    H1 1941   3.716   2.133   2.768
  645TIP3    H2 1942   3.636   2.190   2.883
  646TIP3   OH2 1943   6.223   2.878   1.941
  646TIP3    H1 1944   6.152   2.882   1.876
  646TIP3    H2 1945   6.303   2.885   1.889
  647TIP3   OH2 1946   5.771   4.957   0.813
  647TIP3    H1 1947   5.677   4.960   0.792
  647TIP3    H2 1948   5.809   5.030   0.764
  648TIP3   OH2 1949   3.876   3.114   4.208
  648TIP3    H1 1950   3.871   3.063   4.289
  648TIP3    H2 1951   3.917   3.197   4.234
  649TIP3   OH2 1952   2.813   4.165   1.815
  649TIP3    H1 1953   2.742   4.206   1.765
  649TIP3    H2 1954   2.854   4.104   1.753
  650TIP3   OH2 1955   6.161   5.117   2.269
  650TIP3    H1 1956   6.099   5.122   2.196
  650TIP3    H2 1957   6.238   5.074   2.232
  651TIP3   OH2 1958   4.453   5.738   5.026
  651TIP3    H1 1959   4.481   5.713   4.938
  651TIP3    H2 1960   4.368   5.779   5.013
  652TIP3   OH2 1961   2.257   4.721   4.140
  652TIP3    H1 1962   2.184   4.673   4.101
  652TIP3    H2 1963   2.325   4.720   4.073
  653TIP3   OH2 1964   3.298   1.613   1.700
  653TIP3    H1 1965   3.252   1.559   1.764
  653TIP3    H2 1966   3.262   1.700   1.712
  654TIP3   OH2 1967   1.147   2.904   5.146
  654TIP3    H1 1968   1.240   2.926   5.138
  654TIP3    H2 1969   1.115   2.906   5.056
  655TIP3   OH2 1970   5.570   2.169   0.606
  655TIP3    H1 1971   5.521   2.087   0.611
  655TIP3    H2 1972   5.575   2.199   0.697
  656TIP3   OH2 1973   4.182   4.516   5.134
  656TIP3    H1 1974   4.238   4.540   5.207
  656TIP3    H2 1975   4.216   4.565   5.060
  657TIP3   OH2 1976   3.427   2.279   1.273
  657TIP3    H1 1977   3.440   2.201   1.327
  657TIP3    H2 1978   3.342   2.265   1.231
  658TIP3   OH2 1979   1.645   0.378   1.939
  658TIP3    H1 1980   1.731   0.381   1.897
  658TIP3    H2 1981   1.634   0.464   1.979
  659TIP3   OH2 1982   2.756   1.882   2.935
  659TIP3    H1 1983   2.850   1.895   2.944
  659TIP3    H2 1984   2.732   1.933   2.858
  660TIP3   OH2 1985   4.286   1.668   0.829
  660TIP3    H1 1986   4.244   1.630   0.752
  660TIP3    H2 1987   4.330   1.747   0.797
  661TIP3   OH2 1988   1.832   3.312   2.585
  661TIP3    H1 1989   1.889   3.388   2.579
  661TIP3    H2 1990   1.773   3.331   2.658
  662TIP3   OH2 1991   5.168   2.669   1.526
  662TIP3    H1 1992   5.134   2.726   1.595
  662TIP3    H2 1993   5.097   2.663   1.462
  663TIP3   OH2 1994   4.098   5.320   5.040
  663TIP3    H1 1995   4.167   5.380   5.070
  663TIP3    H2 1996   4.017   5.359   5.071
  664TIP3   OH2 1997   2.844   0.104   0.923
  664TIP3    H1 1998   2.881   0.119   0.836
  664TIP3    H2 1999   2.906   0.045   0.966
  665TIP3   OH2 2000   1.441   5.859   3.162
  665TIP3    H1 2001   1.485   5.794   3.107
  665TIP3    H2 2002   1.512   5.907   3.203
  666TIP3   OH2 2003   4.949   4.788   2.411
  666TIP3    H1 2004   4.883   4.733   2.453
  666TIP3    H2 2005   4.907   4.872   2.400
  667TIP3   OH2 2006   5.366   4.089   1.898
  667TIP3    H1 2007   5.299   4.084   1.830
  667TIP3    H2 2008   5.446   4.115   1.851
  668TIP3   OH2 2009   5.272   1.408   2.522
  668TIP3    H1 2010   5.261   1.465   2.598
  668TIP3    H2 2011   5.333   1.341   2.551
  669TIP3   OH2 2012   4.344   4.494   0.133
  669TIP3    H1 2013   4.378   4.569   0.085
  669TIP3    H2 2014   4.401   4.486   0.209
  670TIP3   OH2 2015   5.674   0.308   4.823
  670TIP3    H1 2016   5.709   0.220   4.839
  670TIP3    H2 2017   5.631   0.331   4.906
  671TIP3   OH2 2018   2.112   2.202   4.727
  671TIP3    H1 2019   2.175   2.257   4.681
  671TIP3    H2 2020   2.056   2.263   4.774
  672TIP3   OH2 2021   5.547   2.582   4.130
  672TIP3    H1 2022   5.541   2.537   4.046
  672TIP3    H2 2023   5.547   2.675   4.108
  673TIP3   OH2 2024   1.549   0.558   1.063
  673TIP3    H1 2025   1.591   0.627   1.115
  673TIP3    H2 2026   1.620   0.497   1.043
  674TIP3   OH2 2027   4.562   5.963   0.281
  674TIP3    H1 2028   4.635   5.920   0.325
  674TIP3    H2 2029   4.564   5.928   0.192
  675TIP3   OH2 2030   0.083   5.912   0.565
  675TIP3    H1 2031   0.117   5.956   0.643
  675TIP3    H2 2032   0.109   5.821   0.575
  676TIP3   OH2 2033   3.069   3.983   1.093
  676TIP3    H1 2034   3.029   4.069   1.087
  676TIP3    H2 2035   3.036   3.947   1.175
  677TIP3   OH2 2036   2.027   4.591   4.032
  677TIP3    H1 2037   2.046   4.553   3.946
  677TIP3    H2 2038   1.983   4.520   4.080
  678TIP3   OH2 2039   0.013   2.002   5.074
  678TIP3    H1 2040   0.026   1.935   5.007
  678TIP3    H2 2041  -0.012   2.080   5.026
  679TIP3   OH2 2042   2.152   0.130   0.165
  679TIP3    H1 2043   2.243   0.133   0.136
  679TIP3    H2 2044   2.143   0.205   0.225
  680TIP3   OH2 2045   1.347   5.299   1.382
  680TIP3    H1 2046   1.386   5.323   1.466
  680TIP3    H2 2047   1.268   5.353   1.376
  681TIP3   OH2 2048   1.969   4.085   1.973
  681TIP3    H1 2049   1.997   4.063   2.062
  681TIP3    H2 2050   2.025   4.158   1.948
  682TIP3   OH2 2051   1.234   2.222   4.174
  682TIP3    H1 2052   1.294   2.267   4.233
  682TIP3    H2 2053   1.149   2.227   4.219
  683TIP3   OH2 2054   5.570   3.708   4.179
  683TIP3    H1 2055   5.557   3.622   4.218
  683TIP3    H2 2056   5.488   3.755   4.195
  684TIP3   OH2 2057   2.302   0.492   0.848
  684TIP3    H1 2058   2.376   0.552   0.858
  684TIP3    H2 2059   2.289   0.486   0.754
  685TIP3   OH2 2060   1.743   1.244   4.651
  685TIP3    H1 2061   1.759   1.151   4.666
  685TIP3    H2 2062   1.713   1.278   4.735
  686TIP3   OH2 2063   5.522   5.892   4.336
  686TIP3    H1 2064   5.615   5.912   4.339
  686TIP3    H2 2065   5.488   5.946   4.265
  687TIP3   OH2 2066   1.561   4.816   2.335
  687TIP3    H1 2067   1.628   4.854   2.392
  687TIP3    H2 2068   1.552   4.726   2.367
  688TIP3   OH2 2069   2.542   4.690   0.156
  688TIP3    H1 2070   2.502   4.755   0.098
  688TIP3    H2 2071   2.605   4.643   0.101
  689TIP3   OH2 2072   2.140   2.980   4.492
  689TIP3    H1 2073   2.066   3.006   4.546
  689TIP3    H2 2074   2.103   2.924   4.424
  690TIP3   OH2 2075   2.651   5.770   5.083
  690TIP3    H1 2076   2.651   5.820   5.002
  690TIP3    H2 2077   2.599   5.693   5.065
  691TIP3   OH2 2078   5.372   0.411   0.789
  691TIP3    H1 2079   5.399   0.493   0.746
  691TIP3    H2 2080   5.382   0.428   0.882
  692TIP3   OH2 2081   3.989   3.450   0.529
  692TIP3    H1 2082   4.011   3.372   0.581
  692TIP3    H2 2083   4.062   3.459   0.467
  693TIP3   OH2 2084   2.268   5.292   2.680
  693TIP3    H1 2085   2.248   5.360   2.744
  693TIP3    H2 2086   2.222   5.215   2.711
  694TIP3   OH2 2087   6.079   3.739   3.580
  694TIP3    H1 2088   6.094   3.679   3.507
  694TIP3    H2 2089   6.018   3.693   3.637
  695TIP3   OH2 2090   0.630   1.484   2.883
  695TIP3    H1 2091   0.600   1.548   2.819
  695TIP3    H2 2092   0.573   1.497   2.959
  696TIP3   OH2 2093   6.306   2.730   4.429
  696TIP3    H1 2094   6.212   2.733   4.445
  696TIP3    H2 2095   6.319   2.655   4.371
  697TIP3   OH2 2096   1.618   3.327   4.558
  697TIP3    H1 2097   1.603   3.350   4.649
  697TIP3    H2 2098   1.619   3.231   4.556
  698TIP3   OH2 2099   3.129   2.745   3.919
  698TIP3    H1 2100   3.214   2.761   3.960
  698TIP3    H2 2101   3.151   2.694   3.840
  699TIP3   OH2 2102   1.902   4.372   5.182
  699TIP3    H1 2103   1.843   4.346   5.253
  699TIP3    H2 2104   1.905   4.296   5.124
  700TIP3   OH2 2105   2.693   5.936   1.236
  700TIP3    H1 2106   2.745   5.856   1.248
  700TIP3    H2 2107   2.673   5.965   1.325
  701TIP3   OH2 2108   6.159   2.369   3.102
  701TIP3    H1 2109   6.110   2.418   3.167
  701TIP3    H2 2110   6.242   2.417   3.093
  702TIP3   OH2 2111   2.862   2.024   1.982
  702TIP3    H1 2112   2.809   2.092   2.024
  702TIP3    H2 2113   2.832   2.022   1.891
  703TIP3   OH2 2114   2.632   3.786   0.797
  703TIP3    H1 2115   2.703   3.841   0.830
  703TIP3    H2 2116   2.561   3.848   0.778
  704TIP3   OH2 2117   3.530   4.223   2.782
  704TIP3    H1 2118   3.442   4.229   2.744
  704TIP3    H2 2119   3.517   4.239   2.875
  705TIP3   OH2 2120   2.970   3.681   1.549
  705TIP3    H1 2121   2.962   3.599   1.596
  705TIP3    H2 2122   2.913   3.742   1.595
  706TIP3   OH2 2123   0.725   3.019   3.023
  706TIP3    H1 2124   0.769   2.937   3.001
  706TIP3    H2 2125   0.713   3.015   3.118
  707TIP3   OH2 2126   3.740   1.516   4.552
  707TIP3    H1 2127   3.799   1.515   4.477
  707TIP3    H2 2128   3.711   1.426   4.562
  708TIP3   OH2 2129   0.156   3.787   0.258
  708TIP3    H1 2130   0.166   3.854   0.191
  708TIP3    H2 2131   0.109   3.716   0.215
  709TIP3   OH2 2132   5.651   4.128   2.707
  709TIP3    H1 2133   5.585   4.150   2.641
  709TIP3    H2 2134   5.612   4.057   2.757
  710TIP3   OH2 2135   0.022   1.804   4.877
  710TIP3    H1 2136   0.049   1.714   4.899
  710TIP3    H2 2137   0.060   1.820   4.791
  711TIP3   OH2 2138   2.841   0.489   4.625
  711TIP3    H1 2139   2.934   0.470   4.633
  711TIP3    H2 2140   2.834   0.584   4.639
  712TIP3   OH2 2141   2.292   5.081   1.302
  712TIP3    H1 2142   2.201   5.072   1.274
  712TIP3    H2 2143   2.290   5.153   1.365
  713TIP3   OH2 2144   5.004   0.324   3.999
  713TIP3    H1 2145   4.998   0.268   3.922
  713TIP3    H2 2146   4.929   0.299   4.053
  714TIP3   OH2 2147   2.229   3.181   4.244
  714TIP3    H1 2148   2.177   3.260   4.261
  714TIP3    H2 2149   2.260   3.154   4.330
  715TIP3   OH2 2150   4.006   0.578   1.097
  715TIP3    H1 2151   3.918   0.615   1.098
  715TIP3    H2 2152   3.994   0.484   1.084
  716TIP3   OH2 2153   4.298   0.962   1.643
  716TIP3    H1 2154   4.206   0.934   1.649
  716TIP3    H2 2155   4.296   1.040   1.588
  717TIP3   OH2 2156   1.174   0.071   3.752
  717TIP3    H1 2157   1.243   0.011   3.778
  717TIP3    H2 2158   1.209   0.158   3.770
  718TIP3   OH2 2159   2.866   0.766   4.692
  718TIP3    H1 2160   2.882   0.786   4.784
  718TIP3    H2 2161   2.845   0.850   4.652
  719TIP3   OH2 2162   1.170   4.170   0.983
  719TIP3    H1 2163   1.260   4.156   0.956
  719TIP3    H2 2164   1.168   4.261   1.014
  720TIP3   OH2 2165   3.803   4.538   2.270
  720TIP3    H1 2166   3.803   4.442   2.266
  720TIP3    H2 2167   3.726   4.560   2.322
  721TIP3   OH2 2168   1.046  -0.028   0.210
  721TIP3    H1 2169   1.030   0.066   0.223
  721TIP3    H2 2170   1.028  -0.067   0.296
  722TIP3   OH2 2171   1.160   2.527   1.795
  722TIP3    H1 2172   1.098   2.479   1.741
  722TIP3    H2 2173   1.223   2.461   1.824
  723TIP3   OH2 2174   5.201   1.119   1.254
  723TIP3    H1 2175   5.124   1.175   1.251
  723TIP3    H2 2176   5.237   1.123   1.165
  724TIP3   OH2 2177   4.844   5.040   2.466
  724TIP3    H1 2178   4.798   4.993   2.536
  724TIP3    H2 2179   4.858   5.127   2.502
  725TIP3   OH2 2180   0.945   4.223   2.917
  725TIP3    H1 2181   0.975   4.273   2.993
  725TIP3    H2 2182   0.862   4.263   2.892
  726TIP3   OH2 2183   2.420   4.625   0.396
  726TIP3    H1 2184   2.487   4.642   0.463
  726TIP3    H2 2185   2.455   4.666   0.317
  727TIP3   OH2 2186   5.990   5.455   0.832
  727TIP3    H1 2187   5.987   5.471   0.738
  727TIP3    H2 2188   6.040   5.374   0.841
  728TIP3   OH2 2189   6.315   1.752   3.115
  728TIP3    H1 2190   6.330   1.724   3.025
  728TIP3    H2 2191   6.297   1.671   3.163
  729TIP3   OH2 2192   1.718   1.198   3.082
  729TIP3    H1 2193   1.742   1.144   3.157
  729TIP3    H2 2194   1.801   1.231   3.047
  730TIP3   OH2 2195   5.659   4.950   3.775
  730TIP3    H1 2196   5.657   5.041   3.803
  730TIP3    H2 2197   5.741   4.941   3.726
  731TIP3   OH2 2198   3.834   4.371   2.919
  731TIP3    H1 2199   3.806   4.307   2.854
  731TIP3    H2 2200   3.902   4.325   2.969
  732TIP3   OH2 2201   2.440   1.293   3.673
  732TIP3    H1 2202   2.346   1.313   3.668
  732TIP3    H2 2203   2.478   1.371   3.712
  733TIP3   OH2 2204   0.422   4.885   2.323
  733TIP3    H1 2205   0.408   4.946   2.250
  733TIP3    H2 2206   0.358   4.815   2.309
  734TIP3   OH2 2207   0.646   5.477   2.509
  734TIP3    H1 2208   0.681   5.565   2.526
  734TIP3    H2 2209   0.711   5.436   2.452
  735TIP3   OH2 2210   4.601   1.563   2.818
  735TIP3    H1 2211   4.559   1.496   2.766
  735TIP3    H2 2212   4.572   1.546   2.908
  736TIP3   OH2 2213   4.015   5.053   3.044
  736TIP3    H1 2214   4.010   5.099   2.961
  736TIP3    H2 2215   3.932   5.074   3.088
  737TIP3   OH2 2216   3.540   4.095   2.188
  737TIP3    H1 2217   3.456   4.140   2.203
  737TIP3    H2 2218   3.542   4.026   2.255
  738TIP3   OH2 2219   0.845   5.337   4.664
  738TIP3    H1 2220   0.856   5.307   4.574
  738TIP3    H2 2221   0.845   5.433   4.658
  739TIP3   OH2 2222   3.133   5.158   0.454
  739TIP3    H1 2223   3.140   5.248   0.488
  739TIP3    H2 2224   3.214   5.116   0.482
  740TIP3   OH2 2225   2.370   3.825   2.023
  740TIP3    H1 2226   2.438   3.812   2.089
  740TIP3    H2 2227   2.346   3.917   2.031
  741TIP3   OH2 2228   2.843   2.871   2.169
  741TIP3    H1 2229   2.818   2.944   2.225
  741TIP3    H2 2230   2.939   2.873   2.168
  742TIP3   OH2 2231   5.220   1.064   4.096
  742TIP3    H1 2232   5.223   1.159   4.087
  742TIP3    H2 2233   5.237   1.048   4.189
  743TIP3   OH2 2234   3.299   0.518   3.647
  743TIP3    H1 2235   3.331   0.603   3.617
  743TIP3    H2 2236   3.378   0.467   3.667
  744TIP3   OH2 2237   0.423   3.257   4.969
  744TIP3    H1 2238   0.505   3.216   4.995
  744TIP3    H2 2239   0.437   3.350   4.987
  745TIP3   OH2 2240   0.042   2.516   3.149
  745TIP3    H1 2241   0.012   2.565   3.226
  745TIP3    H2 2242   0.076   2.583   3.090
  746TIP3   OH2 2243   2.673   3.351   4.367
  746TIP3    H1 2244   2.735   3.370   4.437
  746TIP3    H2 2245   2.619   3.280   4.402
  747TIP3   OH2 2246   1.577   2.645   2.011
  747TIP3    H1 2247   1.542   2.601   2.089
  747TIP3    H2 2248   1.559   2.584   1.940
  748TIP3   OH2 2249   0.518   1.239   4.282
  748TIP3    H1 2250   0.433   1.245   4.325
  748TIP3    H2 2251   0.575   1.299   4.330
  749TIP3   OH2 2252   0.368   2.042   4.508
  749TIP3    H1 2253   0.455   2.012   4.537
  749TIP3    H2 2254   0.349   2.117   4.564
  750TIP3   OH2 2255   4.192   3.118   1.494
  750TIP3    H1 2256   4.097   3.107   1.507
  750TIP3    H2 2257   4.229   3.035   1.526
  751TIP3   OH2 2258   1.747   2.861   3.394
  751TIP3    H1 2259   1.795   2.822   3.321
  751TIP3    H2 2260   1.660   2.822   3.388
  752TIP3   OH2 2261   5.831   5.547   0.169
  752TIP3    H1 2262   5.879   5.465   0.179
  752TIP3    H2 2263   5.741   5.525   0.191
  753TIP3   OH2 2264   6.251   5.254   0.275
  753TIP3    H1 2265   6.250   5.168   0.233
  753TIP3    H2 2266   6.312   5.306   0.222
  754TIP3   OH2 2267   0.542   4.499   2.789
  754TIP3    H1 2268   0.525   4.591   2.812
  754TIP3    H2 2269   0.548   4.499   2.694
  755TIP3   OH2 2270   4.733   0.530   1.620
  755TIP3    H1 2271   4.705   0.438   1.622
  755TIP3    H2 2272   4.780   0.538   1.537
  756TIP3   OH2 2273   0.178   3.656   1.547
  756TIP3    H1 2274   0.092   3.642   1.588
  756TIP3    H2 2275   0.221   3.720   1.604
  757TIP3   OH2 2276   5.578   4.296   4.600
  757TIP3    H1 2277   5.610   4.370   4.549
  757TIP3    H2 2278   5.552   4.231   4.535
  758TIP3   OH2 2279   3.189   4.941   2.499
  758TIP3    H1 2280   3.269   4.993   2.492
  758TIP3    H2 2281   3.166   4.945   2.591
  759TIP3   OH2 2282   0.620   1.703   1.752
  759TIP3    H1 2283   0.618   1.792   1.715
  759TIP3    H2 2284   0.713   1.684   1.764
  760TIP3   OH2 2285   2.572   5.525   4.976
  760TIP3    H1 2286   2.555   5.484   4.892
  760TIP3    H2 2287   2.573   5.453   5.039
  761TIP3   OH2 2288   1.226   3.714   3.016
  761TIP3    H1 2289   1.205   3.793   3.066
  761TIP3    H2 2290   1.312   3.731   2.979
  762TIP3   OH2 2291   2.606   3.773   2.294
  762TIP3    H1 2292   2.620   3.689   2.251
  762TIP3    H2 2293   2.641   3.762   2.382
  763TIP3   OH2 2294   1.312   2.519   5.019
  763TIP3    H1 2295   1.364   2.499   5.096
  763TIP3    H2 2296   1.294   2.434   4.978
  764TIP3   OH2 2297   3.265   4.667   0.470
  764TIP3    H1 2298   3.218   4.727   0.528
  764TIP3    H2 2299   3.320   4.724   0.416
  765TIP3   OH2 2300   0.274   1.330   4.397
  765TIP3    H1 2301   0.307   1.345   4.485
  765TIP3    H2 2302   0.220   1.406   4.378
  766TIP3   OH2 2303   0.891   1.710   1.789
  766TIP3    H1 2304   0.938   1.678   1.712
  766TIP3    H2 2305   0.958   1.716   1.858
  767TIP3   OH2 2306   0.532   3.333   2.303
  767TIP3    H1 2307   0.601   3.341   2.236
  767TIP3    H2 2308   0.475   3.263   2.271
  768TIP3   OH2 2309   2.200   5.499   3.731
  768TIP3    H1 2310   2.186   5.415   3.774
  768TIP3    H2 2311   2.268   5.483   3.666
  769TIP3   OH2 2312   6.158   2.493   4.593
  769TIP3    H1 2313   6.239   2.494   4.541
  769TIP3    H2 2314   6.090   2.469   4.530
  770TIP3   OH2 2315   1.362   0.159   5.138
  770TIP3    H1 2316   1.334   0.223   5.073
  770TIP3    H2 2317   1.430   0.108   5.094
  771TIP3   OH2 2318   0.226   1.765   1.383
  771TIP3    H1 2319   0.300   1.715   1.417
  771TIP3    H2 2320   0.233   1.757   1.288
  772TIP3   OH2 2321   2.868   1.476   1.814
  772TIP3    H1 2322   2.797   1.411   1.812
  772TIP3    H2 2323   2.840   1.544   1.753
  773TIP3   OH2 2324   1.704   0.604   3.663
  773TIP3    H1 2325   1.664   0.519   3.648
  773TIP3    H2 2326   1.738   0.631   3.578
  774TIP3   OH2 2327   5.817   0.155   4.104
  774TIP3    H1 2328   5.866   0.234   4.127
  774TIP3    H2 2329   5.850   0.131   4.018
  775TIP3   OH2 2330   0.027   2.663   3.375
  775TIP3    H1 2331  -0.048   2.691   3.427
  775TIP3    H2 2332   0.057   2.583   3.417
  776TIP3   OH2 2333   6.100   2.112   5.029
  776TIP3    H1 2334   6.135   2.024   5.013
  776TIP3    H2 2335   6.039   2.101   5.102
  777TIP3   OH2 2336   6.254   1.024   3.831
  777TIP3    H1 2337   6.262   1.108   3.787
  777TIP3    H2 2338   6.226   0.963   3.763
  778TIP3   OH2 2339   3.958   2.776   0.414
  778TIP3    H1 2340   4.021   2.716   0.375
  778TIP3    H2 2341   3.893   2.792   0.346
  779TIP3   OH2 2342   4.419   1.404   0.651
  779TIP3    H1 2343   4.329   1.372   0.646
  779TIP3    H2 2344   4.450   1.377   0.737
  780TIP3   OH2 2345   4.992   4.453   1.524
  780TIP3    H1 2346   4.917   4.511   1.523
  780TIP3    H2 2347   5.032   4.466   1.610
  781TIP3   OH2 2348   6.271   2.754   4.098
  781TIP3    H1 2349   6.209   2.708   4.155
  781TIP3    H2 2350   6.222   2.829   4.064
  782TIP3   OH2 2351   0.377   3.617   3.668
  782TIP3    H1 2352   0.297   3.609   3.616
  782TIP3    H2 2353   0.362   3.560   3.744
  783TIP3   OH2 2354   0.234   0.456   5.011
  783TIP3    H1 2355   0.178   0.512   5.065
  783TIP3    H2 2356   0.308   0.433   5.068
  784TIP3   OH2 2357   3.597   2.404   1.075
  784TIP3    H1 2358   3.628   2.396   0.985
  784TIP3    H2 2359   3.520   2.347   1.079
  785TIP3   OH2 2360   3.300   5.420   0.780
  785TIP3    H1 2361   3.282   5.503   0.825
  785TIP3    H2 2362   3.333   5.363   0.849
  786TIP3   OH2 2363   3.203   3.799   4.331
  786TIP3    H1 2364   3.254   3.718   4.331
  786TIP3    H2 2365   3.126   3.779   4.384
  787TIP3   OH2 2366   2.459   1.189   0.855
  787TIP3    H1 2367   2.429   1.098   0.856
  787TIP3    H2 2368   2.484   1.207   0.946
  788TIP3   OH2 2369   3.904   4.270   3.317
  788TIP3    H1 2370   3.898   4.175   3.328
  788TIP3    H2 2371   3.920   4.282   3.223
  789TIP3   OH2 2372   5.751   2.989   4.114
  789TIP3    H1 2373   5.807   3.004   4.190
  789TIP3    H2 2374   5.755   3.070   4.064
  790TIP3   OH2 2375   2.430   4.971   3.395
  790TIP3    H1 2376   2.523   4.954   3.412
  790TIP3    H2 2377   2.430   5.051   3.343
  791TIP3   OH2 2378   3.531   3.940   0.338
  791TIP3    H1 2379   3.491   3.857   0.367
  791TIP3    H2 2380   3.482   3.963   0.258
  792TIP3   OH2 2381   1.153   2.307   0.417
  792TIP3    H1 2382   1.148   2.243   0.346
  792TIP3    H2 2383   1.240   2.347   0.407
  793TIP3   OH2 2384   3.981   4.292   4.742
  793TIP3    H1 2385   3.956   4.329   4.826
  793TIP3    H2 2386   4.029   4.362   4.697
  794TIP3   OH2 2387  -0.029   3.618   2.989
  794TIP3    H1 2388  -0.002   3.542   3.041
  794TIP3    H2 2389   0.027   3.689   3.018
  795TIP3   OH2 2390   3.374   2.267   1.612
  795TIP3    H1 2391   3.405   2.198   1.552
  795TIP3    H2 2392   3.451   2.321   1.627
  796TIP3   OH2 2393   0.239   4.100   1.563
  796TIP3    H1 2394   0.315   4.047   1.587
  796TIP3    H2 2395   0.186   4.043   1.508
  797TIP3   OH2 2396   5.242   5.882   2.933
  797TIP3    H1 2397   5.265   5.839   2.851
  797TIP3    H2 2398   5.212   5.812   2.990
  798TIP3   OH2 2399   2.225   3.274   3.824
  798TIP3    H1 2400   2.298   3.245   3.879
  798TIP3    H2 2401   2.211   3.202   3.763
  799TIP3   OH2 2402   3.749   3.560   0.215
  799TIP3    H1 2403   3.724   3.483   0.163
  799TIP3    H2 2404   3.685   3.627   0.192
  800TIP3   OH2 2405   0.364   3.954   0.448
  800TIP3    H1 2406   0.382   3.886   0.383
  800TIP3    H2 2407   0.409   3.924   0.527
  801TIP3   OH2 2408   5.941   3.713   1.149
  801TIP3    H1 2409   6.021   3.757   1.122
  801TIP3    H2 2410   5.900   3.773   1.212
  802TIP3   OH2 2411   5.450   1.030   4.690
  802TIP3    H1 2412   5.448   0.988   4.604
  802TIP3    H2 2413   5.542   1.032   4.714
  803TIP3   OH2 2414   1.626   3.674   4.576
  803TIP3    H1 2415   1.690   3.705   4.640
  803TIP3    H2 2416   1.639   3.579   4.574
  804TIP3   OH2 2417   5.412   1.456   4.554
  804TIP3    H1 2418   5.413   1.412   4.469
  804TIP3    H2 2419   5.338   1.517   4.549
  805TIP3   OH2 2420   1.528   5.966   1.818
  805TIP3    H1 2421   1.538   6.058   1.794
  805TIP3    H2 2422   1.470   5.968   1.894
  806TIP3   OH2 2423   0.501   0.273   1.937
  806TIP3    H1 2424   0.512   0.297   2.029
  806TIP3    H2 2425   0.567   0.324   1.891
  807TIP3   OH2 2426   5.126   1.192   2.418
  807TIP3    H1 2427   5.152   1.274   2.460
  807TIP3    H2 2428   5.125   1.128   2.489
  808TIP3   OH2 2429   3.804   4.727   4.544
  808TIP3    H1 2430   3.712   4.703   4.552
  808TIP3    H2 2431   3.843   4.655   4.494
  809TIP3   OH2 2432   4.590   2.655   3.145
  809TIP3    H1 2433   4.565   2.736   3.190
  809TIP3    H2 2434   4.507   2.611   3.128
  810TIP3   OH2 2435   2.008   3.849   0.605
  810TIP3    H1 2436   2.050   3.857   0.519
  810TIP3    H2 2437   1.933   3.792   0.589
  811TIP3   OH2 2438   4.677   3.541   0.226
  811TIP3    H1 2439   4.716   3.489   0.295
  811TIP3    H2 2440   4.745   3.549   0.160
  812TIP3   OH2 2441   2.507   3.569   3.350
  812TIP3    H1 2442   2.537   3.509   3.418
  812TIP3    H2 2443   2.435   3.522   3.307
  813TIP3   OH2 2444   6.096   3.224   3.011
  813TIP3    H1 2445   6.104   3.130   3.024
  813TIP3    H2 2446   6.024   3.234   2.948
  814TIP3   OH2 2447   5.084   4.162   1.229
  814TIP3    H1 2448   5.077   4.085   1.285
  814TIP3    H2 2449   5.175   4.192   1.241
  815TIP3   OH2 2450   2.496   2.476   0.054
  815TIP3    H1 2451   2.582   2.508   0.028
  815TIP3    H2 2452   2.453   2.551   0.094
  816TIP3   OH2 2453   3.371   2.538   3.162
  816TIP3    H1 2454   3.333   2.477   3.099
  816TIP3    H2 2455   3.296   2.590   3.193
  817TIP3   OH2 2456   4.370   1.920   0.721
  817TIP3    H1 2457   4.324   1.994   0.762
  817TIP3    H2 2458   4.416   1.960   0.647
  818TIP3   OH2 2459   4.771   0.772   3.971
  818TIP3    H1 2460   4.717   0.845   3.939
  818TIP3    H2 2461   4.767   0.779   4.066
  819TIP3   OH2 2462   4.723   5.832   4.067
  819TIP3    H1 2463   4.756   5.769   4.002
  819TIP3    H2 2464   4.656   5.881   4.020
  820TIP3   OH2 2465   6.067   3.989   3.031
  820TIP3    H1 2466   6.037   3.944   2.952
  820TIP3    H2 2467   5.988   4.028   3.067
  821TIP3   OH2 2468   1.113   3.338   1.908
  821TIP3    H1 2469   1.166   3.266   1.944
  821TIP3    H2 2470   1.113   3.404   1.977
  822TIP3   OH2 2471   1.997   4.145   0.367
  822TIP3    H1 2472   2.019   4.075   0.306
  822TIP3    H2 2473   2.061   4.214   0.348
  823TIP3   OH2 2474   1.030   4.798   2.670
  823TIP3    H1 2475   1.060   4.787   2.760
  823TIP3    H2 2476   1.076   4.876   2.639
  824TIP3   OH2 2477   0.963   5.028   1.306
  824TIP3    H1 2478   0.960   4.975   1.385
  824TIP3    H2 2479   0.938   4.968   1.236
  825TIP3   OH2 2480   5.694   4.002   0.200
  825TIP3    H1 2481   5.714   4.005   0.106
  825TIP3    H2 2482   5.729   4.084   0.235
  826TIP3   OH2 2483   2.914   1.774   4.089
  826TIP3    H1 2484   2.916   1.680   4.072
  826TIP3    H2 2485   2.837   1.806   4.042
  827TIP3   OH2 2486   3.444   4.752   4.893
  827TIP3    H1 2487   3.394   4.834   4.891
  827TIP3    H2 2488   3.459   4.732   4.801
  828TIP3   OH2 2489   3.386   4.460   3.965
  828TIP3    H1 2490   3.297   4.431   3.983
  828TIP3    H2 2491   3.441   4.386   3.991
  829TIP3   OH2 2492   4.285   3.787   4.776
  829TIP3    H1 2493   4.201   3.825   4.802
  829TIP3    H2 2494   4.278   3.695   4.801
  830TIP3   OH2 2495   5.118   1.928   0.818
  830TIP3    H1 2496   5.137   1.870   0.891
  830TIP3    H2 2497   5.027   1.954   0.830
  831TIP3   OH2 2498   1.229   3.420   0.863
  831TIP3    H1 2499   1.231   3.513   0.841
  831TIP3    H2 2500   1.136   3.400   0.874
  832TIP3   OH2 2501   5.411   3.519   0.418
  832TIP3    H1 2502   5.364   3.465   0.354
  832TIP3    H2 2503   5.347   3.583   0.447
  833TIP3   OH2 2504   1.569   2.829   0.249
  833TIP3    H1 2505   1.484   2.803   0.286
  833TIP3    H2 2506   1.558   2.921   0.226
  834TIP3   OH2 2507   1.270   2.210   1.234
  834TIP3    H1 2508   1.250   2.194   1.142
  834TIP3    H2 2509   1.185   2.204   1.278
  835TIP3   OH2 2510   3.733   4.871   3.169
  835TIP3    H1 2511   3.676   4.813   3.220
  835TIP3    H2 2512   3.716   4.845   3.078
  836TIP3   OH2 2513   5.786   1.282   5.167
  836TIP3    H1 2514   5.804   1.376   5.164
  836TIP3    H2 2515   5.789   1.254   5.076
  837TIP3   OH2 2516   6.343   0.913   2.554
  837TIP3    H1 2517   6.421   0.938   2.505
  837TIP3    H2 2518   6.334   0.980   2.621
  838TIP3   OH2 2519   0.465   5.737   2.659
  838TIP3    H1 2520   0.470   5.832   2.672
  838TIP3    H2 2521   0.438   5.726   2.568
  839TIP3   OH2 2522   2.968   2.285   0.515
  839TIP3    H1 2523   2.924   2.331   0.587
  839TIP3    H2 2524   2.906   2.290   0.442
  840TIP3   OH2 2525   2.505   1.049   3.896
  840TIP3    H1 2526   2.593   1.013   3.888
  840TIP3    H2 2527   2.518   1.136   3.934
  841TIP3   OH2 2528   1.761   1.053   0.893
  841TIP3    H1 2529   1.825   1.121   0.916
  841TIP3    H2 2530   1.726   1.023   0.977
  842TIP3   OH2 2531   0.775   4.359   1.823
  842TIP3    H1 2532   0.859   4.328   1.789
  842TIP3    H2 2533   0.710   4.321   1.765
  843TIP3   OH2 2534   3.829   3.624   2.185
  843TIP3    H1 2535   3.813   3.706   2.138
  843TIP3    H2 2536   3.797   3.556   2.127
  844TIP3   OH2 2537   2.751   2.420   1.871
  844TIP3    H1 2538   2.663   2.454   1.855
  844TIP3    H2 2539   2.795   2.487   1.924
  845TIP3   OH2 2540   3.874   0.874   5.189
  845TIP3    H1 2541   3.783   0.901   5.193
  845TIP3    H2 2542   3.924   0.952   5.213
  846TIP3   OH2 2543   5.586   5.048   0.512
  846TIP3    H1 2544   5.624   5.128   0.477
  846TIP3    H2 2545   5.519   5.079   0.574
  847TIP3   OH2 2546   0.662   0.876   4.998
  847TIP3    H1 2547   0.571   0.859   4.973
  847TIP3    H2 2548   0.662   0.871   5.094
  848TIP3   OH2 2549   1.695   4.384   4.041
  848TIP3    H1 2550   1.732   4.386   3.952
  848TIP3    H2 2551   1.741   4.312   4.084
  849TIP3   OH2 2552   0.661   5.877   1.947
  849TIP3    H1 2553   0.607   5.879   2.026
  849TIP3    H2 2554   0.751   5.876   1.979
  850TIP3   OH2 2555   2.507   1.764   3.026
  850TIP3    H1 2556   2.595   1.798   3.009
  850TIP3    H2 2557   2.449   1.836   3.001
  851TIP3   OH2 2558   1.010   3.465   0.201
  851TIP3    H1 2559   1.027   3.554   0.171
  851TIP3    H2 2560   1.081   3.446   0.262
  852TIP3   OH2 2561   4.683   5.294   0.806
  852TIP3    H1 2562   4.624   5.244   0.749
  852TIP3    H2 2563   4.771   5.266   0.780
  853TIP3   OH2 2564   2.491   1.997   2.241
  853TIP3    H1 2565   2.547   2.066   2.276
  853TIP3    H2 2566   2.403   2.020   2.272
  854TIP3   OH2 2567   0.323   0.723   3.318
  854TIP3    H1 2568   0.364   0.766   3.394
  854TIP3    H2 2569   0.253   0.669   3.356
  855TIP3   OH2 2570   0.454   2.709   4.992
  855TIP3    H1 2571   0.454   2.774   4.922
  855TIP3    H2 2572   0.459   2.625   4.947
  856TIP3   OH2 2573   1.233   2.640   4.305
  856TIP3    H1 2574   1.283   2.682   4.235
  856TIP3    H2 2575   1.174   2.708   4.336
  857TIP3   OH2 2576   0.271   2.602   2.491
  857TIP3    H1 2577   0.203   2.602   2.559
  857TIP3    H2 2578   0.283   2.509   2.469
  858TIP3   OH2 2579   0.774   0.441   2.372
  858TIP3    H1 2580   0.844   0.401   2.423
  858TIP3    H2 2581   0.800   0.533   2.363
  859TIP3   OH2 2582   1.542   0.897   1.761
  859TIP3    H1 2583   1.588   0.837   1.819
  859TIP3    H2 2584   1.565   0.984   1.794
  860TIP3   OH2 2585   6.196   3.107   5.131
  860TIP3    H1 2586   6.154   3.192   5.116
  860TIP3    H2 2587   6.132   3.057   5.182
  861TIP3   OH2 2588   0.580   3.317   1.603
  861TIP3    H1 2589   0.495   3.360   1.592
  861TIP3    H2 2590   0.627   3.335   1.522
  862TIP3   OH2 2591   1.076   5.271   1.034
  862TIP3    H1 2592   1.122   5.237   0.957
  862TIP3    H2 2593   1.134   5.250   1.108
  863TIP3   OH2 2594   2.462   2.642   3.980
  863TIP3    H1 2595   2.475   2.731   4.013
  863TIP3    H2 2596   2.409   2.652   3.901
  864TIP3   OH2 2597   3.145   4.064   5.042
  864TIP3    H1 2598   3.135   4.127   4.971
  864TIP3    H2 2599   3.177   4.117   5.116
  865TIP3   OH2 2600   2.375   0.532   3.599
  865TIP3    H1 2601   2.352   0.440   3.607
  865TIP3    H2 2602   2.381   0.563   3.689
  866TIP3   OH2 2603   4.553   3.725   1.929
  866TIP3    H1 2604   4.574   3.697   1.840
  866TIP3    H2 2605   4.505   3.807   1.918
  867TIP3   OH2 2606   3.742   1.961   5.028
  867TIP3    H1 2607   3.719   1.948   4.936
  867TIP3    H2 2608   3.701   2.044   5.052
  868TIP3   OH2 2609   5.672   2.974   1.290
  868TIP3    H1 2610   5.727   3.016   1.356
  868TIP3    H2 2611   5.688   3.023   1.210
  869TIP3   OH2 2612   3.232   5.178   0.063
  869TIP3    H1 2613   3.241   5.096   0.110
  869TIP3    H2 2614   3.271   5.244   0.120
  870TIP3   OH2 2615   2.722   1.141   4.698
  870TIP3    H1 2616   2.734   1.191   4.780
  870TIP3    H2 2617   2.674   1.063   4.725
  871TIP3   OH2 2618   4.428   5.710   3.914
  871TIP3    H1 2619   4.402   5.624   3.947
  871TIP3    H2 2620   4.347   5.761   3.911
  872TIP3   OH2 2621   2.127   5.177   1.866
  872TIP3    H1 2622   2.103   5.092   1.903
  872TIP3    H2 2623   2.050   5.203   1.815
  873TIP3   OH2 2624   1.329   5.105   4.990
  873TIP3    H1 2625   1.345   5.052   4.912
  873TIP3    H2 2626   1.408   5.096   5.043
  874TIP3   OH2 2627   5.999   5.213   4.376
  874TIP3    H1 2628   6.060   5.251   4.439
  874TIP3    H2 2629   6.054   5.164   4.315
  875TIP3   OH2 2630   4.756   5.747   5.074
  875TIP3    H1 2631   4.756   5.686   5.000
  875TIP3    H2 2632   4.664   5.759   5.096
  876TIP3   OH2 2633   3.196   4.904   1.427
  876TIP3    H1 2634   3.101   4.903   1.441
  876TIP3    H2 2635   3.210   4.980   1.370
  877TIP3   OH2 2636   1.352   4.043   1.373
  877TIP3    H1 2637   1.283   3.978   1.374
  877TIP3    H2 2638   1.433   3.993   1.382
  878TIP3   OH2 2639   0.528   2.652   2.252
  878TIP3    H1 2640   0.454   2.711   2.238
  878TIP3    H2 2641   0.509   2.575   2.199
  879TIP3   OH2 2642   0.734   3.371   1.361
  879TIP3    H1 2643   0.783   3.289   1.365
  879TIP3    H2 2644   0.739   3.397   1.269
  880TIP3   OH2 2645   5.463   2.930   0.018
  880TIP3    H1 2646   5.493   2.995   0.081
  880TIP3    H2 2647   5.382   2.968  -0.018
  881TIP3   OH2 2648   3.182   5.963   3.014
  881TIP3    H1 2649   3.252   5.919   2.966
  881TIP3    H2 2650   3.224   5.997   3.093
  882TIP3   OH2 2651   4.990   0.045   1.815
  882TIP3    H1 2652   5.007  -0.026   1.753
  882TIP3    H2 2653   5.073   0.091   1.822
  883TIP3   OH2 2654   4.749   2.408   3.517
  883TIP3    H1 2655   4.725   2.342   3.452
  883TIP3    H2 2656   4.689   2.480   3.502
  884TIP3   OH2 2657   2.736   1.810   3.848
  884TIP3    H1 2658   2.738   1.722   3.810
  884TIP3    H2 2659   2.778   1.866   3.783
  885TIP3   OH2 2660   5.418   0.800   4.135
  885TIP3    H1 2661   5.427   0.742   4.211
  885TIP3    H2 2662   5.461   0.881   4.162
  886TIP3   OH2 2663   4.138   5.057   0.068
  886TIP3    H1 2664   4.110   5.075  -0.022
  886TIP3    H2 2665   4.234   5.064   0.064
  887TIP3   OH2 2666   3.158   0.859   1.768
  887TIP3    H1 2667   3.207   0.840   1.849
  887TIP3    H2 2668   3.066   0.849   1.793
  888TIP3   OH2 2669   3.768   4.890   2.884
  888TIP3    H1 2670   3.845   4.834   2.883
  888TIP3    H2 2671   3.791   4.963   2.827
  889TIP3   OH2 2672   4.434   4.536   3.104
  889TIP3    H1 2673   4.392   4.566   3.024
  889TIP3    H2 2674   4.500   4.603   3.123
  890TIP3   OH2 2675   0.770   3.626   0.397
  890TIP3    H1 2676   0.801   3.616   0.488
  890TIP3    H2 2677   0.817   3.558   0.349
  891TIP3   OH2 2678   2.751   3.361   1.957
  891TIP3    H1 2679   2.807   3.289   1.929
  891TIP3    H2 2680   2.761   3.427   1.889
  892TIP3   OH2 2681   3.506   4.511   4.388
  892TIP3    H1 2682   3.578   4.456   4.416
  892TIP3    H2 2683   3.546   4.577   4.332
  893TIP3   OH2 2684   0.504   5.666   3.405
  893TIP3    H1 2685   0.600   5.676   3.411
  893TIP3    H2 2686   0.491   5.575   3.379
  894TIP3   OH2 2687   1.743   1.577   0.448
  894TIP3    H1 2688   1.765   1.500   0.499
  894TIP3    H2 2689   1.648   1.586   0.456
  895TIP3   OH2 2690   0.868   2.063   2.347
  895TIP3    H1 2691   0.805   2.099   2.285
  895TIP3    H2 2692   0.914   2.139   2.382
  896TIP3   OH2 2693   2.676   5.191   4.330
  896TIP3    H1 2694   2.718   5.268   4.367
  896TIP3    H2 2695   2.711   5.184   4.241
  897TIP3   OH2 2696   2.409   1.723   0.341
  897TIP3    H1 2697   2.390   1.646   0.287
  897TIP3    H2 2698   2.448   1.688   0.421
  898TIP3   OH2 2699   5.809   0.645   0.488
  898TIP3    H1 2700   5.841   0.656   0.578
  898TIP3    H2 2701   5.800   0.734   0.455
  899TIP3   OH2 2702   3.819   1.288   3.790
  899TIP3    H1 2703   3.824   1.236   3.871
  899TIP3    H2 2704   3.727   1.285   3.765
  900TIP3   OH2 2705   0.084   2.067   3.541
  900TIP3    H1 2706   0.113   2.108   3.459
  900TIP3    H2 2707   0.089   1.973   3.523
  901TIP3   OH2 2708   3.204   3.516   1.412
  901TIP3    H1 2709   3.174   3.426   1.403
  901TIP3    H2 2710   3.160   3.549   1.491
  902TIP3   OH2 2711   6.034   5.093   2.718
  902TIP3    H1 2712   6.045   5.017   2.774
  902TIP3    H2 2713   6.054   5.061   2.630
  903TIP3   OH2 2714   3.178   1.829   3.644
  903TIP3    H1 2715   3.144   1.760   3.587
  903TIP3    H2 2716   3.178   1.908   3.590
  904TIP3   OH2 2717   4.622   4.054   1.963
  904TIP3    H1 2718   4.562   4.112   2.009
  904TIP3    H2 2719   4.565   3.989   1.920
  905TIP3   OH2 2720   4.329   4.171   2.329
  905TIP3    H1 2721   4.247   4.162   2.281
  905TIP3    H2 2722   4.302   4.169   2.421
  906TIP3   OH2 2723   2.536   5.808   2.100
  906TIP3    H1 2724   2.591   5.741   2.062
  906TIP3    H2 2725   2.518   5.777   2.189
  907TIP3   OH2 2726   2.496   2.589   5.040
  907TIP3    H1 2727   2.416   2.615   5.085
  907TIP3    H2 2728   2.471   2.514   4.987
  908TIP3   OH2 2729   1.891   1.661   2.482
  908TIP3    H1 2730   1.936   1.633   2.402
  908TIP3    H2 2731   1.874   1.579   2.529
  909TIP3   OH2 2732   5.398   2.730   1.348
  909TIP3    H1 2733   5.325   2.731   1.410
  909TIP3    H2 2734   5.473   2.762   1.398
  910TIP3   OH2 2735   5.525   2.960   3.137
  910TIP3    H1 2736   5.472   3.018   3.082
  910TIP3    H2 2737   5.504   2.872   3.107
  911TIP3   OH2 2738   3.116   2.824   2.098
  911TIP3    H1 2739   3.106   2.744   2.046
  911TIP3    H2 2740   3.210   2.835   2.108
  912TIP3   OH2 2741   4.964   1.367   4.253
  912TIP3    H1 2742   4.992   1.355   4.162
  912TIP3    H2 2743   4.892   1.430   4.247
  913TIP3   OH2 2744   1.365   5.672   1.429
  913TIP3    H1 2745   1.373   5.684   1.523
  913TIP3    H2 2746   1.440   5.618   1.404
  914TIP3   OH2 2747   4.478   2.655   1.931
  914TIP3    H1 2748   4.568   2.635   1.905
  914TIP3    H2 2749   4.473   2.751   1.926
  915TIP3   OH2 2750   0.507   5.954   0.424
  915TIP3    H1 2751   0.457   5.925   0.348
  915TIP3    H2 2752   0.585   5.996   0.387
  916TIP3   OH2 2753   0.808   3.698   4.293
  916TIP3    H1 2754   0.736   3.744   4.336
  916TIP3    H2 2755   0.866   3.768   4.262
  917TIP3   OH2 2756   3.012   1.971   3.192
  917TIP3    H1 2757   2.926   1.984   3.151
  917TIP3    H2 2758   3.010   1.880   3.221
  918TIP3   OH2 2759   2.359   0.368   3.964
  918TIP3    H1 2760   2.327   0.348   4.052
  918TIP3    H2 2761   2.414   0.293   3.942
  919TIP3   OH2 2762   5.894   1.234   3.558
  919TIP3    H1 2763   5.956   1.198   3.495
  919TIP3    H2 2764   5.875   1.322   3.525
  920TIP3   OH2 2765   0.272   0.829   2.803
  920TIP3    H1 2766   0.336   0.887   2.761
  920TIP3    H2 2767   0.323   0.781   2.868
  921TIP3   OH2 2768   5.908   1.109   0.973
  921TIP3    H1 2769   5.888   1.147   0.888
  921TIP3    H2 2770   5.836   1.048   0.990
  922TIP3   OH2 2771   0.388   4.196   0.153
  922TIP3    H1 2772   0.336   4.264   0.196
  922TIP3    H2 2773   0.329   4.120   0.151
  923TIP3   OH2 2774   5.922   5.378   1.923
  923TIP3    H1 2775   5.993   5.441   1.908
  923TIP3    H2 2776   5.901   5.344   1.836
  924TIP3   OH2 2777   1.094   4.695   2.910
  924TIP3    H1 2778   1.178   4.650   2.916
  924TIP3    H2 2779   1.110   4.781   2.948
  925TIP3   OH2 2780   0.464   0.697   4.277
  925TIP3    H1 2781   0.464   0.601   4.281
  925TIP3    H2 2782   0.396   0.723   4.340
  926TIP3   OH2 2783   5.497   5.174   2.479
  926TIP3    H1 2784   5.444   5.252   2.494
  926TIP3    H2 2785   5.469   5.112   2.545
  927TIP3   OH2 2786   4.631   3.678   3.158
  927TIP3    H1 2787   4.536   3.679   3.149
  927TIP3    H2 2788   4.646   3.660   3.251
  928TIP3   OH2 2789   0.071   4.212   1.779
  928TIP3    H1 2790   0.137   4.190   1.714
  928TIP3    H2 2791   0.079   4.307   1.789
  929TIP3   OH2 2792   0.785   2.846   0.505
  929TIP3    H1 2793   0.869   2.848   0.459
  929TIP3    H2 2794   0.746   2.932   0.487
  930TIP3   OH2 2795   4.772   1.751   2.751
  930TIP3    H1 2796   4.704   1.689   2.777
  930TIP3    H2 2797   4.724   1.829   2.722
  931TIP3   OH2 2798   4.215   5.726   3.383
  931TIP3    H1 2799   4.122   5.704   3.378
  931TIP3    H2 2800   4.240   5.706   3.473
  932TIP3   OH2 2801   4.440   3.073   2.575
  932TIP3    H1 2802   4.376   3.119   2.629
  932TIP3    H2 2803   4.519   3.126   2.582
  933TIP3   OH2 2804   1.075   5.054   0.346
  933TIP3    H1 2805   1.016   4.997   0.394
  933TIP3    H2 2806   1.117   5.108   0.414
  934TIP3   OH2 2807   1.960   4.446   2.932
  934TIP3    H1 2808   2.046   4.428   2.896
  934TIP3    H2 2809   1.910   4.366   2.917
  935TIP3   OH2 2810   2.376   1.085   0.028
  935TIP3    H1 2811   2.369   0.989   0.021
  935TIP3    H2 2812   2.302   1.118  -0.023
  936TIP3   OH2 2813   5.174   1.038   2.177
  936TIP3    H1 2814   5.118   1.031   2.254
  936TIP3    H2 2815   5.262   1.051   2.211
  937TIP3   OH2 2816   0.356   1.483   3.943
  937TIP3    H1 2817   0.412   1.407   3.959
  937TIP3    H2 2818   0.386   1.549   4.005
  938TIP3   OH2 2819   5.351   4.656   1.071
  938TIP3    H1 2820   5.424   4.597   1.056
  938TIP3    H2 2821   5.274   4.607   1.043
  939TIP3   OH2 2822   4.952   1.019   3.844
  939TIP3    H1 2823   4.981   0.942   3.796
  939TIP3    H2 2824   4.879   1.053   3.793
  940TIP3   OH2 2825   5.910   2.688   4.086
  940TIP3    H1 2826   5.889   2.663   3.996
  940TIP3    H2 2827   5.842   2.751   4.110
  941TIP3   OH2 2828   4.632   4.739   3.131
  941TIP3    H1 2829   4.711   4.714   3.179
  941TIP3    H2 2830   4.606   4.822   3.169
  942TIP3   OH2 2831   1.219   5.459   1.843
  942TIP3    H1 2832   1.155   5.421   1.782
  942TIP3    H2 2833   1.174   5.458   1.928
  943TIP3   OH2 2834   4.170   2.271   3.020
  943TIP3    H1 2835   4.127   2.280   2.935
  943TIP3    H2 2836   4.163   2.178   3.040
  944TIP3   OH2 2837   3.537   5.218   0.159
  944TIP3    H1 2838   3.594   5.237   0.234
  944TIP3    H2 2839   3.449   5.242   0.188
  945TIP3   OH2 2840   3.258   4.700   0.069
  945TIP3    H1 2841   3.346   4.706   0.108
  945TIP3    H2 2842   3.208   4.769   0.112
  946TIP3   OH2 2843   2.668   2.117   0.019
  946TIP3    H1 2844   2.636   2.030  -0.002
  946TIP3    H2 2845   2.609   2.177  -0.027
  947TIP3   OH2 2846   0.745   2.349   5.031
  947TIP3    H1 2847   0.787   2.407   4.967
  947TIP3    H2 2848   0.787   2.371   5.114
  948TIP3   OH2 2849   4.003   0.644   3.762
  948TIP3    H1 2850   3.997   0.673   3.853
  948TIP3    H2 2851   4.070   0.701   3.724
  949TIP3   OH2 2852   3.110   4.241   4.828
  949TIP3    H1 2853   3.137   4.326   4.792
  949TIP3    H2 2854   3.016   4.236   4.809
  950TIP3   OH2 2855   0.743   1.286   3.585
  950TIP3    H1 2856   0.679   1.313   3.651
  950TIP3    H2 2857   0.819   1.341   3.601
  951TIP3   OH2 2858   3.383   3.473   4.818
  951TIP3    H1 2859   3.476   3.473   4.841
  951TIP3    H2 2860   3.376   3.539   4.749
  952TIP3   OH2 2861   4.622   3.563   3.417
  952TIP3    H1 2862   4.654   3.486   3.464
  952TIP3    H2 2863   4.557   3.602   3.476
  953TIP3   OH2 2864   5.024   4.256   2.467
  953TIP3    H1 2865   4.945   4.256   2.413
  953TIP3    H2 2866   4.994   4.279   2.555
  954TIP3   OH2 2867   5.998   2.674   4.835
  954TIP3    H1 2868   6.055   2.719   4.898
  954TIP3    H2 2869   6.058   2.640   4.768
  955TIP3   OH2 2870   0.526   1.186   2.011
  955TIP3    H1 2871   0.591   1.254   1.992
  955TIP3    H2 2872   0.444   1.233   2.021
  956TIP3   OH2 2873   0.593   4.239   4.760
  956TIP3    H1 2874   0.689   4.235   4.760
  956TIP3    H2 2875   0.569   4.245   4.853
  957TIP3   OH2 2876   4.545   4.412   4.712
  957TIP3    H1 2877   4.624   4.449   4.672
  957TIP3    H2 2878   4.571   4.394   4.803
  958TIP3   OH2 2879   5.898   5.490   4.269
  958TIP3    H1 2880   5.867   5.544   4.196
  958TIP3    H2 2881   5.993   5.493   4.263
  959TIP3   OH2 2882   4.146   4.456   2.546
  959TIP3    H1 2883   4.219   4.513   2.569
  959TIP3    H2 2884   4.071   4.493   2.591
  960TIP3   OH2 2885   4.819   2.352   2.915
  960TIP3    H1 2886   4.798   2.263   2.887
  960TIP3    H2 2887   4.791   2.356   3.007
  961TIP3   OH2 2888   1.403   5.731   3.454
  961TIP3    H1 2889   1.365   5.764   3.536
  961TIP3    H2 2890   1.345   5.764   3.386
  962TIP3   OH2 2891   0.323   1.972   1.833
  962TIP3    H1 2892   0.304   1.987   1.740
  962TIP3    H2 2893   0.244   1.930   1.867
  963TIP3   OH2 2894   2.411   0.722   1.215
  963TIP3    H1 2895   2.479   0.772   1.170
  963TIP3    H2 2896   2.422   0.632   1.183
  964TIP3   OH2 2897   5.655   5.965   2.142
  964TIP3    H1 2898   5.641   5.872   2.128
  964TIP3    H2 2899   5.584   6.008   2.094
  965TIP3   OH2 2900   0.952   5.489   5.037
  965TIP3    H1 2901   0.974   5.566   5.090
  965TIP3    H2 2902   1.031   5.435   5.040
  966TIP3   OH2 2903   5.315   4.918   0.899
  966TIP3    H1 2904   5.379   4.962   0.954
  966TIP3    H2 2905   5.319   4.826   0.926
  967TIP3   OH2 2906   3.364   1.546   3.438
  967TIP3    H1 2907   3.443   1.540   3.385
  967TIP3    H2 2908   3.295   1.510   3.382
  968TIP3   OH2 2909   0.308   2.979   4.686
  968TIP3    H1 2910   0.239   2.976   4.752
  968TIP3    H2 2911   0.313   2.890   4.652
  969TIP3   OH2 2912   5.030   3.327   4.575
  969TIP3    H1 2913   5.077   3.311   4.493
  969TIP3    H2 2914   5.033   3.244   4.622
  970TIP3   OH2 2915   0.171   3.537   3.830
  970TIP3    H1 2916   0.154   3.605   3.765
  970TIP3    H2 2917   0.148   3.456   3.786
  971TIP3   OH2 2918   0.075   2.733   4.687
  971TIP3    H1 2919   0.013   2.804   4.700
  971TIP3    H2 2920   0.060   2.704   4.597
  972TIP3   OH2 2921   4.023   0.911   3.013
  972TIP3    H1 2922   4.083   0.871   2.950
  972TIP3    H2 2923   3.947   0.936   2.960
  973TIP3   OH2 2924   0.301   3.421   0.772
  973TIP3    H1 2925   0.209   3.401   0.753
  973TIP3    H2 2926   0.298   3.474   0.852
  974TIP3   OH2 2927   1.684   5.439   0.936
  974TIP3    H1 2928   1.664   5.418   0.845
  974TIP3    H2 2929   1.650   5.527   0.948
  975TIP3   OH2 2930   5.825   3.214   4.774
  975TIP3    H1 2931   5.751   3.269   4.746
  975TIP3    H2 2932   5.902   3.262   4.743
  976TIP3   OH2 2933   3.531   2.693   4.281
  976TIP3    H1 2934   3.609   2.731   4.240
  976TIP3    H2 2935   3.561   2.667   4.368
  977TIP3   OH2 2936   1.938   2.200   2.092
  977TIP3    H1 2937   1.924   2.138   2.021
  977TIP3    H2 2938   2.013   2.165   2.140
  978TIP3   OH2 2939   1.187   3.832   1.364
  978TIP3    H1 2940   1.131   3.879   1.302
  978TIP3    H2 2941   1.229   3.763   1.311
  979TIP3   OH2 2942   3.386   1.576   0.086
  979TIP3    H1 2943   3.407   1.669   0.075
  979TIP3    H2 2944   3.295   1.577   0.117
  980TIP3   OH2 2945   5.215   1.553   2.718
  980TIP3    H1 2946   5.141   1.614   2.718
  980TIP3    H2 2947   5.228   1.532   2.811
  981TIP3   OH2 2948   3.768   5.613   0.209
  981TIP3    H1 2949   3.672   5.614   0.209
  981TIP3    H2 2950   3.791   5.548   0.142
  982TIP3   OH2 2951   2.927   4.208   1.088
  982TIP3    H1 2952   2.941   4.276   1.023
  982TIP3    H2 2953   2.850   4.160   1.056
  983TIP3   OH2 2954   6.074   3.297   2.235
  983TIP3    H1 2955   6.035   3.210   2.225
  983TIP3    H2 2956   6.023   3.338   2.305
  984TIP3   OH2 2957   4.620   0.285   1.666
  984TIP3    H1 2958   4.534   0.286   1.709
  984TIP3    H2 2959   4.677   0.240   1.727
  985TIP3   OH2 2960   0.055   3.947   1.385
  985TIP3    H1 2961   0.118   3.883   1.353
  985TIP3    H2 2962  -0.031   3.911   1.360
  986TIP3   OH2 2963   5.775   1.471   2.943
  986TIP3    H1 2964   5.721   1.521   2.881
  986TIP3    H2 2965   5.742   1.495   3.029
  987TIP3   OH2 2966   4.693   3.441   3.924
  987TIP3    H1 2967   4.603   3.469   3.908
  987TIP3    H2 2968   4.684   3.365   3.982
  988TIP3   OH2 2969   0.509   2.947   4.863
  988TIP3    H1 2970   0.440   2.960   4.798
  988TIP3    H2 2971   0.586   2.924   4.811
  989TIP3   OH2 2972   5.884   5.199   0.726
  989TIP3    H1 2973   5.972   5.195   0.762
  989TIP3    H2 2974   5.897   5.225   0.635
  990TIP3   OH2 2975   4.462   5.496   0.895
  990TIP3    H1 2976   4.520   5.420   0.884
  990TIP3    H2 2977   4.385   5.475   0.842
  991TIP3   OH2 2978   5.213   5.472   1.912
  991TIP3    H1 2979   5.258   5.540   1.862
  991TIP3    H2 2980   5.166   5.521   1.981
  992TIP3   OH2 2981   3.991   3.845   0.767
  992TIP3    H1 2982   3.982   3.797   0.684
  992TIP3    H2 2983   3.935   3.922   0.756
  993TIP3   OH2 2984   2.304   0.797   2.758
  993TIP3    H1 2985   2.369   0.807   2.826
  993TIP3    H2 2986   2.345   0.741   2.692
  994TIP3   OH2 2987   1.960   2.642   1.677
  994TIP3    H1 2988   1.946   2.653   1.772
  994TIP3    H2 2989   1.957   2.731   1.642
  995TIP3   OH2 2990   3.928   0.555   2.252
  995TIP3    H1 2991   3.898   0.547   2.161
  995TIP3    H2 2992   3.854   0.594   2.298
  996TIP3   OH2 2993   0.238   5.912   3.426
  996TIP3    H1 2994   0.182   5.990   3.422
  996TIP3    H2 2995   0.278   5.906   3.340
  997TIP3   OH2 2996   4.736   1.484   3.785
  997TIP3    H1 2997   4.710   1.531   3.706
  997TIP3    H2 2998   4.723   1.547   3.856
  998TIP3   OH2 2999   5.684   2.673   1.778
  998TIP3    H1 3000   5.669   2.600   1.837
  998TIP3    H2 3001   5.729   2.738   1.831
  999TIP3   OH2 3002   1.886   2.279   3.633
  999TIP3    H1 3003   1.810   2.278   3.690
  999TIP3    H2 3004   1.904   2.372   3.618
 1000TIP3   OH2 3005   0.797   3.405   3.679
 1000TIP3    H1 3006   0.880   3.401   3.725
 1000TIP3    H2 3007   0.798   3.331   3.618
 1001TIP3   OH2 3008   4.023   2.907   1.302
 1001TIP3    H1 3009   4.076   2.936   1.228
 1001TIP3    H2 3010   4.085   2.897   1.374
 1002TIP3   OH2 3011   1.679   0.631   4.825
 1002TIP3    H1 3012   1.740   0.685   4.876
 1002TIP3    H2 3013   1.680   0.669   4.738
 1003TIP3   OH2 3014   4.152   2.666   0.187
 1003TIP3    H1 3015   4.168   2.708   0.102
 1003TIP3    H2 3016   4.239   2.641   0.217
 1004TIP3   OH2 3017   3.118   5.387   2.136
 1004TIP3    H1 3018   3.159   5.323   2.194
 1004TIP3    H2 3019   3.098   5.338   2.056
 1005TIP3   OH2 3020   1.243   4.479   3.198
 1005TIP3    H1 3021   1.223   4.386   3.185
 1005TIP3    H2 3022   1.302   4.501   3.126
 1006TIP3   OH2 3023   1.274   0.893   4.990
 1006TIP3    H1 3024   1.187   0.855   4.978
 1006TIP3    H2 3025   1.278   0.915   5.083
 1007TIP3   OH2 3026   5.338   3.137   3.039
 1007TIP3    H1 3027   5.296   3.087   2.969
 1007TIP3    H2 3028   5.333   3.228   3.011
 1008TIP3   OH2 3029   2.374   5.132   0.495
 1008TIP3    H1 3030   2.346   5.047   0.529
 1008TIP3    H2 3031   2.327   5.196   0.548
 1009TIP3   OH2 3032   1.666   1.788   3.039
 1009TIP3    H1 3033   1.709   1.712   2.998
 1009TIP3    H2 3034   1.578   1.788   3.002
 1010TIP3   OH2 3035   2.395   3.329   2.911
 1010TIP3    H1 3036   2.368   3.253   2.962
 1010TIP3    H2 3037   2.486   3.312   2.889
 1011TIP3   OH2 3038   2.480   5.555   0.916
 1011TIP3    H1 3039   2.481   5.534   0.823
 1011TIP3    H2 3040   2.572   5.568   0.939
 1012TIP3   OH2 3041   0.306   1.874   5.171
 1012TIP3    H1 3042   0.335   1.961   5.143
 1012TIP3    H2 3043   0.214   1.886   5.194
 1013TIP3   OH2 3044   6.262   3.211   2.402
 1013TIP3    H1 3045   6.235   3.126   2.438
 1013TIP3    H2 3046   6.207   3.223   2.325
 1014TIP3   OH2 3047   5.218   3.893   2.213
 1014TIP3    H1 3048   5.309   3.890   2.182
 1014TIP3    H2 3049   5.223   3.936   2.298
 1015TIP3   OH2 3050   4.682   2.889   4.147
 1015TIP3    H1 3051   4.766   2.847   4.131
 1015TIP3    H2 3052   4.702   2.959   4.210
 1016TIP3   OH2 3053   2.523   4.434   1.431
 1016TIP3    H1 3054   2.607   4.468   1.400
 1016TIP3    H2 3055   2.457   4.478   1.378
 1017TIP3   OH2 3056   3.393   1.242   4.857
 1017TIP3    H1 3057   3.301   1.219   4.844
 1017TIP3    H2 3058   3.391   1.326   4.903
 1018TIP3   OH2 3059   0.489   0.178   3.837
 1018TIP3    H1 3060   0.490   0.202   3.745
 1018TIP3    H2 3061   0.562   0.116   3.846
 1019TIP3   OH2 3062   2.488   3.767   4.016
 1019TIP3    H1 3063   2.487   3.853   4.059
 1019TIP3    H2 3064   2.576   3.734   4.030
 1020TIP3   OH2 3065   5.990   3.260   3.327
 1020TIP3    H1 3066   6.015   3.352   3.323
 1020TIP3    H2 3067   5.996   3.230   3.236
 1021TIP3   OH2 3068   2.810   5.127   4.644
 1021TIP3    H1 3069   2.769   5.169   4.568
 1021TIP3    H2 3070   2.837   5.199   4.700
 1022TIP3   OH2 3071   2.686   2.028   0.516
 1022TIP3    H1 3072   2.774   2.029   0.480
 1022TIP3    H2 3073   2.630   2.008   0.441
 1023TIP3   OH2 3074   4.298   5.015   1.168
 1023TIP3    H1 3075   4.266   5.078   1.104
 1023TIP3    H2 3076   4.289   4.930   1.125
 1024TIP3   OH2 3077   1.895   3.183   5.119
 1024TIP3    H1 3078   1.979   3.141   5.100
 1024TIP3    H2 3079   1.901   3.268   5.076
 1025TIP3   OH2 3080   6.305   1.626   3.980
 1025TIP3    H1 3081   6.263   1.712   3.992
 1025TIP3    H2 3082   6.248   1.566   4.028
 1026TIP3   OH2 3083   2.861   1.905   1.619
 1026TIP3    H1 3084   2.954   1.923   1.626
 1026TIP3    H2 3085   2.831   1.961   1.548
 1027TIP3   OH2 3086   0.324   0.724   0.744
 1027TIP3    H1 3087   0.260   0.761   0.805
 1027TIP3    H2 3088   0.309   0.630   0.749
 1028TIP3   OH2 3089   4.051   3.643   1.953
 1028TIP3    H1 3090   3.987   3.676   1.890
 1028TIP3    H2 3091   3.998   3.602   2.022
 1029TIP3   OH2 3092   3.037   5.981   2.436
 1029TIP3    H1 3093   3.082   6.009   2.357
 1029TIP3    H2 3094   2.947   5.963   2.408
 1030TIP3   OH2 3095   5.934   4.304   0.692
 1030TIP3    H1 3096   5.939   4.334   0.783
 1030TIP3    H2 3097   5.966   4.214   0.695
 1031TIP3   OH2 3098   4.378   5.380   4.715
 1031TIP3    H1 3099   4.286   5.380   4.688
 1031TIP3    H2 3100   4.416   5.454   4.667
 1032TIP3   OH2 3101   6.049   3.275   0.680
 1032TIP3    H1 3102   5.992   3.227   0.620
 1032TIP3    H2 3103   6.094   3.339   0.626
 1033TIP3   OH2 3104   2.614   5.603   3.430
 1033TIP3    H1 3105   2.651   5.690   3.413
 1033TIP3    H2 3106   2.632   5.553   3.350
 1034TIP3   OH2 3107   5.954   1.970   1.092
 1034TIP3    H1 3108   5.937   1.900   1.029
 1034TIP3    H2 3109   5.974   1.924   1.174
 1035TIP3   OH2 3110   0.752   2.718   3.563
 1035TIP3    H1 3111   0.788   2.631   3.579
 1035TIP3    H2 3112   0.780   2.740   3.474
 1036TIP3   OH2 3113   4.312   2.190   0.836
 1036TIP3    H1 3114   4.346   2.209   0.924
 1036TIP3    H2 3115   4.269   2.272   0.809
 1037TIP3   OH2 3116   2.847   4.850   3.621
 1037TIP3    H1 3117   2.867   4.920   3.682
 1037TIP3    H2 3118   2.914   4.783   3.637
 1038TIP3   OH2 3119   6.356   0.713   4.621
 1038TIP3    H1 3120   6.316   0.784   4.572
 1038TIP3    H2 3121   6.286   0.679   4.676
 1039TIP3   OH2 3122   0.914   2.031   0.926
 1039TIP3    H1 3123   0.993   1.988   0.959
 1039TIP3    H2 3124   0.890   2.093   0.995
 1040TIP3   OH2 3125   3.033   0.512   4.257
 1040TIP3    H1 3126   3.028   0.519   4.161
 1040TIP3    H2 3127   2.943   0.526   4.287
 1041TIP3   OH2 3128   0.747   5.971   4.730
 1041TIP3    H1 3129   0.761   6.024   4.808
 1041TIP3    H2 3130   0.729   5.883   4.763
 1042TIP3   OH2 3131   5.532   2.481   2.821
 1042TIP3    H1 3132   5.465   2.545   2.795
 1042TIP3    H2 3133   5.486   2.420   2.879
 1043TIP3   OH2 3134   1.227   2.467   2.471
 1043TIP3    H1 3135   1.233   2.497   2.562
 1043TIP3    H2 3136   1.314   2.435   2.451
 1044TIP3   OH2 3137   2.696   3.204   0.657
 1044TIP3    H1 3138   2.791   3.210   0.649
 1044TIP3    H2 3139   2.668   3.294   0.676
 1045TIP3   OH2 3140   6.099   2.956   3.984
 1045TIP3    H1 3141   6.069   3.042   4.013
 1045TIP3    H2 3142   6.101   2.962   3.889
 1046TIP3   OH2 3143   3.334   1.093   2.565
 1046TIP3    H1 3144   3.252   1.045   2.560
 1046TIP3    H2 3145   3.342   1.137   2.480
 1047TIP3   OH2 3146   2.798   2.707   0.458
 1047TIP3    H1 3147   2.723   2.651   0.438
 1047TIP3    H2 3148   2.774   2.794   0.426
 1048TIP3   OH2 3149   0.809   0.857   2.537
 1048TIP3    H1 3150   0.721   0.887   2.559
 1048TIP3    H2 3151   0.834   0.801   2.611
 1049TIP3   OH2 3152   5.405   3.019   3.382
 1049TIP3    H1 3153   5.458   2.998   3.305
 1049TIP3    H2 3154   5.350   3.092   3.354
 1050TIP3   OH2 3155   1.678   5.338   2.649
 1050TIP3    H1 3156   1.644   5.378   2.569
 1050TIP3    H2 3157   1.770   5.319   2.629
 1051TIP3   OH2 3158   4.063   0.753   3.275
 1051TIP3    H1 3159   4.056   0.817   3.204
 1051TIP3    H2 3160   4.145   0.707   3.257
 1052TIP3   OH2 3161   3.007   5.154   3.013
 1052TIP3    H1 3162   3.085   5.190   2.971
 1052TIP3    H2 3163   3.004   5.063   2.985
 1053TIP3   OH2 3164   1.829   4.412   2.285
 1053TIP3    H1 3165   1.787   4.436   2.202
 1053TIP3    H2 3166   1.761   4.424   2.351
 1054TIP3   OH2 3167   5.795   4.306   4.402
 1054TIP3    H1 3168   5.867   4.342   4.453
 1054TIP3    H2 3169   5.793   4.213   4.426
 1055TIP3   OH2 3170   6.202   1.432   1.421
 1055TIP3    H1 3171   6.254   1.382   1.484
 1055TIP3    H2 3172   6.130   1.373   1.397
 1056TIP3   OH2 3173   0.550   1.174   1.202
 1056TIP3    H1 3174   0.563   1.152   1.294
 1056TIP3    H2 3175   0.456   1.191   1.194
 1057TIP3   OH2 3176   6.220   1.172   4.387
 1057TIP3    H1 3177   6.127   1.177   4.368
 1057TIP3    H2 3178   6.246   1.263   4.404
 1058TIP3   OH2 3179   2.735   3.976   0.391
 1058TIP3    H1 3180   2.728   4.066   0.360
 1058TIP3    H2 3181   2.647   3.940   0.378
 1059TIP3   OH2 3182   4.923   1.983   1.992
 1059TIP3    H1 3183   4.992   1.922   2.016
 1059TIP3    H2 3184   4.844   1.930   1.990
 1060TIP3   OH2 3185   5.881   3.863   2.027
 1060TIP3    H1 3186   5.947   3.805   1.989
 1060TIP3    H2 3187   5.886   3.846   2.121
 1061TIP3   OH2 3188   0.850   0.180   4.019
 1061TIP3    H1 3189   0.832   0.215   3.932
 1061TIP3    H2 3190   0.923   0.233   4.052
 1062TIP3   OH2 3191   4.871   3.571   2.773
 1062TIP3    H1 3192   4.795   3.556   2.829
 1062TIP3    H2 3193   4.937   3.510   2.806
 1063TIP3   OH2 3194   2.226   3.600   0.055
 1063TIP3    H1 3195   2.135   3.581   0.080
 1063TIP3    H2 3196   2.273   3.601   0.139
 1064TIP3   OH2 3197   0.182   2.304   0.892
 1064TIP3    H1 3198   0.231   2.278   0.814
 1064TIP3    H2 3199   0.091   2.309   0.862
 1065TIP3   OH2 3200   2.420   5.293   3.852
 1065TIP3    H1 3201   2.487   5.361   3.854
 1065TIP3    H2 3202   2.446   5.236   3.780
 1066TIP3   OH2 3203   3.494   2.075   1.052
 1066TIP3    H1 3204   3.464   2.164   1.035
 1066TIP3    H2 3205   3.572   2.086   1.106
 1067TIP3   OH2 3206   0.082   4.598   0.391
 1067TIP3    H1 3207   0.007   4.657   0.384
 1067TIP3    H2 3208   0.147   4.646   0.442
 1068TIP3   OH2 3209   1.711   1.378   1.092
 1068TIP3    H1 3210   1.689   1.346   1.179
 1068TIP3    H2 3211   1.793   1.334   1.070
 1069TIP3   OH2 3212   5.347   2.673   2.755
 1069TIP3    H1 3213   5.260   2.695   2.722
 1069TIP3    H2 3214   5.365   2.739   2.821
 1070TIP3   OH2 3215   5.435   3.398   2.732
 1070TIP3    H1 3216   5.401   3.453   2.662
 1070TIP3    H2 3217   5.359   3.378   2.786
 1071TIP3   OH2 3218   1.787   2.429   2.159
 1071TIP3    H1 3219   1.806   2.335   2.151
 1071TIP3    H2 3220   1.692   2.435   2.154
 1072TIP3   OH2 3221   1.615   5.205   4.902
 1072TIP3    H1 3222   1.599   5.293   4.937
 1072TIP3    H2 3223   1.612   5.148   4.978
 1073TIP3   OH2 3224   3.575   4.968   0.040
 1073TIP3    H1 3225   3.555   5.046   0.092
 1073TIP3    H2 3226   3.533   4.896   0.087
 1074TIP3   OH2 3227   1.350   4.326   2.934
 1074TIP3    H1 3228   1.270   4.316   2.883
 1074TIP3    H2 3229   1.396   4.242   2.922
 1075TIP3   OH2 3230   2.146   5.056   2.169
 1075TIP3    H1 3231   2.150   5.101   2.253
 1075TIP3    H2 3232   2.061   5.081   2.133
 1076TIP3   OH2 3233   4.597   4.539   4.195
 1076TIP3    H1 3234   4.627   4.596   4.124
 1076TIP3    H2 3235   4.677   4.499   4.229
 1077TIP3   OH2 3236   1.740   0.220   1.313
 1077TIP3    H1 3237   1.743   0.306   1.355
 1077TIP3    H2 3238   1.811   0.171   1.354
 1078TIP3   OH2 3239   5.119   2.176   1.083
 1078TIP3    H1 3240   5.134   2.082   1.092
 1078TIP3    H2 3241   5.117   2.209   1.173
 1079TIP3   OH2 3242   3.352   3.492   1.054
 1079TIP3    H1 3243   3.297   3.568   1.073
 1079TIP3    H2 3244   3.427   3.528   1.005
 1080TIP3   OH2 3245   5.003   4.703   1.245
 1080TIP3    H1 3246   5.073   4.639   1.240
 1080TIP3    H2 3247   4.982   4.723   1.154
 1081TIP3   OH2 3248   2.450   2.517   4.723
 1081TIP3    H1 3249   2.500   2.593   4.694
 1081TIP3    H2 3250   2.368   2.521   4.674
 1082TIP3   OH2 3251   3.462   0.664   1.564
 1082TIP3    H1 3252   3.414   0.581   1.561
 1082TIP3    H2 3253   3.421   0.717   1.496
 1083TIP3   OH2 3254   3.376   0.242   0.972
 1083TIP3    H1 3255   3.467   0.263   0.995
 1083TIP3    H2 3256   3.364   0.277   0.884
 1084TIP3   OH2 3257   3.100   4.479   1.176
 1084TIP3    H1 3258   3.055   4.448   1.097
 1084TIP3    H2 3259   3.180   4.426   1.180
 1085TIP3   OH2 3260   1.141   0.088   2.321
 1085TIP3    H1 3261   1.231   0.072   2.350
 1085TIP3    H2 3262   1.139   0.180   2.295
 1086TIP3   OH2 3263   1.539   2.867   1.841
 1086TIP3    H1 3264   1.459   2.838   1.796
 1086TIP3    H2 3265   1.568   2.790   1.890
 1087TIP3   OH2 3266   4.159   5.640   0.859
 1087TIP3    H1 3267   4.081   5.694   0.869
 1087TIP3    H2 3268   4.156   5.611   0.767
 1088TIP3   OH2 3269   0.758   1.282   3.299
 1088TIP3    H1 3270   0.785   1.265   3.389
 1088TIP3    H2 3271   0.824   1.239   3.245
 1089TIP3   OH2 3272   3.468   0.357   3.454
 1089TIP3    H1 3273   3.393   0.374   3.397
 1089TIP3    H2 3274   3.543   0.396   3.409
 1090TIP3   OH2 3275   1.570   1.353   4.851
 1090TIP3    H1 3276   1.509   1.403   4.796
 1090TIP3    H2 3277   1.539   1.368   4.940
 1091TIP3   OH2 3278   1.526   1.636   2.783
 1091TIP3    H1 3279   1.568   1.560   2.825
 1091TIP3    H2 3280   1.475   1.676   2.853
 1092TIP3   OH2 3281   6.025   3.062   3.520
 1092TIP3    H1 3282   6.041   3.151   3.488
 1092TIP3    H2 3283   6.037   3.007   3.444
 1093TIP3   OH2 3284   4.870   4.200   0.847
 1093TIP3    H1 3285   4.819   4.159   0.916
 1093TIP3    H2 3286   4.804   4.238   0.788
 1094TIP3   OH2 3287   5.479   5.623   4.662
 1094TIP3    H1 3288   5.434   5.657   4.584
 1094TIP3    H2 3289   5.525   5.698   4.698
 1095TIP3   OH2 3290   5.438   3.958   2.577
 1095TIP3    H1 3291   5.491   3.914   2.511
 1095TIP3    H2 3292   5.353   3.970   2.536
 1096TIP3   OH2 3293   6.015   3.004   0.299
 1096TIP3    H1 3294   6.044   3.090   0.269
 1096TIP3    H2 3295   5.935   2.987   0.249
 1097TIP3   OH2 3296   1.742   2.126   0.486
 1097TIP3    H1 3297   1.806   2.126   0.557
 1097TIP3    H2 3298   1.713   2.035   0.480
 1098TIP3   OH2 3299   2.076   0.217   1.389
 1098TIP3    H1 3300   2.101   0.126   1.410
 1098TIP3    H2 3301   2.082   0.263   1.472
 1099TIP3   OH2 3302   6.149   5.556   4.146
 1099TIP3    H1 3303   6.172   5.542   4.054
 1099TIP3    H2 3304   6.134   5.650   4.153
 1100TIP3   OH2 3305   5.263   2.293   3.312
 1100TIP3    H1 3306   5.345   2.324   3.274
 1100TIP3    H2 3307   5.227   2.368   3.358
 1101TIP3   OH2 3308   5.642   0.801   3.006
 1101TIP3    H1 3309   5.678   0.873   2.954
 1101TIP3    H2 3310   5.626   0.839   3.093
 1102TIP3   OH2 3311   3.248   3.478   1.851
 1102TIP3    H1 3312   3.220   3.550   1.794
 1102TIP3    H2 3313   3.227   3.508   1.939
 1103TIP3   OH2 3314  -0.015   3.269   4.859
 1103TIP3    H1 3315   0.036   3.190   4.879
 1103TIP3    H2 3316   0.025   3.304   4.780
 1104TIP3   OH2 3317   5.352   2.758   2.303
 1104TIP3    H1 3318   5.358   2.804   2.220
 1104TIP3    H2 3319   5.401   2.677   2.290
 1105TIP3   OH2 3320   4.408   2.837   5.125
 1105TIP3    H1 3321   4.455   2.899   5.181
 1105TIP3    H2 3322   4.438   2.751   5.154
 1106TIP3   OH2 3323   1.820   3.247   1.657
 1106TIP3    H1 3324   1.855   3.159   1.674
 1106TIP3    H2 3325   1.732   3.231   1.624
 1107TIP3   OH2 3326   4.495   1.773   2.449
 1107TIP3    H1 3327   4.433   1.805   2.514
 1107TIP3    H2 3328   4.453   1.697   2.410
 1108TIP3   OH2 3329   5.881   5.679   4.067
 1108TIP3    H1 3330   5.924   5.653   3.985
 1108TIP3    H2 3331   5.829   5.756   4.044
 1109TIP3   OH2 3332   5.256   3.593   2.231
 1109TIP3    H1 3333   5.189   3.532   2.202
 1109TIP3    H2 3334   5.213   3.679   2.228
 1110TIP3   OH2 3335   4.281   0.804   0.272
 1110TIP3    H1 3336   4.195   0.794   0.312
 1110TIP3    H2 3337   4.343   0.791   0.344
 1111TIP3   OH2 3338   1.055   3.408   4.771
 1111TIP3    H1 3339   1.142   3.430   4.804
 1111TIP3    H2 3340   0.996   3.469   4.815
 1112TIP3   OH2 3341   3.784   3.133   2.254
 1112TIP3    H1 3342   3.866   3.174   2.282
 1112TIP3    H2 3343   3.801   3.102   2.165
 1113TIP3   OH2 3344   5.680   2.508   2.576
 1113TIP3    H1 3345   5.650   2.477   2.661
 1113TIP3    H2 3346   5.626   2.585   2.558
 1114TIP3   OH2 3347   3.400   2.319   1.977
 1114TIP3    H1 3348   3.478   2.304   1.923
 1114TIP3    H2 3349   3.434   2.350   2.061
 1115TIP3   OH2 3350   5.604   0.464   0.559
 1115TIP3    H1 3351   5.631   0.457   0.650
 1115TIP3    H2 3352   5.625   0.554   0.534
 1116TIP3   OH2 3353   3.028   1.964   4.659
 1116TIP3    H1 3354   3.070   1.882   4.684
 1116TIP3    H2 3355   2.942   1.961   4.700
 1117TIP3   OH2 3356   2.766   1.858   3.415
 1117TIP3    H1 3357   2.689   1.893   3.371
 1117TIP3    H2 3358   2.750   1.763   3.418
 1118TIP3   OH2 3359   1.066   5.647   0.462
 1118TIP3    H1 3360   1.027   5.571   0.419
 1118TIP3    H2 3361   1.023   5.651   0.548
 1119TIP3   OH2 3362   0.297   0.594   2.531
 1119TIP3    H1 3363   0.330   0.549   2.608
 1119TIP3    H2 3364   0.202   0.601   2.546
 1120TIP3   OH2 3365   5.765   5.564   0.482
 1120TIP3    H1 3366   5.744   5.622   0.555
 1120TIP3    H2 3367   5.708   5.593   0.411
 1121TIP3   OH2 3368   0.797   0.024   4.220
 1121TIP3    H1 3369   0.850  -0.053   4.200
 1121TIP3    H2 3370   0.802   0.077   4.141
 1122TIP3   OH2 3371   2.008  -0.009   2.417
 1122TIP3    H1 3372   2.054   0.067   2.381
 1122TIP3    H2 3373   1.917   0.020   2.425
 1123TIP3   OH2 3374   1.383   2.671   4.015
 1123TIP3    H1 3375   1.405   2.642   3.927
 1123TIP3    H2 3376   1.304   2.723   4.004
 1124TIP3   OH2 3377   4.966   2.547   1.931
 1124TIP3    H1 3378   5.033   2.616   1.930
 1124TIP3    H2 3379   4.992   2.489   2.003
 1125TIP3   OH2 3380   2.101   2.211   0.080
 1125TIP3    H1 3381   2.054   2.189  -0.001
 1125TIP3    H2 3382   2.130   2.301   0.067
 1126TIP3   OH2 3383   6.369   1.667   2.856
 1126TIP3    H1 3384   6.313   1.691   2.782
 1126TIP3    H2 3385   6.401   1.579   2.835
 1127TIP3   OH2 3386   0.564   0.995   4.147
 1127TIP3    H1 3387   0.566   1.088   4.169
 1127TIP3    H2 3388   0.555   0.993   4.052
 1128TIP3   OH2 3389   2.022  -0.014   2.793
 1128TIP3    H1 3390   2.079   0.062   2.782
 1128TIP3    H2 3391   2.057  -0.060   2.869
 1129TIP3   OH2 3392   3.603   5.895   1.251
 1129TIP3    H1 3393   3.622   5.827   1.187
 1129TIP3    H2 3394   3.685   5.905   1.300
 1130TIP3   OH2 3395   1.367   4.822   3.788
 1130TIP3    H1 3396   1.401   4.763   3.854
 1130TIP3    H2 3397   1.354   4.767   3.711
 1131TIP3   OH2 3398   5.094   5.638   4.623
 1131TIP3    H1 3399   5.149   5.559   4.625
 1131TIP3    H2 3400   5.064   5.645   4.533
 1132TIP3   OH2 3401   3.959   0.863   3.930
 1132TIP3    H1 3402   3.865   0.861   3.952
 1132TIP3    H2 3403   3.983   0.955   3.939
 1133TIP3   OH2 3404   4.238   2.237   1.619
 1133TIP3    H1 3405   4.214   2.146   1.637
 1133TIP3    H2 3406   4.156   2.286   1.626
 1134TIP3   OH2 3407   1.141   4.947   5.161
 1134TIP3    H1 3408   1.169   4.855   5.160
 1134TIP3    H2 3409   1.201   4.991   5.101
 1135TIP3   OH2 3410   5.130   2.818   4.715
 1135TIP3    H1 3411   5.210   2.782   4.675
 1135TIP3    H2 3412   5.076   2.845   4.641
 1136TIP3   OH2 3413   4.266   1.742   3.485
 1136TIP3    H1 3414   4.336   1.765   3.546
 1136TIP3    H2 3415   4.187   1.739   3.540
 1137TIP3   OH2 3416   3.257   5.177   2.873
 1137TIP3    H1 3417   3.284   5.223   2.793
 1137TIP3    H2 3418   3.334   5.182   2.930
 1138TIP3   OH2 3419   2.905   3.164   3.516
 1138TIP3    H1 3420   2.925   3.092   3.576
 1138TIP3    H2 3421   2.988   3.182   3.473
 1139TIP3   OH2 3422   3.699   2.316   2.436
 1139TIP3    H1 3423   3.781   2.343   2.394
 1139TIP3    H2 3424   3.725   2.252   2.502
 1140TIP3   OH2 3425   5.409   3.614   2.918
 1140TIP3    H1 3426   5.427   3.548   2.850
 1140TIP3    H2 3427   5.327   3.656   2.889
 1141TIP3   OH2 3428   2.722   4.424   4.739
 1141TIP3    H1 3429   2.788   4.466   4.682
 1141TIP3    H2 3430   2.765   4.344   4.770
 1142TIP3   OH2 3431   4.006   3.990   3.317
 1142TIP3    H1 3432   4.033   3.899   3.306
 1142TIP3    H2 3433   3.972   4.016   3.232
 1143TIP3   OH2 3434   3.018   4.144   0.268
 1143TIP3    H1 3435   3.029   4.059   0.311
 1143TIP3    H2 3436   2.925   4.165   0.281
 1144TIP3   OH2 3437   4.580   3.823   2.772
 1144TIP3    H1 3438   4.541   3.896   2.724
 1144TIP3    H2 3439   4.590   3.856   2.861
 1145TIP3   OH2 3440   1.622   0.328   4.023
 1145TIP3    H1 3441   1.671   0.287   3.952
 1145TIP3    H2 3442   1.532   0.335   3.991
 1146TIP3   OH2 3443   0.736   4.856   3.285
 1146TIP3    H1 3444   0.686   4.774   3.279
 1146TIP3    H2 3445   0.675   4.919   3.322
 1147TIP3   OH2 3446   3.504   5.608   4.479
 1147TIP3    H1 3447   3.573   5.576   4.537
 1147TIP3    H2 3448   3.444   5.534   4.469
 1148TIP3   OH2 3449   0.702   3.820   1.613
 1148TIP3    H1 3450   0.750   3.741   1.588
 1148TIP3    H2 3451   0.709   3.822   1.708
 1149TIP3   OH2 3452   2.023   1.071   3.734
 1149TIP3    H1 3453   2.117   1.057   3.739
 1149TIP3    H2 3454   1.997   1.033   3.650
 1150TIP3   OH2 3455   3.678   3.351   0.078
 1150TIP3    H1 3456   3.591   3.330   0.044
 1150TIP3    H2 3457   3.732   3.364   0.000
 1151TIP3   OH2 3458   1.734   3.020   3.851
 1151TIP3    H1 3459   1.663   2.969   3.889
 1151TIP3    H2 3460   1.805   3.014   3.915
 1152TIP3   OH2 3461   5.892   3.767   0.681
 1152TIP3    H1 3462   5.841   3.700   0.635
 1152TIP3    H2 3463   5.853   3.850   0.653
 1153TIP3   OH2 3464   0.830   4.287   0.039
 1153TIP3    H1 3465   0.898   4.316   0.099
 1153TIP3    H2 3466   0.776   4.226   0.090
 1154TIP3   OH2 3467   5.851   1.188   0.727
 1154TIP3    H1 3468   5.794   1.249   0.774
 1154TIP3    H2 3469   5.918   1.243   0.687
 1155TIP3   OH2 3470   5.937   3.975   3.762
 1155TIP3    H1 3471   5.884   3.906   3.802
 1155TIP3    H2 3472   5.987   3.931   3.694
 1156TIP3   OH2 3473   1.717   3.999   4.928
 1156TIP3    H1 3474   1.671   3.951   4.998
 1156TIP3    H2 3475   1.662   4.075   4.912
 1157TIP3   OH2 3476   5.988   1.997   4.288
 1157TIP3    H1 3477   5.913   2.054   4.274
 1157TIP3    H2 3478   6.061   2.057   4.305
 1158TIP3   OH2 3479   2.853   4.845   4.895
 1158TIP3    H1 3480   2.866   4.938   4.912
 1158TIP3    H2 3481   2.758   4.833   4.901
 1159TIP3   OH2 3482   1.348   4.472   4.675
 1159TIP3    H1 3483   1.375   4.487   4.584
 1159TIP3    H2 3484   1.368   4.379   4.690
 1160TIP3   OH2 3485   0.960   5.644   1.498
 1160TIP3    H1 3486   0.926   5.667   1.584
 1160TIP3    H2 3487   0.886   5.658   1.438
 1161TIP3   OH2 3488   2.487   2.469   1.759
 1161TIP3    H1 3489   2.482   2.378   1.729
 1161TIP3    H2 3490   2.464   2.521   1.682
 1162TIP3   OH2 3491   1.438   4.148   0.917
 1162TIP3    H1 3492   1.518   4.155   0.970
 1162TIP3    H2 3493   1.451   4.069   0.865
 1163TIP3   OH2 3494   2.081   0.273   3.151
 1163TIP3    H1 3495   2.112   0.243   3.065
 1163TIP3    H2 3496   2.078   0.369   3.143
 1164TIP3   OH2 3497   0.211   1.857   3.378
 1164TIP3    H1 3498   0.176   1.874   3.291
 1164TIP3    H2 3499   0.304   1.876   3.372
 1165TIP3   OH2 3500   0.815   1.076   0.786
 1165TIP3    H1 3501   0.727   1.095   0.817
 1165TIP3    H2 3502   0.871   1.085   0.863
 1166TIP3   OH2 3503   2.034   4.180   1.645
 1166TIP3    H1 3504   2.115   4.132   1.626
 1166TIP3    H2 3505   2.052   4.226   1.726
 1167TIP3   OH2 3506   2.735   2.422   4.736
 1167TIP3    H1 3507   2.813   2.469   4.706
 1167TIP3    H2 3508   2.761   2.380   4.818
 1168TIP3   OH2 3509   0.803   3.168   0.488
 1168TIP3    H1 3510   0.751   3.133   0.415
 1168TIP3    H2 3511   0.821   3.259   0.463
 1169TIP3   OH2 3512   5.608   4.978   0.066
 1169TIP3    H1 3513   5.669   5.011   0.131
 1169TIP3    H2 3514   5.584   4.891   0.096
 1170TIP3   OH2 3515   4.817   0.589   2.232
 1170TIP3    H1 3516   4.803   0.509   2.181
 1170TIP3    H2 3517   4.903   0.620   2.204
 1171TIP3   OH2 3518   3.375   3.536   4.368
 1171TIP3    H1 3519   3.320   3.500   4.298
 1171TIP3    H2 3520   3.450   3.477   4.372
 1172TIP3   OH2 3521   5.577   5.556   3.414
 1172TIP3    H1 3522   5.487   5.585   3.426
 1172TIP3    H2 3523   5.608   5.605   3.338
 1173TIP3   OH2 3524   3.377   2.908   4.781
 1173TIP3    H1 3525   3.443   2.930   4.847
 1173TIP3    H2 3526   3.414   2.834   4.734
 1174TIP3   OH2 3527   2.062   4.674   1.966
 1174TIP3    H1 3528   1.984   4.670   1.909
 1174TIP3    H2 3529   2.095   4.585   1.968
 1175TIP3   OH2 3530   5.722   1.823   1.584
 1175TIP3    H1 3531   5.780   1.864   1.648
 1175TIP3    H2 3532   5.781   1.783   1.520
 1176TIP3   OH2 3533   2.105   3.087   1.195
 1176TIP3    H1 3534   2.069   3.164   1.239
 1176TIP3    H2 3535   2.068   3.090   1.107
 1177TIP3   OH2 3536   2.316   2.628   3.743
 1177TIP3    H1 3537   2.348   2.558   3.685
 1177TIP3    H2 3538   2.229   2.649   3.709
 1178TIP3   OH2 3539   0.214   2.686   1.659
 1178TIP3    H1 3540   0.152   2.660   1.727
 1178TIP3    H2 3541   0.230   2.606   1.609
 1179TIP3   OH2 3542   0.856   2.636   3.917
 1179TIP3    H1 3543   0.808   2.594   3.988
 1179TIP3    H2 3544   0.849   2.729   3.935
 1180TIP3   OH2 3545   4.809   1.194   3.662
 1180TIP3    H1 3546   4.894   1.238   3.662
 1180TIP3    H2 3547   4.746   1.264   3.651
 1181TIP3   OH2 3548   1.274   0.792   0.345
 1181TIP3    H1 3549   1.287   0.759   0.434
 1181TIP3    H2 3550   1.269   0.887   0.355
 1182TIP3   OH2 3551   1.229   4.183   3.819
 1182TIP3    H1 3552   1.155   4.150   3.870
 1182TIP3    H2 3553   1.197   4.263   3.778
 1183TIP3   OH2 3554   3.555   0.620   2.734
 1183TIP3    H1 3555   3.590   0.551   2.676
 1183TIP3    H2 3556   3.464   0.594   2.749
 1184TIP3   OH2 3557   0.267   5.116   2.826
 1184TIP3    H1 3558   0.239   5.205   2.806
 1184TIP3    H2 3559   0.222   5.062   2.761
 1185TIP3   OH2 3560   2.362   2.334   1.153
 1185TIP3    H1 3561   2.383   2.263   1.213
 1185TIP3    H2 3562   2.446   2.378   1.137
 1186TIP3   OH2 3563   0.280   2.855   2.026
 1186TIP3    H1 3564   0.266   2.846   2.120
 1186TIP3    H2 3565   0.236   2.778   1.988
 1187TIP3   OH2 3566   0.182   1.119   2.529
 1187TIP3    H1 3567   0.155   1.123   2.437
 1187TIP3    H2 3568   0.265   1.071   2.527
 1188TIP3   OH2 3569   3.452   5.174   1.991
 1188TIP3    H1 3570   3.422   5.236   1.924
 1188TIP3    H2 3571   3.393   5.099   1.983
 1189TIP3   OH2 3572   6.254   0.552   2.288
 1189TIP3    H1 3573   6.316   0.610   2.243
 1189TIP3    H2 3574   6.168   0.578   2.254
 1190TIP3   OH2 3575   4.414   3.513   1.762
 1190TIP3    H1 3576   4.432   3.435   1.711
 1190TIP3    H2 3577   4.360   3.482   1.835
 1191TIP3   OH2 3578   4.487   1.347   0.937
 1191TIP3    H1 3579   4.423   1.403   0.981
 1191TIP3    H2 3580   4.569   1.362   0.982
 1192TIP3   OH2 3581   5.856   0.202   2.425
 1192TIP3    H1 3582   5.942   0.239   2.404
 1192TIP3    H2 3583   5.802   0.278   2.447
 1193TIP3   OH2 3584   1.596   3.929   1.385
 1193TIP3    H1 3585   1.673   3.880   1.415
 1193TIP3    H2 3586   1.589   3.908   1.292
 1194TIP3   OH2 3587   3.721   2.885   0.299
 1194TIP3    H1 3588   3.702   2.953   0.363
 1194TIP3    H2 3589   3.780   2.926   0.236
 1195TIP3   OH2 3590   4.870   4.637   3.272
 1195TIP3    H1 3591   4.944   4.686   3.237
 1195TIP3    H2 3592   4.908   4.555   3.303
 1196TIP3   OH2 3593   4.901   0.756   2.494
 1196TIP3    H1 3594   4.994   0.737   2.501
 1196TIP3    H2 3595   4.862   0.673   2.466
 1197TIP3   OH2 3596   6.215   0.699   3.350
 1197TIP3    H1 3597   6.136   0.684   3.401
 1197TIP3    H2 3598   6.207   0.640   3.275
 1198TIP3   OH2 3599   0.466   5.906   2.203
 1198TIP3    H1 3600   0.478   5.867   2.290
 1198TIP3    H2 3601   0.451   5.999   2.221
 1199TIP3   OH2 3602   0.846   1.592   3.281
 1199TIP3    H1 3603   0.769   1.631   3.240
 1199TIP3    H2 3604   0.920   1.642   3.245
 1200TIP3   OH2 3605   3.758   0.821   0.267
 1200TIP3    H1 3606   3.750   0.789   0.177
 1200TIP3    H2 3607   3.704   0.900   0.269
 1201TIP3   OH2 3608   5.461   5.886   4.018
 1201TIP3    H1 3609   5.408   5.824   3.968
 1201TIP3    H2 3610   5.397   5.949   4.053
 1202TIP3   OH2 3611   2.960   5.880   0.287
 1202TIP3    H1 3612   3.009   5.940   0.231
 1202TIP3    H2 3613   2.918   5.936   0.352
 1203TIP3   OH2 3614   4.836   2.561   2.732
 1203TIP3    H1 3615   4.811   2.469   2.741
 1203TIP3    H2 3616   4.767   2.599   2.676
 1204TIP3   OH2 3617   3.759   2.780   0.908
 1204TIP3    H1 3618   3.718   2.859   0.943
 1204TIP3    H2 3619   3.805   2.742   0.983
 1205TIP3   OH2 3620   1.308   0.390   4.968
 1205TIP3    H1 3621   1.371   0.337   4.920
 1205TIP3    H2 3622   1.330   0.481   4.945
 1206TIP3   OH2 3623   6.147   0.956   3.519
 1206TIP3    H1 3624   6.076   0.967   3.455
 1206TIP3    H2 3625   6.194   1.039   3.517
 1207TIP3   OH2 3626   6.034   5.757   4.603
 1207TIP3    H1 3627   6.096   5.777   4.533
 1207TIP3    H2 3628   6.063   5.673   4.638
 1208TIP3   OH2 3629   2.772   3.125   5.093
 1208TIP3    H1 3630   2.859   3.166   5.104
 1208TIP3    H2 3631   2.735   3.169   5.017
 1209TIP3   OH2 3632   5.391   5.849   4.913
 1209TIP3    H1 3633   5.314   5.871   4.860
 1209TIP3    H2 3634   5.465   5.861   4.854
 1210TIP3   OH2 3635   5.099   3.585   1.035
 1210TIP3    H1 3636   5.177   3.576   0.980
 1210TIP3    H2 3637   5.097   3.504   1.085
 1211TIP3   OH2 3638   4.361   5.262   4.223
 1211TIP3    H1 3639   4.446   5.302   4.244
 1211TIP3    H2 3640   4.350   5.193   4.288
 1212TIP3   OH2 3641   2.711   4.038   2.494
 1212TIP3    H1 3642   2.764   4.097   2.548
 1212TIP3    H2 3643   2.665   4.096   2.434
 1213TIP3   OH2 3644   2.477   4.351   0.223
 1213TIP3    H1 3645   2.536   4.400   0.166
 1213TIP3    H2 3646   2.468   4.406   0.301
 1214TIP3   OH2 3647   0.994   1.222   3.009
 1214TIP3    H1 3648   1.047   1.148   2.978
 1214TIP3    H2 3649   0.928   1.234   2.940
 1215TIP3   OH2 3650   4.853   2.447   0.715
 1215TIP3    H1 3651   4.935   2.428   0.760
 1215TIP3    H2 3652   4.790   2.387   0.755
 1216TIP3   OH2 3653   6.020   5.446   3.199
 1216TIP3    H1 3654   5.984   5.360   3.176
 1216TIP3    H2 3655   5.986   5.505   3.132
 1217TIP3   OH2 3656   1.012   3.835   3.318
 1217TIP3    H1 3657   0.950   3.846   3.390
 1217TIP3    H2 3658   0.966   3.870   3.242
 1218TIP3   OH2 3659   0.050   3.585   0.081
 1218TIP3    H1 3660   0.136   3.549   0.058
 1218TIP3    H2 3661   0.018   3.623  -0.001
 1219TIP3   OH2 3662   1.351   2.336   1.825
 1219TIP3    H1 3663   1.395   2.252   1.841
 1219TIP3    H2 3664   1.414   2.387   1.774
 1220TIP3   OH2 3665   0.654   5.738   4.833
 1220TIP3    H1 3666   0.698   5.657   4.806
 1220TIP3    H2 3667   0.655   5.735   4.928
 1221TIP3   OH2 3668   5.410   5.251   0.593
 1221TIP3    H1 3669   5.469   5.296   0.653
 1221TIP3    H2 3670   5.333   5.230   0.646
 1222TIP3   OH2 3671   1.287   2.934   3.457
 1222TIP3    H1 3672   1.214   2.902   3.510
 1222TIP3    H2 3673   1.337   2.855   3.436
 1223TIP3   OH2 3674   1.677   1.603   3.550
 1223TIP3    H1 3675   1.633   1.644   3.624
 1223TIP3    H2 3676   1.634   1.640   3.473
 1224TIP3   OH2 3677   5.020   0.392   2.288
 1224TIP3    H1 3678   4.930   0.381   2.319
 1224TIP3    H2 3679   5.011   0.405   2.194
 1225TIP3   OH2 3680   0.619   1.262   3.074
 1225TIP3    H1 3681   0.646   1.320   3.003
 1225TIP3    H2 3682   0.653   1.303   3.153
 1226TIP3   OH2 3683   0.366   2.235   2.422
 1226TIP3    H1 3684   0.439   2.217   2.480
 1226TIP3    H2 3685   0.401   2.223   2.334
 1227TIP3   OH2 3686   5.795   4.721   1.448
 1227TIP3    H1 3687   5.728   4.657   1.423
 1227TIP3    H2 3688   5.752   4.777   1.512
 1228TIP3   OH2 3689   4.241   4.094   3.342
 1228TIP3    H1 3690   4.153   4.064   3.319
 1228TIP3    H2 3691   4.226   4.180   3.383
 1229TIP3   OH2 3692   0.622   1.085   2.727
 1229TIP3    H1 3693   0.700   1.138   2.744
 1229TIP3    H2 3694   0.614   1.028   2.803
 1230TIP3   OH2 3695   6.217   0.870   4.439
 1230TIP3    H1 3696   6.277   0.856   4.365
 1230TIP3    H2 3697   6.186   0.960   4.428
 1231TIP3   OH2 3698   4.013   0.323   3.435
 1231TIP3    H1 3699   4.095   0.354   3.396
 1231TIP3    H2 3700   3.959   0.401   3.443
 1232TIP3   OH2 3701   3.040   4.532  -0.030
 1232TIP3    H1 3702   3.131   4.562  -0.024
 1232TIP3    H2 3703   2.988   4.608  -0.003
 1233TIP3   OH2 3704   4.547   2.672   1.061
 1233TIP3    H1 3705   4.565   2.745   1.002
 1233TIP3    H2 3706   4.516   2.715   1.142
 1234TIP3   OH2 3707   2.963   5.933   4.540
 1234TIP3    H1 3708   2.910   5.999   4.495
 1234TIP3    H2 3709   3.003   5.980   4.613
 1235TIP3   OH2 3710   2.669   0.213   4.685
 1235TIP3    H1 3711   2.590   0.189   4.733
 1235TIP3    H2 3712   2.732   0.144   4.706
 1236TIP3   OH2 3713   4.606   4.630   0.473
 1236TIP3    H1 3714   4.696   4.639   0.502
 1236TIP3    H2 3715   4.599   4.539   0.443
 1237TIP3   OH2 3716   3.836   5.394   3.290
 1237TIP3    H1 3717   3.808   5.351   3.371
 1237TIP3    H2 3718   3.756   5.405   3.239
 1238TIP3   OH2 3719   0.205   0.186   3.714
 1238TIP3    H1 3720   0.238   0.272   3.738
 1238TIP3    H2 3721   0.122   0.177   3.761
 1239TIP3   OH2 3722   3.454   2.059   1.435
 1239TIP3    H1 3723   3.547   2.041   1.418
 1239TIP3    H2 3724   3.410   1.976   1.418
 1240TIP3   OH2 3725   1.312   1.585   1.262
 1240TIP3    H1 3726   1.342   1.537   1.340
 1240TIP3    H2 3727   1.347   1.535   1.188
 1241TIP3   OH2 3728   2.524   2.034   3.596
 1241TIP3    H1 3729   2.529   2.001   3.506
 1241TIP3    H2 3730   2.459   1.978   3.638
 1242TIP3   OH2 3731   2.306   5.075   1.664
 1242TIP3    H1 3732   2.240   5.070   1.733
 1242TIP3    H2 3733   2.289   5.158   1.621
 1243TIP3   OH2 3734   3.905   0.376   0.418
 1243TIP3    H1 3735   3.816   0.406   0.438
 1243TIP3    H2 3736   3.902   0.281   0.428
 1244TIP3   OH2 3737   5.556   2.158   3.874
 1244TIP3    H1 3738   5.532   2.174   3.783
 1244TIP3    H2 3739   5.472   2.156   3.921
 1245TIP3   OH2 3740   3.612   1.027   2.217
 1245TIP3    H1 3741   3.565   0.967   2.275
 1245TIP3    H2 3742   3.579   1.008   2.130
 1246TIP3   OH2 3743   5.945   1.643   2.846
 1246TIP3    H1 3744   5.866   1.603   2.881
 1246TIP3    H2 3745   6.016   1.590   2.882
 1247TIP3   OH2 3746   4.098   0.984   3.442
 1247TIP3    H1 3747   4.025   1.007   3.384
 1247TIP3    H2 3748   4.109   0.890   3.432
 1248TIP3   OH2 3749   3.242   2.041   4.110
 1248TIP3    H1 3750   3.316   2.079   4.062
 1248TIP3    H2 3751   3.195   1.989   4.045
 1249TIP3   OH2 3752   0.439   5.759   2.948
 1249TIP3    H1 3753   0.451   5.675   2.904
 1249TIP3    H2 3754   0.438   5.824   2.878
 1250TIP3   OH2 3755   5.342   2.688   0.884
 1250TIP3    H1 3756   5.437   2.702   0.875
 1250TIP3    H2 3757   5.325   2.608   0.834
 1251TIP3   OH2 3758   2.513   4.371   0.997
 1251TIP3    H1 3759   2.492   4.458   1.032
 1251TIP3    H2 3760   2.479   4.310   1.062
 1252TIP3   OH2 3761   2.295   4.708   3.381
 1252TIP3    H1 3762   2.212   4.722   3.426
 1252TIP3    H2 3763   2.342   4.792   3.390
 1253TIP3   OH2 3764   4.062   2.377   5.092
 1253TIP3    H1 3765   4.037   2.463   5.126
 1253TIP3    H2 3766   4.118   2.340   5.160
 1254TIP3   OH2 3767   1.417   1.687   0.472
 1254TIP3    H1 3768   1.436   1.612   0.529
 1254TIP3    H2 3769   1.455   1.762   0.517
 1255TIP3   OH2 3770   5.659   2.898   4.556
 1255TIP3    H1 3771   5.664   2.955   4.633
 1255TIP3    H2 3772   5.710   2.821   4.580
 1256TIP3   OH2 3773   2.831   1.627   1.053
 1256TIP3    H1 3774   2.766   1.649   0.987
 1256TIP3    H2 3775   2.914   1.660   1.017
 1257TIP3   OH2 3776   1.742   1.109   3.569
 1257TIP3    H1 3777   1.720   1.015   3.573
 1257TIP3    H2 3778   1.808   1.115   3.500
 1258TIP3   OH2 3779   1.850   2.969   2.325
 1258TIP3    H1 3780   1.942   2.941   2.324
 1258TIP3    H2 3781   1.804   2.898   2.370
 1259TIP3   OH2 3782   1.797   2.173   4.804
 1259TIP3    H1 3783   1.709   2.143   4.780
 1259TIP3    H2 3784   1.789   2.269   4.807
 1260TIP3   OH2 3785   4.038   0.517   1.999
 1260TIP3    H1 3786   4.097   0.584   1.964
 1260TIP3    H2 3787   4.057   0.515   2.093
 1261TIP3   OH2 3788   2.616   4.409   5.058
 1261TIP3    H1 3789   2.578   4.496   5.047
 1261TIP3    H2 3790   2.574   4.356   4.990
 1262TIP3   OH2 3791   0.853   5.706   0.957
 1262TIP3    H1 3792   0.898   5.654   1.024
 1262TIP3    H2 3793   0.762   5.675   0.959
 1263TIP3   OH2 3794   1.533   1.288   3.997
 1263TIP3    H1 3795   1.569   1.289   4.085
 1263TIP3    H2 3796   1.581   1.356   3.950
 1264TIP3   OH2 3797   6.272   1.344   5.052
 1264TIP3    H1 3798   6.211   1.302   5.112
 1264TIP3    H2 3799   6.267   1.292   4.972
 1265TIP3   OH2 3800   1.987   1.927   1.422
 1265TIP3    H1 3801   1.991   2.017   1.456
 1265TIP3    H2 3802   2.063   1.920   1.364
 1266TIP3   OH2 3803   4.009   3.140   3.966
 1266TIP3    H1 3804   4.037   3.049   3.979
 1266TIP3    H2 3805   3.968   3.164   4.049
 1267TIP3   OH2 3806   3.380   5.926   0.933
 1267TIP3    H1 3807   3.341   6.006   0.900
 1267TIP3    H2 3808   3.474   5.941   0.927
 1268TIP3   OH2 3809   5.708   0.537   4.664
 1268TIP3    H1 3810   5.734   0.623   4.698
 1268TIP3    H2 3811   5.719   0.477   4.737
 1269TIP3   OH2 3812   1.073   3.857   4.452
 1269TIP3    H1 3813   1.036   3.774   4.420
 1269TIP3    H2 3814   1.137   3.882   4.385
 1270TIP3   OH2 3815   1.025   2.896   4.336
 1270TIP3    H1 3816   0.947   2.914   4.284
 1270TIP3    H2 3817   1.066   2.982   4.347
 1271TIP3   OH2 3818   3.573   0.850   3.043
 1271TIP3    H1 3819   3.520   0.878   2.969
 1271TIP3    H2 3820   3.600   0.931   3.085
 1272TIP3   OH2 3821   0.181   2.492   2.077
 1272TIP3    H1 3822   0.185   2.492   2.173
 1272TIP3    H2 3823   0.271   2.474   2.050
 1273TIP3   OH2 3824   0.416   5.206   0.897
 1273TIP3    H1 3825   0.405   5.194   0.991
 1273TIP3    H2 3826   0.331   5.236   0.866
 1274TIP3   OH2 3827   2.014   0.712   3.358
 1274TIP3    H1 3828   1.955   0.646   3.322
 1274TIP3    H2 3829   2.057   0.750   3.281
 1275TIP3   OH2 3830   3.481   4.389   4.740
 1275TIP3    H1 3831   3.530   4.452   4.792
 1275TIP3    H2 3832   3.397   4.431   4.725
 1276TIP3   OH2 3833   0.412   5.822   4.773
 1276TIP3    H1 3834   0.497   5.780   4.788
 1276TIP3    H2 3835   0.359   5.754   4.732
 1277TIP3   OH2 3836   5.808   4.461   3.255
 1277TIP3    H1 3837   5.871   4.532   3.264
 1277TIP3    H2 3838   5.855   4.382   3.283
 1278TIP3   OH2 3839   2.743   5.077   0.303
 1278TIP3    H1 3840   2.767   5.053   0.392
 1278TIP3    H2 3841   2.790   5.159   0.286
 1279TIP3   OH2 3842   4.547   2.845   0.839
 1279TIP3    H1 3843   4.582   2.802   0.761
 1279TIP3    H2 3844   4.483   2.907   0.805
 1280TIP3   OH2 3845   2.361   5.982   4.608
 1280TIP3    H1 3846   2.424   5.939   4.551
 1280TIP3    H2 3847   2.305   5.911   4.640
 1281TIP3   OH2 3848   4.626   0.988   3.846
 1281TIP3    H1 3849   4.636   1.083   3.849
 1281TIP3    H2 3850   4.565   0.972   3.774
 1282TIP3   OH2 3851   5.459   3.880   2.085
 1282TIP3    H1 3852   5.499   3.818   2.025
 1282TIP3    H2 3853   5.444   3.959   2.032
 1283TIP3   OH2 3854   4.649   1.346   2.445
 1283TIP3    H1 3855   4.580   1.343   2.511
 1283TIP3    H2 3856   4.602   1.343   2.362
 1284TIP3   OH2 3857   1.605   3.113   5.048
 1284TIP3    H1 3858   1.617   3.021   5.024
 1284TIP3    H2 3859   1.684   3.136   5.096
 1285TIP3   OH2 3860   2.372   0.963   1.846
 1285TIP3    H1 3861   2.329   1.022   1.785
 1285TIP3    H2 3862   2.337   0.876   1.825
 1286TIP3   OH2 3863   3.882   1.438   3.070
 1286TIP3    H1 3864   3.793   1.463   3.094
 1286TIP3    H2 3865   3.929   1.432   3.153
 1287TIP3   OH2 3866   3.188   0.772   3.176
 1287TIP3    H1 3867   3.125   0.843   3.164
 1287TIP3    H2 3868   3.165   0.708   3.108
 1288TIP3   OH2 3869   5.687   0.199   4.345
 1288TIP3    H1 3870   5.729   0.177   4.262
 1288TIP3    H2 3871   5.713   0.129   4.405
 1289TIP3   OH2 3872   4.652   0.902   0.563
 1289TIP3    H1 3873   4.648   0.807   0.549
 1289TIP3    H2 3874   4.619   0.914   0.652
 1290TIP3   OH2 3875   2.074   4.037   0.804
 1290TIP3    H1 3876   2.017   4.102   0.763
 1290TIP3    H2 3877   2.077   3.965   0.742
 1291TIP3   OH2 3878   0.343   5.754   2.419
 1291TIP3    H1 3879   0.262   5.798   2.445
 1291TIP3    H2 3880   0.315   5.684   2.361
 1292TIP3   OH2 3881   6.223   3.442   2.567
 1292TIP3    H1 3882   6.292   3.498   2.531
 1292TIP3    H2 3883   6.241   3.355   2.531
 1293TIP3   OH2 3884   4.903   2.887   2.015
 1293TIP3    H1 3885   4.885   2.834   2.093
 1293TIP3    H2 3886   4.994   2.866   1.992
 1294TIP3   OH2 3887   4.078   0.273   4.366
 1294TIP3    H1 3888   4.125   0.355   4.380
 1294TIP3    H2 3889   4.142   0.205   4.387
 1295TIP3   OH2 3890   1.088   5.276   4.137
 1295TIP3    H1 3891   1.154   5.213   4.165
 1295TIP3    H2 3892   1.052   5.311   4.219
 1296TIP3   OH2 3893   0.576   1.690   3.457
 1296TIP3    H1 3894   0.493   1.703   3.503
 1296TIP3    H2 3895   0.643   1.700   3.525
 1297TIP3   OH2 3896   3.073   3.529   3.811
 1297TIP3    H1 3897   2.989   3.484   3.815
 1297TIP3    H2 3898   3.117   3.490   3.735
 1298TIP3   OH2 3899   1.923   4.990   2.571
 1298TIP3    H1 3900   1.909   4.947   2.486
 1298TIP3    H2 3901   1.848   4.964   2.624
 1299TIP3   OH2 3902   4.931   4.802   2.889
 1299TIP3    H1 3903   5.016   4.758   2.881
 1299TIP3    H2 3904   4.948   4.873   2.951
 1300TIP3   OH2 3905   5.163   5.166   3.218
 1300TIP3    H1 3906   5.223   5.210   3.157
 1300TIP3    H2 3907   5.141   5.083   3.175
 1301TIP3   OH2 3908   2.571   3.235   1.097
 1301TIP3    H1 3909   2.617   3.310   1.061
 1301TIP3    H2 3910   2.601   3.231   1.188
 1302TIP3   OH2 3911   5.362   4.660   1.920
 1302TIP3    H1 3912   5.349   4.570   1.952
 1302TIP3    H2 3913   5.273   4.695   1.911
 1303TIP3   OH2 3914   3.109   5.572   0.966
 1303TIP3    H1 3915   3.016   5.567   0.987
 1303TIP3    H2 3916   3.114   5.630   0.890
 1304TIP3   OH2 3917   3.501   5.139   2.998
 1304TIP3    H1 3918   3.595   5.155   3.006
 1304TIP3    H2 3919   3.472   5.118   3.087
 1305TIP3   OH2 3920   6.365   1.480   1.184
 1305TIP3    H1 3921   6.323   1.485   1.270
 1305TIP3    H2 3922   6.295   1.501   1.122
 1306TIP3   OH2 3923   4.802   0.158   0.243
 1306TIP3    H1 3924   4.715   0.138   0.277
 1306TIP3    H2 3925   4.861   0.137   0.315
 1307TIP3   OH2 3926   0.479   2.834   2.878
 1307TIP3    H1 3927   0.502   2.842   2.785
 1307TIP3    H2 3928   0.394   2.789   2.878
 1308TIP3   OH2 3929   3.290   5.733   1.139
 1308TIP3    H1 3930   3.268   5.659   1.083
 1308TIP3    H2 3931   3.347   5.788   1.084
 1309TIP3   OH2 3932   1.488   3.058   4.633
 1309TIP3    H1 3933   1.456   3.075   4.722
 1309TIP3    H2 3934   1.411   3.067   4.577
 1310TIP3   OH2 3935   4.483   2.947   1.252
 1310TIP3    H1 3936   4.577   2.937   1.240
 1310TIP3    H2 3937   4.457   2.874   1.307
 1311TIP3   OH2 3938   3.864   3.885   3.915
 1311TIP3    H1 3939   3.847   3.974   3.948
 1311TIP3    H2 3940   3.828   3.827   3.983
 1312TIP3   OH2 3941   4.552   0.626   2.231
 1312TIP3    H1 3942   4.642   0.604   2.251
 1312TIP3    H2 3943   4.522   0.556   2.173
 1313TIP3   OH2 3944   3.409   0.100   1.594
 1313TIP3    H1 3945   3.477   0.082   1.529
 1313TIP3    H2 3946   3.340   0.037   1.574
 1314TIP3   OH2 3947   3.107   2.207   3.822
 1314TIP3    H1 3948   3.075   2.121   3.847
 1314TIP3    H2 3949   3.039   2.268   3.850
 1315TIP3   OH2 3950   5.716   4.541   2.636
 1315TIP3    H1 3951   5.679   4.592   2.708
 1315TIP3    H2 3952   5.767   4.472   2.679
 1316TIP3   OH2 3953   1.509   0.199   0.945
 1316TIP3    H1 3954   1.486   0.125   1.001
 1316TIP3    H2 3955   1.538   0.267   1.006
 1317TIP3   OH2 3956   6.038   1.147   0.485
 1317TIP3    H1 3957   6.036   1.240   0.511
 1317TIP3    H2 3958   6.041   1.099   0.568
 1318TIP3   OH2 3959   0.440   0.782   3.607
 1318TIP3    H1 3960   0.420   0.717   3.675
 1318TIP3    H2 3961   0.410   0.865   3.644
 1319TIP3   OH2 3962   0.316   3.780   0.938
 1319TIP3    H1 3963   0.349   3.697   0.974
 1319TIP3    H2 3964   0.243   3.804   0.996
 1320TIP3   OH2 3965   4.190   5.753   4.241
 1320TIP3    H1 3966   4.187   5.697   4.164
 1320TIP3    H2 3967   4.269   5.807   4.229
 1321TIP3   OH2 3968   0.449   1.486   1.690
 1321TIP3    H1 3969   0.434   1.446   1.776
 1321TIP3    H2 3970   0.502   1.564   1.709
 1322TIP3   OH2 3971   0.161   0.737   4.175
 1322TIP3    H1 3972   0.147   0.831   4.162
 1322TIP3    H2 3973   0.151   0.724   4.269
 1323TIP3   OH2 3974   5.035   1.800   1.634
 1323TIP3    H1 3975   4.962   1.853   1.666
 1323TIP3    H2 3976   5.088   1.783   1.712
 1324TIP3   OH2 3977   1.159   0.395   3.825
 1324TIP3    H1 3978   1.098   0.400   3.752
 1324TIP3    H2 3979   1.125   0.456   3.890
 1325TIP3   OH2 3980   0.776   1.351   4.202
 1325TIP3    H1 3981   0.722   1.428   4.220
 1325TIP3    H2 3982   0.777   1.303   4.284
 1326TIP3   OH2 3983   1.013   4.529   1.928
 1326TIP3    H1 3984   1.055   4.515   1.843
 1326TIP3    H2 3985   0.922   4.502   1.914
 1327TIP3   OH2 3986   3.267   4.390   4.351
 1327TIP3    H1 3987   3.274   4.305   4.396
 1327TIP3    H2 3988   3.350   4.434   4.370
 1328TIP3   OH2 3989   3.526   1.012   3.530
 1328TIP3    H1 3990   3.583   0.954   3.581
 1328TIP3    H2 3991   3.584   1.083   3.502
 1329TIP3   OH2 3992   0.321   0.250   3.157
 1329TIP3    H1 3993   0.325   0.155   3.165
 1329TIP3    H2 3994   0.314   0.281   3.247
 1330TIP3   OH2 3995   2.807   1.287   0.190
 1330TIP3    H1 3996   2.752   1.361   0.166
 1330TIP3    H2 3997   2.829   1.302   0.282
 1331TIP3   OH2 3998   1.233   3.544   0.329
 1331TIP3    H1 3999   1.248   3.449   0.335
 1331TIP3    H2 4000   1.318   3.583   0.347
 1332TIP3   OH2 4001   4.890   5.962   3.811
 1332TIP3    H1 4002   4.976   5.978   3.772
 1332TIP3    H2 4003   4.834   5.936   3.738
 1333TIP3   OH2 4004   0.324   3.138   0.173
 1333TIP3    H1 4005   0.364   3.066   0.223
 1333TIP3    H2 4006   0.394   3.204   0.167
 1334TIP3   OH2 4007   5.794   5.935   4.581
 1334TIP3    H1 4008   5.876   5.887   4.574
 1334TIP3    H2 4009   5.786   5.982   4.498
 1335TIP3   OH2 4010   1.362   5.558   0.514
 1335TIP3    H1 4011   1.402   5.643   0.533
 1335TIP3    H2 4012   1.276   5.579   0.478
 1336TIP3   OH2 4013   0.579   5.213   1.750
 1336TIP3    H1 4014   0.567   5.300   1.790
 1336TIP3    H2 4015   0.510   5.208   1.684
 1337TIP3   OH2 4016   6.047   4.438   2.583
 1337TIP3    H1 4017   6.058   4.532   2.571
 1337TIP3    H2 4018   5.997   4.409   2.507
 1338TIP3   OH2 4019   5.558   1.328   2.254
 1338TIP3    H1 4020   5.541   1.419   2.231
 1338TIP3    H2 4021   5.654   1.320   2.249
 1339TIP3   OH2 4022   0.339   0.590   4.780
 1339TIP3    H1 4023   0.348   0.513   4.725
 1339TIP3    H2 4024   0.297   0.558   4.860
 1340TIP3   OH2 4025   3.953   0.928   4.270
 1340TIP3    H1 4026   3.893   0.892   4.334
 1340TIP3    H2 4027   4.003   0.852   4.239
 1341TIP3   OH2 4028   5.887   2.576   0.021
 1341TIP3    H1 4029   5.894   2.670   0.038
 1341TIP3    H2 4030   5.943   2.536   0.088
 1342TIP3   OH2 4031   4.105   3.040   2.229
 1342TIP3    H1 4032   4.074   3.005   2.146
 1342TIP3    H2 4033   4.149   2.966   2.272
 1343TIP3   OH2 4034   0.427   1.023   3.900
 1343TIP3    H1 4035   0.433   1.021   3.805
 1343TIP3    H2 4036   0.337   1.054   3.918
 1344TIP3   OH2 4037   5.309   1.684   1.278
 1344TIP3    H1 4038   5.226   1.639   1.261
 1344TIP3    H2 4039   5.296   1.725   1.363
 1345TIP3   OH2 4040   2.611   3.660   5.096
 1345TIP3    H1 4041   2.675   3.624   5.158
 1345TIP3    H2 4042   2.644   3.632   5.010
 1346TIP3   OH2 4043   2.326   1.554   1.900
 1346TIP3    H1 4044   2.401   1.595   1.943
 1346TIP3    H2 4045   2.364   1.486   1.844
 1347TIP3   OH2 4046   0.752   4.821   2.688
 1347TIP3    H1 4047   0.826   4.769   2.721
 1347TIP3    H2 4048   0.676   4.786   2.734
 1348TIP3   OH2 4049   3.237   0.569   4.823
 1348TIP3    H1 4050   3.221   0.654   4.863
 1348TIP3    H2 4051   3.268   0.589   4.735
 1349TIP3   OH2 4052   5.206   4.759   0.465
 1349TIP3    H1 4053   5.131   4.790   0.414
 1349TIP3    H2 4054   5.280   4.812   0.435
 1350TIP3   OH2 4055   6.200   1.235   2.387
 1350TIP3    H1 4056   6.229   1.251   2.297
 1350TIP3    H2 4057   6.268   1.275   2.442
 1351TIP3   OH2 4058   2.069   0.383   1.627
 1351TIP3    H1 4059   1.982   0.362   1.660
 1351TIP3    H2 4060   2.058   0.467   1.582
 1352TIP3   OH2 4061   2.473   1.115   0.429
 1352TIP3    H1 4062   2.443   1.204   0.450
 1352TIP3    H2 4063   2.421   1.091   0.352
 1353TIP3   OH2 4064   4.198   4.071   3.716
 1353TIP3    H1 4065   4.286   4.107   3.702
 1353TIP3    H2 4066   4.214   3.984   3.754
 1354TIP3   OH2 4067   5.128   3.215   1.770
 1354TIP3    H1 4068   5.077   3.290   1.738
 1354TIP3    H2 4069   5.168   3.179   1.691
 1355TIP3   OH2 4070   1.166   5.218   3.580
 1355TIP3    H1 4071   1.193   5.307   3.557
 1355TIP3    H2 4072   1.074   5.226   3.605
 1356TIP3   OH2 4073   0.915   5.088   5.178
 1356TIP3    H1 4074   1.003   5.051   5.187
 1356TIP3    H2 4075   0.917   5.132   5.093
 1357TIP3   OH2 4076   5.492   1.822   1.731
 1357TIP3    H1 4077   5.508   1.869   1.813
 1357TIP3    H2 4078   5.574   1.829   1.683
 1358TIP3   OH2 4079   2.891   2.467   3.686
 1358TIP3    H1 4080   2.840   2.474   3.766
 1358TIP3    H2 4081   2.858   2.388   3.643
 1359TIP3   OH2 4082   4.039   5.074   4.692
 1359TIP3    H1 4083   4.049   4.985   4.726
 1359TIP3    H2 4084   4.127   5.101   4.666
 1360TIP3   OH2 4085   3.434   3.725   0.828
 1360TIP3    H1 4086   3.339   3.737   0.839
 1360TIP3    H2 4087   3.460   3.796   0.769
 1361TIP3   OH2 4088   1.319   4.830   3.417
 1361TIP3    H1 4089   1.343   4.752   3.466
 1361TIP3    H2 4090   1.358   4.903   3.466
 1362TIP3   OH2 4091   0.558   3.239   2.568
 1362TIP3    H1 4092   0.495   3.172   2.594
 1362TIP3    H2 4093   0.543   3.251   2.475
 1363TIP3   OH2 4094   5.364   4.168   4.187
 1363TIP3    H1 4095   5.358   4.143   4.095
 1363TIP3    H2 4096   5.333   4.259   4.190
 1364TIP3   OH2 4097   4.928   3.000   0.592
 1364TIP3    H1 4098   5.006   2.963   0.550
 1364TIP3    H2 4099   4.878   3.040   0.520
 1365TIP3   OH2 4100   3.942   3.153   3.527
 1365TIP3    H1 4101   3.924   3.062   3.505
 1365TIP3    H2 4102   4.020   3.149   3.582
 1366TIP3   OH2 4103   5.397   5.544   3.023
 1366TIP3    H1 4104   5.461   5.598   2.977
 1366TIP3    H2 4105   5.392   5.582   3.110
 1367TIP3   OH2 4106   6.284   3.782   1.931
 1367TIP3    H1 4107   6.201   3.740   1.953
 1367TIP3    H2 4108   6.260   3.873   1.910
 1368TIP3   OH2 4109   3.481   1.703   4.833
 1368TIP3    H1 4110   3.504   1.793   4.812
 1368TIP3    H2 4111   3.559   1.652   4.810
 1369TIP3   OH2 4112   3.453   2.708   0.754
 1369TIP3    H1 4113   3.498   2.716   0.670
 1369TIP3    H2 4114   3.435   2.614   0.762
 1370TIP3   OH2 4115   3.846   1.323   0.418
 1370TIP3    H1 4116   3.914   1.296   0.355
 1370TIP3    H2 4117   3.852   1.259   0.489
 1371TIP3   OH2 4118   0.503   2.346   4.096
 1371TIP3    H1 4119   0.410   2.344   4.120
 1371TIP3    H2 4120   0.503   2.370   4.003
 1372TIP3   OH2 4121   3.456   2.815   3.633
 1372TIP3    H1 4122   3.439   2.881   3.700
 1372TIP3    H2 4123   3.547   2.788   3.649
 1373TIP3   OH2 4124   5.562   4.236   1.580
 1373TIP3    H1 4125   5.510   4.155   1.578
 1373TIP3    H2 4126   5.558   4.269   1.490
 1374TIP3   OH2 4127   1.429   2.636   0.635
 1374TIP3    H1 4128   1.430   2.648   0.729
 1374TIP3    H2 4129   1.417   2.724   0.599
 1375TIP3   OH2 4130   1.144   3.743   4.056
 1375TIP3    H1 4131   1.206   3.707   3.992
 1375TIP3    H2 4132   1.064   3.759   4.005
 1376TIP3   OH2 4133   4.712   4.922   2.692
 1376TIP3    H1 4134   4.668   5.000   2.727
 1376TIP3    H2 4135   4.731   4.869   2.769
 1377TIP3   OH2 4136   0.652   3.808   4.105
 1377TIP3    H1 4137   0.668   3.723   4.147
 1377TIP3    H2 4138   0.737   3.851   4.105
 1378TIP3   OH2 4139   2.087   0.317   0.396
 1378TIP3    H1 4140   2.102   0.276   0.481
 1378TIP3    H2 4141   2.091   0.411   0.413
 1379TIP3   OH2 4142   1.120   5.922   0.684
 1379TIP3    H1 4143   1.116   5.930   0.589
 1379TIP3    H2 4144   1.201   5.965   0.709
 1380TIP3   OH2 4145   0.942   5.714   2.940
 1380TIP3    H1 4146   0.982   5.662   3.009
 1380TIP3    H2 4147   0.962   5.805   2.964
 1381TIP3   OH2 4148   5.532   3.205   4.315
 1381TIP3    H1 4149   5.599   3.137   4.328
 1381TIP3    H2 4150   5.573   3.267   4.255
 1382TIP3   OH2 4151   4.793   3.990   1.336
 1382TIP3    H1 4152   4.854   3.917   1.324
 1382TIP3    H2 4153   4.846   4.068   1.316
 1383TIP3   OH2 4154   4.263   2.952   3.779
 1383TIP3    H1 4155   4.306   3.027   3.819
 1383TIP3    H2 4156   4.326   2.880   3.788
 1384TIP3   OH2 4157   0.579   0.260   2.423
 1384TIP3    H1 4158   0.661   0.307   2.412
 1384TIP3    H2 4159   0.544   0.291   2.506
 1385TIP3   OH2 4160   3.562   4.654   1.508
 1385TIP3    H1 4161   3.470   4.636   1.528
 1385TIP3    H2 4162   3.572   4.748   1.526
 1386TIP3   OH2 4163   5.964   3.430   2.437
 1386TIP3    H1 4164   5.891   3.376   2.467
 1386TIP3    H2 4165   6.021   3.438   2.514
 1387TIP3   OH2 4166   1.209   2.660   3.065
 1387TIP3    H1 4167   1.252   2.577   3.043
 1387TIP3    H2 4168   1.265   2.727   3.027
 1388TIP3   OH2 4169   2.333   0.316   3.310
 1388TIP3    H1 4170   2.256   0.291   3.257
 1388TIP3    H2 4171   2.403   0.325   3.246
 1389TIP3   OH2 4172   3.395   4.722   2.631
 1389TIP3    H1 4173   3.445   4.778   2.690
 1389TIP3    H2 4174   3.330   4.779   2.591
 1390TIP3   OH2 4175   1.547   5.883   0.263
 1390TIP3    H1 4176   1.497   5.816   0.215
 1390TIP3    H2 4177   1.541   5.856   0.354
 1391TIP3   OH2 4178   3.471   5.981   4.014
 1391TIP3    H1 4179   3.521   6.031   4.079
 1391TIP3    H2 4180   3.519   5.994   3.932
 1392TIP3   OH2 4181   5.200   3.471   5.137
 1392TIP3    H1 4182   5.282   3.460   5.185
 1392TIP3    H2 4183   5.226   3.470   5.045
 1393TIP3   OH2 4184   4.923   0.690   4.750
 1393TIP3    H1 4185   4.840   0.694   4.701
 1393TIP3    H2 4186   4.932   0.598   4.772
 1394TIP3   OH2 4187   0.746   5.292   2.346
 1394TIP3    H1 4188   0.765   5.249   2.429
 1394TIP3    H2 4189   0.822   5.272   2.291
 1395TIP3   OH2 4190   3.517   4.663   0.166
 1395TIP3    H1 4191   3.545   4.590   0.221
 1395TIP3    H2 4192   3.579   4.733   0.185
 1396TIP3   OH2 4193   2.531   0.731   1.500
 1396TIP3    H1 4194   2.503   0.708   1.411
 1396TIP3    H2 4195   2.559   0.823   1.493
 1397TIP3   OH2 4196   4.469   2.165   1.782
 1397TIP3    H1 4197   4.433   2.185   1.695
 1397TIP3    H2 4198   4.489   2.072   1.779
 1398TIP3   OH2 4199   4.286   3.098   3.537
 1398TIP3    H1 4200   4.240   3.181   3.530
 1398TIP3    H2 4201   4.282   3.075   3.630
 1399TIP3   OH2 4202   5.133   3.189   2.307
 1399TIP3    H1 4203   5.180   3.111   2.338
 1399TIP3    H2 4204   5.126   3.245   2.384
 1400TIP3   OH2 4205   0.756   3.023   0.044
 1400TIP3    H1 4206   0.835   3.019   0.098
 1400TIP3    H2 4207   0.696   2.961   0.085
 1401TIP3   OH2 4208   5.741   2.010   2.405
 1401TIP3    H1 4209   5.680   2.065   2.356
 1401TIP3    H2 4210   5.695   1.989   2.486
 1402TIP3   OH2 4211   2.035   1.537   4.606
 1402TIP3    H1 4212   1.964   1.583   4.562
 1402TIP3    H2 4213   2.107   1.600   4.608
 1403TIP3   OH2 4214   2.759   4.028   1.484
 1403TIP3    H1 4215   2.832   4.075   1.442
 1403TIP3    H2 4216   2.681   4.070   1.448
 1404TIP3   OH2 4217   3.077   5.784   0.724
 1404TIP3    H1 4218   3.022   5.862   0.716
 1404TIP3    H2 4219   3.040   5.722   0.661
 1405TIP3   OH2 4220   4.470   1.965   3.503
 1405TIP3    H1 4221   4.564   1.958   3.520
 1405TIP3    H2 4222   4.462   1.955   3.408
 1406TIP3   OH2 4223   3.992   3.825   4.775
 1406TIP3    H1 4224   3.909   3.820   4.821
 1406TIP3    H2 4225   3.975   3.883   4.701
 1407TIP3   OH2 4226   3.288   0.167   4.681
 1407TIP3    H1 4227   3.358   0.149   4.619
 1407TIP3    H2 4228   3.333   0.195   4.761
 1408TIP3   OH2 4229   4.323   1.181   2.852
 1408TIP3    H1 4230   4.363   1.129   2.921
 1408TIP3    H2 4231   4.240   1.212   2.889
 1409TIP3   OH2 4232   2.728   4.452   0.517
 1409TIP3    H1 4233   2.677   4.405   0.582
 1409TIP3    H2 4234   2.769   4.524   0.565
 1410TIP3   OH2 4235   5.196   0.086   4.248
 1410TIP3    H1 4236   5.241   0.101   4.331
 1410TIP3    H2 4237   5.142   0.164   4.236
 1411TIP3   OH2 4238   0.370   4.957   1.575
 1411TIP3    H1 4239   0.346   4.937   1.666
 1411TIP3    H2 4240   0.366   5.053   1.571
 1412TIP3   OH2 4241   5.822   3.769   4.341
 1412TIP3    H1 4242   5.889   3.728   4.286
 1412TIP3    H2 4243   5.739   3.745   4.299
 1413TIP3   OH2 4244   5.291   1.901   4.149
 1413TIP3    H1 4245   5.259   1.967   4.210
 1413TIP3    H2 4246   5.247   1.820   4.177
 1414TIP3   OH2 4247   5.961   0.046   1.374
 1414TIP3    H1 4248   6.009  -0.014   1.431
 1414TIP3    H2 4249   5.968   0.131   1.417
 1415TIP3   OH2 4250   2.982   5.163   2.687
 1415TIP3    H1 4251   2.932   5.096   2.641
 1415TIP3    H2 4252   3.053   5.115   2.730
 1416TIP3   OH2 4253   2.907   3.623   4.158
 1416TIP3    H1 4254   2.896   3.529   4.143
 1416TIP3    H2 4255   2.953   3.629   4.242
 1417TIP3   OH2 4256   3.997   4.767   1.974
 1417TIP3    H1 4257   3.953   4.809   1.900
 1417TIP3    H2 4258   3.944   4.689   1.992
 1418TIP3   OH2 4259   0.087   2.435   3.892
 1418TIP3    H1 4260   0.171   2.480   3.906
 1418TIP3    H2 4261   0.111   2.353   3.848
 1419TIP3   OH2 4262   3.576   1.288   3.478
 1419TIP3    H1 4263   3.494   1.309   3.433
 1419TIP3    H2 4264   3.617   1.373   3.493
 1420TIP3   OH2 4265   3.526   5.806   3.049
 1420TIP3    H1 4266   3.470   5.823   2.973
 1420TIP3    H2 4267   3.573   5.726   3.026
 1421TIP3   OH2 4268   5.528   2.510   2.280
 1421TIP3    H1 4269   5.450   2.461   2.254
 1421TIP3    H2 4270   5.580   2.446   2.330
 1422TIP3   OH2 4271   2.712   2.730   3.705
 1422TIP3    H1 4272   2.794   2.705   3.663
 1422TIP3    H2 4273   2.678   2.648   3.742
 1423TIP3   OH2 4274   5.853   0.061   4.884
 1423TIP3    H1 4275   5.773   0.025   4.844
 1423TIP3    H2 4276   5.827   0.082   4.974
 1424TIP3   OH2 4277   4.691   1.390   4.139
 1424TIP3    H1 4278   4.630   1.360   4.206
 1424TIP3    H2 4279   4.749   1.315   4.124
 1425TIP3   OH2 4280   4.524   0.634   0.926
 1425TIP3    H1 4281   4.463   0.660   0.995
 1425TIP3    H2 4282   4.571   0.559   0.962
 1426TIP3   OH2 4283   5.884   0.380   1.751
 1426TIP3    H1 4284   5.793   0.361   1.770
 1426TIP3    H2 4285   5.920   0.411   1.834
 1427TIP3   OH2 4286   5.721   4.539   1.872
 1427TIP3    H1 4287   5.681   4.574   1.951
 1427TIP3    H2 4288   5.686   4.450   1.865
 1428TIP3   OH2 4289   1.202   1.254   3.847
 1428TIP3    H1 4290   1.166   1.227   3.931
 1428TIP3    H2 4291   1.268   1.187   3.827
 1429TIP3   OH2 4292   3.782   1.742   2.528
 1429TIP3    H1 4293   3.854   1.770   2.472
 1429TIP3    H2 4294   3.704   1.751   2.474
 1430TIP3   OH2 4295   6.023   3.486   3.969
 1430TIP3    H1 4296   6.119   3.487   3.961
 1430TIP3    H2 4297   6.006   3.523   4.055
 1431TIP3   OH2 4298   4.953   5.737   3.268
 1431TIP3    H1 4299   4.912   5.823   3.277
 1431TIP3    H2 4300   4.952   5.700   3.356
 1432TIP3   OH2 4301   6.145   5.612   4.979
 1432TIP3    H1 4302   6.076   5.556   5.012
 1432TIP3    H2 4303   6.216   5.604   5.043
 1433TIP3   OH2 4304   5.730   3.751   0.979
 1433TIP3    H1 4305   5.790   3.795   1.039
 1433TIP3    H2 4306   5.779   3.743   0.897
 1434TIP3   OH2 4307   0.756   2.013   3.594
 1434TIP3    H1 4308   0.799   1.933   3.563
 1434TIP3    H2 4309   0.824   2.060   3.642
 1435TIP3   OH2 4310   2.846   4.476   2.458
 1435TIP3    H1 4311   2.891   4.560   2.468
 1435TIP3    H2 4312   2.753   4.498   2.462
 1436TIP3   OH2 4313   4.345   1.093   1.227
 1436TIP3    H1 4314   4.336   1.029   1.298
 1436TIP3    H2 4315   4.357   1.040   1.148
 1437TIP3   OH2 4316   5.613   3.359   4.676
 1437TIP3    H1 4317   5.650   3.447   4.667
 1437TIP3    H2 4318   5.542   3.357   4.612
 1438TIP3   OH2 4319   4.497   4.550   1.506
 1438TIP3    H1 4320   4.525   4.609   1.576
 1438TIP3    H2 4321   4.409   4.580   1.484
 1439TIP3   OH2 4322   5.640   4.422   1.038
 1439TIP3    H1 4323   5.610   4.414   0.948
 1439TIP3    H2 4324   5.665   4.332   1.063
 1440TIP3   OH2 4325   3.461   1.778   3.547
 1440TIP3    H1 4326   3.416   1.702   3.510
 1440TIP3    H2 4327   3.434   1.779   3.639
 1441TIP3   OH2 4328   5.087   5.741   0.467
 1441TIP3    H1 4329   5.158   5.803   0.484
 1441TIP3    H2 4330   5.035   5.782   0.398
 1442TIP3   OH2 4331   3.740   5.116   4.075
 1442TIP3    H1 4332   3.807   5.129   4.008
 1442TIP3    H2 4333   3.773   5.165   4.151
 1443TIP3   OH2 4334   6.200   4.267   1.602
 1443TIP3    H1 4335   6.191   4.361   1.590
 1443TIP3    H2 4336   6.286   4.256   1.644
 1444TIP3   OH2 4337   2.602   2.947   2.034
 1444TIP3    H1 4338   2.656   3.025   2.020
 1444TIP3    H2 4339   2.528   2.959   1.974
 1445TIP3   OH2 4340   4.942   5.205   0.793
 1445TIP3    H1 4341   4.924   5.119   0.831
 1445TIP3    H2 4342   5.033   5.224   0.819
 1446TIP3   OH2 4343   3.164   4.036   3.080
 1446TIP3    H1 4344   3.179   3.946   3.108
 1446TIP3    H2 4345   3.180   4.088   3.159
 1447TIP3   OH2 4346   5.781   3.771   0.360
 1447TIP3    H1 4347   5.759   3.856   0.323
 1447TIP3    H2 4348   5.858   3.788   0.415
 1448TIP3   OH2 4349   5.819   4.089   3.059
 1448TIP3    H1 4350   5.791   4.095   3.150
 1448TIP3    H2 4351   5.802   3.998   3.035
 1449TIP3   OH2 4352   3.153   2.020   3.426
 1449TIP3    H1 4353   3.132   1.949   3.365
 1449TIP3    H2 4354   3.150   2.099   3.373
 1450TIP3   OH2 4355   3.350   4.052   3.907
 1450TIP3    H1 4356   3.304   3.993   3.847
 1450TIP3    H2 4357   3.287   4.122   3.925
 1451TIP3   OH2 4358   2.210   3.876   0.407
 1451TIP3    H1 4359   2.253   3.934   0.470
 1451TIP3    H2 4360   2.175   3.935   0.340
 1452TIP3   OH2 4361   5.420   5.260   0.069
 1452TIP3    H1 4362   5.360   5.315   0.019
 1452TIP3    H2 4363   5.401   5.281   0.161
 1453TIP3   OH2 4364   0.592   1.432   0.878
 1453TIP3    H1 4365   0.625   1.421   0.789
 1453TIP3    H2 4366   0.665   1.406   0.934
 1454TIP3   OH2 4367   1.238   0.781   3.067
 1454TIP3    H1 4368   1.292   0.760   3.143
 1454TIP3    H2 4369   1.212   0.872   3.081
 1455TIP3   OH2 4370   5.502   1.598   3.958
 1455TIP3    H1 4371   5.525   1.655   4.031
 1455TIP3    H2 4372   5.586   1.578   3.916
 1456TIP3   OH2 4373   0.939   4.833   1.640
 1456TIP3    H1 4374   0.882   4.893   1.688
 1456TIP3    H2 4375   0.917   4.746   1.673
 1457TIP3   OH2 4376   5.230   5.032   4.914
 1457TIP3    H1 4377   5.317   5.005   4.885
 1457TIP3    H2 4378   5.245   5.079   4.995
 1458TIP3   OH2 4379   5.580   5.586   0.274
 1458TIP3    H1 4380   5.590   5.681   0.275
 1458TIP3    H2 4381   5.504   5.570   0.219
 1459TIP3   OH2 4382   4.831   0.917   0.059
 1459TIP3    H1 4383   4.778   0.896   0.135
 1459TIP3    H2 4384   4.916   0.944   0.095
 1460TIP3   OH2 4385   2.146   4.348   4.661
 1460TIP3    H1 4386   2.209   4.331   4.732
 1460TIP3    H2 4387   2.199   4.386   4.591
 1461TIP3   OH2 4388   3.321   1.099   0.711
 1461TIP3    H1 4389   3.363   1.019   0.742
 1461TIP3    H2 4390   3.371   1.123   0.633
 1462TIP3   OH2 4391   3.700   2.074   1.256
 1462TIP3    H1 4392   3.738   2.161   1.267
 1462TIP3    H2 4393   3.751   2.034   1.185
 1463TIP3   OH2 4394   6.333   1.709   2.367
 1463TIP3    H1 4395   6.360   1.796   2.397
 1463TIP3    H2 4396   6.279   1.675   2.438
 1464TIP3   OH2 4397   5.276   5.436   4.669
 1464TIP3    H1 4398   5.254   5.414   4.760
 1464TIP3    H2 4399   5.342   5.505   4.676
 1465TIP3   OH2 4400   4.419   5.705   2.148
 1465TIP3    H1 4401   4.426   5.610   2.158
 1465TIP3    H2 4402   4.325   5.721   2.136
 1466TIP3   OH2 4403   4.989   4.858   3.563
 1466TIP3    H1 4404   5.053   4.873   3.632
 1466TIP3    H2 4405   5.027   4.789   3.509
 1467TIP3   OH2 4406   3.050   1.603   1.378
 1467TIP3    H1 4407   3.028   1.664   1.307
 1467TIP3    H2 4408   3.145   1.605   1.383
 1468TIP3   OH2 4409   6.319   1.276   0.888
 1468TIP3    H1 4410   6.292   1.259   0.798
 1468TIP3    H2 4411   6.303   1.369   0.901
 1469TIP3   OH2 4412   0.094   3.074   2.259
 1469TIP3    H1 4413   0.084   2.982   2.281
 1469TIP3    H2 4414   0.043   3.121   2.325
 1470TIP3   OH2 4415   2.224   4.263   4.089
 1470TIP3    H1 4416   2.225   4.228   4.000
 1470TIP3    H2 4417   2.249   4.190   4.145
 1471TIP3   OH2 4418   4.080   0.207   1.368
 1471TIP3    H1 4419   4.159   0.173   1.326
 1471TIP3    H2 4420   4.027   0.242   1.297
 1472TIP3   OH2 4421   1.991   2.874   5.050
 1472TIP3    H1 4422   1.978   2.822   5.130
 1472TIP3    H2 4423   1.945   2.825   4.982
 1473TIP3   OH2 4424   1.340   4.906   1.906
 1473TIP3    H1 4425   1.282   4.917   1.830
 1473TIP3    H2 4426   1.426   4.933   1.874
 1474TIP3   OH2 4427   0.830   3.832   1.334
 1474TIP3    H1 4428   0.896   3.897   1.358
 1474TIP3    H2 4429   0.861   3.796   1.251
 1475TIP3   OH2 4430   0.785   4.909   3.632
 1475TIP3    H1 4431   0.823   4.954   3.557
 1475TIP3    H2 4432   0.855   4.854   3.666
 1476TIP3   OH2 4433   1.007   3.371   0.571
 1476TIP3    H1 4434   1.007   3.313   0.647
 1476TIP3    H2 4435   1.087   3.349   0.523
 1477TIP3   OH2 4436   0.884   2.496   1.986
 1477TIP3    H1 4437   0.956   2.457   1.937
 1477TIP3    H2 4438   0.922   2.519   2.071
 1478TIP3   OH2 4439   3.003   2.722   4.278
 1478TIP3    H1 4440   3.007   2.811   4.244
 1478TIP3    H2 4441   3.094   2.693   4.283
 1479TIP3   OH2 4442   4.854   1.638   4.224
 1479TIP3    H1 4443   4.844   1.723   4.267
 1479TIP3    H2 4444   4.803   1.646   4.144
 1480TIP3   OH2 4445   1.764   2.367   1.855
 1480TIP3    H1 4446   1.819   2.401   1.926
 1480TIP3    H2 4447   1.724   2.288   1.891
 1481TIP3   OH2 4448   1.033   5.680   4.281
 1481TIP3    H1 4449   1.122   5.714   4.286
 1481TIP3    H2 4450   0.989   5.735   4.216
 1482TIP3   OH2 4451   2.011   2.366   4.216
 1482TIP3    H1 4452   1.927   2.378   4.172
 1482TIP3    H2 4453   2.074   2.412   4.160
 1483TIP3   OH2 4454   4.105   2.233   4.722
 1483TIP3    H1 4455   4.185   2.182   4.731
 1483TIP3    H2 4456   4.135   2.323   4.712
 1484TIP3   OH2 4457   4.247   3.806   0.858
 1484TIP3    H1 4458   4.152   3.802   0.847
 1484TIP3    H2 4459   4.261   3.862   0.934
 1485TIP3   OH2 4460   4.456   5.897   1.603
 1485TIP3    H1 4461   4.475   5.958   1.675
 1485TIP3    H2 4462   4.418   5.820   1.646
 1486TIP3   OH2 4463   3.181   4.656   5.083
 1486TIP3    H1 4464   3.134   4.594   5.028
 1486TIP3    H2 4465   3.203   4.729   5.025
 1487TIP3   OH2 4466   4.017   1.591   2.889
 1487TIP3    H1 4467   3.977   1.536   2.957
 1487TIP3    H2 4468   3.986   1.680   2.909
 1488TIP3   OH2 4469   3.910   4.543   2.668
 1488TIP3    H1 4470   3.831   4.564   2.617
 1488TIP3    H2 4471   3.877   4.512   2.752
 1489TIP3   OH2 4472   0.043   0.169   1.227
 1489TIP3    H1 4473   0.038   0.109   1.153
 1489TIP3    H2 4474   0.122   0.220   1.211
 1490TIP3   OH2 4475   5.733   4.582   4.723
 1490TIP3    H1 4476   5.715   4.636   4.647
 1490TIP3    H2 4477   5.829   4.576   4.726
 1491TIP3   OH2 4478   4.135   4.992   3.691
 1491TIP3    H1 4479   4.162   4.920   3.748
 1491TIP3    H2 4480   4.127   4.951   3.604
 1492TIP3   OH2 4481   5.383   5.676   5.118
 1492TIP3    H1 4482   5.288   5.669   5.121
 1492TIP3    H2 4483   5.401   5.734   5.044
 1493TIP3   OH2 4484   0.879   3.327   3.179
 1493TIP3    H1 4485   0.926   3.410   3.166
 1493TIP3    H2 4486   0.935   3.262   3.137
 1494TIP3   OH2 4487   0.090   1.553   4.944
 1494TIP3    H1 4488   0.133   1.502   4.875
 1494TIP3    H2 4489   0.026   1.493   4.983
 1495TIP3   OH2 4490   3.907   5.725   0.872
 1495TIP3    H1 4491   3.842   5.687   0.813
 1495TIP3    H2 4492   3.873   5.705   0.960
 1496TIP3   OH2 4493   3.679   4.126   0.495
 1496TIP3    H1 4494   3.611   4.079   0.446
 1496TIP3    H2 4495   3.654   4.218   0.489
 1497TIP3   OH2 4496   3.228   0.257   0.229
 1497TIP3    H1 4497   3.280   0.227   0.153
 1497TIP3    H2 4498   3.239   0.352   0.229
 1498TIP3   OH2 4499   1.010   0.313   2.515
 1498TIP3    H1 4500   1.091   0.298   2.466
 1498TIP3    H2 4501   1.027   0.278   2.602
 1499TIP3   OH2 4502  -0.017   3.785   4.078
 1499TIP3    H1 4503  -0.086   3.778   4.013
 1499TIP3    H2 4504   0.063   3.796   4.027
 1500TIP3   OH2 4505   0.709   2.805   4.471
 1500TIP3    H1 4506   0.777   2.814   4.538
 1500TIP3    H2 4507   0.756   2.807   4.388
 1501TIP3   OH2 4508   1.001   4.082   4.267
 1501TIP3    H1 4509   1.088   4.045   4.258
 1501TIP3    H2 4510   0.959   4.066   4.183
 1502TIP3   OH2 4511   1.112   1.179   4.111
 1502TIP3    H1 4512   1.190   1.125   4.095
 1502TIP3    H2 4513   1.046   1.116   4.140
 1503TIP3   OH2 4514   1.709   0.796   0.160
 1503TIP3    H1 4515   1.734   0.709   0.130
 1503TIP3    H2 4516   1.687   0.784   0.253
 1504TIP3   OH2 4517   2.020   2.298   3.133
 1504TIP3    H1 4518   2.016   2.309   3.228
 1504TIP3    H2 4519   2.113   2.300   3.112
 1505TIP3   OH2 4520   0.702   0.363   2.121
 1505TIP3    H1 4521   0.663   0.440   2.080
 1505TIP3    H2 4522   0.738   0.395   2.204
 1506TIP3   OH2 4523   5.315   4.118   2.757
 1506TIP3    H1 4524   5.353   4.045   2.708
 1506TIP3    H2 4525   5.358   4.115   2.843
 1507TIP3   OH2 4526   5.012   1.774   2.396
 1507TIP3    H1 4527   4.954   1.699   2.384
 1507TIP3    H2 4528   5.030   1.806   2.307
 1508TIP3   OH2 4529   3.925   4.135   3.758
 1508TIP3    H1 4530   4.018   4.120   3.739
 1508TIP3    H2 4531   3.879   4.088   3.688
 1509TIP3   OH2 4532   5.068   5.922   1.972
 1509TIP3    H1 4533   4.993   5.955   2.021
 1509TIP3    H2 4534   5.112   6.000   1.939
 1510TIP3   OH2 4535   5.875   1.016   1.709
 1510TIP3    H1 4536   5.794   1.024   1.659
 1510TIP3    H2 4537   5.851   1.043   1.798
 1511TIP3   OH2 4538   5.735   3.564   1.443
 1511TIP3    H1 4539   5.673   3.491   1.448
 1511TIP3    H2 4540   5.813   3.526   1.402
 1512TIP3   OH2 4541   2.144   5.260   2.428
 1512TIP3    H1 4542   2.049   5.257   2.440
 1512TIP3    H2 4543   2.180   5.259   2.517
 1513TIP3   OH2 4544   1.045   3.988   0.757
 1513TIP3    H1 4545   1.119   3.987   0.696
 1513TIP3    H2 4546   1.036   4.080   0.783
 1514TIP3   OH2 4547   5.651   4.687   3.147
 1514TIP3    H1 4548   5.727   4.667   3.091
 1514TIP3    H2 4549   5.686   4.683   3.236
 1515TIP3   OH2 4550   5.844   4.026   4.516
 1515TIP3    H1 4551   5.859   3.969   4.441
 1515TIP3    H2 4552   5.807   3.969   4.582
 1516TIP3   OH2 4553   3.846   5.831   5.048
 1516TIP3    H1 4554   3.762   5.876   5.058
 1516TIP3    H2 4555   3.912   5.898   5.066
 1517TIP3   OH2 4556   0.959   3.495   3.461
 1517TIP3    H1 4557   0.979   3.495   3.367
 1517TIP3    H2 4558   0.869   3.527   3.466
 1518TIP3   OH2 4559   6.358   5.672   2.137
 1518TIP3    H1 4560   6.366   5.703   2.047
 1518TIP3    H2 4561   6.271   5.700   2.165
 1519TIP3   OH2 4562   2.569   0.494   4.534
 1519TIP3    H1 4563   2.516   0.495   4.454
 1519TIP3    H2 4564   2.512   0.528   4.602
 1520TIP3   OH2 4565   2.604   2.294   0.855
 1520TIP3    H1 4566   2.532   2.255   0.805
 1520TIP3    H2 4567   2.624   2.231   0.924
 1521TIP3   OH2 4568   0.503   4.689   4.663
 1521TIP3    H1 4569   0.445   4.709   4.590
 1521TIP3    H2 4570   0.462   4.614   4.706
 1522TIP3   OH2 4571   3.497   1.745   3.820
 1522TIP3    H1 4572   3.581   1.790   3.806
 1522TIP3    H2 4573   3.456   1.792   3.892
 1523TIP3   OH2 4574   2.293   4.056   1.699
 1523TIP3    H1 4575   2.351   3.984   1.675
 1523TIP3    H2 4576   2.302   4.064   1.794
 1524TIP3   OH2 4577   4.900   3.113   3.417
 1524TIP3    H1 4578   4.845   3.105   3.338
 1524TIP3    H2 4579   4.989   3.125   3.383
 1525TIP3   OH2 4580   4.143   1.810   4.653
 1525TIP3    H1 4581   4.187   1.874   4.709
 1525TIP3    H2 4582   4.050   1.833   4.660
 1526TIP3   OH2 4583   3.945   0.277   1.126
 1526TIP3    H1 4584   3.891   0.199   1.140
 1526TIP3    H2 4585   4.012   0.248   1.063
 1527TIP3   OH2 4586   4.321   4.702   4.953
 1527TIP3    H1 4587   4.286   4.741   5.033
 1527TIP3    H2 4588   4.399   4.655   4.981
 1528TIP3   OH2 4589   5.632   0.216   0.432
 1528TIP3    H1 4590   5.597   0.205   0.344
 1528TIP3    H2 4591   5.618   0.308   0.452
 1529TIP3   OH2 4592   0.442   4.389   4.403
 1529TIP3    H1 4593   0.496   4.392   4.324
 1529TIP3    H2 4594   0.352   4.387   4.369
 1530TIP3   OH2 4595   3.167   3.683   2.894
 1530TIP3    H1 4596   3.195   3.695   2.985
 1530TIP3    H2 4597   3.116   3.762   2.874
 1531TIP3   OH2 4598   4.328   2.090   4.747
 1531TIP3    H1 4599   4.421   2.078   4.765
 1531TIP3    H2 4600   4.286   2.091   4.833
 1532TIP3   OH2 4601   3.165   1.607   0.728
 1532TIP3    H1 4602   3.202   1.657   0.656
 1532TIP3    H2 4603   3.234   1.546   0.753
 1533TIP3   OH2 4604   2.177   0.268   0.644
 1533TIP3    H1 4605   2.255   0.320   0.664
 1533TIP3    H2 4606   2.200   0.179   0.671
 1534TIP3   OH2 4607   0.057   0.647   3.114
 1534TIP3    H1 4608   0.041   0.735   3.080
 1534TIP3    H2 4609   0.153   0.637   3.111
 1535TIP3   OH2 4610   0.130   0.846   0.137
 1535TIP3    H1 4611   0.116   0.929   0.091
 1535TIP3    H2 4612   0.224   0.828   0.127
 1536TIP3   OH2 4613   4.711   3.804   0.286
 1536TIP3    H1 4614   4.706   3.723   0.236
 1536TIP3    H2 4615   4.802   3.810   0.314
 1537TIP3   OH2 4616   0.797   3.707   3.161
 1537TIP3    H1 4617   0.790   3.794   3.121
 1537TIP3    H2 4618   0.765   3.647   3.093
 1538TIP3   OH2 4619   6.146   1.254   3.417
 1538TIP3    H1 4620   6.133   1.347   3.434
 1538TIP3    H2 4621   6.210   1.251   3.347
 1539TIP3   OH2 4622   3.909   1.584   1.934
 1539TIP3    H1 4623   3.993   1.539   1.945
 1539TIP3    H2 4624   3.918   1.634   1.853
 1540TIP3   OH2 4625   1.562   0.332   3.644
 1540TIP3    H1 4626   1.604   0.257   3.685
 1540TIP3    H2 4627   1.509   0.294   3.574
 1541TIP3   OH2 4628   0.270   3.609   2.560
 1541TIP3    H1 4629   0.338   3.671   2.533
 1541TIP3    H2 4630   0.292   3.587   2.650
 1542TIP3   OH2 4631   6.332   3.947   2.168
 1542TIP3    H1 4632   6.397   3.970   2.102
 1542TIP3    H2 4633   6.314   3.854   2.153
 1543TIP3   OH2 4634   4.298   2.473   4.935
 1543TIP3    H1 4635   4.245   2.426   5.000
 1543TIP3    H2 4636   4.234   2.509   4.874
 1544TIP3   OH2 4637   0.631   4.136   0.803
 1544TIP3    H1 4638   0.536   4.122   0.808
 1544TIP3    H2 4639   0.656   4.099   0.718
 1545TIP3   OH2 4640   3.043   2.851   3.351
 1545TIP3    H1 4641   3.113   2.912   3.377
 1545TIP3    H2 4642   3.026   2.799   3.429
 1546TIP3   OH2 4643   5.792   3.499   0.592
 1546TIP3    H1 4644   5.753   3.455   0.516
 1546TIP3    H2 4645   5.885   3.479   0.585
 1547TIP3   OH2 4646   0.574   3.702   2.614
 1547TIP3    H1 4647   0.532   3.653   2.685
 1547TIP3    H2 4648   0.668   3.696   2.634
 1548TIP3   OH2 4649   1.038   4.312   2.451
 1548TIP3    H1 4650   0.998   4.226   2.466
 1548TIP3    H2 4651   0.968   4.374   2.470
 1549TIP3   OH2 4652   3.735   3.153   1.968
 1549TIP3    H1 4653   3.771   3.103   1.895
 1549TIP3    H2 4654   3.645   3.123   1.976
 1550TIP3   OH2 4655   4.131   1.268   4.005
 1550TIP3    H1 4656   4.194   1.196   4.015
 1550TIP3    H2 4657   4.048   1.231   4.036
 1551TIP3   OH2 4658   2.655   4.789   2.629
 1551TIP3    H1 4659   2.631   4.834   2.548
 1551TIP3    H2 4660   2.618   4.701   2.621
 1552TIP3   OH2 4661   3.271   3.241   2.906
 1552TIP3    H1 4662   3.362   3.211   2.908
 1552TIP3    H2 4663   3.227   3.177   2.850
 1553TIP3   OH2 4664   5.360   0.265   2.604
 1553TIP3    H1 4665   5.319   0.271   2.690
 1553TIP3    H2 4666   5.403   0.179   2.604
 1554TIP3   OH2 4667   3.528   2.679   1.646
 1554TIP3    H1 4668   3.489   2.763   1.621
 1554TIP3    H2 4669   3.499   2.618   1.578
 1555TIP3   OH2 4670   3.524   2.505   2.527
 1555TIP3    H1 4671   3.448   2.460   2.565
 1555TIP3    H2 4672   3.586   2.435   2.507
 1556TIP3   OH2 4673   3.488   5.694   3.511
 1556TIP3    H1 4674   3.442   5.690   3.426
 1556TIP3    H2 4675   3.444   5.629   3.565
 1557TIP3   OH2 4676   0.311   5.995   1.594
 1557TIP3    H1 4677   0.240   5.934   1.578
 1557TIP3    H2 4678   0.385   5.958   1.546
 1558TIP3   OH2 4679   5.336   1.071   0.374
 1558TIP3    H1 4680   5.324   1.088   0.281
 1558TIP3    H2 4681   5.267   1.122   0.417
 1559TIP3   OH2 4682   1.845   0.655   3.892
 1559TIP3    H1 4683   1.839   0.750   3.885
 1559TIP3    H2 4684   1.804   0.623   3.811
 1560TIP3   OH2 4685   5.581   2.803   1.562
 1560TIP3    H1 4686   5.640   2.868   1.523
 1560TIP3    H2 4687   5.631   2.767   1.636
 1561TIP3   OH2 4688   2.282   1.876   0.714
 1561TIP3    H1 4689   2.190   1.882   0.740
 1561TIP3    H2 4690   2.300   1.782   0.715
 1562TIP3   OH2 4691   3.135   3.167   3.740
 1562TIP3    H1 4692   3.147   3.075   3.716
 1562TIP3    H2 4693   3.219   3.208   3.718
 1563TIP3   OH2 4694   4.382   3.056   4.416
 1563TIP3    H1 4695   4.338   3.141   4.417
 1563TIP3    H2 4696   4.371   3.024   4.326
 1564TIP3   OH2 4697   4.373   4.953   0.257
 1564TIP3    H1 4698   4.413   4.881   0.208
 1564TIP3    H2 4699   4.403   5.032   0.211
 1565TIP3   OH2 4700   3.729   1.676   1.502
 1565TIP3    H1 4701   3.659   1.612   1.513
 1565TIP3    H2 4702   3.806   1.635   1.540
 1566TIP3   OH2 4703   4.989   0.533   3.086
 1566TIP3    H1 4704   5.016   0.586   3.011
 1566TIP3    H2 4705   4.988   0.594   3.160
 1567TIP3   OH2 4706   4.988   0.632   4.119
 1567TIP3    H1 4707   4.921   0.662   4.058
 1567TIP3    H2 4708   5.046   0.708   4.130
 1568TIP3   OH2 4709   5.424   4.975   2.699
 1568TIP3    H1 4710   5.344   4.924   2.690
 1568TIP3    H2 4711   5.431   4.993   2.793
 1569TIP3   OH2 4712   3.854   3.896   1.285
 1569TIP3    H1 4713   3.892   3.838   1.351
 1569TIP3    H2 4714   3.783   3.941   1.330
 1570TIP3   OH2 4715   6.115   5.171   0.847
 1570TIP3    H1 4716   6.141   5.189   0.938
 1570TIP3    H2 4717   6.116   5.076   0.840
 1571TIP3   OH2 4718   2.844   5.906   2.086
 1571TIP3    H1 4719   2.832   5.945   1.999
 1571TIP3    H2 4720   2.814   5.974   2.147
 1572TIP3   OH2 4721   0.146   0.800   1.395
 1572TIP3    H1 4722   0.103   0.881   1.368
 1572TIP3    H2 4723   0.221   0.791   1.336
 1573TIP3   OH2 4724   2.231   5.089   0.822
 1573TIP3    H1 4725   2.317   5.063   0.853
 1573TIP3    H2 4726   2.170   5.058   0.889
 1574TIP3   OH2 4727   2.657   5.759   0.206
 1574TIP3    H1 4728   2.601   5.821   0.253
 1574TIP3    H2 4729   2.713   5.815   0.151
 1575TIP3   OH2 4730   4.467   0.756   3.376
 1575TIP3    H1 4731   4.560   0.761   3.353
 1575TIP3    H2 4732   4.441   0.847   3.389
 1576TIP3   OH2 4733   5.342   1.767   2.075
 1576TIP3    H1 4734   5.423   1.716   2.078
 1576TIP3    H2 4735   5.358   1.841   2.133
 1577TIP3   OH2 4736   0.236   4.029   2.948
 1577TIP3    H1 4737   0.215   4.040   2.855
 1577TIP3    H2 4738   0.152   4.011   2.990
 1578TIP3   OH2 4739   2.189   1.691   3.538
 1578TIP3    H1 4740   2.224   1.661   3.454
 1578TIP3    H2 4741   2.262   1.740   3.578
 1579TIP3   OH2 4742   0.985   0.469   3.624
 1579TIP3    H1 4743   1.005   0.416   3.547
 1579TIP3    H2 4744   0.989   0.559   3.594
 1580TIP3   OH2 4745   1.651   0.765   1.214
 1580TIP3    H1 4746   1.626   0.759   1.306
 1580TIP3    H2 4747   1.745   0.748   1.214
 1581TIP3   OH2 4748   4.625   0.173   3.153
 1581TIP3    H1 4749   4.643   0.082   3.128
 1581TIP3    H2 4750   4.674   0.225   3.090
 1582TIP3   OH2 4751   0.308   0.541   3.720
 1582TIP3    H1 4752   0.307   0.563   3.813
 1582TIP3    H2 4753   0.227   0.580   3.686
 1583TIP3   OH2 4754   2.150   3.607   0.434
 1583TIP3    H1 4755   2.204   3.552   0.377
 1583TIP3    H2 4756   2.186   3.695   0.424
 1584TIP3   OH2 4757   1.511   2.345   2.159
 1584TIP3    H1 4758   1.454   2.287   2.208
 1584TIP3    H2 4759   1.534   2.295   2.080
 1585TIP3   OH2 4760   4.266   1.000   2.164
 1585TIP3    H1 4761   4.234   0.938   2.230
 1585TIP3    H2 4762   4.262   1.085   2.206
 1586TIP3   OH2 4763   5.895   5.756   1.269
 1586TIP3    H1 4764   5.901   5.662   1.249
 1586TIP3    H2 4765   5.894   5.798   1.183
 1587TIP3   OH2 4766   3.342   1.186   2.969
 1587TIP3    H1 4767   3.387   1.138   3.039
 1587TIP3    H2 4768   3.399   1.261   2.951
 1588TIP3   OH2 4769   1.810   2.650   1.196
 1588TIP3    H1 4770   1.777   2.709   1.263
 1588TIP3    H2 4771   1.862   2.706   1.138
 1589TIP3   OH2 4772   4.194   2.478   4.413
 1589TIP3    H1 4773   4.274   2.426   4.425
 1589TIP3    H2 4774   4.214   2.536   4.339
 1590TIP3   OH2 4775   5.947   1.742   3.418
 1590TIP3    H1 4776   5.925   1.802   3.346
 1590TIP3    H2 4777   6.010   1.791   3.471
 1591TIP3   OH2 4778   2.196   4.262   2.839
 1591TIP3    H1 4779   2.147   4.230   2.914
 1591TIP3    H2 4780   2.256   4.327   2.875
 1592TIP3   OH2 4781   0.754   4.206   4.324
 1592TIP3    H1 4782   0.822   4.141   4.345
 1592TIP3    H2 4783   0.672   4.159   4.337
 1593TIP3   OH2 4784   4.102   0.369   1.574
 1593TIP3    H1 4785   4.096   0.311   1.498
 1593TIP3    H2 4786   4.011   0.378   1.604
 1594TIP3   OH2 4787   3.762   2.083   2.597
 1594TIP3    H1 4788   3.837   2.024   2.606
 1594TIP3    H2 4789   3.700   2.035   2.543
 1595TIP3   OH2 4790   2.028   4.504   1.260
 1595TIP3    H1 4791   1.988   4.587   1.237
 1595TIP3    H2 4792   2.120   4.513   1.234
 1596TIP3   OH2 4793   5.682   5.224   4.325
 1596TIP3    H1 4794   5.679   5.168   4.247
 1596TIP3    H2 4795   5.590   5.240   4.347
 1597TIP3   OH2 4796   4.732   0.806   1.558
 1597TIP3    H1 4797   4.643   0.798   1.524
 1597TIP3    H2 4798   4.747   0.725   1.606
 1598TIP3   OH2 4799   2.273   3.038   0.897
 1598TIP3    H1 4800   2.264   3.115   0.842
 1598TIP3    H2 4801   2.342   2.986   0.855
 1599TIP3   OH2 4802   2.014   1.411   3.276
 1599TIP3    H1 4803   2.001   1.394   3.369
 1599TIP3    H2 4804   2.036   1.504   3.271
 1600TIP3   OH2 4805   5.357   2.914   2.063
 1600TIP3    H1 4806   5.283   2.974   2.051
 1600TIP3    H2 4807   5.376   2.882   1.975
 1601TIP3   OH2 4808   2.653   5.203   1.363
 1601TIP3    H1 4809   2.671   5.133   1.300
 1601TIP3    H2 4810   2.641   5.281   1.308
 1602TIP3   OH2 4811   1.698   2.756   0.563
 1602TIP3    H1 4812   1.618   2.806   0.548
 1602TIP3    H2 4813   1.675   2.666   0.539
 1603TIP3   OH2 4814   5.277   0.358   0.500
 1603TIP3    H1 4815   5.304   0.386   0.587
 1603TIP3    H2 4816   5.183   0.342   0.508
 1604TIP3   OH2 4817   1.826   3.251   4.105
 1604TIP3    H1 4818   1.876   3.312   4.050
 1604TIP3    H2 4819   1.770   3.307   4.158
 1605TIP3   OH2 4820   2.463   1.320   1.813
 1605TIP3    H1 4821   2.498   1.274   1.890
 1605TIP3    H2 4822   2.540   1.340   1.760
 1606TIP3   OH2 4823   5.132   0.622   2.447
 1606TIP3    H1 4824   5.079   0.542   2.445
 1606TIP3    H2 4825   5.201   0.607   2.382
 1607TIP3   OH2 4826   0.366   0.685   2.993
 1607TIP3    H1 4827   0.427   0.611   2.995
 1607TIP3    H2 4828   0.364   0.716   3.084
 1608TIP3   OH2 4829   0.777   0.515   2.941
 1608TIP3    H1 4830   0.708   0.523   3.006
 1608TIP3    H2 4831   0.857   0.500   2.992
 1609TIP3   OH2 4832   1.846   0.086   3.317
 1609TIP3    H1 4833   1.809   0.162   3.273
 1609TIP3    H2 4834   1.878   0.120   3.401
 1610TIP3   OH2 4835   3.967   3.479   3.748
 1610TIP3    H1 4836   3.925   3.565   3.741
 1610TIP3    H2 4837   3.895   3.417   3.745
 1611TIP3   OH2 4838   6.182   1.579   3.712
 1611TIP3    H1 4839   6.272   1.570   3.743
 1611TIP3    H2 4840   6.134   1.615   3.787
 1612TIP3   OH2 4841   4.018   4.269   1.458
 1612TIP3    H1 4842   4.060   4.184   1.472
 1612TIP3    H2 4843   3.929   4.248   1.432
 1613TIP3   OH2 4844   1.379   0.784   3.345
 1613TIP3    H1 4845   1.469   0.807   3.322
 1613TIP3    H2 4846   1.379   0.782   3.441
 1614TIP3   OH2 4847   2.897   1.901   4.338
 1614TIP3    H1 4848   2.885   1.860   4.252
 1614TIP3    H2 4849   2.881   1.994   4.323
 1615TIP3   OH2 4850   5.154   4.079   0.023
 1615TIP3    H1 4851   5.144   4.173   0.005
 1615TIP3    H2 4852   5.143   4.073   0.118
 1616TIP3   OH2 4853   0.416   3.627   2.819
 1616TIP3    H1 4854   0.418   3.654   2.911
 1616TIP3    H2 4855   0.364   3.546   2.819
 1617TIP3   OH2 4856   2.194   3.947   3.971
 1617TIP3    H1 4857   2.155   3.929   4.056
 1617TIP3    H2 4858   2.220   3.862   3.937
 1618TIP3   OH2 4859   4.350   4.148   4.301
 1618TIP3    H1 4860   4.352   4.242   4.289
 1618TIP3    H2 4861   4.271   4.131   4.352
 1619TIP3   OH2 4862   3.818   3.708   3.123
 1619TIP3    H1 4863   3.873   3.784   3.111
 1619TIP3    H2 4864   3.874   3.633   3.102
 1620TIP3   OH2 4865   0.142   2.445   1.534
 1620TIP3    H1 4866   0.135   2.357   1.571
 1620TIP3    H2 4867   0.057   2.460   1.492
 1621TIP3   OH2 4868   3.494   4.822   1.940
 1621TIP3    H1 4869   3.475   4.729   1.949
 1621TIP3    H2 4870   3.490   4.838   1.846
 1622TIP3   OH2 4871   6.298   1.683   1.750
 1622TIP3    H1 4872   6.221   1.630   1.768
 1622TIP3    H2 4873   6.365   1.620   1.722
 1623TIP3   OH2 4874   5.483   2.051   0.255
 1623TIP3    H1 4875   5.420   2.020   0.191
 1623TIP3    H2 4876   5.503   1.975   0.309
 1624TIP3   OH2 4877   1.238   5.955   1.157
 1624TIP3    H1 4878   1.254   6.037   1.110
 1624TIP3    H2 4879   1.143   5.947   1.159
 1625TIP3   OH2 4880   1.535   4.436   1.468
 1625TIP3    H1 4881   1.593   4.376   1.420
 1625TIP3    H2 4882   1.452   4.390   1.474
 1626TIP3   OH2 4883   5.381   3.508   2.495
 1626TIP3    H1 4884   5.465   3.499   2.450
 1626TIP3    H2 4885   5.329   3.564   2.437
 1627TIP3   OH2 4886   2.695   5.253   1.996
 1627TIP3    H1 4887   2.616   5.303   2.018
 1627TIP3    H2 4888   2.669   5.198   1.922
 1628TIP3   OH2 4889   6.117   0.698   0.526
 1628TIP3    H1 4890   6.188   0.728   0.469
 1628TIP3    H2 4891   6.155   0.695   0.614
 1629TIP3   OH2 4892   0.791   5.095   2.570
 1629TIP3    H1 4893   0.697   5.088   2.553
 1629TIP3    H2 4894   0.810   5.025   2.632
 1630TIP3   OH2 4895   4.960   1.160   0.862
 1630TIP3    H1 4896   4.885   1.217   0.846
 1630TIP3    H2 4897   4.935   1.108   0.938
 1631TIP3   OH2 4898   5.415   5.431   0.846
 1631TIP3    H1 4899   5.489   5.371   0.844
 1631TIP3    H2 4900   5.445   5.505   0.900
 1632TIP3   OH2 4901   4.853   0.534   4.454
 1632TIP3    H1 4902   4.784   0.573   4.507
 1632TIP3    H2 4903   4.932   0.585   4.476
 1633TIP3   OH2 4904   5.862   4.920   2.911
 1633TIP3    H1 4905   5.787   4.860   2.909
 1633TIP3    H2 4906   5.833   4.995   2.859
 1634TIP3   OH2 4907   5.330   3.860   4.247
 1634TIP3    H1 4908   5.333   3.955   4.234
 1634TIP3    H2 4909   5.311   3.848   4.340
 1635TIP3   OH2 4910   2.756   1.099   0.667
 1635TIP3    H1 4911   2.687   1.056   0.718
 1635TIP3    H2 4912   2.838   1.065   0.705
 1636TIP3   OH2 4913   1.830   4.558   1.513
 1636TIP3    H1 4914   1.876   4.549   1.430
 1636TIP3    H2 4915   1.789   4.644   1.509
 1637TIP3   OH2 4916   5.970   0.668   3.454
 1637TIP3    H1 4917   5.880   0.699   3.464
 1637TIP3    H2 4918   5.962   0.573   3.447
 1638TIP3   OH2 4919   1.968   1.974   4.623
 1638TIP3    H1 4920   1.956   2.005   4.534
 1638TIP3    H2 4921   2.008   2.048   4.669
 1639TIP3   OH2 4922   5.529   4.874   1.940
 1639TIP3    H1 4923   5.609   4.854   1.990
 1639TIP3    H2 4924   5.469   4.803   1.962
 1640TIP3   OH2 4925   5.785   5.284   0.453
 1640TIP3    H1 4926   5.825   5.303   0.368
 1640TIP3    H2 4927   5.768   5.370   0.491
 1641TIP3   OH2 4928   5.582   5.738   2.949
 1641TIP3    H1 4929   5.637   5.812   2.977
 1641TIP3    H2 4930   5.573   5.749   2.855
 1642TIP3   OH2 4931   5.280   3.656   1.569
 1642TIP3    H1 4932   5.347   3.699   1.517
 1642TIP3    H2 4933   5.253   3.723   1.633
 1643TIP3   OH2 4934   1.409   4.324   3.485
 1643TIP3    H1 4935   1.460   4.277   3.550
 1643TIP3    H2 4936   1.322   4.285   3.489
 1644TIP3   OH2 4937   3.318   1.008   3.694
 1644TIP3    H1 4938   3.307   0.913   3.701
 1644TIP3    H2 4939   3.392   1.019   3.634
 1645TIP3   OH2 4940   0.080   5.668   3.985
 1645TIP3    H1 4941   0.033   5.710   4.057
 1645TIP3    H2 4942   0.046   5.711   3.906
 1646TIP3   OH2 4943   4.166   5.306   2.827
 1646TIP3    H1 4944   4.192   5.378   2.884
 1646TIP3    H2 4945   4.248   5.259   2.807
 1647TIP3   OH2 4946   5.148   2.452   3.771
 1647TIP3    H1 4947   5.148   2.405   3.854
 1647TIP3    H2 4948   5.136   2.544   3.795
 1648TIP3   OH2 4949   5.651   1.111   1.572
 1648TIP3    H1 4950   5.696   1.189   1.603
 1648TIP3    H2 4951   5.561   1.140   1.554
 1649TIP3   OH2 4952   0.815   4.751   3.970
 1649TIP3    H1 4953   0.884   4.808   3.934
 1649TIP3    H2 4954   0.858   4.705   4.042
 1650TIP3   OH2 4955   2.006   5.131   1.321
 1650TIP3    H1 4956   2.036   5.220   1.336
 1650TIP3    H2 4957   1.913   5.133   1.340
 1651TIP3   OH2 4958   4.077   3.735   3.323
 1651TIP3    H1 4959   4.095   3.685   3.403
 1651TIP3    H2 4960   4.069   3.668   3.254
 1652TIP3   OH2 4961   0.142   4.223   3.685
 1652TIP3    H1 4962   0.233   4.208   3.709
 1652TIP3    H2 4963   0.136   4.317   3.670
 1653TIP3   OH2 4964   2.249   4.043   4.271
 1653TIP3    H1 4965   2.200   4.086   4.340
 1653TIP3    H2 4966   2.247   3.950   4.293
 1654TIP3   OH2 4967   5.461   4.754   3.718
 1654TIP3    H1 4968   5.474   4.683   3.782
 1654TIP3    H2 4969   5.533   4.814   3.734
 1655TIP3   OH2 4970   3.688   0.260   1.971
 1655TIP3    H1 4971   3.628   0.273   1.897
 1655TIP3    H2 4972   3.633   0.222   2.039
 1656TIP3   OH2 4973   5.672   1.797   4.148
 1656TIP3    H1 4974   5.636   1.879   4.182
 1656TIP3    H2 4975   5.686   1.743   4.226
 1657TIP3   OH2 4976   0.026   3.203   4.038
 1657TIP3    H1 4977  -0.037   3.274   4.021
 1657TIP3    H2 4978   0.091   3.242   4.096
 1658TIP3   OH2 4979   2.962   3.501   2.779
 1658TIP3    H1 4980   3.023   3.575   2.786
 1658TIP3    H2 4981   3.011   3.434   2.732
 1659TIP3   OH2 4982   2.143   1.784   4.283
 1659TIP3    H1 4983   2.116   1.797   4.193
 1659TIP3    H2 4984   2.099   1.704   4.310
 1660TIP3   OH2 4985   3.569   1.584   2.385
 1660TIP3    H1 4986   3.569   1.580   2.290
 1660TIP3    H2 4987   3.624   1.511   2.413
 1661TIP3   OH2 4988   1.289   3.123   1.988
 1661TIP3    H1 4989   1.382   3.132   2.008
 1661TIP3    H2 4990   1.268   3.033   2.012
 1662TIP3   OH2 4991   1.801   4.737   3.264
 1662TIP3    H1 4992   1.706   4.751   3.260
 1662TIP3    H2 4993   1.838   4.825   3.261
 1663TIP3   OH2 4994   2.428   5.279   3.398
 1663TIP3    H1 4995   2.339   5.255   3.426
 1663TIP3    H2 4996   2.476   5.293   3.479
 1664TIP3   OH2 4997   5.015   2.681   3.855
 1664TIP3    H1 4998   4.962   2.725   3.789
 1664TIP3    H2 4999   5.095   2.733   3.860
 1665TIP3   OH2 5000   1.496   5.248   1.997
 1665TIP3    H1 5001   1.474   5.168   2.045
 1665TIP3    H2 5002   1.419   5.266   1.943
 1666TIP3   OH2 5003   1.179   4.785   3.194
 1666TIP3    H1 5004   1.231   4.822   3.265
 1666TIP3    H2 5005   1.199   4.691   3.195
 1667TIP3   OH2 5006   5.511   0.621   1.895
 1667TIP3    H1 5007   5.578   0.686   1.874
 1667TIP3    H2 5008   5.456   0.662   1.960
 1668TIP3   OH2 5009   2.190   2.138   3.492
 1668TIP3    H1 5010   2.218   2.217   3.445
 1668TIP3    H2 5011   2.165   2.170   3.578
 1669TIP3   OH2 5012   1.250   5.657   2.392
 1669TIP3    H1 5013   1.288   5.585   2.442
 1669TIP3    H2 5014   1.155   5.645   2.400
 1670TIP3   OH2 5015   2.087   0.774   2.067
 1670TIP3    H1 5016   2.067   0.756   1.975
 1670TIP3    H2 5017   2.169   0.728   2.083
 1671TIP3   OH2 5018   2.439   0.075   4.820
 1671TIP3    H1 5019   2.459  -0.017   4.804
 1671TIP3    H2 5020   2.360   0.073   4.874
 1672TIP3   OH2 5021   1.248   2.765   0.976
 1672TIP3    H1 5022   1.336   2.754   0.938
 1672TIP3    H2 5023   1.218   2.849   0.940
 1673TIP3   OH2 5024   4.009   3.428   0.151
 1673TIP3    H1 5025   4.040   3.515   0.178
 1673TIP3    H2 5026   3.921   3.422   0.188
 1674TIP3   OH2 5027   4.112   1.986   0.088
 1674TIP3    H1 5028   4.156   2.044   0.025
 1674TIP3    H2 5029   4.147   2.012   0.173
 1675TIP3   OH2 5030   4.988   5.231   0.511
 1675TIP3    H1 5031   4.988   5.248   0.605
 1675TIP3    H2 5032   4.971   5.137   0.503
 1676TIP3   OH2 5033   2.796   3.168   2.472
 1676TIP3    H1 5034   2.747   3.167   2.390
 1676TIP3    H2 5035   2.733   3.142   2.539
 1677TIP3   OH2 5036   2.583   2.940   3.571
 1677TIP3    H1 5037   2.518   2.890   3.522
 1677TIP3    H2 5038   2.631   2.874   3.622
 1678TIP3   OH2 5039   2.642   2.115   2.833
 1678TIP3    H1 5040   2.592   2.057   2.775
 1678TIP3    H2 5041   2.612   2.203   2.810
 1679TIP3   OH2 5042   2.983   1.916   0.316
 1679TIP3    H1 5043   2.913   1.853   0.332
 1679TIP3    H2 5044   3.027   1.926   0.400
 1680TIP3   OH2 5045   3.902   5.574   4.252
 1680TIP3    H1 5046   3.862   5.630   4.318
 1680TIP3    H2 5047   3.982   5.541   4.294
 1681TIP3   OH2 5048   3.793   4.264   2.182
 1681TIP3    H1 5049   3.833   4.186   2.143
 1681TIP3    H2 5050   3.700   4.242   2.190
 1682TIP3   OH2 5051   4.424   1.670   3.139
 1682TIP3    H1 5052   4.426   1.764   3.157
 1682TIP3    H2 5053   4.512   1.639   3.161
 1683TIP3   OH2 5054   5.982   3.434   3.670
 1683TIP3    H1 5055   5.979   3.384   3.752
 1683TIP3    H2 5056   5.894   3.427   3.634
 1684TIP3   OH2 5057   3.254   4.981   1.964
 1684TIP3    H1 5058   3.286   4.919   1.899
 1684TIP3    H2 5059   3.261   4.934   2.047
 1685TIP3   OH2 5060   3.082   2.156   0.724
 1685TIP3    H1 5061   3.043   2.194   0.646
 1685TIP3    H2 5062   3.125   2.229   0.768
 1686TIP3   OH2 5063   4.780   3.426   1.586
 1686TIP3    H1 5064   4.761   3.511   1.626
 1686TIP3    H2 5065   4.875   3.417   1.592
 1687TIP3   OH2 5066   1.509   0.024   4.300
 1687TIP3    H1 5067   1.468   0.107   4.277
 1687TIP3    H2 5068   1.594   0.025   4.254
 1688TIP3   OH2 5069   5.491   3.776   3.327
 1688TIP3    H1 5070   5.523   3.861   3.296
 1688TIP3    H2 5071   5.554   3.749   3.393
 1689TIP3   OH2 5072   5.357   5.741   3.816
 1689TIP3    H1 5073   5.373   5.792   3.737
 1689TIP3    H2 5074   5.359   5.650   3.787
 1690TIP3   OH2 5075   5.820   3.627   1.758
 1690TIP3    H1 5076   5.798   3.574   1.681
 1690TIP3    H2 5077   5.774   3.584   1.830
 1691TIP3   OH2 5078   2.328   4.866   5.165
 1691TIP3    H1 5079   2.284   4.783   5.151
 1691TIP3    H2 5080   2.352   4.896   5.078
 1692TIP3   OH2 5081   4.975   3.013   3.876
 1692TIP3    H1 5082   4.913   2.955   3.921
 1692TIP3    H2 5083   5.021   2.956   3.815
 1693TIP3   OH2 5084   4.104   3.873   1.152
 1693TIP3    H1 5085   4.056   3.796   1.121
 1693TIP3    H2 5086   4.036   3.929   1.190
 1694TIP3   OH2 5087   6.096   3.400   5.081
 1694TIP3    H1 5088   6.123   3.483   5.121
 1694TIP3    H2 5089   6.159   3.387   5.010
 1695TIP3   OH2 5090   4.853   3.855   0.974
 1695TIP3    H1 5091   4.877   3.776   1.022
 1695TIP3    H2 5092   4.809   3.823   0.895
 1696TIP3   OH2 5093   0.887   2.758   1.410
 1696TIP3    H1 5094   0.982   2.754   1.400
 1696TIP3    H2 5095   0.872   2.745   1.503
 1697TIP3   OH2 5096   2.203   2.678   1.113
 1697TIP3    H1 5097   2.286   2.680   1.065
 1697TIP3    H2 5098   2.161   2.597   1.085
 1698TIP3   OH2 5099   0.432   4.510   2.516
 1698TIP3    H1 5100   0.458   4.573   2.449
 1698TIP3    H2 5101   0.346   4.540   2.545
 1699TIP3   OH2 5102   3.562   4.208   5.010
 1699TIP3    H1 5103   3.543   4.256   4.930
 1699TIP3    H2 5104   3.627   4.143   4.984
 1700TIP3   OH2 5105   4.008   0.616   4.199
 1700TIP3    H1 5106   4.050   0.597   4.283
 1700TIP3    H2 5107   4.076   0.598   4.134
 1701TIP3   OH2 5108   0.438   2.740   4.565
 1701TIP3    H1 5109   0.529   2.741   4.536
 1701TIP3    H2 5110   0.391   2.695   4.495
 1702TIP3   OH2 5111   1.747   2.126   1.624
 1702TIP3    H1 5112   1.713   2.082   1.547
 1702TIP3    H2 5113   1.759   2.217   1.597
 1703TIP3   OH2 5114   3.170   1.947   2.524
 1703TIP3    H1 5115   3.084   1.961   2.561
 1703TIP3    H2 5116   3.180   1.851   2.523
 1704TIP3   OH2 5117   4.235   3.288   4.368
 1704TIP3    H1 5118   4.140   3.295   4.378
 1704TIP3    H2 5119   4.271   3.358   4.423
 1705TIP3   OH2 5120   2.791   5.754   4.415
 1705TIP3    H1 5121   2.815   5.822   4.479
 1705TIP3    H2 5122   2.696   5.762   4.407
 1706TIP3   OH2 5123   2.467   5.075   0.213
 1706TIP3    H1 5124   2.395   5.083   0.275
 1706TIP3    H2 5125   2.545   5.096   0.264
 1707TIP3   OH2 5126   0.479   1.073   2.488
 1707TIP3    H1 5127   0.523   1.136   2.430
 1707TIP3    H2 5128   0.520   1.086   2.573
 1708TIP3   OH2 5129   2.709   5.230   2.521
 1708TIP3    H1 5130   2.664   5.308   2.552
 1708TIP3    H2 5131   2.670   5.158   2.572
 1709TIP3   OH2 5132   4.558   0.222   2.559
 1709TIP3    H1 5133   4.471   0.260   2.558
 1709TIP3    H2 5134   4.545   0.132   2.590
 1710TIP3   OH2 5135   5.953   5.988   0.506
 1710TIP3    H1 5136   5.923   5.904   0.539
 1710TIP3    H2 5137   6.049   5.983   0.510
 1711TIP3   OH2 5138   3.750   4.330   0.856
 1711TIP3    H1 5139   3.705   4.324   0.940
 1711TIP3    H2 5140   3.707   4.402   0.810
 1712TIP3   OH2 5141   2.327   0.594   2.124
 1712TIP3    H1 5142   2.306   0.548   2.043
 1712TIP3    H2 5143   2.421   0.580   2.136
 1713TIP3   OH2 5144   0.968   1.566   0.892
 1713TIP3    H1 5145   0.906   1.562   0.819
 1713TIP3    H2 5146   1.019   1.485   0.883
 1714TIP3   OH2 5147   4.817   3.867   2.349
 1714TIP3    H1 5148   4.768   3.948   2.361
 1714TIP3    H2 5149   4.823   3.828   2.436
 1715TIP3   OH2 5150   1.095   3.449   1.190
 1715TIP3    H1 5151   1.042   3.401   1.253
 1715TIP3    H2 5152   1.120   3.385   1.124
 1716TIP3   OH2 5153   3.246   4.502   2.684
 1716TIP3    H1 5154   3.304   4.578   2.685
 1716TIP3    H2 5155   3.158   4.539   2.677
 1717TIP3   OH2 5156   5.319   5.085   4.108
 1717TIP3    H1 5157   5.286   5.136   4.034
 1717TIP3    H2 5158   5.240   5.054   4.153
 1718TIP3   OH2 5159   3.363   5.786   3.277
 1718TIP3    H1 5160   3.429   5.786   3.207
 1718TIP3    H2 5161   3.394   5.853   3.338
 1719TIP3   OH2 5162   3.629   0.113   3.320
 1719TIP3    H1 5163   3.640   0.044   3.385
 1719TIP3    H2 5164   3.586   0.184   3.367
 1720TIP3   OH2 5165   2.350   5.375   2.294
 1720TIP3    H1 5166   2.271   5.336   2.331
 1720TIP3    H2 5167   2.350   5.344   2.203
 1721TIP3   OH2 5168   2.751   3.635   4.859
 1721TIP3    H1 5169   2.782   3.602   4.775
 1721TIP3    H2 5170   2.820   3.695   4.888
 1722TIP3   OH2 5171   5.883   2.402   4.160
 1722TIP3    H1 5172   5.820   2.470   4.136
 1722TIP3    H2 5173   5.844   2.321   4.127
 1723TIP3   OH2 5174   0.049   4.377   2.352
 1723TIP3    H1 5175   0.096   4.424   2.283
 1723TIP3    H2 5176   0.047   4.438   2.426
 1724TIP3   OH2 5177   5.747   3.165   2.078
 1724TIP3    H1 5178   5.669   3.210   2.111
 1724TIP3    H2 5179   5.764   3.206   1.993
 1725TIP3   OH2 5180   4.320   0.663   2.405
 1725TIP3    H1 5181   4.371   0.639   2.327
 1725TIP3    H2 5182   4.377   0.641   2.479
 1726TIP3   OH2 5183   4.859   5.966   3.036
 1726TIP3    H1 5184   4.783   5.936   3.085
 1726TIP3    H2 5185   4.894   5.887   2.994
 1727TIP3   OH2 5186   5.694   0.454   2.381
 1727TIP3    H1 5187   5.630   0.464   2.452
 1727TIP3    H2 5188   5.642   0.428   2.305
 1728TIP3   OH2 5189   3.672   1.726   2.814
 1728TIP3    H1 5190   3.744   1.787   2.827
 1728TIP3    H2 5191   3.673   1.708   2.720
 1729TIP3   OH2 5192   4.224   2.262   1.144
 1729TIP3    H1 5193   4.177   2.330   1.096
 1729TIP3    H2 5194   4.175   2.182   1.126
 1730TIP3   OH2 5195   3.354   0.509   1.177
 1730TIP3    H1 5196   3.266   0.489   1.208
 1730TIP3    H2 5197   3.341   0.537   1.086
 1731TIP3   OH2 5198   2.152   2.850   3.184
 1731TIP3    H1 5199   2.183   2.767   3.220
 1731TIP3    H2 5200   2.121   2.829   3.096
 1732TIP3   OH2 5201   4.241   3.868   3.875
 1732TIP3    H1 5202   4.329   3.861   3.913
 1732TIP3    H2 5203   4.188   3.907   3.946
 1733TIP3   OH2 5204   6.287   3.484   4.590
 1733TIP3    H1 5205   6.290   3.561   4.647
 1733TIP3    H2 5206   6.364   3.493   4.533
 1734TIP3   OH2 5207   3.967   0.890   1.221
 1734TIP3    H1 5208   3.882   0.863   1.186
 1734TIP3    H2 5209   4.015   0.924   1.145
 1735TIP3   OH2 5210   6.246   2.746   3.769
 1735TIP3    H1 5211   6.275   2.720   3.857
 1735TIP3    H2 5212   6.263   2.840   3.765
 1736TIP3   OH2 5213   3.536   3.434   5.171
 1736TIP3    H1 5214   3.588   3.459   5.248
 1736TIP3    H2 5215   3.587   3.466   5.097
 1737TIP3   OH2 5216   4.422   3.140   3.930
 1737TIP3    H1 5217   4.516   3.152   3.914
 1737TIP3    H2 5218   4.393   3.223   3.966
 1738TIP3   OH2 5219   1.635   3.298   2.035
 1738TIP3    H1 5220   1.582   3.242   2.093
 1738TIP3    H2 5221   1.624   3.259   1.948
 1739TIP3   OH2 5222   2.443   0.201   1.082
 1739TIP3    H1 5223   2.471   0.227   1.170
 1739TIP3    H2 5224   2.357   0.161   1.095
 1740TIP3   OH2 5225   2.218   4.627   3.124
 1740TIP3    H1 5226   2.137   4.594   3.164
 1740TIP3    H2 5227   2.253   4.688   3.190
 1741TIP3   OH2 5228   3.169   2.372   4.121
 1741TIP3    H1 5229   3.201   2.286   4.094
 1741TIP3    H2 5230   3.076   2.370   4.103
 1742TIP3   OH2 5231   4.895   2.526   4.537
 1742TIP3    H1 5232   4.856   2.545   4.452
 1742TIP3    H2 5233   4.974   2.477   4.516
 1743TIP3   OH2 5234   1.734   3.228   2.347
 1743TIP3    H1 5235   1.781   3.146   2.363
 1743TIP3    H2 5236   1.749   3.279   2.426
 1744TIP3   OH2 5237   5.844   2.429   2.160
 1744TIP3    H1 5238   5.829   2.439   2.254
 1744TIP3    H2 5239   5.940   2.432   2.150
 1745TIP3   OH2 5240   1.945   1.391   1.376
 1745TIP3    H1 5241   1.977   1.472   1.336
 1745TIP3    H2 5242   2.020   1.332   1.377
 1746TIP3   OH2 5243   1.498   1.178   0.542
 1746TIP3    H1 5244   1.513   1.234   0.466
 1746TIP3    H2 5245   1.403   1.165   0.544
 1747TIP3   OH2 5246   1.216   1.861   0.932
 1747TIP3    H1 5247   1.213   1.898   0.844
 1747TIP3    H2 5248   1.308   1.838   0.945
 1748TIP3   OH2 5249   6.355   4.882   3.063
 1748TIP3    H1 5250   6.271   4.873   3.018
 1748TIP3    H2 5251   6.362   4.975   3.084
 1749TIP3   OH2 5252   2.965   5.945   3.546
 1749TIP3    H1 5253   2.921   5.958   3.462
 1749TIP3    H2 5254   3.022   6.022   3.556
 1750TIP3   OH2 5255   4.270   2.142   4.488
 1750TIP3    H1 5256   4.287   2.133   4.582
 1750TIP3    H2 5257   4.354   2.170   4.451
 1751TIP3   OH2 5258   0.594   5.081   3.375
 1751TIP3    H1 5259   0.560   5.158   3.420
 1751TIP3    H2 5260   0.656   5.116   3.310
 1752TIP3   OH2 5261   2.520   1.966   2.645
 1752TIP3    H1 5262   2.576   1.913   2.589
 1752TIP3    H2 5263   2.436   1.920   2.645
 1753TIP3   OH2 5264   6.313   5.338   4.230
 1753TIP3    H1 5265   6.391   5.333   4.175
 1753TIP3    H2 5266   6.257   5.403   4.186
 1754TIP3   OH2 5267   1.917   2.234   2.457
 1754TIP3    H1 5268   1.836   2.230   2.406
 1754TIP3    H2 5269   1.928   2.327   2.477
 1755TIP3   OH2 5270   2.102   0.056   1.913
 1755TIP3    H1 5271   2.090   0.109   1.992
 1755TIP3    H2 5272   2.167   0.103   1.862
 1756TIP3   OH2 5273   2.379   0.346   5.041
 1756TIP3    H1 5274   2.450   0.398   5.078
 1756TIP3    H2 5275   2.397   0.345   4.947
 1757TIP3   OH2 5276   4.306   2.151   2.444
 1757TIP3    H1 5277   4.322   2.070   2.491
 1757TIP3    H2 5278   4.261   2.207   2.506
 1758TIP3   OH2 5279   3.063   1.351   0.279
 1758TIP3    H1 5280   3.119   1.361   0.356
 1758TIP3    H2 5281   3.065   1.258   0.260
 1759TIP3   OH2 5282   5.513   4.579   2.868
 1759TIP3    H1 5283   5.489   4.488   2.884
 1759TIP3    H2 5284   5.559   4.606   2.947
 1760TIP3   OH2 5285   1.572   4.176   3.646
 1760TIP3    H1 5286   1.568   4.231   3.725
 1760TIP3    H2 5287   1.633   4.106   3.668
 1761TIP3   OH2 5288   1.201   1.764   3.422
 1761TIP3    H1 5289   1.292   1.790   3.440
 1761TIP3    H2 5290   1.192   1.678   3.465
 1762TIP3   OH2 5291   2.741   3.850   2.744
 1762TIP3    H1 5292   2.686   3.863   2.666
 1762TIP3    H2 5293   2.682   3.865   2.817
 1763TIP3   OH2 5294   4.563   0.088   3.423
 1763TIP3    H1 5295   4.585   0.118   3.335
 1763TIP3    H2 5296   4.605   0.152   3.481
 1764TIP3   OH2 5297   1.053   3.444   3.785
 1764TIP3    H1 5298   1.114   3.507   3.823
 1764TIP3    H2 5299   1.090   3.424   3.699
 1765TIP3   OH2 5300   1.171   1.583   4.277
 1765TIP3    H1 5301   1.137   1.528   4.207
 1765TIP3    H2 5302   1.123   1.555   4.355
 1766TIP3   OH2 5303   2.744   3.259   4.654
 1766TIP3    H1 5304   2.830   3.218   4.648
 1766TIP3    H2 5305   2.728   3.268   4.748
 1767TIP3   OH2 5306   3.112   2.416   0.104
 1767TIP3    H1 5307   3.121   2.432   0.198
 1767TIP3    H2 5308   3.114   2.503   0.064
 1768TIP3   OH2 5309   4.524   5.903   3.737
 1768TIP3    H1 5310   4.474   5.854   3.803
 1768TIP3    H2 5311   4.500   5.995   3.752
 1769TIP3   OH2 5312   5.392   5.276   3.087
 1769TIP3    H1 5313   5.481   5.251   3.109
 1769TIP3    H2 5314   5.398   5.369   3.066
 1770TIP3   OH2 5315   1.413   4.558   1.157
 1770TIP3    H1 5316   1.479   4.593   1.217
 1770TIP3    H2 5317   1.449   4.474   1.129
 1771TIP3   OH2 5318   4.336   0.310   3.419
 1771TIP3    H1 5319   4.364   0.254   3.346
 1771TIP3    H2 5320   4.335   0.251   3.495
 1772TIP3   OH2 5321   4.255   5.605   0.124
 1772TIP3    H1 5322   4.318   5.670   0.092
 1772TIP3    H2 5323   4.304   5.555   0.189
 1773TIP3   OH2 5324   2.866   3.357   3.743
 1773TIP3    H1 5325   2.854   3.277   3.692
 1773TIP3    H2 5326   2.782   3.369   3.788
 1774TIP3   OH2 5327   1.297   1.488   3.790
 1774TIP3    H1 5328   1.247   1.411   3.818
 1774TIP3    H2 5329   1.364   1.498   3.857
 1775TIP3   OH2 5330   3.589   0.160   2.220
 1775TIP3    H1 5331   3.555   0.086   2.168
 1775TIP3    H2 5332   3.634   0.118   2.293
 1776TIP3   OH2 5333   0.479   2.462   4.900
 1776TIP3    H1 5334   0.564   2.442   4.940
 1776TIP3    H2 5335   0.464   2.391   4.838
 1777TIP3   OH2 5336   3.840   3.048   0.119
 1777TIP3    H1 5337   3.924   3.064   0.075
 1777TIP3    H2 5338   3.782   3.116   0.085
 1778TIP3   OH2 5339   1.662   3.376   4.287
 1778TIP3    H1 5340   1.604   3.449   4.306
 1778TIP3    H2 5341   1.676   3.333   4.372
 1779TIP3   OH2 5342   0.881   0.193   4.579
 1779TIP3    H1 5343   0.924   0.110   4.556
 1779TIP3    H2 5344   0.819   0.169   4.648
 1780TIP3   OH2 5345   5.452   4.332   2.981
 1780TIP3    H1 5346   5.411   4.251   3.011
 1780TIP3    H2 5347   5.531   4.340   3.034
 1781TIP3   OH2 5348   1.375   1.739   2.969
 1781TIP3    H1 5349   1.302   1.779   2.922
 1781TIP3    H2 5350   1.339   1.659   3.007
 1782TIP3   OH2 5351   1.876   3.374   2.176
 1782TIP3    H1 5352   1.836   3.324   2.247
 1782TIP3    H2 5353   1.810   3.377   2.108
 1783TIP3   OH2 5354   5.502   5.589   4.145
 1783TIP3    H1 5355   5.506   5.683   4.126
 1783TIP3    H2 5356   5.442   5.554   4.079
 1784TIP3   OH2 5357   4.714   2.382   0.094
 1784TIP3    H1 5358   4.737   2.334   0.174
 1784TIP3    H2 5359   4.793   2.379   0.041
 1785TIP3   OH2 5360   4.996   1.415   3.737
 1785TIP3    H1 5361   4.913   1.432   3.782
 1785TIP3    H2 5362   5.023   1.501   3.706
 1786TIP3   OH2 5363   3.270   4.108   0.172
 1786TIP3    H1 5364   3.260   4.171   0.101
 1786TIP3    H2 5365   3.192   4.122   0.227
 1787TIP3   OH2 5366   3.680   2.784   5.171
 1787TIP3    H1 5367   3.703   2.774   5.263
 1787TIP3    H2 5368   3.730   2.860   5.141
 1788TIP3   OH2 5369   4.135   1.405   1.927
 1788TIP3    H1 5370   4.090   1.321   1.925
 1788TIP3    H2 5371   4.228   1.383   1.920
 1789TIP3   OH2 5372   3.870   4.873   1.757
 1789TIP3    H1 5373   3.829   4.790   1.731
 1789TIP3    H2 5374   3.796   4.931   1.773
 1790TIP3   OH2 5375   5.331   4.828   3.404
 1790TIP3    H1 5376   5.357   4.890   3.471
 1790TIP3    H2 5377   5.321   4.745   3.450
 1791TIP3   OH2 5378   4.594   1.031   2.832
 1791TIP3    H1 5379   4.522   1.085   2.800
 1791TIP3    H2 5380   4.638   1.000   2.753
 1792TIP3   OH2 5381   1.416   4.333   4.365
 1792TIP3    H1 5382   1.413   4.244   4.399
 1792TIP3    H2 5383   1.345   4.336   4.301
 1793TIP3   OH2 5384   5.179   0.196   1.620
 1793TIP3    H1 5385   5.238   0.168   1.690
 1793TIP3    H2 5386   5.188   0.292   1.619
 1794TIP3   OH2 5387   1.979   4.543   3.202
 1794TIP3    H1 5388   1.892   4.575   3.228
 1794TIP3    H2 5389   1.968   4.516   3.111
 1795TIP3   OH2 5390   0.151   0.510   1.360
 1795TIP3    H1 5391   0.134   0.519   1.267
 1795TIP3    H2 5392   0.155   0.601   1.392
 1796TIP3   OH2 5393   3.969   5.334   0.201
 1796TIP3    H1 5394   4.056   5.309   0.234
 1796TIP3    H2 5395   3.965   5.295   0.114
 1797TIP3   OH2 5396   0.142   3.947   0.675
 1797TIP3    H1 5397   0.080   3.986   0.613
 1797TIP3    H2 5398   0.218   3.925   0.622
 1798TIP3   OH2 5399   0.155   1.323   4.799
 1798TIP3    H1 5400   0.243   1.304   4.767
 1798TIP3    H2 5401   0.100   1.254   4.761
 1799TIP3   OH2 5402   4.896   3.366   2.085
 1799TIP3    H1 5403   4.899   3.383   2.179
 1799TIP3    H2 5404   4.967   3.419   2.049
 1800TIP3   OH2 5405   0.395   5.448   1.113
 1800TIP3    H1 5406   0.357   5.482   1.032
 1800TIP3    H2 5407   0.322   5.448   1.175
 1801TIP3   OH2 5408   3.383   4.835   4.379
 1801TIP3    H1 5409   3.368   4.748   4.344
 1801TIP3    H2 5410   3.384   4.892   4.303
 1802TIP3   OH2 5411   0.372   5.695   1.316
 1802TIP3    H1 5412   0.347   5.725   1.228
 1802TIP3    H2 5413   0.436   5.759   1.346
 1803TIP3   OH2 5414   4.449   0.812   4.846
 1803TIP3    H1 5415   4.421   0.722   4.834
 1803TIP3    H2 5416   4.370   0.864   4.830
 1804TIP3   OH2 5417   3.314   2.894   0.364
 1804TIP3    H1 5418   3.350   2.962   0.307
 1804TIP3    H2 5419   3.369   2.817   0.347
 1805TIP3   OH2 5420   3.030   0.764   0.911
 1805TIP3    H1 5421   2.964   0.801   0.852
 1805TIP3    H2 5422   2.982   0.741   0.990
 1806TIP3   OH2 5423   2.588   1.843   1.995
 1806TIP3    H1 5424   2.570   1.884   2.079
 1806TIP3    H2 5425   2.617   1.754   2.017
 1807TIP3   OH2 5426   3.952   0.167   0.738
 1807TIP3    H1 5427   4.044   0.141   0.744
 1807TIP3    H2 5428   3.929   0.153   0.646
 1808TIP3   OH2 5429   3.755   4.634   1.730
 1808TIP3    H1 5430   3.763   4.599   1.818
 1808TIP3    H2 5431   3.670   4.604   1.698
 1809TIP3   OH2 5432   4.301   1.085   1.894
 1809TIP3    H1 5433   4.326   1.058   1.805
 1809TIP3    H2 5434   4.334   1.015   1.950
 1810TIP3   OH2 5435   1.870   0.800   4.915
 1810TIP3    H1 5436   1.858   0.811   5.010
 1810TIP3    H2 5437   1.933   0.728   4.907
 1811TIP3   OH2 5438   5.195   5.845   0.813
 1811TIP3    H1 5439   5.216   5.761   0.772
 1811TIP3    H2 5440   5.105   5.835   0.842
 1812TIP3   OH2 5441   5.549   3.287   3.288
 1812TIP3    H1 5442   5.543   3.381   3.309
 1812TIP3    H2 5443   5.497   3.276   3.209
 1813TIP3   OH2 5444   5.995   4.393   4.581
 1813TIP3    H1 5445   5.961   4.387   4.670
 1813TIP3    H2 5446   6.090   4.394   4.591
 1814TIP3   OH2 5447   2.929   3.415   1.630
 1814TIP3    H1 5448   2.843   3.375   1.619
 1814TIP3    H2 5449   2.976   3.357   1.690
 1815TIP3   OH2 5450   0.283   1.745   3.021
 1815TIP3    H1 5451   0.303   1.793   2.941
 1815TIP3    H2 5452   0.188   1.732   3.017
 1816TIP3   OH2 5453   0.706   0.490   1.074
 1816TIP3    H1 5454   0.673   0.401   1.061
 1816TIP3    H2 5455   0.790   0.491   1.028
 1817TIP3   OH2 5456   2.580   1.610   0.523
 1817TIP3    H1 5457   2.662   1.660   0.529
 1817TIP3    H2 5458   2.592   1.536   0.582
 1818TIP3   OH2 5459   0.612   1.200   2.288
 1818TIP3    H1 5460   0.694   1.246   2.271
 1818TIP3    H2 5461   0.574   1.186   2.202
 1819TIP3   OH2 5462   3.679   0.457   3.270
 1819TIP3    H1 5463   3.716   0.374   3.241
 1819TIP3    H2 5464   3.657   0.504   3.189
 1820TIP3   OH2 5465   0.286   3.514   3.404
 1820TIP3    H1 5466   0.203   3.556   3.382
 1820TIP3    H2 5467   0.276   3.424   3.374
 1821TIP3   OH2 5468   4.512   1.903   0.143
 1821TIP3    H1 5469   4.466   1.969   0.092
 1821TIP3    H2 5470   4.592   1.886   0.094
 1822TIP3   OH2 5471   2.725   3.438   1.011
 1822TIP3    H1 5472   2.653   3.478   0.963
 1822TIP3    H2 5473   2.785   3.510   1.029
 1823TIP3   OH2 5474   4.729   4.458   0.975
 1823TIP3    H1 5475   4.821   4.441   0.954
 1823TIP3    H2 5476   4.728   4.469   1.070
 1824TIP3   OH2 5477   4.835   0.963   1.338
 1824TIP3    H1 5478   4.781   0.921   1.406
 1824TIP3    H2 5479   4.924   0.959   1.372
 1825TIP3   OH2 5480   1.821   4.831   3.646
 1825TIP3    H1 5481   1.896   4.827   3.705
 1825TIP3    H2 5482   1.799   4.924   3.642
 1826TIP3   OH2 5483   2.574   1.021   1.508
 1826TIP3    H1 5484   2.635   1.094   1.505
 1826TIP3    H2 5485   2.492   1.059   1.541
 1827TIP3   OH2 5486   4.224   3.232   1.777
 1827TIP3    H1 5487   4.147   3.266   1.823
 1827TIP3    H2 5488   4.189   3.200   1.693
 1828TIP3   OH2 5489   5.104   4.203   3.418
 1828TIP3    H1 5490   5.121   4.144   3.491
 1828TIP3    H2 5491   5.132   4.155   3.341
 1829TIP3   OH2 5492   2.447   3.505   1.662
 1829TIP3    H1 5493   2.417   3.455   1.586
 1829TIP3    H2 5494   2.423   3.451   1.737
 1830TIP3   OH2 5495   3.302   3.159   4.345
 1830TIP3    H1 5496   3.347   3.075   4.357
 1830TIP3    H2 5497   3.310   3.202   4.430
 1831TIP3   OH2 5498   0.584   3.955   3.440
 1831TIP3    H1 5499   0.534   3.874   3.429
 1831TIP3    H2 5500   0.560   4.008   3.364
 1832TIP3   OH2 5501   0.763   5.560   2.832
 1832TIP3    H1 5502   0.693   5.505   2.867
 1832TIP3    H2 5503   0.808   5.595   2.909
 1833TIP3   OH2 5504   4.388   0.734   0.007
 1833TIP3    H1 5505   4.351   0.783  -0.068
 1833TIP3    H2 5506   4.346   0.774   0.083
 1834TIP3   OH2 5507   2.737   5.005   0.569
 1834TIP3    H1 5508   2.726   4.953   0.649
 1834TIP3    H2 5509   2.700   5.090   0.590
 1835TIP3   OH2 5510   2.894   4.947   1.456
 1835TIP3    H1 5511   2.870   4.877   1.395
 1835TIP3    H2 5512   2.924   5.018   1.400
 1836TIP3   OH2 5513   3.437   3.586   0.066
 1836TIP3    H1 5514   3.506   3.620   0.008
 1836TIP3    H2 5515   3.377   3.659   0.078
 1837TIP3   OH2 5516   3.205   3.567   2.107
 1837TIP3    H1 5517   3.271   3.588   2.173
 1837TIP3    H2 5518   3.133   3.627   2.125
 1838TIP3   OH2 5519   5.609   0.023   3.397
 1838TIP3    H1 5520   5.607   0.022   3.493
 1838TIP3    H2 5521   5.698   0.049   3.375
 1839TIP3   OH2 5522   6.212   0.769   2.006
 1839TIP3    H1 5523   6.277   0.704   1.977
 1839TIP3    H2 5524   6.162   0.724   2.075
 1840TIP3   OH2 5525   6.139   5.508   1.518
 1840TIP3    H1 5526   6.143   5.461   1.434
 1840TIP3    H2 5527   6.045   5.517   1.535
 1841TIP3   OH2 5528   2.493   1.985   1.535
 1841TIP3    H1 5529   2.418   1.926   1.546
 1841TIP3    H2 5530   2.551   1.965   1.609
 1842TIP3   OH2 5531   3.929   4.434   5.003
 1842TIP3    H1 5532   3.876   4.451   5.081
 1842TIP3    H2 5533   4.017   4.463   5.028
 1843TIP3   OH2 5534   2.382   2.768   2.505
 1843TIP3    H1 5535   2.472   2.797   2.490
 1843TIP3    H2 5536   2.328   2.843   2.483
 1844TIP3   OH2 5537   5.913   0.085   3.847
 1844TIP3    H1 5538   5.950  -0.002   3.864
 1844TIP3    H2 5539   5.945   0.108   3.760
 1845TIP3   OH2 5540   1.703   0.214   4.575
 1845TIP3    H1 5541   1.611   0.238   4.564
 1845TIP3    H2 5542   1.703   0.119   4.574
 1846TIP3   OH2 5543   4.054   2.299   3.660
 1846TIP3    H1 5544   4.106   2.379   3.656
 1846TIP3    H2 5545   4.116   2.228   3.642
 1847TIP3   OH2 5546   4.381   3.533   4.239
 1847TIP3    H1 5547   4.440   3.502   4.307
 1847TIP3    H2 5548   4.407   3.485   4.160
 1848TIP3   OH2 5549   1.905   3.813   1.112
 1848TIP3    H1 5550   1.986   3.761   1.110
 1848TIP3    H2 5551   1.926   3.888   1.168
 1849TIP3   OH2 5552   4.362   4.427   4.222
 1849TIP3    H1 5553   4.453   4.454   4.220
 1849TIP3    H2 5554   4.337   4.418   4.130
 1850TIP3   OH2 5555   3.872   2.353   1.737
 1850TIP3    H1 5556   3.911   2.289   1.796
 1850TIP3    H2 5557   3.859   2.306   1.655
 1851TIP3   OH2 5558   3.234   5.634   2.035
 1851TIP3    H1 5559   3.212   5.561   2.092
 1851TIP3    H2 5560   3.165   5.634   1.968
 1852TIP3   OH2 5561   4.489   1.486   4.642
 1852TIP3    H1 5562   4.443   1.509   4.561
 1852TIP3    H2 5563   4.453   1.546   4.708
 1853TIP3   OH2 5564   3.808   1.643   2.175
 1853TIP3    H1 5565   3.809   1.651   2.080
 1853TIP3    H2 5566   3.815   1.732   2.207
 1854TIP3   OH2 5567   3.771   4.768   3.615
 1854TIP3    H1 5568   3.804   4.767   3.705
 1854TIP3    H2 5569   3.835   4.717   3.565
 1855TIP3   OH2 5570   4.719   3.304   3.489
 1855TIP3    H1 5571   4.737   3.279   3.580
 1855TIP3    H2 5572   4.762   3.236   3.436
 1856TIP3   OH2 5573   5.022   2.219   4.566
 1856TIP3    H1 5574   5.016   2.152   4.634
 1856TIP3    H2 5575   5.107   2.260   4.579
 1857TIP3   OH2 5576   6.188   3.792   3.837
 1857TIP3    H1 5577   6.221   3.815   3.751
 1857TIP3    H2 5578   6.109   3.740   3.820
 1858TIP3   OH2 5579   3.155   4.877   2.747
 1858TIP3    H1 5580   3.094   4.856   2.818
 1858TIP3    H2 5581   3.215   4.941   2.786
 1859TIP3   OH2 5582   3.359   3.738   2.303
 1859TIP3    H1 5583   3.373   3.820   2.351
 1859TIP3    H2 5584   3.439   3.726   2.252
 1860TIP3   OH2 5585   1.472   1.067   4.974
 1860TIP3    H1 5586   1.449   1.099   4.887
 1860TIP3    H2 5587   1.467   0.972   4.967
 1861TIP3   OH2 5588   5.165   4.586   2.304
 1861TIP3    H1 5589   5.255   4.608   2.329
 1861TIP3    H2 5590   5.170   4.494   2.277
 1862TIP3   OH2 5591   5.383   5.419   2.556
 1862TIP3    H1 5592   5.367   5.449   2.466
 1862TIP3    H2 5593   5.413   5.498   2.602
 1863TIP3   OH2 5594   2.954   3.386   4.869
 1863TIP3    H1 5595   3.031   3.334   4.891
 1863TIP3    H2 5596   2.990   3.469   4.837
 1864TIP3   OH2 5597   5.562   0.278   3.001
 1864TIP3    H1 5598   5.632   0.327   2.958
 1864TIP3    H2 5599   5.593   0.187   3.001
 1865TIP3   OH2 5600   3.903   2.889   3.454
 1865TIP3    H1 5601   3.886   2.795   3.462
 1865TIP3    H2 5602   3.935   2.899   3.364
 1866TIP3   OH2 5603   5.160   0.813   4.212
 1866TIP3    H1 5604   5.249   0.812   4.177
 1866TIP3    H2 5605   5.127   0.900   4.192
 1867TIP3   OH2 5606   0.963   4.736   3.356
 1867TIP3    H1 5607   0.899   4.801   3.329
 1867TIP3    H2 5608   1.042   4.759   3.307
 1868TIP3   OH2 5609   3.022   3.075   2.221
 1868TIP3    H1 5610   3.062   3.003   2.172
 1868TIP3    H2 5611   3.060   3.154   2.183
 1869TIP3   OH2 5612   2.702   3.322   4.917
 1869TIP3    H1 5613   2.655   3.373   4.982
 1869TIP3    H2 5614   2.791   3.357   4.918
 1870TIP3   OH2 5615   0.712   0.867   1.073
 1870TIP3    H1 5616   0.702   0.944   1.017
 1870TIP3    H2 5617   0.641   0.809   1.046
 1871TIP3   OH2 5618   5.161   0.427   3.310
 1871TIP3    H1 5619   5.109   0.422   3.229
 1871TIP3    H2 5620   5.116   0.493   3.363
 1872TIP3   OH2 5621   0.198   2.495   4.831
 1872TIP3    H1 5622   0.151   2.565   4.785
 1872TIP3    H2 5623   0.290   2.520   4.826
 1873TIP3   OH2 5624   1.503   4.564   2.661
 1873TIP3    H1 5625   1.546   4.621   2.725
 1873TIP3    H2 5626   1.437   4.620   2.620
 1874TIP3   OH2 5627   3.279   3.836   0.132
 1874TIP3    H1 5628   3.296   3.929   0.146
 1874TIP3    H2 5629   3.188   3.832   0.103
 1875TIP3   OH2 5630   5.058   2.144   4.064
 1875TIP3    H1 5631   5.017   2.230   4.068
 1875TIP3    H2 5632   5.058   2.112   4.154
 1876TIP3   OH2 5633   2.499   0.933   2.232
 1876TIP3    H1 5634   2.524   1.011   2.182
 1876TIP3    H2 5635   2.417   0.958   2.276
 1877TIP3   OH2 5636   3.791   0.481   0.703
 1877TIP3    H1 5637   3.752   0.528   0.629
 1877TIP3    H2 5638   3.718   0.467   0.764
 1878TIP3   OH2 5639   2.160   4.281   0.136
 1878TIP3    H1 5640   2.178   4.360   0.187
 1878TIP3    H2 5641   2.104   4.311   0.064
 1879TIP3   OH2 5642   4.187   4.540   3.539
 1879TIP3    H1 5643   4.204   4.531   3.633
 1879TIP3    H2 5644   4.094   4.519   3.530
 1880TIP3   OH2 5645   1.027   0.747   3.734
 1880TIP3    H1 5646   1.012   0.838   3.759
 1880TIP3    H2 5647   1.004   0.696   3.812
 1881TIP3   OH2 5648   1.480   1.817   3.419
 1881TIP3    H1 5649   1.530   1.899   3.412
 1881TIP3    H2 5650   1.489   1.776   3.333
 1882TIP3   OH2 5651   0.251   1.989   2.397
 1882TIP3    H1 5652   0.199   1.964   2.472
 1882TIP3    H2 5653   0.295   2.070   2.424
 1883TIP3   OH2 5654   3.097   1.039   0.264
 1883TIP3    H1 5655   3.019   1.018   0.315
 1883TIP3    H2 5656   3.065   1.057   0.176
 1884TIP3   OH2 5657   5.339   2.837   4.999
 1884TIP3    H1 5658   5.326   2.930   5.015
 1884TIP3    H2 5659   5.316   2.795   5.082
 1885TIP3   OH2 5660   3.701   5.391   2.300
 1885TIP3    H1 5661   3.705   5.479   2.338
 1885TIP3    H2 5662   3.620   5.353   2.334
 1886TIP3   OH2 5663   4.034   5.832   1.886
 1886TIP3    H1 5664   3.940   5.814   1.887
 1886TIP3    H2 5665   4.053   5.864   1.975
 1887TIP3   OH2 5666   2.683   2.757   4.945
 1887TIP3    H1 5667   2.737   2.772   5.023
 1887TIP3    H2 5668   2.619   2.692   4.973
 1888TIP3   OH2 5669   4.172   5.207   2.170
 1888TIP3    H1 5670   4.208   5.132   2.217
 1888TIP3    H2 5671   4.231   5.220   2.096
 1889TIP3   OH2 5672   3.276   1.742   4.461
 1889TIP3    H1 5673   3.240   1.827   4.434
 1889TIP3    H2 5674   3.220   1.714   4.533
 1890TIP3   OH2 5675   0.282   3.284   1.045
 1890TIP3    H1 5676   0.201   3.237   1.026
 1890TIP3    H2 5677   0.344   3.215   1.071
 1891TIP3   OH2 5678   5.545   4.631   1.390
 1891TIP3    H1 5679   5.506   4.548   1.365
 1891TIP3    H2 5680   5.502   4.655   1.473
 1892TIP3   OH2 5681   5.250   2.699   0.013
 1892TIP3    H1 5682   5.331   2.727  -0.031
 1892TIP3    H2 5683   5.273   2.696   0.106
 1893TIP3   OH2 5684   4.115   5.954   4.412
 1893TIP3    H1 5685   4.167   6.029   4.386
 1893TIP3    H2 5686   4.111   5.899   4.333
 1894TIP3   OH2 5687   3.545   1.102   4.062
 1894TIP3    H1 5688   3.590   1.156   4.128
 1894TIP3    H2 5689   3.452   1.114   4.082
 1895TIP3   OH2 5690   5.328   4.246   1.378
 1895TIP3    H1 5691   5.391   4.300   1.331
 1895TIP3    H2 5692   5.347   4.157   1.350
 1896TIP3   OH2 5693   4.189   2.576   3.650
 1896TIP3    H1 5694   4.271   2.608   3.688
 1896TIP3    H2 5695   4.181   2.623   3.567
 1897TIP3   OH2 5696   4.517   5.440   2.756
 1897TIP3    H1 5697   4.549   5.446   2.666
 1897TIP3    H2 5698   4.514   5.346   2.773
 1898TIP3   OH2 5699   1.373   3.718   1.979
 1898TIP3    H1 5700   1.420   3.685   1.902
 1898TIP3    H2 5701   1.416   3.801   2.000
 1899TIP3   OH2 5702   5.138   3.339   3.592
 1899TIP3    H1 5703   5.185   3.260   3.617
 1899TIP3    H2 5704   5.046   3.320   3.609
 1900TIP3   OH2 5705   1.311   3.675   1.185
 1900TIP3    H1 5706   1.295   3.735   1.112
 1900TIP3    H2 5707   1.262   3.596   1.163
 1901TIP3   OH2 5708   0.139   3.830   4.731
 1901TIP3    H1 5709   0.203   3.771   4.771
 1901TIP3    H2 5710   0.160   3.829   4.637
 1902TIP3   OH2 5711   5.541   0.157   0.179
 1902TIP3    H1 5712   5.446   0.157   0.170
 1902TIP3    H2 5713   5.572   0.211   0.106
 1903TIP3   OH2 5714   1.964   1.041   4.787
 1903TIP3    H1 5715   2.039   1.033   4.728
 1903TIP3    H2 5716   1.932   0.952   4.797
 1904TIP3   OH2 5717   2.990   0.229   1.368
 1904TIP3    H1 5718   3.069   0.223   1.315
 1904TIP3    H2 5719   2.973   0.140   1.396
 1905TIP3   OH2 5720   2.654   1.134   2.139
 1905TIP3    H1 5721   2.725   1.135   2.074
 1905TIP3    H2 5722   2.690   1.180   2.215
 1906TIP3   OH2 5723   2.021   1.427   3.998
 1906TIP3    H1 5724   1.954   1.399   3.935
 1906TIP3    H2 5725   2.089   1.359   3.991
 1907TIP3   OH2 5726   2.087   1.299   0.415
 1907TIP3    H1 5727   2.126   1.216   0.389
 1907TIP3    H2 5728   2.044   1.332   0.336
 1908TIP3   OH2 5729   5.582   4.196   0.603
 1908TIP3    H1 5730   5.612   4.285   0.583
 1908TIP3    H2 5731   5.487   4.205   0.611
 1909TIP3   OH2 5732   1.412   2.974   3.106
 1909TIP3    H1 5733   1.385   2.916   3.035
 1909TIP3    H2 5734   1.333   2.990   3.157
 1910TIP3   OH2 5735   6.182   0.547   4.137
 1910TIP3    H1 5736   6.244   0.478   4.162
 1910TIP3    H2 5737   6.207   0.571   4.048
 1911TIP3   OH2 5738   6.089   4.478   0.283
 1911TIP3    H1 5739   6.117   4.417   0.351
 1911TIP3    H2 5740   6.135   4.559   0.302
 1912TIP3   OH2 5741   3.395   2.736   1.014
 1912TIP3    H1 5742   3.468   2.695   1.060
 1912TIP3    H2 5743   3.425   2.742   0.923
 1913TIP3   OH2 5744   4.313   0.300   0.051
 1913TIP3    H1 5745   4.306   0.241   0.126
 1913TIP3    H2 5746   4.241   0.273  -0.006
 1914TIP3   OH2 5747   0.122   2.019   0.744
 1914TIP3    H1 5748   0.210   2.014   0.781
 1914TIP3    H2 5749   0.076   2.081   0.800
 1915TIP3   OH2 5750   4.434   3.206   5.006
 1915TIP3    H1 5751   4.502   3.139   5.017
 1915TIP3    H2 5752   4.390   3.182   4.925
 1916TIP3   OH2 5753   2.161   3.905   2.737
 1916TIP3    H1 5754   2.098   3.909   2.809
 1916TIP3    H2 5755   2.245   3.929   2.776
 1917TIP3   OH2 5756   1.215   1.694   4.960
 1917TIP3    H1 5757   1.126   1.709   4.930
 1917TIP3    H2 5758   1.226   1.751   5.035
 1918TIP3   OH2 5759   3.748   5.610   0.705
 1918TIP3    H1 5760   3.655   5.621   0.689
 1918TIP3    H2 5761   3.791   5.648   0.629
 1919TIP3   OH2 5762   2.853   0.973   0.394
 1919TIP3    H1 5763   2.822   1.018   0.472
 1919TIP3    H2 5764   2.775   0.965   0.338
 1920TIP3   OH2 5765   4.765   2.924   1.279
 1920TIP3    H1 5766   4.823   2.865   1.329
 1920TIP3    H2 5767   4.785   2.905   1.188
 1921TIP3   OH2 5768   1.690   0.121   3.803
 1921TIP3    H1 5769   1.637   0.055   3.846
 1921TIP3    H2 5770   1.780   0.098   3.826
 1922TIP3   OH2 5771   6.163   2.125   3.388
 1922TIP3    H1 5772   6.147   2.219   3.385
 1922TIP3    H2 5773   6.252   2.114   3.354
 1923TIP3   OH2 5774   4.238   1.437   4.829
 1923TIP3    H1 5775   4.286   1.507   4.874
 1923TIP3    H2 5776   4.292   1.359   4.841
 1924TIP3   OH2 5777   0.250   5.638   0.218
 1924TIP3    H1 5778   0.160   5.654   0.244
 1924TIP3    H2 5779   0.243   5.580   0.142
 1925TIP3   OH2 5780   4.428   4.231   3.741
 1925TIP3    H1 5781   4.382   4.224   3.825
 1925TIP3    H2 5782   4.474   4.315   3.746
 1926TIP3   OH2 5783   4.077   3.280   0.719
 1926TIP3    H1 5784   4.169   3.261   0.697
 1926TIP3    H2 5785   4.082   3.352   0.783
 1927TIP3   OH2 5786   2.298   3.095   4.694
 1927TIP3    H1 5787   2.349   3.028   4.739
 1927TIP3    H2 5788   2.243   3.047   4.633
 1928TIP3   OH2 5789   4.515   5.577   1.457
 1928TIP3    H1 5790   4.452   5.521   1.411
 1928TIP3    H2 5791   4.507   5.551   1.548
 1929TIP3   OH2 5792   5.135   2.329   1.333
 1929TIP3    H1 5793   5.073   2.331   1.406
 1929TIP3    H2 5794   5.202   2.267   1.361
 1930TIP3   OH2 5795   2.563   4.175   1.336
 1930TIP3    H1 5796   2.598   4.263   1.327
 1930TIP3    H2 5797   2.482   4.186   1.386
 1931TIP3   OH2 5798   2.894   0.412   1.011
 1931TIP3    H1 5799   2.835   0.340   1.033
 1931TIP3    H2 5800   2.942   0.382   0.934
 1932TIP3   OH2 5801   0.471   3.090   2.106
 1932TIP3    H1 5802   0.501   3.008   2.067
 1932TIP3    H2 5803   0.491   3.156   2.040
 1933TIP3   OH2 5804   5.226   5.064   2.177
 1933TIP3    H1 5805   5.240   5.136   2.115
 1933TIP3    H2 5806   5.216   5.107   2.262
 1934TIP3   OH2 5807   3.134   2.101   2.935
 1934TIP3    H1 5808   3.106   2.012   2.915
 1934TIP3    H2 5809   3.159   2.098   3.028
 1935TIP3   OH2 5810   0.332   2.114   0.385
 1935TIP3    H1 5811   0.347   2.056   0.310
 1935TIP3    H2 5812   0.418   2.153   0.403
 1936TIP3   OH2 5813   2.466   4.419   4.693
 1936TIP3    H1 5814   2.433   4.329   4.694
 1936TIP3    H2 5815   2.561   4.410   4.705
 1937TIP3   OH2 5816   5.893   0.631   3.140
 1937TIP3    H1 5817   5.925   0.712   3.099
 1937TIP3    H2 5818   5.972   0.585   3.169
 1938TIP3   OH2 5819   1.466   1.905   4.668
 1938TIP3    H1 5820   1.416   1.880   4.746
 1938TIP3    H2 5821   1.557   1.887   4.691
 1939TIP3   OH2 5822   1.087   0.646   5.037
 1939TIP3    H1 5823   1.109   0.565   4.991
 1939TIP3    H2 5824   1.036   0.616   5.113
 1940TIP3   OH2 5825   4.884   5.244   3.078
 1940TIP3    H1 5826   4.948   5.173   3.071
 1940TIP3    H2 5827   4.846   5.234   3.166
 1941TIP3   OH2 5828   3.303   3.826   5.037
 1941TIP3    H1 5829   3.243   3.900   5.028
 1941TIP3    H2 5830   3.246   3.749   5.029
 1942TIP3   OH2 5831   4.958   5.796   0.937
 1942TIP3    H1 5832   4.890   5.788   1.003
 1942TIP3    H2 5833   4.992   5.707   0.926
 1943TIP3   OH2 5834   5.866   5.048   1.325
 1943TIP3    H1 5835   5.904   5.072   1.241
 1943TIP3    H2 5836   5.784   5.003   1.302
 1944TIP3   OH2 5837   5.097   0.714   4.467
 1944TIP3    H1 5838   5.093   0.802   4.506
 1944TIP3    H2 5839   5.134   0.728   4.380
 1945TIP3   OH2 5840   1.911   5.416   3.071
 1945TIP3    H1 5841   1.824   5.375   3.074
 1945TIP3    H2 5842   1.938   5.423   3.162
 1946TIP3   OH2 5843   1.817   0.483   4.110
 1946TIP3    H1 5844   1.735   0.437   4.091
 1946TIP3    H2 5845   1.808   0.568   4.067
 1947TIP3   OH2 5846   4.595   5.002   3.241
 1947TIP3    H1 5847   4.559   5.066   3.303
 1947TIP3    H2 5848   4.688   5.000   3.260
 1948TIP3   OH2 5849   2.501   1.721   3.518
 1948TIP3    H1 5850   2.493   1.629   3.491
 1948TIP3    H2 5851   2.460   1.724   3.605
 1949TIP3   OH2 5852   5.843   1.253   4.118
 1949TIP3    H1 5853   5.881   1.286   4.037
 1949TIP3    H2 5854   5.807   1.167   4.095
 1950TIP3   OH2 5855   0.468   4.498   1.271
 1950TIP3    H1 5856   0.532   4.566   1.294
 1950TIP3    H2 5857   0.405   4.499   1.342
 1951TIP3   OH2 5858   3.140   2.993   4.945
 1951TIP3    H1 5859   3.205   2.944   4.896
 1951TIP3    H2 5860   3.128   2.943   5.026
 1952TIP3   OH2 5861   1.999   5.572   0.327
 1952TIP3    H1 5862   1.983   5.556   0.234
 1952TIP3    H2 5863   2.087   5.538   0.343
 1953TIP3   OH2 5864   1.795   1.151   0.107
 1953TIP3    H1 5865   1.699   1.160   0.111
 1953TIP3    H2 5866   1.816   1.094   0.180
 1954TIP3   OH2 5867   5.594   3.240   5.203
 1954TIP3    H1 5868   5.575   3.153   5.168
 1954TIP3    H2 5869   5.668   3.272   5.150
 1955TIP3   OH2 5870   2.369   1.977   2.933
 1955TIP3    H1 5871   2.378   2.018   2.847
 1955TIP3    H2 5872   2.384   2.049   2.995
 1956TIP3   OH2 5873   1.496   2.728   4.899
 1956TIP3    H1 5874   1.424   2.681   4.940
 1956TIP3    H2 5875   1.538   2.775   4.972
 1957TIP3   OH2 5876   2.431   2.881   0.681
 1957TIP3    H1 5877   2.519   2.860   0.711
 1957TIP3    H2 5878   2.442   2.953   0.620
 1958TIP3   OH2 5879   6.000   0.866   3.054
 1958TIP3    H1 5880   5.934   0.934   3.048
 1958TIP3    H2 5881   6.081   0.907   3.024
 1959TIP3   OH2 5882   0.650   2.111   4.029
 1959TIP3    H1 5883   0.589   2.163   4.081
 1959TIP3    H2 5884   0.703   2.064   4.093
 1960TIP3   OH2 5885   3.430   3.022   3.159
 1960TIP3    H1 5886   3.490   2.992   3.090
 1960TIP3    H2 5887   3.460   3.110   3.181
 1961TIP3   OH2 5888   0.449   1.957   1.310
 1961TIP3    H1 5889   0.421   2.043   1.278
 1961TIP3    H2 5890   0.384   1.896   1.277
 1962TIP3   OH2 5891   1.958   4.658   5.119
 1962TIP3    H1 5892   1.924   4.602   5.049
 1962TIP3    H2 5893   2.046   4.626   5.135
 1963TIP3   OH2 5894   1.471   0.158   3.275
 1963TIP3    H1 5895   1.534   0.227   3.253
 1963TIP3    H2 5896   1.408   0.201   3.334
 1964TIP3   OH2 5897   6.024   0.321   5.071
 1964TIP3    H1 5898   6.111   0.337   5.107
 1964TIP3    H2 5899   5.985   0.409   5.064
 1965TIP3   OH2 5900   1.225   1.810   4.480
 1965TIP3    H1 5901   1.236   1.753   4.404
 1965TIP3    H2 5902   1.143   1.781   4.521
 1966TIP3   OH2 5903   4.756   3.818   3.896
 1966TIP3    H1 5904   4.812   3.746   3.924
 1966TIP3    H2 5905   4.810   3.867   3.833
 1967TIP3   OH2 5906   3.215   5.606   1.473
 1967TIP3    H1 5907   3.235   5.542   1.405
 1967TIP3    H2 5908   3.128   5.640   1.450
 1968TIP3   OH2 5909   2.953   3.096   4.699
 1968TIP3    H1 5910   3.010   3.120   4.771
 1968TIP3    H2 5911   2.965   3.001   4.689
 1969TIP3   OH2 5912   3.652   4.086   3.182
 1969TIP3    H1 5913   3.674   4.012   3.126
 1969TIP3    H2 5914   3.582   4.132   3.135
 1970TIP3   OH2 5915   5.990   5.235   3.809
 1970TIP3    H1 5916   5.925   5.183   3.762
 1970TIP3    H2 5917   6.062   5.175   3.827
 1971TIP3   OH2 5918   4.230   2.960   3.301
 1971TIP3    H1 5919   4.255   3.025   3.368
 1971TIP3    H2 5920   4.298   2.968   3.234
 1972TIP3   OH2 5921   3.797   4.245   2.674
 1972TIP3    H1 5922   3.716   4.197   2.688
 1972TIP3    H2 5923   3.771   4.323   2.625
 1973TIP3   OH2 5924   2.904   5.615   1.540
 1973TIP3    H1 5925   2.841   5.603   1.611
 1973TIP3    H2 5926   2.921   5.526   1.508
 1974TIP3   OH2 5927   3.389   0.833   1.958
 1974TIP3    H1 5928   3.445   0.764   1.924
 1974TIP3    H2 5929   3.431   0.915   1.931
 1975TIP3   OH2 5930   0.524   4.165   5.028
 1975TIP3    H1 5931   0.467   4.089   5.025
 1975TIP3    H2 5932   0.595   4.140   5.088
 1976TIP3   OH2 5933   2.720   5.618   0.628
 1976TIP3    H1 5934   2.655   5.567   0.677
 1976TIP3    H2 5935   2.801   5.610   0.679
 1977TIP3   OH2 5936   3.195   3.795   0.919
 1977TIP3    H1 5937   3.116   3.741   0.919
 1977TIP3    H2 5938   3.173   3.870   0.974
 1978TIP3   OH2 5939   6.080   0.922   4.733
 1978TIP3    H1 5940   6.036   0.998   4.697
 1978TIP3    H2 5941   6.067   0.853   4.667
 1979TIP3   OH2 5942   1.652   3.362   2.773
 1979TIP3    H1 5943   1.568   3.336   2.735
 1979TIP3    H2 5944   1.636   3.364   2.867
 1980TIP3   OH2 5945   5.020   5.542   2.491
 1980TIP3    H1 5946   5.068   5.603   2.546
 1980TIP3    H2 5947   4.996   5.592   2.414
 1981TIP3   OH2 5948   3.758   5.678   3.597
 1981TIP3    H1 5949   3.801   5.761   3.614
 1981TIP3    H2 5950   3.667   5.701   3.578
 1982TIP3   OH2 5951   4.284   4.229   0.188
 1982TIP3    H1 5952   4.192   4.254   0.192
 1982TIP3    H2 5953   4.329   4.307   0.155
 1983TIP3   OH2 5954   1.422   4.335   4.037
 1983TIP3    H1 5955   1.411   4.257   3.984
 1983TIP3    H2 5956   1.513   4.332   4.066
 1984TIP3   OH2 5957   5.922   5.276   1.470
 1984TIP3    H1 5958   5.905   5.192   1.426
 1984TIP3    H2 5959   5.937   5.337   1.398
 1985TIP3   OH2 5960   2.029   1.842   0.897
 1985TIP3    H1 5961   1.934   1.839   0.905
 1985TIP3    H2 5962   2.057   1.751   0.910
 1986TIP3   OH2 5963   6.239   0.680   0.807
 1986TIP3    H1 5964   6.275   0.768   0.819
 1986TIP3    H2 5965   6.213   0.652   0.895
 1987TIP3   OH2 5966   1.036   0.328   4.201
 1987TIP3    H1 5967   0.961   0.381   4.227
 1987TIP3    H2 5968   1.112   0.377   4.233
 1988TIP3   OH2 5969   0.354   3.022   1.796
 1988TIP3    H1 5970   0.439   3.064   1.791
 1988TIP3    H2 5971   0.374   2.928   1.797
 1989TIP3   OH2 5972   1.844   2.701   3.991
 1989TIP3    H1 5973   1.771   2.751   3.952
 1989TIP3    H2 5974   1.802   2.623   4.028
 1990TIP3   OH2 5975   4.355   5.639   3.153
 1990TIP3    H1 5976   4.443   5.673   3.137
 1990TIP3    H2 5977   4.322   5.694   3.224
 1991TIP3   OH2 5978   6.059   4.376   0.030
 1991TIP3    H1 5979   6.070   4.439   0.101
 1991TIP3    H2 5980   6.083   4.424  -0.049
 1992TIP3   OH2 5981   2.215   2.820   4.103
 1992TIP3    H1 5982   2.143   2.854   4.156
 1992TIP3    H2 5983   2.178   2.808   4.016
 1993TIP3   OH2 5984   5.629   0.781   1.576
 1993TIP3    H1 5985   5.675   0.699   1.555
 1993TIP3    H2 5986   5.577   0.799   1.498
 1994TIP3   OH2 5987   3.535   2.382   2.216
 1994TIP3    H1 5988   3.538   2.478   2.211
 1994TIP3    H2 5989   3.597   2.360   2.285
 1995TIP3   OH2 5990   3.653   5.320   4.944
 1995TIP3    H1 5991   3.740   5.297   4.911
 1995TIP3    H2 5992   3.605   5.348   4.866
 1996TIP3   OH2 5993   6.207   4.310   2.908
 1996TIP3    H1 5994   6.300   4.327   2.921
 1996TIP3    H2 5995   6.205   4.238   2.845
 1997TIP3   OH2 5996   0.584   5.089   4.260
 1997TIP3    H1 5997   0.626   5.034   4.194
 1997TIP3    H2 5998   0.491   5.080   4.243
 1998TIP3   OH2 5999   5.180   1.693   4.883
 1998TIP3    H1 6000   5.126   1.655   4.953
 1998TIP3    H2 6001   5.265   1.710   4.925
 1999TIP3   OH2 6002   2.235   1.437   0.207
 1999TIP3    H1 6003   2.285   1.400   0.279
 1999TIP3    H2 6004   2.157   1.382   0.200
 2000TIP3   OH2 6005   5.290   2.265   4.562
 2000TIP3    H1 6006   5.378   2.275   4.600
 2000TIP3    H2 6007   5.261   2.355   4.545
 2001TIP3   OH2 6008   5.144   5.505   2.833
 2001TIP3    H1 6009   5.206   5.516   2.905
 2001TIP3    H2 6010   5.168   5.573   2.770
 2002TIP3   OH2 6011   4.977   1.693   3.174
 2002TIP3    H1 6012   5.064   1.731   3.159
 2002TIP3    H2 6013   4.968   1.691   3.269
 2003TIP3   OH2 6014   3.046   5.609   1.807
 2003TIP3    H1 6015   2.984   5.536   1.813
 2003TIP3    H2 6016   3.063   5.617   1.713
 2004TIP3   OH2 6017   2.000   5.472   0.680
 2004TIP3    H1 6018   2.034   5.559   0.702
 2004TIP3    H2 6019   1.909   5.488   0.656
 2005TIP3   OH2 6020   1.344   4.053   1.658
 2005TIP3    H1 6021   1.408   4.124   1.661
 2005TIP3    H2 6022   1.339   4.029   1.566
 2006TIP3   OH2 6023   3.380   5.337   1.793
 2006TIP3    H1 6024   3.395   5.314   1.701
 2006TIP3    H2 6025   3.420   5.423   1.804
 2007TIP3   OH2 6026   2.619   0.031   5.052
 2007TIP3    H1 6027   2.640   0.114   5.095
 2007TIP3    H2 6028   2.558   0.055   4.982
 2008TIP3   OH2 6029   2.574   2.908   5.219
 2008TIP3    H1 6030   2.542   2.996   5.201
 2008TIP3    H2 6031   2.669   2.914   5.210
 2009TIP3   OH2 6032   2.114   0.181   4.366
 2009TIP3    H1 6033   2.196   0.156   4.408
 2009TIP3    H2 6034   2.070   0.238   4.429
 2010TIP3   OH2 6035   3.120   1.189   4.853
 2010TIP3    H1 6036   3.071   1.199   4.771
 2010TIP3    H2 6037   3.057   1.216   4.921
 2011TIP3   OH2 6038   0.685   5.536   4.325
 2011TIP3    H1 6039   0.656   5.608   4.381
 2011TIP3    H2 6040   0.666   5.566   4.236
 2012TIP3   OH2 6041   1.608   5.611   4.198
 2012TIP3    H1 6042   1.514   5.594   4.193
 2012TIP3    H2 6043   1.626   5.620   4.291
 2013TIP3   OH2 6044   3.848   4.103   0.719
 2013TIP3    H1 6045   3.796   4.119   0.641
 2013TIP3    H2 6046   3.843   4.185   0.768
 2014TIP3   OH2 6047   4.389   2.486   1.579
 2014TIP3    H1 6048   4.447   2.561   1.569
 2014TIP3    H2 6049   4.412   2.428   1.506
 2015TIP3   OH2 6050   3.471   4.520   2.430
 2015TIP3    H1 6051   3.443   4.590   2.489
 2015TIP3    H2 6052   3.432   4.542   2.346
 2016TIP3   OH2 6053   4.758   0.192   0.648
 2016TIP3    H1 6054   4.699   0.265   0.628
 2016TIP3    H2 6055   4.708   0.137   0.707
 2017TIP3   OH2 6056   6.051   5.874   3.152
 2017TIP3    H1 6057   6.117   5.882   3.083
 2017TIP3    H2 6058   6.080   5.935   3.220
 2018TIP3   OH2 6059   0.337   0.189  -0.022
 2018TIP3    H1 6060   0.410   0.211   0.035
 2018TIP3    H2 6061   0.263   0.239   0.013
 2019TIP3   OH2 6062   1.804   1.353   0.600
 2019TIP3    H1 6063   1.731   1.337   0.659
 2019TIP3    H2 6064   1.882   1.333   0.652
 2020TIP3   OH2 6065   3.164   1.964   0.950
 2020TIP3    H1 6066   3.145   2.034   0.887
 2020TIP3    H2 6067   3.222   2.004   1.014
 2021TIP3   OH2 6068   1.173   5.329   5.031
 2021TIP3    H1 6069   1.207   5.240   5.025
 2021TIP3    H2 6070   1.214   5.366   5.109
 2022TIP3   OH2 6071  -0.022   2.714   5.170
 2022TIP3    H1 6072   0.016   2.779   5.229
 2022TIP3    H2 6073   0.045   2.646   5.162
 2023TIP3   OH2 6074   0.037   0.146   0.031
 2023TIP3    H1 6075   0.071   0.150  -0.058
 2023TIP3    H2 6076  -0.027   0.216   0.036
 2024TIP3   OH2 6077   5.859   1.451   4.845
 2024TIP3    H1 6078   5.861   1.541   4.878
 2024TIP3    H2 6079   5.943   1.440   4.800
 2025TIP3   OH2 6080   5.611   0.972   4.238
 2025TIP3    H1 6081   5.681   0.919   4.276
 2025TIP3    H2 6082   5.611   1.052   4.290
 2026TIP3   OH2 6083   4.748   3.292   4.556
 2026TIP3    H1 6084   4.767   3.211   4.509
 2026TIP3    H2 6085   4.833   3.337   4.562
 2027TIP3   OH2 6086   1.922   5.179   0.249
 2027TIP3    H1 6087   1.995   5.145   0.300
 2027TIP3    H2 6088   1.958   5.255   0.203
 2028TIP3   OH2 6089   4.885   2.051   0.041
 2028TIP3    H1 6090   4.976   2.069   0.017
 2028TIP3    H2 6091   4.870   2.104   0.119
 2029TIP3   OH2 6092   2.726   3.620   3.944
 2029TIP3    H1 6093   2.743   3.616   4.038
 2029TIP3    H2 6094   2.724   3.528   3.917
 2030TIP3   OH2 6095   4.202   2.934   0.515
 2030TIP3    H1 6096   4.188   2.841   0.535
 2030TIP3    H2 6097   4.120   2.976   0.538
 2031TIP3   OH2 6098   5.629   3.647   4.611
 2031TIP3    H1 6099   5.565   3.694   4.664
 2031TIP3    H2 6100   5.710   3.698   4.619
 2032TIP3   OH2 6101   2.678   3.661   3.128
 2032TIP3    H1 6102   2.735   3.584   3.120
 2032TIP3    H2 6103   2.603   3.631   3.179
 2033TIP3   OH2 6104   5.177   3.618   4.067
 2033TIP3    H1 6105   5.099   3.597   4.016
 2033TIP3    H2 6106   5.145   3.671   4.139
 2034TIP3   OH2 6107   1.630   5.776   4.954
 2034TIP3    H1 6108   1.693   5.834   4.997
 2034TIP3    H2 6109   1.569   5.751   5.024
 2035TIP3   OH2 6110   5.521   0.046   1.554
 2035TIP3    H1 6111   5.469   0.022   1.631
 2035TIP3    H2 6112   5.483  -0.005   1.482
 2036TIP3   OH2 6113   0.473   5.803   0.188
 2036TIP3    H1 6114   0.402   5.740   0.198
 2036TIP3    H2 6115   0.474   5.823   0.095
 2037TIP3   OH2 6116   0.513   4.109   2.253
 2037TIP3    H1 6117   0.532   4.171   2.324
 2037TIP3    H2 6118   0.418   4.112   2.242
 2038TIP3   OH2 6119   0.075   1.044   2.777
 2038TIP3    H1 6120   0.100   1.104   2.707
 2038TIP3    H2 6121   0.147   0.981   2.782
 2039TIP3   OH2 6122   0.832   0.438   1.557
 2039TIP3    H1 6123   0.866   0.528   1.562
 2039TIP3    H2 6124   0.773   0.439   1.482
 2040TIP3   OH2 6125   5.980   1.913   2.930
 2040TIP3    H1 6126   5.989   1.817   2.927
 2040TIP3    H2 6127   6.049   1.942   2.990
 2041TIP3   OH2 6128   2.802   3.729   3.423
 2041TIP3    H1 6129   2.781   3.695   3.335
 2041TIP3    H2 6130   2.728   3.703   3.477
 2042TIP3   OH2 6131   6.234   4.568   1.546
 2042TIP3    H1 6132   6.171   4.639   1.552
 2042TIP3    H2 6133   6.275   4.579   1.460
 2043TIP3   OH2 6134   4.061   3.969   1.504
 2043TIP3    H1 6135   4.054   3.874   1.513
 2043TIP3    H2 6136   4.141   3.983   1.454
 2044TIP3   OH2 6137   3.418   1.400   2.109
 2044TIP3    H1 6138   3.422   1.356   2.025
 2044TIP3    H2 6139   3.425   1.493   2.088
 2045TIP3   OH2 6140   2.828   5.604   4.042
 2045TIP3    H1 6141   2.871   5.682   4.076
 2045TIP3    H2 6142   2.898   5.539   4.038
 2046TIP3   OH2 6143   1.950   1.358   0.185
 2046TIP3    H1 6144   1.895   1.291   0.144
 2046TIP3    H2 6145   1.928   1.438   0.138
 2047TIP3   OH2 6146   0.282   5.462   4.235
 2047TIP3    H1 6147   0.364   5.425   4.267
 2047TIP3    H2 6148   0.268   5.419   4.150
 2048TIP3   OH2 6149   0.610   3.881   1.048
 2048TIP3    H1 6150   0.518   3.906   1.056
 2048TIP3    H2 6151   0.626   3.881   0.953
 2049TIP3   OH2 6152   5.730   5.395   2.978
 2049TIP3    H1 6153   5.670   5.392   2.904
 2049TIP3    H2 6154   5.737   5.488   2.999
 2050TIP3   OH2 6155   6.126   2.460   2.152
 2050TIP3    H1 6156   6.193   2.442   2.087
 2050TIP3    H2 6157   6.169   2.514   2.218
 2051TIP3   OH2 6158   3.529   5.285   3.929
 2051TIP3    H1 6159   3.562   5.196   3.942
 2051TIP3    H2 6160   3.600   5.342   3.960
 2052TIP3   OH2 6161   1.649   2.565   2.895
 2052TIP3    H1 6162   1.656   2.607   2.981
 2052TIP3    H2 6163   1.740   2.544   2.871
 2053TIP3   OH2 6164   1.757   4.788   2.095
 2053TIP3    H1 6165   1.801   4.709   2.065
 2053TIP3    H2 6166   1.664   4.763   2.100
 2054TIP3   OH2 6167   0.855   1.284   2.247
 2054TIP3    H1 6168   0.899   1.220   2.303
 2054TIP3    H2 6169   0.920   1.354   2.235
 2055TIP3   OH2 6170   3.358   1.176   1.123
 2055TIP3    H1 6171   3.417   1.215   1.058
 2055TIP3    H2 6172   3.301   1.248   1.150
 2056TIP3   OH2 6173   1.049   4.926   3.740
 2056TIP3    H1 6174   1.094   4.842   3.734
 2056TIP3    H2 6175   1.051   4.961   3.651
 2057TIP3   OH2 6176   4.188   0.596   4.740
 2057TIP3    H1 6177   4.247   0.629   4.673
 2057TIP3    H2 6178   4.102   0.629   4.716
 2058TIP3   OH2 6179   5.655   2.897   2.749
 2058TIP3    H1 6180   5.638   2.990   2.763
 2058TIP3    H2 6181   5.607   2.875   2.669
 2059TIP3   OH2 6182   1.893   2.378   1.612
 2059TIP3    H1 6183   1.906   2.473   1.620
 2059TIP3    H2 6184   1.860   2.351   1.697
 2060TIP3   OH2 6185   2.673   2.127   4.133
 2060TIP3    H1 6186   2.638   2.147   4.219
 2060TIP3    H2 6187   2.645   2.037   4.115
 2061TIP3   OH2 6188   1.738   2.494   4.387
 2061TIP3    H1 6189   1.650   2.522   4.365
 2061TIP3    H2 6190   1.785   2.495   4.304
 2062TIP3   OH2 6191   3.124   5.723   3.451
 2062TIP3    H1 6192   3.069   5.786   3.498
 2062TIP3    H2 6193   3.211   5.763   3.453
 2063TIP3   OH2 6194   2.311   2.016   4.208
 2063TIP3    H1 6195   2.372   1.957   4.164
 2063TIP3    H2 6196   2.243   1.959   4.244
 2064TIP3   OH2 6197   1.332   5.473   3.512
 2064TIP3    H1 6198   1.342   5.566   3.494
 2064TIP3    H2 6199   1.369   5.461   3.599
 2065TIP3   OH2 6200   2.050   1.557   0.877
 2065TIP3    H1 6201   2.121   1.493   0.881
 2065TIP3    H2 6202   1.971   1.504   0.863
 2066TIP3   OH2 6203   3.862   2.186   0.910
 2066TIP3    H1 6204   3.904   2.157   0.829
 2066TIP3    H2 6205   3.784   2.233   0.880
 2067TIP3   OH2 6206   3.843   1.885   1.823
 2067TIP3    H1 6207   3.766   1.860   1.874
 2067TIP3    H2 6208   3.810   1.900   1.735
 2068TIP3   OH2 6209   5.040   4.013   0.318
 2068TIP3    H1 6210   5.017   3.921   0.302
 2068TIP3    H2 6211   5.052   4.018   0.413
 2069TIP3   OH2 6212   3.584   1.541   3.282
 2069TIP3    H1 6213   3.621   1.596   3.213
 2069TIP3    H2 6214   3.647   1.547   3.354
 2070TIP3   OH2 6215   1.361   0.191   0.343
 2070TIP3    H1 6216   1.416   0.117   0.316
 2070TIP3    H2 6217   1.367   0.192   0.439
 2071TIP3   OH2 6218   6.150   2.234   3.772
 2071TIP3    H1 6219   6.125   2.322   3.800
 2071TIP3    H2 6220   6.073   2.201   3.726
 2072TIP3   OH2 6221   0.896   5.339   2.675
 2072TIP3    H1 6222   0.836   5.265   2.672
 2072TIP3    H2 6223   0.841   5.414   2.699
 2073TIP3   OH2 6224   2.554   3.004   0.473
 2073TIP3    H1 6225   2.586   3.077   0.526
 2073TIP3    H2 6226   2.614   3.000   0.398
 2074TIP3   OH2 6227   4.027   0.808   0.347
 2074TIP3    H1 6228   3.996   0.817   0.437
 2074TIP3    H2 6229   3.948   0.799   0.295
 2075TIP3   OH2 6230   2.446   1.475   5.054
 2075TIP3    H1 6231   2.434   1.467   4.960
 2075TIP3    H2 6232   2.401   1.400   5.091
 2076TIP3   OH2 6233   3.984   0.094   4.593
 2076TIP3    H1 6234   4.017   0.164   4.649
 2076TIP3    H2 6235   3.923   0.137   4.534
 2077TIP3   OH2 6236   2.538   2.513   2.238
 2077TIP3    H1 6237   2.539   2.607   2.257
 2077TIP3    H2 6238   2.630   2.487   2.242
 2078TIP3   OH2 6239   4.966   1.602   0.537
 2078TIP3    H1 6240   4.960   1.510   0.511
 2078TIP3    H2 6241   4.880   1.622   0.575
 2079TIP3   OH2 6242   0.468   5.753   0.609
 2079TIP3    H1 6243   0.531   5.683   0.591
 2079TIP3    H2 6244   0.500   5.828   0.559
 2080TIP3   OH2 6245   1.394   3.388   0.633
 2080TIP3    H1 6246   1.349   3.372   0.716
 2080TIP3    H2 6247   1.331   3.361   0.566
 2081TIP3   OH2 6248   2.773   2.729   0.132
 2081TIP3    H1 6249   2.733   2.718   0.046
 2081TIP3    H2 6250   2.797   2.640   0.159
 2082TIP3   OH2 6251   2.610   5.465   1.273
 2082TIP3    H1 6252   2.559   5.460   1.354
 2082TIP3    H2 6253   2.544   5.478   1.205
 2083TIP3   OH2 6254   0.874   5.291   3.563
 2083TIP3    H1 6255   0.835   5.252   3.641
 2083TIP3    H2 6256   0.848   5.233   3.492
 2084TIP3   OH2 6257   3.232   0.833   0.315
 2084TIP3    H1 6258   3.247   0.918   0.272
 2084TIP3    H2 6259   3.152   0.846   0.366
 2085TIP3   OH2 6260   4.611   1.763   1.627
 2085TIP3    H1 6261   4.580   1.692   1.683
 2085TIP3    H2 6262   4.676   1.722   1.570
 2086TIP3   OH2 6263   2.478   2.176   0.639
 2086TIP3    H1 6264   2.399   2.128   0.613
 2086TIP3    H2 6265   2.550   2.115   0.624
 2087TIP3   OH2 6266   2.039   4.678   2.679
 2087TIP3    H1 6267   2.097   4.630   2.739
 2087TIP3    H2 6268   2.050   4.633   2.595
 2088TIP3   OH2 6269   6.148   1.526   1.043
 2088TIP3    H1 6270   6.091   1.594   1.007
 2088TIP3    H2 6271   6.089   1.452   1.061
 2089TIP3   OH2 6272   0.773   3.538   2.286
 2089TIP3    H1 6273   0.728   3.610   2.330
 2089TIP3    H2 6274   0.713   3.511   2.217
 2090TIP3   OH2 6275   6.314   2.587   2.659
 2090TIP3    H1 6276   6.277   2.505   2.690
 2090TIP3    H2 6277   6.240   2.648   2.658
 2091TIP3   OH2 6278   2.369   3.432   3.152
 2091TIP3    H1 6279   2.455   3.391   3.166
 2091TIP3    H2 6280   2.348   3.413   3.061
 2092TIP3   OH2 6281   1.091   5.964   2.598
 2092TIP3    H1 6282   1.049   5.929   2.520
 2092TIP3    H2 6283   1.112   5.886   2.651
 2093TIP3   OH2 6284   2.364   0.138   3.065
 2093TIP3    H1 6285   2.428   0.138   2.993
 2093TIP3    H2 6286   2.417   0.153   3.143
 2094TIP3   OH2 6287   0.066   3.189   0.045
 2094TIP3    H1 6288   0.059   3.115   0.106
 2094TIP3    H2 6289   0.139   3.240   0.077
 2095TIP3   OH2 6290   1.140   3.772   0.502
 2095TIP3    H1 6291   1.180   3.858   0.515
 2095TIP3    H2 6292   1.166   3.746   0.414
 2096TIP3   OH2 6293   1.505   5.417   2.870
 2096TIP3    H1 6294   1.464   5.503   2.869
 2096TIP3    H2 6295   1.549   5.411   2.784
 2097TIP3   OH2 6296   2.665   0.224   3.690
 2097TIP3    H1 6297   2.617   0.210   3.608
 2097TIP3    H2 6298   2.746   0.173   3.680
 2098TIP3   OH2 6299   3.410   2.045   3.502
 2098TIP3    H1 6300   3.316   2.044   3.488
 2098TIP3    H2 6301   3.433   1.953   3.518
 2099TIP3   OH2 6302   0.138   0.163   0.318
 2099TIP3    H1 6303   0.208   0.098   0.323
 2099TIP3    H2 6304   0.110   0.162   0.227
 2100TIP3   OH2 6305   2.969   4.247   2.579
 2100TIP3    H1 6306   2.926   4.326   2.544
 2100TIP3    H2 6307   3.036   4.226   2.515
 2101TIP3   OH2 6308   3.256   0.571   0.273
 2101TIP3    H1 6309   3.233   0.663   0.284
 2101TIP3    H2 6310   3.292   0.565   0.185
 2102TIP3   OH2 6311   1.101   5.987   2.234
 2102TIP3    H1 6312   1.099   5.902   2.277
 2102TIP3    H2 6313   1.173   5.980   2.171
 2103TIP3   OH2 6314   2.576   1.428   0.120
 2103TIP3    H1 6315   2.553   1.440   0.028
 2103TIP3    H2 6316   2.522   1.355   0.150
 2104TIP3   OH2 6317   3.834   3.989   3.537
 2104TIP3    H1 6318   3.777   3.934   3.484
 2104TIP3    H2 6319   3.917   3.993   3.489
 2105TIP3   OH2 6320   4.515   2.419   0.994
 2105TIP3    H1 6321   4.519   2.514   1.004
 2105TIP3    H2 6322   4.512   2.385   1.084
 2106TIP3   OH2 6323   2.220   1.500   2.567
 2106TIP3    H1 6324   2.193   1.544   2.486
 2106TIP3    H2 6325   2.247   1.413   2.538
 2107TIP3   OH2 6326   3.160   3.389   0.880
 2107TIP3    H1 6327   3.239   3.438   0.902
 2107TIP3    H2 6328   3.094   3.456   0.861
 2108TIP3   OH2 6329   2.909   2.055   2.548
 2108TIP3    H1 6330   2.906   2.123   2.616
 2108TIP3    H2 6331   2.833   2.072   2.493
 2109TIP3   OH2 6332   2.964   1.512   4.032
 2109TIP3    H1 6333   2.960   1.418   4.012
 2109TIP3    H2 6334   3.058   1.532   4.033
 2110TIP3   OH2 6335   0.369   0.812   1.230
 2110TIP3    H1 6336   0.431   0.883   1.247
 2110TIP3    H2 6337   0.412   0.757   1.165
 2111TIP3   OH2 6338   2.760   3.506   4.594
 2111TIP3    H1 6339   2.667   3.520   4.614
 2111TIP3    H2 6340   2.771   3.411   4.600
 2112TIP3   OH2 6341   4.591   4.422   3.644
 2112TIP3    H1 6342   4.574   4.355   3.578
 2112TIP3    H2 6343   4.682   4.407   3.671
 2113TIP3   OH2 6344   2.287   2.160   2.693
 2113TIP3    H1 6345   2.364   2.157   2.635
 2113TIP3    H2 6346   2.222   2.106   2.648
 2114TIP3   OH2 6347   3.621   5.030   1.757
 2114TIP3    H1 6348   3.669   5.106   1.724
 2114TIP3    H2 6349   3.601   5.052   1.848
 2115TIP3   OH2 6350   6.196   0.538   4.778
 2115TIP3    H1 6351   6.156   0.506   4.697
 2115TIP3    H2 6352   6.220   0.459   4.827
 2116TIP3   OH2 6353   0.984   4.188   2.066
 2116TIP3    H1 6354   0.916   4.158   2.006
 2116TIP3    H2 6355   1.062   4.138   2.041
 2117TIP3   OH2 6356   1.306   4.505   2.044
 2117TIP3    H1 6357   1.326   4.431   2.103
 2117TIP3    H2 6358   1.355   4.486   1.965
 2118TIP3   OH2 6359   5.889   1.191   0.001
 2118TIP3    H1 6360   5.802   1.183  -0.037
 2118TIP3    H2 6361   5.886   1.135   0.079
 2119TIP3   OH2 6362   4.576   5.710   2.475
 2119TIP3    H1 6363   4.491   5.750   2.493
 2119TIP3    H2 6364   4.631   5.783   2.446
 2120TIP3   OH2 6365   4.933   6.007   5.071
 2120TIP3    H1 6366   4.894   5.921   5.061
 2120TIP3    H2 6367   5.027   5.991   5.076
 2121TIP3   OH2 6368   2.048   5.043   1.049
 2121TIP3    H1 6369   1.995   5.086   0.983
 2121TIP3    H2 6370   2.021   5.084   1.132
 2122TIP3   OH2 6371   2.701   2.157   2.377
 2122TIP3    H1 6372   2.754   2.221   2.330
 2122TIP3    H2 6373   2.640   2.209   2.429
 2123TIP3   OH2 6374   5.607   4.300   3.186
 2123TIP3    H1 6375   5.539   4.308   3.253
 2123TIP3    H2 6376   5.675   4.362   3.213
 2124TIP3   OH2 6377   4.088   0.783   2.233
 2124TIP3    H1 6378   4.020   0.717   2.222
 2124TIP3    H2 6379   4.139   0.752   2.309
 2125TIP3   OH2 6380   0.970   5.798   0.079
 2125TIP3    H1 6381   0.954   5.704   0.069
 2125TIP3    H2 6382   0.882   5.835   0.091
 2126TIP3   OH2 6383   2.107   3.190   2.520
 2126TIP3    H1 6384   2.099   3.110   2.467
 2126TIP3    H2 6385   2.017   3.214   2.540
 2127TIP3   OH2 6386   2.293   0.444   1.486
 2127TIP3    H1 6387   2.344   0.486   1.556
 2127TIP3    H2 6388   2.220   0.403   1.531
 2128TIP3   OH2 6389   4.234   0.611   1.650
 2128TIP3    H1 6390   4.175   0.686   1.662
 2128TIP3    H2 6391   4.178   0.542   1.614
 2129TIP3   OH2 6392   5.230   0.141   2.809
 2129TIP3    H1 6393   5.246   0.103   2.895
 2129TIP3    H2 6394   5.163   0.207   2.824
 2130TIP3   OH2 6395   1.638   0.736   1.479
 2130TIP3    H1 6396   1.545   0.733   1.501
 2130TIP3    H2 6397   1.668   0.821   1.513
 2131TIP3   OH2 6398   2.185   4.500   0.306
 2131TIP3    H1 6399   2.263   4.545   0.338
 2131TIP3    H2 6400   2.129   4.491   0.384
 2132TIP3   OH2 6401   0.502   1.792   4.733
 2132TIP3    H1 6402   0.569   1.801   4.666
 2132TIP3    H2 6403   0.551   1.775   4.814
 2133TIP3   OH2 6404   3.419   5.089   0.591
 2133TIP3    H1 6405   3.470   5.169   0.585
 2133TIP3    H2 6406   3.439   5.053   0.678
 2134TIP3   OH2 6407   5.000   2.389   3.395
 2134TIP3    H1 6408   4.976   2.333   3.321
 2134TIP3    H2 6409   4.918   2.404   3.441
 2135TIP3   OH2 6410   0.677   5.978   4.194
 2135TIP3    H1 6411   0.703   5.928   4.117
 2135TIP3    H2 6412   0.759   5.990   4.243
 2136TIP3   OH2 6413   3.780   4.589   1.996
 2136TIP3    H1 6414   3.704   4.647   2.003
 2136TIP3    H2 6415   3.806   4.572   2.086
 2137TIP3   OH2 6416   6.353   0.376   2.633
 2137TIP3    H1 6417   6.290   0.381   2.705
 2137TIP3    H2 6418   6.380   0.467   2.619
 2138TIP3   OH2 6419   4.495   1.100   0.447
 2138TIP3    H1 6420   4.567   1.050   0.485
 2138TIP3    H2 6421   4.418   1.044   0.459
 2139TIP3   OH2 6422   1.791   4.988   4.575
 2139TIP3    H1 6423   1.719   5.050   4.587
 2139TIP3    H2 6424   1.791   4.969   4.481
 2140TIP3   OH2 6425   5.233   2.863   2.923
 2140TIP3    H1 6426   5.248   2.842   3.015
 2140TIP3    H2 6427   5.142   2.837   2.907
 2141TIP3   OH2 6428   1.680   2.767   4.702
 2141TIP3    H1 6429   1.615   2.787   4.769
 2141TIP3    H2 6430   1.635   2.785   4.619
 2142TIP3   OH2 6431   1.336   2.090   0.574
 2142TIP3    H1 6432   1.341   2.171   0.522
 2142TIP3    H2 6433   1.262   2.104   0.633
 2143TIP3   OH2 6434   1.595   2.516   1.459
 2143TIP3    H1 6435   1.678   2.477   1.434
 2143TIP3    H2 6436   1.582   2.587   1.396
 2144TIP3   OH2 6437   3.269   4.755   3.453
 2144TIP3    H1 6438   3.254   4.832   3.508
 2144TIP3    H2 6439   3.309   4.691   3.513
 2145TIP3   OH2 6440   5.691   1.055   1.302
 2145TIP3    H1 6441   5.787   1.057   1.307
 2145TIP3    H2 6442   5.662   1.074   1.391
 2146TIP3   OH2 6443   2.093   0.527   3.024
 2146TIP3    H1 6444   2.092   0.622   3.034
 2146TIP3    H2 6445   2.047   0.511   2.941
 2147TIP3   OH2 6446   3.800   5.059   0.845
 2147TIP3    H1 6447   3.841   5.113   0.912
 2147TIP3    H2 6448   3.770   4.981   0.891
 2148TIP3   OH2 6449   6.237   4.283   4.198
 2148TIP3    H1 6450   6.147   4.310   4.214
 2148TIP3    H2 6451   6.236   4.244   4.111
 2149TIP3   OH2 6452   4.173   1.109   3.645
 2149TIP3    H1 6453   4.096   1.083   3.695
 2149TIP3    H2 6454   4.163   1.066   3.561
 2150TIP3   OH2 6455   1.784   0.924   3.866
 2150TIP3    H1 6456   1.856   0.974   3.828
 2150TIP3    H2 6457   1.708   0.948   3.814
 2151TIP3   OH2 6458   3.436   3.851   4.089
 2151TIP3    H1 6459   3.421   3.927   4.033
 2151TIP3    H2 6460   3.381   3.782   4.052
 2152TIP3   OH2 6461   3.848   0.313   2.697
 2152TIP3    H1 6462   3.904   0.288   2.623
 2152TIP3    H2 6463   3.841   0.408   2.690
 2153TIP3   OH2 6464   4.348   3.513   1.425
 2153TIP3    H1 6465   4.440   3.488   1.419
 2153TIP3    H2 6466   4.343   3.596   1.376
 2154TIP3   OH2 6467   3.648   4.917   3.864
 2154TIP3    H1 6468   3.703   4.947   3.936
 2154TIP3    H2 6469   3.632   4.825   3.883
 2155TIP3   OH2 6470   6.174   0.099   0.622
 2155TIP3    H1 6471   6.190   0.121   0.530
 2155TIP3    H2 6472   6.089   0.055   0.621
 2156TIP3   OH2 6473   2.589   2.217   2.019
 2156TIP3    H1 6474   2.524   2.258   2.076
 2156TIP3    H2 6475   2.644   2.289   1.990
 2157TIP3   OH2 6476   3.737   0.296   4.097
 2157TIP3    H1 6477   3.712   0.207   4.072
 2157TIP3    H2 6478   3.833   0.296   4.092
 2158TIP3   OH2 6479   5.308   2.443   1.547
 2158TIP3    H1 6480   5.271   2.531   1.539
 2158TIP3    H2 6481   5.235   2.384   1.528
 2159TIP3   OH2 6482   0.122   0.536   1.095
 2159TIP3    H1 6483   0.029   0.549   1.073
 2159TIP3    H2 6484   0.169   0.561   1.016
 2160TIP3   OH2 6485   0.765   3.349   0.252
 2160TIP3    H1 6486   0.843   3.392   0.216
 2160TIP3    H2 6487   0.770   3.260   0.219
 2161TIP3   OH2 6488   1.524   2.640   3.751
 2161TIP3    H1 6489   1.602   2.584   3.748
 2161TIP3    H2 6490   1.509   2.665   3.660
 2162TIP3   OH2 6491   4.019   1.151   1.943
 2162TIP3    H1 6492   4.004   1.146   2.038
 2162TIP3    H2 6493   4.100   1.101   1.929
 2163TIP3   OH2 6494   5.309   4.737   4.473
 2163TIP3    H1 6495   5.381   4.768   4.419
 2163TIP3    H2 6496   5.280   4.815   4.521
 2164TIP3   OH2 6497   0.429   3.044   2.382
 2164TIP3    H1 6498   0.337   3.046   2.407
 2164TIP3    H2 6499   0.428   3.061   2.288
 2165TIP3   OH2 6500   4.357   3.975   1.057
 2165TIP3    H1 6501   4.264   3.995   1.056
 2165TIP3    H2 6502   4.399   4.057   1.083
 2166TIP3   OH2 6503   2.625   5.253   1.646
 2166TIP3    H1 6504   2.628   5.236   1.552
 2166TIP3    H2 6505   2.616   5.166   1.686
 2167TIP3   OH2 6506   6.002   4.821   0.096
 2167TIP3    H1 6507   5.975   4.870   0.174
 2167TIP3    H2 6508   5.935   4.754   0.085
 2168TIP3   OH2 6509   0.627   4.331   0.489
 2168TIP3    H1 6510   0.547   4.318   0.541
 2168TIP3    H2 6511   0.684   4.384   0.546
 2169TIP3   OH2 6512   2.680   2.435   3.063
 2169TIP3    H1 6513   2.628   2.405   3.137
 2169TIP3    H2 6514   2.770   2.437   3.097
 2170TIP3   OH2 6515   0.183   3.073   2.558
 2170TIP3    H1 6516   0.187   2.978   2.569
 2170TIP3    H2 6517   0.188   3.108   2.647
 2171TIP3   OH2 6518   5.026   3.146   0.165
 2171TIP3    H1 6519   5.101   3.203   0.146
 2171TIP3    H2 6520   5.050   3.062   0.126
 2172TIP3   OH2 6521   4.747   5.116   0.180
 2172TIP3    H1 6522   4.729   5.176   0.107
 2172TIP3    H2 6523   4.739   5.170   0.258
 2173TIP3   OH2 6524   6.088   2.965   3.051
 2173TIP3    H1 6525   5.994   2.949   3.053
 2173TIP3    H2 6526   6.121   2.920   3.129
 2174TIP3   OH2 6527   5.421   3.957   0.295
 2174TIP3    H1 6528   5.395   3.890   0.231
 2174TIP3    H2 6529   5.514   3.973   0.276
 2175TIP3   OH2 6530   6.148   5.917   0.124
 2175TIP3    H1 6531   6.231   5.963   0.134
 2175TIP3    H2 6532   6.089   5.961   0.186
 2176TIP3   OH2 6533   0.867   5.605   1.974
 2176TIP3    H1 6534   0.888   5.520   1.938
 2176TIP3    H2 6535   0.950   5.652   1.976
 2177TIP3   OH2 6536   5.361   0.631   3.325
 2177TIP3    H1 6537   5.422   0.585   3.382
 2177TIP3    H2 6538   5.293   0.566   3.306
 2178TIP3   OH2 6539   2.121   0.722   3.923
 2178TIP3    H1 6540   2.093   0.724   3.832
 2178TIP3    H2 6541   2.049   0.680   3.970
 2179TIP3   OH2 6542   4.842   1.160   2.536
 2179TIP3    H1 6543   4.778   1.223   2.503
 2179TIP3    H2 6544   4.898   1.212   2.594
 2180TIP3   OH2 6545   5.443   0.643  -0.016
 2180TIP3    H1 6546   5.421   0.732   0.011
 2180TIP3    H2 6547   5.481   0.603   0.062
 2181TIP3   OH2 6548   4.553   4.015   4.474
 2181TIP3    H1 6549   4.591   3.996   4.388
 2181TIP3    H2 6550   4.468   4.054   4.455
 2182TIP3   OH2 6551   4.879   1.085   4.364
 2182TIP3    H1 6552   4.818   1.120   4.428
 2182TIP3    H2 6553   4.908   1.162   4.314
 2183TIP3   OH2 6554   5.513   2.384   4.946
 2183TIP3    H1 6555   5.472   2.298   4.935
 2183TIP3    H2 6556   5.584   2.385   4.882
 2184TIP3   OH2 6557   4.290   4.701   1.814
 2184TIP3    H1 6558   4.210   4.751   1.823
 2184TIP3    H2 6559   4.265   4.611   1.837
 2185TIP3   OH2 6560   4.703   5.798   1.072
 2185TIP3    H1 6561   4.612   5.780   1.048
 2185TIP3    H2 6562   4.728   5.723   1.126
 2186TIP3   OH2 6563   5.286   1.897   2.449
 2186TIP3    H1 6564   5.197   1.922   2.472
 2186TIP3    H2 6565   5.309   1.955   2.376
 2187TIP3   OH2 6566   2.471   4.671   3.996
 2187TIP3    H1 6567   2.527   4.727   3.942
 2187TIP3    H2 6568   2.525   4.595   4.017
 2188TIP3   OH2 6569   5.169   2.130   5.141
 2188TIP3    H1 6570   5.186   2.094   5.054
 2188TIP3    H2 6571   5.079   2.161   5.137
 2189TIP3   OH2 6572   1.416   1.646   1.789
 2189TIP3    H1 6573   1.434   1.609   1.876
 2189TIP3    H2 6574   1.487   1.708   1.774
 2190TIP3   OH2 6575   5.008   3.606   3.678
 2190TIP3    H1 6576   5.014   3.525   3.626
 2190TIP3    H2 6577   5.093   3.648   3.666
 2191TIP3   OH2 6578   2.990   2.857   4.560
 2191TIP3    H1 6579   2.954   2.859   4.471
 2191TIP3    H2 6580   3.083   2.837   4.547
 2192TIP3   OH2 6581   1.958   1.275   1.821
 2192TIP3    H1 6582   1.903   1.249   1.894
 2192TIP3    H2 6583   1.904   1.336   1.771
 2193TIP3   OH2 6584   4.019   5.756   0.085
 2193TIP3    H1 6585   3.935   5.729   0.122
 2193TIP3    H2 6586   4.085   5.706   0.135
 2194TIP3   OH2 6587   0.072   4.524   3.594
 2194TIP3    H1 6588   0.010   4.570   3.536
 2194TIP3    H2 6589   0.154   4.571   3.583
 2195TIP3   OH2 6590   0.511   0.363   0.143
 2195TIP3    H1 6591   0.581   0.415   0.104
 2195TIP3    H2 6592   0.513   0.387   0.236
 2196TIP3   OH2 6593   5.182   0.096   1.358
 2196TIP3    H1 6594   5.167   0.152   1.433
 2196TIP3    H2 6595   5.120   0.024   1.369
 2197TIP3   OH2 6596   3.933   4.041   4.631
 2197TIP3    H1 6597   3.846   4.040   4.590
 2197TIP3    H2 6598   3.938   4.125   4.676
 2198TIP3   OH2 6599   0.255   0.472   0.837
 2198TIP3    H1 6600   0.308   0.415   0.781
 2198TIP3    H2 6601   0.165   0.442   0.824
 2199TIP3   OH2 6602   4.670   1.553   3.099
 2199TIP3    H1 6603   4.684   1.463   3.071
 2199TIP3    H2 6604   4.758   1.587   3.117
 2200TIP3   OH2 6605   4.941   5.013   3.907
 2200TIP3    H1 6606   4.971   5.034   3.818
 2200TIP3    H2 6607   4.958   5.093   3.957
 2201TIP3   OH2 6608   2.445   3.858   2.816
 2201TIP3    H1 6609   2.447   3.763   2.805
 2201TIP3    H2 6610   2.488   3.873   2.900
 2202TIP3   OH2 6611   3.972   3.315   4.376
 2202TIP3    H1 6612   3.891   3.330   4.425
 2202TIP3    H2 6613   3.981   3.392   4.320
 2203TIP3   OH2 6614   1.289   3.503   2.427
 2203TIP3    H1 6615   1.292   3.411   2.399
 2203TIP3    H2 6616   1.196   3.526   2.423
 2204TIP3   OH2 6617   4.706   0.786   0.269
 2204TIP3    H1 6618   4.651   0.783   0.347
 2204TIP3    H2 6619   4.757   0.704   0.273
 2205TIP3   OH2 6620   1.583   4.771   2.933
 2205TIP3    H1 6621   1.613   4.820   3.010
 2205TIP3    H2 6622   1.664   4.735   2.896
 2206TIP3   OH2 6623   1.643   4.562   4.236
 2206TIP3    H1 6624   1.586   4.518   4.299
 2206TIP3    H2 6625   1.661   4.495   4.170
 2207TIP3   OH2 6626   4.735   0.357   1.355
 2207TIP3    H1 6627   4.823   0.383   1.384
 2207TIP3    H2 6628   4.750   0.309   1.274
 2208TIP3   OH2 6629   5.797   4.965   4.764
 2208TIP3    H1 6630   5.816   4.981   4.672
 2208TIP3    H2 6631   5.828   5.044   4.809
 2209TIP3   OH2 6632   2.352   5.646   2.319
 2209TIP3    H1 6633   2.359   5.551   2.330
 2209TIP3    H2 6634   2.425   5.681   2.370
 2210TIP3   OH2 6635   2.397   3.738   1.443
 2210TIP3    H1 6636   2.481   3.771   1.475
 2210TIP3    H2 6637   2.413   3.644   1.430
 2211TIP3   OH2 6638   3.745   2.475   1.432
 2211TIP3    H1 6639   3.808   2.528   1.383
 2211TIP3    H2 6640   3.781   2.387   1.429
 2212TIP3   OH2 6641   4.200   5.534   4.399
 2212TIP3    H1 6642   4.206   5.614   4.346
 2212TIP3    H2 6643   4.284   5.530   4.445
 2213TIP3   OH2 6644   0.342   4.742   0.923
 2213TIP3    H1 6645   0.419   4.762   0.977
 2213TIP3    H2 6646   0.378   4.695   0.847
 2214TIP3   OH2 6647   3.128   3.096   2.748
 2214TIP3    H1 6648   3.112   3.092   2.653
 2214TIP3    H2 6649   3.045   3.126   2.784
 2215TIP3   OH2 6650   0.010   1.912   1.244
 2215TIP3    H1 6651   0.021   1.889   1.337
 2215TIP3    H2 6652   0.089   1.961   1.222
 2216TIP3   OH2 6653   4.439   5.015   1.845
 2216TIP3    H1 6654   4.440   5.094   1.791
 2216TIP3    H2 6655   4.348   5.005   1.872
 2217TIP3   OH2 6656   3.766   3.570   2.824
 2217TIP3    H1 6657   3.814   3.489   2.842
 2217TIP3    H2 6658   3.676   3.550   2.848
 2218TIP3   OH2 6659   0.249   5.285   4.511
 2218TIP3    H1 6660   0.178   5.347   4.498
 2218TIP3    H2 6661   0.304   5.294   4.434
 2219TIP3   OH2 6662   2.544   2.872   1.039
 2219TIP3    H1 6663   2.636   2.882   1.063
 2219TIP3    H2 6664   2.543   2.876   0.943
 2220TIP3   OH2 6665   5.261   5.954   0.488
 2220TIP3    H1 6666   5.200   6.026   0.503
 2220TIP3    H2 6667   5.339   5.978   0.538
 2221TIP3   OH2 6668   2.548   3.136   2.337
 2221TIP3    H1 6669   2.469   3.085   2.323
 2221TIP3    H2 6670   2.586   3.148   2.250
 2222TIP3   OH2 6671   1.551   2.510   1.753
 2222TIP3    H1 6672   1.543   2.510   1.658
 2222TIP3    H2 6673   1.644   2.499   1.770
 2223TIP3   OH2 6674   2.177   4.805   1.006
 2223TIP3    H1 6675   2.114   4.872   1.033
 2223TIP3    H2 6676   2.191   4.753   1.085
 2224TIP3   OH2 6677   4.360   3.760   4.497
 2224TIP3    H1 6678   4.290   3.712   4.452
 2224TIP3    H2 6679   4.346   3.740   4.590
 2225TIP3   OH2 6680   1.777   1.654   4.559
 2225TIP3    H1 6681   1.778   1.730   4.617
 2225TIP3    H2 6682   1.688   1.619   4.569
 2226TIP3   OH2 6683   2.832   1.072   2.795
 2226TIP3    H1 6684   2.903   1.136   2.795
 2226TIP3    H2 6685   2.823   1.045   2.886
 2227TIP3   OH2 6686   4.442   4.846   1.364
 2227TIP3    H1 6687   4.391   4.916   1.323
 2227TIP3    H2 6688   4.392   4.823   1.442
 2228TIP3   OH2 6689   1.738   4.502   0.951
 2228TIP3    H1 6690   1.795   4.579   0.953
 2228TIP3    H2 6691   1.755   4.459   1.035
 2229TIP3   OH2 6692   0.506   5.329   4.356
 2229TIP3    H1 6693   0.540   5.257   4.303
 2229TIP3    H2 6694   0.583   5.382   4.377
 2230TIP3   OH2 6695   3.234   3.734   3.153
 2230TIP3    H1 6696   3.164   3.700   3.210
 2230TIP3    H2 6697   3.311   3.738   3.210
 2231TIP3   OH2 6698   6.101   0.038   5.146
 2231TIP3    H1 6699   6.135   0.025   5.234
 2231TIP3    H2 6700   6.109   0.132   5.130
 2232TIP3   OH2 6701   1.512   0.760   5.176
 2232TIP3    H1 6702   1.545   0.848   5.194
 2232TIP3    H2 6703   1.586   0.714   5.136
 2233TIP3   OH2 6704   6.111   4.205   3.455
 2233TIP3    H1 6705   6.027   4.163   3.437
 2233TIP3    H2 6706   6.150   4.219   3.369
 2234TIP3   OH2 6707   6.280   2.487   3.656
 2234TIP3    H1 6708   6.255   2.578   3.674
 2234TIP3    H2 6709   6.284   2.446   3.742
 2235TIP3   OH2 6710   0.482   0.418   3.373
 2235TIP3    H1 6711   0.389   0.434   3.387
 2235TIP3    H2 6712   0.516   0.499   3.337
 2236TIP3   OH2 6713   5.645   0.941   3.253
 2236TIP3    H1 6714   5.722   0.962   3.306
 2236TIP3    H2 6715   5.582   0.904   3.315
 2237TIP3   OH2 6716   3.930   4.730   3.844
 2237TIP3    H1 6717   3.943   4.809   3.896
 2237TIP3    H2 6718   3.952   4.658   3.902
 2238TIP3   OH2 6719   6.094   3.239   1.317
 2238TIP3    H1 6720   6.130   3.189   1.244
 2238TIP3    H2 6721   6.166   3.246   1.380
 2239TIP3   OH2 6722   3.656   1.508   1.805
 2239TIP3    H1 6723   3.743   1.498   1.843
 2239TIP3    H2 6724   3.612   1.573   1.860
 2240TIP3   OH2 6725   3.821   1.580   0.935
 2240TIP3    H1 6726   3.740   1.597   0.983
 2240TIP3    H2 6727   3.868   1.516   0.989
 2241TIP3   OH2 6728   0.129   3.590   4.438
 2241TIP3    H1 6729   0.200   3.593   4.503
 2241TIP3    H2 6730   0.138   3.672   4.389
 2242TIP3   OH2 6731   5.510   4.344   1.833
 2242TIP3    H1 6732   5.422   4.377   1.850
 2242TIP3    H2 6733   5.509   4.316   1.742
 2243TIP3   OH2 6734   0.897   4.522   4.150
 2243TIP3    H1 6735   0.900   4.522   4.246
 2243TIP3    H2 6736   0.982   4.556   4.123
 2244TIP3   OH2 6737   0.252   3.311   2.448
 2244TIP3    H1 6738   0.250   3.367   2.525
 2244TIP3    H2 6739   0.246   3.222   2.482
 2245TIP3   OH2 6740   4.574   1.275   0.143
 2245TIP3    H1 6741   4.592   1.182   0.159
 2245TIP3    H2 6742   4.518   1.302   0.215
 2246TIP3   OH2 6743   3.819   5.399   3.598
 2246TIP3    H1 6744   3.761   5.367   3.667
 2246TIP3    H2 6745   3.799   5.493   3.591
 2247TIP3   OH2 6746   5.251   5.843  -0.025
 2247TIP3    H1 6747   5.286   5.755  -0.009
 2247TIP3    H2 6748   5.257   5.887   0.060
 2248TIP3   OH2 6749   3.883   3.822   2.759
 2248TIP3    H1 6750   3.860   3.734   2.787
 2248TIP3    H2 6751   3.839   3.833   2.674
 2249TIP3   OH2 6752   0.770   5.721   2.599
 2249TIP3    H1 6753   0.708   5.793   2.613
 2249TIP3    H2 6754   0.770   5.673   2.681
 2250TIP3   OH2 6755   0.280   2.574   0.755
 2250TIP3    H1 6756   0.274   2.479   0.760
 2250TIP3    H2 6757   0.190   2.605   0.764
 2251TIP3   OH2 6758   3.169   5.921   1.986
 2251TIP3    H1 6759   3.166   5.831   2.020
 2251TIP3    H2 6760   3.178   5.975   2.065
 2252TIP3   OH2 6761   4.385   3.950   0.264
 2252TIP3    H1 6762   4.473   3.980   0.240
 2252TIP3    H2 6763   4.333   4.031   0.267
 2253TIP3   OH2 6764   5.602   4.023   3.273
 2253TIP3    H1 6765   5.583   4.112   3.241
 2253TIP3    H2 6766   5.656   4.037   3.350
 2254TIP3   OH2 6767   2.081   5.350   0.932
 2254TIP3    H1 6768   2.064   5.417   0.998
 2254TIP3    H2 6769   2.094   5.400   0.851
 2255TIP3   OH2 6770   6.195   0.565   1.052
 2255TIP3    H1 6771   6.189   0.478   1.090
 2255TIP3    H2 6772   6.109   0.604   1.067
 2256TIP3   OH2 6773   4.524   4.012   2.588
 2256TIP3    H1 6774   4.585   4.032   2.516
 2256TIP3    H2 6775   4.477   4.094   2.602
 2257TIP3   OH2 6776   2.251   0.188   3.660
 2257TIP3    H1 6777   2.320   0.189   3.594
 2257TIP3    H2 6778   2.296   0.169   3.742
 2258TIP3   OH2 6779   5.316   4.948   1.740
 2258TIP3    H1 6780   5.290   4.931   1.830
 2258TIP3    H2 6781   5.241   4.922   1.687
 2259TIP3   OH2 6782   2.754   1.489   4.406
 2259TIP3    H1 6783   2.731   1.576   4.440
 2259TIP3    H2 6784   2.848   1.494   4.390
 2260TIP3   OH2 6785   5.111   1.433   1.694
 2260TIP3    H1 6786   5.047   1.472   1.753
 2260TIP3    H2 6787   5.189   1.421   1.749
 2261TIP3   OH2 6788   4.137   3.261   3.756
 2261TIP3    H1 6789   4.087   3.343   3.747
 2261TIP3    H2 6790   4.098   3.218   3.832
 2262TIP3   OH2 6791   0.630   0.892   4.401
 2262TIP3    H1 6792   0.694   0.859   4.465
 2262TIP3    H2 6793   0.572   0.948   4.453
 2263TIP3   OH2 6794   4.148   0.133   2.859
 2263TIP3    H1 6795   4.137   0.047   2.820
 2263TIP3    H2 6796   4.150   0.117   2.953
 2264TIP3   OH2 6797   0.709   1.346   4.471
 2264TIP3    H1 6798   0.667   1.419   4.516
 2264TIP3    H2 6799   0.709   1.274   4.535
 2265TIP3   OH2 6800   2.151   1.550   0.509
 2265TIP3    H1 6801   2.102   1.599   0.444
 2265TIP3    H2 6802   2.109   1.463   0.510
 2266TIP3   OH2 6803   2.281   1.370   0.827
 2266TIP3    H1 6804   2.339   1.295   0.814
 2266TIP3    H2 6805   2.196   1.341   0.794
 2267TIP3   OH2 6806   0.998   2.288   2.431
 2267TIP3    H1 6807   1.071   2.350   2.437
 2267TIP3    H2 6808   0.968   2.276   2.521
 2268TIP3   OH2 6809   2.454   5.357   4.790
 2268TIP3    H1 6810   2.362   5.329   4.789
 2268TIP3    H2 6811   2.503   5.276   4.797
 2269TIP3   OH2 6812   0.999   2.164   1.324
 2269TIP3    H1 6813   0.966   2.252   1.339
 2269TIP3    H2 6814   0.921   2.112   1.305
 2270TIP3   OH2 6815   3.312   1.864   2.206
 2270TIP3    H1 6816   3.292   1.845   2.298
 2270TIP3    H2 6817   3.359   1.947   2.208
 2271TIP3   OH2 6818   0.111   5.846   4.219
 2271TIP3    H1 6819   0.057   5.824   4.295
 2271TIP3    H2 6820   0.197   5.812   4.240
 2272TIP3   OH2 6821   1.022   4.409   0.527
 2272TIP3    H1 6822   1.098   4.460   0.556
 2272TIP3    H2 6823   0.952   4.434   0.588
 2273TIP3   OH2 6824   1.493   3.620   0.407
 2273TIP3    H1 6825   1.578   3.663   0.415
 2273TIP3    H2 6826   1.481   3.576   0.491
 2274TIP3   OH2 6827   6.043   0.170   4.562
 2274TIP3    H1 6828   5.998   0.233   4.618
 2274TIP3    H2 6829   6.088   0.111   4.623
 2275TIP3   OH2 6830   1.656   0.938   4.639
 2275TIP3    H1 6831   1.615   0.852   4.636
 2275TIP3    H2 6832   1.701   0.947   4.555
 2276TIP3   OH2 6833   2.535   4.581   2.915
 2276TIP3    H1 6834   2.610   4.535   2.953
 2276TIP3    H2 6835   2.520   4.655   2.973
 2277TIP3   OH2 6836   6.145   4.918   1.766
 2277TIP3    H1 6837   6.240   4.910   1.774
 2277TIP3    H2 6838   6.110   4.869   1.841
 2278TIP3   OH2 6839   5.707   4.503   3.664
 2278TIP3    H1 6840   5.760   4.425   3.679
 2278TIP3    H2 6841   5.717   4.554   3.744
 2279TIP3   OH2 6842   5.996   0.725   4.556
 2279TIP3    H1 6843   6.060   0.680   4.500
 2279TIP3    H2 6844   5.921   0.666   4.558
 2280TIP3   OH2 6845   0.506   2.141   4.826
 2280TIP3    H1 6846   0.458   2.212   4.784
 2280TIP3    H2 6847   0.591   2.139   4.781
 2281TIP3   OH2 6848   1.448   5.095   1.730
 2281TIP3    H1 6849   1.424   5.076   1.639
 2281TIP3    H2 6850   1.513   5.165   1.723
 2282TIP3   OH2 6851   1.933   3.794   1.942
 2282TIP3    H1 6852   1.949   3.884   1.969
 2282TIP3    H2 6853   1.906   3.749   2.022
 2283TIP3   OH2 6854   5.838   4.207   3.361
 2283TIP3    H1 6855   5.833   4.249   3.447
 2283TIP3    H2 6856   5.863   4.116   3.380
 2284TIP3   OH2 6857   0.930   1.786   3.874
 2284TIP3    H1 6858   1.013   1.786   3.923
 2284TIP3    H2 6859   0.936   1.862   3.816
 2285TIP3   OH2 6860   2.280   4.437   2.201
 2285TIP3    H1 6861   2.241   4.354   2.228
 2285TIP3    H2 6862   2.262   4.442   2.107
 2286TIP3   OH2 6863   0.221   4.397   0.247
 2286TIP3    H1 6864   0.162   4.439   0.310
 2286TIP3    H2 6865   0.241   4.466   0.184
 2287TIP3   OH2 6866   1.558   3.918   0.820
 2287TIP3    H1 6867   1.644   3.937   0.858
 2287TIP3    H2 6868   1.544   3.825   0.835
 2288TIP3   OH2 6869   2.541   2.319   2.558
 2288TIP3    H1 6870   2.577   2.333   2.646
 2288TIP3    H2 6871   2.504   2.404   2.534
 2289TIP3   OH2 6872   2.567   4.204   2.280
 2289TIP3    H1 6873   2.480   4.173   2.256
 2289TIP3    H2 6874   2.552   4.259   2.357
 2290TIP3   OH2 6875   5.981   0.335   4.776
 2290TIP3    H1 6876   5.937   0.271   4.833
 2290TIP3    H2 6877   6.042   0.380   4.834
 2291TIP3   OH2 6878   3.948   1.454   2.664
 2291TIP3    H1 6879   3.981   1.496   2.744
 2291TIP3    H2 6880   3.882   1.515   2.631
 2292TIP3   OH2 6881   6.305   1.371   2.854
 2292TIP3    H1 6882   6.332   1.320   2.930
 2292TIP3    H2 6883   6.230   1.423   2.884
 2293TIP3   OH2 6884   4.823   0.116   2.952
 2293TIP3    H1 6885   4.776   0.032   2.953
 2293TIP3    H2 6886   4.896   0.102   2.893
 2294TIP3   OH2 6887   1.369   2.958   4.357
 2294TIP3    H1 6888   1.439   3.023   4.348
 2294TIP3    H2 6889   1.329   2.953   4.271
 2295TIP3   OH2 6890   0.097   0.801   3.661
 2295TIP3    H1 6891   0.004   0.777   3.664
 2295TIP3    H2 6892   0.134   0.760   3.739
 2296TIP3   OH2 6893   2.660   4.136   0.040
 2296TIP3    H1 6894   2.695   4.193   0.109
 2296TIP3    H2 6895   2.580   4.180   0.010
 2297TIP3   OH2 6896   5.086   3.834   4.419
 2297TIP3    H1 6897   5.025   3.766   4.447
 2297TIP3    H2 6898   5.152   3.836   4.489
 2298TIP3   OH2 6899   2.452   2.922   4.015
 2298TIP3    H1 6900   2.420   3.001   3.972
 2298TIP3    H2 6901   2.377   2.890   4.066
 2299TIP3   OH2 6902   1.888   5.549   4.962
 2299TIP3    H1 6903   1.907   5.497   5.039
 2299TIP3    H2 6904   1.804   5.590   4.980
 2300TIP3   OH2 6905   5.014   3.089   1.367
 2300TIP3    H1 6906   5.036   3.021   1.303
 2300TIP3    H2 6907   4.918   3.090   1.369
 2301TIP3   OH2 6908   0.195   1.398   0.536
 2301TIP3    H1 6909   0.198   1.465   0.604
 2301TIP3    H2 6910   0.287   1.378   0.517
 2302TIP3   OH2 6911   5.963   2.252   0.528
 2302TIP3    H1 6912   5.923   2.311   0.463
 2302TIP3    H2 6913   5.927   2.281   0.612
 2303TIP3   OH2 6914   5.875   4.139   2.060
 2303TIP3    H1 6915   5.856   4.047   2.041
 2303TIP3    H2 6916   5.961   4.138   2.100
 2304TIP3   OH2 6917   1.265   1.923   3.757
 2304TIP3    H1 6918   1.300   1.945   3.843
 2304TIP3    H2 6919   1.312   1.843   3.731
 2305TIP3   OH2 6920   6.021   4.388   3.089
 2305TIP3    H1 6921   6.078   4.346   3.024
 2305TIP3    H2 6922   5.939   4.338   3.084
 2306TIP3   OH2 6923   4.383   1.865   4.976
 2306TIP3    H1 6924   4.353   1.955   4.985
 2306TIP3    H2 6925   4.431   1.847   5.056
 2307TIP3   OH2 6926   1.217   3.198   2.414
 2307TIP3    H1 6927   1.306   3.163   2.408
 2307TIP3    H2 6928   1.163   3.135   2.366
 2308TIP3   OH2 6929   2.630   5.864   0.548
 2308TIP3    H1 6930   2.540   5.853   0.580
 2308TIP3    H2 6931   2.677   5.790   0.587
 2309TIP3   OH2 6932   2.398   6.006   1.095
 2309TIP3    H1 6933   2.352   5.940   1.044
 2309TIP3    H2 6934   2.387   5.977   1.186
 2310TIP3   OH2 6935   1.712   1.982   0.753
 2310TIP3    H1 6936   1.687   1.981   0.845
 2310TIP3    H2 6937   1.789   2.038   0.749
 2311TIP3   OH2 6938   1.615   2.013   3.709
 2311TIP3    H1 6939   1.652   2.097   3.737
 2311TIP3    H2 6940   1.595   2.025   3.617
 2312TIP3   OH2 6941   3.129   5.009   3.929
 2312TIP3    H1 6942   3.170   5.095   3.922
 2312TIP3    H2 6943   3.138   4.986   4.022
 2313TIP3   OH2 6944   1.295   4.205   0.027
 2313TIP3    H1 6945   1.384   4.238   0.020
 2313TIP3    H2 6946   1.245   4.261  -0.033
 2314TIP3   OH2 6947   2.210   1.409   1.107
 2314TIP3    H1 6948   2.274   1.407   1.178
 2314TIP3    H2 6949   2.260   1.383   1.029
 2315TIP3   OH2 6950   2.547   2.292   3.296
 2315TIP3    H1 6951   2.457   2.310   3.324
 2315TIP3    H2 6952   2.596   2.370   3.325
 2316TIP3   OH2 6953   5.124   3.682   2.902
 2316TIP3    H1 6954   5.104   3.592   2.875
 2316TIP3    H2 6955   5.099   3.686   2.994
 2317TIP3   OH2 6956   2.528   0.942   0.666
 2317TIP3    H1 6957   2.434   0.923   0.669
 2317TIP3    H2 6958   2.535   1.019   0.611
 2318TIP3   OH2 6959   2.557   2.563   0.422
 2318TIP3    H1 6960   2.490   2.618   0.382
 2318TIP3    H2 6961   2.517   2.533   0.504
 2319TIP3   OH2 6962   5.398   4.519   3.340
 2319TIP3    H1 6963   5.365   4.510   3.251
 2319TIP3    H2 6964   5.422   4.430   3.367
 2320TIP3   OH2 6965   2.698   4.460   0.087
 2320TIP3    H1 6966   2.780   4.467   0.137
 2320TIP3    H2 6967   2.727   4.445  -0.003
 2321TIP3   OH2 6968   3.025   5.954   5.017
 2321TIP3    H1 6969   2.961   5.993   5.076
 2321TIP3    H2 6970   3.037   5.865   5.050
 2322TIP3   OH2 6971   0.295   1.642   4.751
 2322TIP3    H1 6972   0.377   1.689   4.742
 2322TIP3    H2 6973   0.245   1.691   4.816
 2323TIP3   OH2 6974   4.879   4.092   2.132
 2323TIP3    H1 6975   4.882   4.032   2.206
 2323TIP3    H2 6976   4.804   4.063   2.080
 2324TIP3   OH2 6977   0.405   2.395   1.419
 2324TIP3    H1 6978   0.431   2.445   1.341
 2324TIP3    H2 6979   0.321   2.434   1.445
 2325TIP3   OH2 6980   2.531   2.686   3.168
 2325TIP3    H1 6981   2.487   2.633   3.101
 2325TIP3    H2 6982   2.543   2.772   3.126
 2326TIP3   OH2 6983   4.834   1.156   4.068
 2326TIP3    H1 6984   4.929   1.158   4.058
 2326TIP3    H2 6985   4.805   1.084   4.013
 2327TIP3   OH2 6986   1.350   1.486   3.122
 2327TIP3    H1 6987   1.272   1.451   3.166
 2327TIP3    H2 6988   1.412   1.502   3.193
 2328TIP3   OH2 6989   1.254   0.469   4.316
 2328TIP3    H1 6990   1.276   0.506   4.231
 2328TIP3    H2 6991   1.256   0.543   4.376
 2329TIP3   OH2 6992   5.651   4.657   3.433
 2329TIP3    H1 6993   5.568   4.612   3.413
 2329TIP3    H2 6994   5.688   4.607   3.506
 2330TIP3   OH2 6995   5.483   0.871   4.474
 2330TIP3    H1 6996   5.424   0.803   4.442
 2330TIP3    H2 6997   5.565   0.855   4.428
 2331TIP3   OH2 6998   3.390   2.748   4.012
 2331TIP3    H1 6999   3.448   2.819   4.039
 2331TIP3    H2 7000   3.446   2.671   4.009
 2332TIP3   OH2 7001   2.294   2.994   3.779
 2332TIP3    H1 7002   2.234   2.923   3.800
 2332TIP3    H2 7003   2.311   2.985   3.685
 2333TIP3   OH2 7004   5.037   0.811   3.671
 2333TIP3    H1 7005   5.111   0.771   3.716
 2333TIP3    H2 7006   5.075   0.854   3.595
 2334TIP3   OH2 7007   4.504   3.745   1.630
 2334TIP3    H1 7008   4.474   3.658   1.655
 2334TIP3    H2 7009   4.596   3.748   1.657
 2335TIP3   OH2 7010   2.729   4.756   1.680
 2335TIP3    H1 7011   2.798   4.801   1.632
 2335TIP3    H2 7012   2.648   4.795   1.647
 2336TIP3   OH2 7013   0.367   4.890   1.917
 2336TIP3    H1 7014   0.355   4.958   1.982
 2336TIP3    H2 7015   0.447   4.844   1.944
 2337TIP3   OH2 7016   1.626   3.373   4.850
 2337TIP3    H1 7017   1.625   3.429   4.927
 2337TIP3    H2 7018   1.694   3.308   4.869
 2338TIP3   OH2 7019   0.934   2.741   3.328
 2338TIP3    H1 7020   0.959   2.778   3.243
 2338TIP3    H2 7021   1.006   2.682   3.351
 2339TIP3   OH2 7022   1.993   0.525   4.892
 2339TIP3    H1 7023   2.022   0.462   4.827
 2339TIP3    H2 7024   2.065   0.531   4.954
 2340TIP3   OH2 7025   2.868   0.721   1.148
 2340TIP3    H1 7026   2.837   0.810   1.133
 2340TIP3    H2 7027   2.808   0.685   1.214
 2341TIP3   OH2 7028   0.857   4.272   0.849
 2341TIP3    H1 7029   0.860   4.261   0.944
 2341TIP3    H2 7030   0.778   4.226   0.822
 2342TIP3   OH2 7031   0.930   2.595   0.284
 2342TIP3    H1 7032   0.939   2.525   0.349
 2342TIP3    H2 7033   0.940   2.676   0.333
 2343TIP3   OH2 7034   2.366   2.348   2.120
 2343TIP3    H1 7035   2.424   2.397   2.179
 2343TIP3    H2 7036   2.310   2.416   2.081
 2344TIP3   OH2 7037   2.788   0.391   2.185
 2344TIP3    H1 7038   2.743   0.425   2.108
 2344TIP3    H2 7039   2.846   0.462   2.212
 2345TIP3   OH2 7040   4.869   4.954   0.945
 2345TIP3    H1 7041   4.883   4.860   0.944
 2345TIP3    H2 7042   4.774   4.964   0.947
 2346TIP3   OH2 7043   1.489   4.074   4.407
 2346TIP3    H1 7044   1.546   4.071   4.483
 2346TIP3    H2 7045   1.547   4.068   4.332
 2347TIP3   OH2 7046   0.348   4.346   2.879
 2347TIP3    H1 7047   0.318   4.306   2.797
 2347TIP3    H2 7048   0.383   4.431   2.853
 2348TIP3   OH2 7049   1.679   4.099   4.592
 2348TIP3    H1 7050   1.658   4.150   4.670
 2348TIP3    H2 7051   1.720   4.019   4.625
 2349TIP3   OH2 7052   4.504   4.273   2.754
 2349TIP3    H1 7053   4.418   4.305   2.725
 2349TIP3    H2 7054   4.485   4.195   2.805
 2350TIP3   OH2 7055   4.293   5.400   1.688
 2350TIP3    H1 7056   4.303   5.400   1.783
 2350TIP3    H2 7057   4.374   5.361   1.655
 2351TIP3   OH2 7058   3.319   4.830   1.714
 2351TIP3    H1 7059   3.223   4.832   1.711
 2351TIP3    H2 7060   3.346   4.857   1.627
 2352TIP3   OH2 7061   2.979   0.758   3.495
 2352TIP3    H1 7062   2.989   0.852   3.480
 2352TIP3    H2 7063   2.937   0.726   3.415
 2353TIP3   OH2 7064   1.899   4.096   4.027
 2353TIP3    H1 7065   1.905   4.138   3.941
 2353TIP3    H2 7066   1.967   4.139   4.079
 2354TIP3   OH2 7067   1.355   5.493   0.760
 2354TIP3    H1 7068   1.420   5.424   0.750
 2354TIP3    H2 7069   1.342   5.526   0.672
 2355TIP3   OH2 7070   3.659   4.998   5.020
 2355TIP3    H1 7071   3.695   5.086   5.004
 2355TIP3    H2 7072   3.631   5.001   5.112
 2356TIP3   OH2 7073   2.889   5.973   0.759
 2356TIP3    H1 7074   2.877   6.068   0.763
 2356TIP3    H2 7075   2.808   5.936   0.794
 2357TIP3   OH2 7076   1.668   4.811   4.356
 2357TIP3    H1 7077   1.650   4.722   4.325
 2357TIP3    H2 7078   1.742   4.841   4.302
 2358TIP3   OH2 7079   5.189   3.991   2.475
 2358TIP3    H1 7080   5.134   3.921   2.511
 2358TIP3    H2 7081   5.139   4.071   2.490
 2359TIP3   OH2 7082   0.498   1.705   2.447
 2359TIP3    H1 7083   0.592   1.692   2.455
 2359TIP3    H2 7084   0.460   1.645   2.511
 2360TIP3   OH2 7085   2.804   4.104   3.068
 2360TIP3    H1 7086   2.891   4.083   3.035
 2360TIP3    H2 7087   2.813   4.192   3.105
 2361TIP3   OH2 7088   1.915   3.295   0.270
 2361TIP3    H1 7089   1.963   3.213   0.255
 2361TIP3    H2 7090   1.884   3.290   0.360
 2362TIP3   OH2 7091   1.531   3.736   1.755
 2362TIP3    H1 7092   1.541   3.831   1.743
 2362TIP3    H2 7093   1.615   3.699   1.729
 2363TIP3   OH2 7094   2.015   3.195   0.960
 2363TIP3    H1 7095   2.044   3.284   0.938
 2363TIP3    H2 7096   1.948   3.174   0.895
 2364TIP3   OH2 7097   5.017   1.299   2.177
 2364TIP3    H1 7098   5.067   1.267   2.252
 2364TIP3    H2 7099   4.985   1.220   2.134
 2365TIP3   OH2 7100   5.821   2.350   3.429
 2365TIP3    H1 7101   5.790   2.345   3.338
 2365TIP3    H2 7102   5.789   2.269   3.469
 2366TIP3   OH2 7103   5.873   4.345   2.382
 2366TIP3    H1 7104   5.873   4.340   2.287
 2366TIP3    H2 7105   5.781   4.352   2.406
 2367TIP3   OH2 7106   5.762   2.571   3.871
 2367TIP3    H1 7107   5.724   2.655   3.846
 2367TIP3    H2 7108   5.722   2.507   3.813
 2368TIP3   OH2 7109   0.702   5.806   3.186
 2368TIP3    H1 7110   0.753   5.733   3.219
 2368TIP3    H2 7111   0.644   5.768   3.120
 2369TIP3   OH2 7112   6.007   4.122   2.428
 2369TIP3    H1 7113   5.951   4.197   2.409
 2369TIP3    H2 7114   5.954   4.066   2.485
 2370TIP3   OH2 7115   2.338   2.915   1.831
 2370TIP3    H1 7116   2.326   2.897   1.738
 2370TIP3    H2 7117   2.338   2.828   1.872
 2371TIP3   OH2 7118   3.566   0.982   1.381
 2371TIP3    H1 7119   3.527   0.901   1.347
 2371TIP3    H2 7120   3.557   1.045   1.310
 2372TIP3   OH2 7121   0.895   1.110   1.046
 2372TIP3    H1 7122   0.934   1.087   1.130
 2372TIP3    H2 7123   0.830   1.177   1.066
 2373TIP3   OH2 7124   5.800   1.033   2.853
 2373TIP3    H1 7125   5.752   1.052   2.772
 2373TIP3    H2 7126   5.885   1.001   2.823
 2374TIP3   OH2 7127   0.716   4.619   2.221
 2374TIP3    H1 7128   0.775   4.558   2.265
 2374TIP3    H2 7129   0.686   4.678   2.291
 2375TIP3   OH2 7130   2.540   1.083   3.535
 2375TIP3    H1 7131   2.456   1.037   3.528
 2375TIP3    H2 7132   2.521   1.162   3.585
 2376TIP3   OH2 7133   1.588   5.176   4.623
 2376TIP3    H1 7134   1.593   5.167   4.718
 2376TIP3    H2 7135   1.496   5.159   4.602
 2377TIP3   OH2 7136   0.728   5.199   1.508
 2377TIP3    H1 7137   0.698   5.259   1.576
 2377TIP3    H2 7138   0.807   5.240   1.472
 2378TIP3   OH2 7139   3.365   5.240   1.500
 2378TIP3    H1 7140   3.431   5.183   1.460
 2378TIP3    H2 7141   3.357   5.314   1.440
 2379TIP3   OH2 7142   3.040   1.109   0.798
 2379TIP3    H1 7143   3.131   1.125   0.774
 2379TIP3    H2 7144   3.035   1.015   0.816
 2380TIP3   OH2 7145   2.095   3.368   1.666
 2380TIP3    H1 7146   2.088   3.463   1.670
 2380TIP3    H2 7147   2.005   3.337   1.669
 2381TIP3   OH2 7148   3.422   5.951   3.700
 2381TIP3    H1 7149   3.425   5.857   3.717
 2381TIP3    H2 7150   3.341   5.981   3.741
 2382TIP3   OH2 7151   5.377   4.002   1.289
 2382TIP3    H1 7152   5.442   3.947   1.334
 2382TIP3    H2 7153   5.339   3.944   1.223
 2383TIP3   OH2 7154   2.202   2.860   1.300
 2383TIP3    H1 7155   2.198   2.811   1.218
 2383TIP3    H2 7156   2.178   2.950   1.275
 2384TIP3   OH2 7157   2.868   2.620   4.576
 2384TIP3    H1 7158   2.777   2.634   4.549
 2384TIP3    H2 7159   2.899   2.707   4.601
 2385TIP3   OH2 7160   0.966   4.991   2.900
 2385TIP3    H1 7161   0.994   5.013   2.811
 2385TIP3    H2 7162   0.898   5.056   2.920
 2386TIP3   OH2 7163   4.425   2.390   0.624
 2386TIP3    H1 7164   4.497   2.451   0.639
 2386TIP3    H2 7165   4.426   2.333   0.700
 2387TIP3   OH2 7166   0.909   3.440   4.511
 2387TIP3    H1 7167   0.912   3.391   4.593
 2387TIP3    H2 7168   0.835   3.500   4.521
 2388TIP3   OH2 7169   3.915   2.008   4.731
 2388TIP3    H1 7170   3.937   2.008   4.824
 2388TIP3    H2 7171   3.957   2.088   4.698
 2389TIP3   OH2 7172   0.291   2.857   0.047
 2389TIP3    H1 7173   0.321   2.935   0.001
 2389TIP3    H2 7174   0.211   2.885   0.091
 2390TIP3   OH2 7175   4.588   5.591   2.979
 2390TIP3    H1 7176   4.582   5.533   2.903
 2390TIP3    H2 7177   4.625   5.672   2.944
 2391TIP3   OH2 7178   3.141   1.327   2.109
 2391TIP3    H1 7179   3.215   1.319   2.170
 2391TIP3    H2 7180   3.181   1.330   2.023
 2392TIP3   OH2 7181   5.688   5.735   3.230
 2392TIP3    H1 7182   5.680   5.820   3.186
 2392TIP3    H2 7183   5.762   5.693   3.187
 2393TIP3   OH2 7184   2.590   3.795   3.709
 2393TIP3    H1 7185   2.576   3.868   3.769
 2393TIP3    H2 7186   2.591   3.717   3.766
 2394TIP3   OH2 7187   2.905   5.371   0.727
 2394TIP3    H1 7188   2.927   5.423   0.805
 2394TIP3    H2 7189   2.976   5.390   0.666
 2395TIP3   OH2 7190   1.961   0.618   2.254
 2395TIP3    H1 7191   1.995   0.633   2.166
 2395TIP3    H2 7192   1.905   0.541   2.245
 2396TIP3   OH2 7193   1.561   3.162   1.809
 2396TIP3    H1 7194   1.509   3.186   1.732
 2396TIP3    H2 7195   1.554   3.067   1.814
 2397TIP3   OH2 7196   3.193   3.275   4.825
 2397TIP3    H1 7197   3.229   3.364   4.829
 2397TIP3    H2 7198   3.231   3.230   4.900
 2398TIP3   OH2 7199   6.276   3.846   0.838
 2398TIP3    H1 7200   6.249   3.785   0.769
 2398TIP3    H2 7201   6.359   3.882   0.807
 2399TIP3   OH2 7202   5.603   3.430   2.348
 2399TIP3    H1 7203   5.555   3.455   2.269
 2399TIP3    H2 7204   5.683   3.483   2.345
 2400TIP3   OH2 7205   3.683   6.016   0.881
 2400TIP3    H1 7206   3.735   6.014   0.801
 2400TIP3    H2 7207   3.692   5.928   0.918
 2401TIP3   OH2 7208   3.081   3.213   5.100
 2401TIP3    H1 7209   3.173   3.231   5.115
 2401TIP3    H2 7210   3.080   3.141   5.037
 2402TIP3   OH2 7211   1.458   1.747   0.891
 2402TIP3    H1 7212   1.480   1.768   0.800
 2402TIP3    H2 7213   1.538   1.709   0.927
 2403TIP3   OH2 7214   4.076   1.725   0.987
 2403TIP3    H1 7215   4.158   1.703   0.942
 2403TIP3    H2 7216   4.009   1.717   0.919
 2404TIP3   OH2 7217   0.734   0.517   0.688
 2404TIP3    H1 7218   0.740   0.437   0.740
 2404TIP3    H2 7219   0.641   0.542   0.693
 2405TIP3   OH2 7220   6.147   1.896   3.573
 2405TIP3    H1 7221   6.229   1.856   3.600
 2405TIP3    H2 7222   6.172   1.963   3.509
 2406TIP3   OH2 7223   2.626   4.049   3.857
 2406TIP3    H1 7224   2.568   4.107   3.905
 2406TIP3    H2 7225   2.709   4.054   3.904
 2407TIP3   OH2 7226   3.525   0.123   3.792
 2407TIP3    H1 7227   3.605   0.114   3.844
 2407TIP3    H2 7228   3.533   0.209   3.751
 2408TIP3   OH2 7229   5.667   0.283   1.528
 2408TIP3    H1 7230   5.623   0.211   1.573
 2408TIP3    H2 7231   5.656   0.264   1.435
 2409TIP3   OH2 7232   3.836   0.787   2.037
 2409TIP3    H1 7233   3.772   0.852   2.068
 2409TIP3    H2 7234   3.782   0.712   2.009
 2410TIP3   OH2 7235   2.915   1.141   2.034
 2410TIP3    H1 7236   2.980   1.203   2.069
 2410TIP3    H2 7237   2.961   1.057   2.031
 2411TIP3   OH2 7238   5.128   5.655   2.092
 2411TIP3    H1 7239   5.116   5.747   2.068
 2411TIP3    H2 7240   5.061   5.639   2.159
 2412TIP3   OH2 7241   1.588   2.437   0.997
 2412TIP3    H1 7242   1.571   2.348   0.966
 2412TIP3    H2 7243   1.558   2.437   1.088
 2413TIP3   OH2 7244   6.213   4.418   5.155
 2413TIP3    H1 7245   6.277   4.348   5.169
 2413TIP3    H2 7246   6.221   4.473   5.233
 2414TIP3   OH2 7247   2.839   0.449   0.036
 2414TIP3    H1 7248   2.929   0.452   0.006
 2414TIP3    H2 7249   2.798   0.528   0.001
 2415TIP3   OH2 7250   3.164   4.391   3.006
 2415TIP3    H1 7251   3.161   4.422   3.097
 2415TIP3    H2 7252   3.179   4.469   2.954
 2416TIP3   OH2 7253   4.070   1.542   4.615
 2416TIP3    H1 7254   4.088   1.635   4.613
 2416TIP3    H2 7255   4.130   1.507   4.682
 2417TIP3   OH2 7256   2.891   3.869   4.032
 2417TIP3    H1 7257   2.892   3.834   3.943
 2417TIP3    H2 7258   2.893   3.791   4.088
 2418TIP3   OH2 7259   1.469   3.839   4.106
 2418TIP3    H1 7260   1.489   3.769   4.044
 2418TIP3    H2 7261   1.554   3.875   4.132
 2419TIP3   OH2 7262   2.082   4.839   2.936
 2419TIP3    H1 7263   2.117   4.772   2.994
 2419TIP3    H2 7264   2.037   4.790   2.867
 2420TIP3   OH2 7265   3.128   1.480   2.792
 2420TIP3    H1 7266   3.080   1.561   2.776
 2420TIP3    H2 7267   3.208   1.490   2.740
 2421TIP3   OH2 7268   1.248   1.847   1.241
 2421TIP3    H1 7269   1.229   1.753   1.238
 2421TIP3    H2 7270   1.168   1.889   1.209
 2422TIP3   OH2 7271   5.226   3.883   1.683
 2422TIP3    H1 7272   5.183   3.916   1.762
 2422TIP3    H2 7273   5.306   3.936   1.676
 2423TIP3   OH2 7274   0.881   4.622   3.713
 2423TIP3    H1 7275   0.821   4.611   3.786
 2423TIP3    H2 7276   0.824   4.628   3.636
 2424TIP3   OH2 7277   5.540   3.548   3.176
 2424TIP3    H1 7278   5.498   3.548   3.089
 2424TIP3    H2 7279   5.500   3.621   3.222
 2425TIP3   OH2 7280   2.631   1.198   4.113
 2425TIP3    H1 7281   2.651   1.290   4.128
 2425TIP3    H2 7282   2.711   1.161   4.077
 2426TIP3   OH2 7283   5.341   5.544   2.251
 2426TIP3    H1 7284   5.379   5.463   2.218
 2426TIP3    H2 7285   5.280   5.572   2.183
 2427TIP3   OH2 7286   2.646   3.906   4.339
 2427TIP3    H1 7287   2.629   3.813   4.324
 2427TIP3    H2 7288   2.613   3.949   4.260
 2428TIP3   OH2 7289   1.790   0.289   3.138
 2428TIP3    H1 7290   1.755   0.296   3.050
 2428TIP3    H2 7291   1.885   0.279   3.125
 2429TIP3   OH2 7292   3.533   0.726   4.097
 2429TIP3    H1 7293   3.608   0.667   4.095
 2429TIP3    H2 7294   3.472   0.690   4.032
 2430TIP3   OH2 7295   4.755   3.232   1.390
 2430TIP3    H1 7296   4.677   3.181   1.412
 2430TIP3    H2 7297   4.755   3.304   1.453
 2431TIP3   OH2 7298   3.810   2.144   4.253
 2431TIP3    H1 7299   3.871   2.091   4.305
 2431TIP3    H2 7300   3.725   2.103   4.267
 2432TIP3   OH2 7301   3.047   4.034   2.227
 2432TIP3    H1 7302   3.022   3.950   2.266
 2432TIP3    H2 7303   2.965   4.084   2.224
 2433TIP3   OH2 7304   0.500   1.552   0.333
 2433TIP3    H1 7305   0.455   1.607   0.268
 2433TIP3    H2 7306   0.527   1.474   0.285
 2434TIP3   OH2 7307   2.535   2.778   2.235
 2434TIP3    H1 7308   2.444   2.780   2.206
 2434TIP3    H2 7309   2.578   2.849   2.186
 2435TIP3   OH2 7310   4.576   2.899   2.145
 2435TIP3    H1 7311   4.628   2.861   2.216
 2435TIP3    H2 7312   4.521   2.965   2.187
 2436TIP3   OH2 7313   2.575   5.099   4.813
 2436TIP3    H1 7314   2.646   5.086   4.751
 2436TIP3    H2 7315   2.542   5.011   4.831
 2437TIP3   OH2 7316   0.293   4.732   3.404
 2437TIP3    H1 7317   0.342   4.676   3.465
 2437TIP3    H2 7318   0.276   4.812   3.454
 2438TIP3   OH2 7319   3.096   1.292   3.532
 2438TIP3    H1 7320   3.108   1.336   3.448
 2438TIP3    H2 7321   3.160   1.332   3.590
 2439TIP3   OH2 7322   2.344   3.156   3.318
 2439TIP3    H1 7323   2.308   3.143   3.230
 2439TIP3    H2 7324   2.438   3.167   3.304
 2440TIP3   OH2 7325   4.680   0.517   1.890
 2440TIP3    H1 7326   4.705   0.609   1.895
 2440TIP3    H2 7327   4.724   0.485   1.811
 2441TIP3   OH2 7328   0.050   2.646   0.868
 2441TIP3    H1 7329  -0.032   2.609   0.900
 2441TIP3    H2 7330   0.083   2.699   0.941
 2442TIP3   OH2 7331   2.272   1.009   3.735
 2442TIP3    H1 7332   2.335   1.029   3.804
 2442TIP3    H2 7333   2.316   0.944   3.680
 2443TIP3   OH2 7334   6.143   5.741   0.421
 2443TIP3    H1 7335   6.124   5.701   0.506
 2443TIP3    H2 7336   6.174   5.829   0.442
 2444TIP3   OH2 7337   4.256   3.213   2.759
 2444TIP3    H1 7338   4.281   3.233   2.849
 2444TIP3    H2 7339   4.234   3.298   2.721
 2445TIP3   OH2 7340   3.487   5.595   0.169
 2445TIP3    H1 7341   3.430   5.533   0.215
 2445TIP3    H2 7342   3.444   5.680   0.180
 2446TIP3   OH2 7343   1.776   2.151   3.134
 2446TIP3    H1 7344   1.864   2.185   3.119
 2446TIP3    H2 7345   1.737   2.147   3.047
 2447TIP3   OH2 7346   2.336   4.190   1.456
 2447TIP3    H1 7347   2.330   4.151   1.543
 2447TIP3    H2 7348   2.298   4.277   1.466
 2448TIP3   OH2 7349   1.438   5.015   2.141
 2448TIP3    H1 7350   1.463   4.941   2.197
 2448TIP3    H2 7351   1.425   4.976   2.055
 2449TIP3   OH2 7352   3.645   4.873   1.271
 2449TIP3    H1 7353   3.646   4.956   1.317
 2449TIP3    H2 7354   3.682   4.810   1.333
 2450TIP3   OH2 7355   0.939   5.814   2.397
 2450TIP3    H1 7356   0.887   5.782   2.471
 2450TIP3    H2 7357   0.890   5.786   2.320
 2451TIP3   OH2 7358   5.344   0.933   2.958
 2451TIP3    H1 7359   5.400   1.003   2.991
 2451TIP3    H2 7360   5.403   0.877   2.908
 2452TIP3   OH2 7361   5.489   0.714   0.719
 2452TIP3    H1 7362   5.533   0.747   0.640
 2452TIP3    H2 7363   5.398   0.701   0.692
 2453TIP3   OH2 7364   5.845   1.569   1.147
 2453TIP3    H1 7365   5.878   1.479   1.151
 2453TIP3    H2 7366   5.864   1.598   1.058
 2454TIP3   OH2 7367   3.233   5.120   1.253
 2454TIP3    H1 7368   3.238   5.084   1.164
 2454TIP3    H2 7369   3.166   5.188   1.247
 2455TIP3   OH2 7370   6.124   2.796   1.097
 2455TIP3    H1 7371   6.057   2.838   1.043
 2455TIP3    H2 7372   6.090   2.800   1.186
 2456TIP3   OH2 7373   3.886   4.019   2.017
 2456TIP3    H1 7374   3.938   4.031   1.937
 2456TIP3    H2 7375   3.815   3.962   1.990
 2457TIP3   OH2 7376   0.795   1.688   0.041
 2457TIP3    H1 7377   0.870   1.651  -0.006
 2457TIP3    H2 7378   0.818   1.680   0.133
 2458TIP3   OH2 7379   1.974   5.118   2.974
 2458TIP3    H1 7380   1.891   5.092   2.935
 2458TIP3    H2 7381   1.951   5.155   3.059
 2459TIP3   OH2 7382   0.049   3.368   0.536
 2459TIP3    H1 7383   0.018   3.436   0.476
 2459TIP3    H2 7384   0.010   3.390   0.620
 2460TIP3   OH2 7385   5.935   2.992   5.077
 2460TIP3    H1 7386   5.872   3.064   5.080
 2460TIP3    H2 7387   5.887   2.916   5.110
 2461TIP3   OH2 7388   5.261   2.179   0.453
 2461TIP3    H1 7389   5.258   2.142   0.541
 2461TIP3    H2 7390   5.346   2.151   0.419
 2462TIP3   OH2 7391   4.581   2.407   3.755
 2462TIP3    H1 7392   4.650   2.406   3.688
 2462TIP3    H2 7393   4.553   2.499   3.758
 2463TIP3   OH2 7394   5.746   3.639   2.262
 2463TIP3    H1 7395   5.670   3.689   2.292
 2463TIP3    H2 7396   5.821   3.694   2.284
 2464TIP3   OH2 7397   1.359   0.982   1.490
 2464TIP3    H1 7398   1.384   1.023   1.407
 2464TIP3    H2 7399   1.415   1.022   1.555
 2465TIP3   OH2 7400   3.987   0.087   5.120
 2465TIP3    H1 7401   3.993   0.162   5.180
 2465TIP3    H2 7402   3.951   0.123   5.039
 2466TIP3   OH2 7403   2.208   2.206   1.780
 2466TIP3    H1 7404   2.246   2.293   1.789
 2466TIP3    H2 7405   2.271   2.147   1.823
 2467TIP3   OH2 7406   1.892   2.457   2.924
 2467TIP3    H1 7407   1.908   2.398   2.998
 2467TIP3    H2 7408   1.897   2.400   2.847
 2468TIP3   OH2 7409   1.166   1.285   3.218
 2468TIP3    H1 7410   1.221   1.207   3.223
 2468TIP3    H2 7411   1.113   1.272   3.139
 2469TIP3   OH2 7412   5.717   0.482   0.850
 2469TIP3    H1 7413   5.687   0.392   0.869
 2469TIP3    H2 7414   5.813   0.475   0.848
 2470TIP3   OH2 7415   0.304   0.053   4.004
 2470TIP3    H1 7416   0.311   0.123   4.070
 2470TIP3    H2 7417   0.349   0.089   3.928
 2471TIP3   OH2 7418   1.398   1.427   4.339
 2471TIP3    H1 7419   1.348   1.346   4.346
 2471TIP3    H2 7420   1.335   1.491   4.308
 2472TIP3   OH2 7421   2.188   5.304   4.713
 2472TIP3    H1 7422   2.118   5.356   4.753
 2472TIP3    H2 7423   2.148   5.219   4.695
 2473TIP3   OH2 7424   1.860   2.668   2.257
 2473TIP3    H1 7425   1.777   2.702   2.290
 2473TIP3    H2 7426   1.845   2.574   2.247
 2474TIP3   OH2 7427   4.074   4.792   0.699
 2474TIP3    H1 7428   4.159   4.748   0.692
 2474TIP3    H2 7429   4.059   4.801   0.793
 2475TIP3   OH2 7430   0.121   1.424   3.617
 2475TIP3    H1 7431   0.167   1.467   3.689
 2475TIP3    H2 7432   0.149   1.472   3.539
 2476TIP3   OH2 7433   0.451   4.646   4.955
 2476TIP3    H1 7434   0.443   4.563   5.002
 2476TIP3    H2 7435   0.478   4.709   5.021
 2477TIP3   OH2 7436   0.576   0.588   2.518
 2477TIP3    H1 7437   0.645   0.522   2.519
 2477TIP3    H2 7438   0.583   0.633   2.602
 2478TIP3   OH2 7439   6.049   1.957   4.703
 2478TIP3    H1 7440   6.048   1.923   4.792
 2478TIP3    H2 7441   6.106   2.034   4.706
 2479TIP3   OH2 7442   5.264   1.058   3.831
 2479TIP3    H1 7443   5.171   1.048   3.811
 2479TIP3    H2 7444   5.266   1.078   3.925
 2480TIP3   OH2 7445   6.348   5.783   1.896
 2480TIP3    H1 7446   6.282   5.794   1.827
 2480TIP3    H2 7447   6.371   5.872   1.922
 2481TIP3   OH2 7448   4.218   2.543   2.423
 2481TIP3    H1 7449   4.203   2.464   2.370
 2481TIP3    H2 7450   4.133   2.586   2.426
 2482TIP3   OH2 7451   2.220   5.301   0.647
 2482TIP3    H1 7452   2.224   5.243   0.723
 2482TIP3    H2 7453   2.138   5.348   0.656
 2483TIP3   OH2 7454   5.192   4.294   2.270
 2483TIP3    H1 7455   5.116   4.262   2.319
 2483TIP3    H2 7456   5.266   4.277   2.327
 2484TIP3   OH2 7457   0.693   1.398   2.021
 2484TIP3    H1 7458   0.768   1.360   1.975
 2484TIP3    H2 7459   0.727   1.476   2.064
 2485TIP3   OH2 7460   0.504   2.630   0.937
 2485TIP3    H1 7461   0.421   2.621   0.889
 2485TIP3    H2 7462   0.524   2.724   0.932
 2486TIP3   OH2 7463   4.091   4.544   3.027
 2486TIP3    H1 7464   4.112   4.452   3.042
 2486TIP3    H2 7465   3.995   4.548   3.033
 2487TIP3   OH2 7466   0.985   2.528   3.705
 2487TIP3    H1 7467   0.926   2.532   3.781
 2487TIP3    H2 7468   1.054   2.467   3.732
 2488TIP3   OH2 7469   3.825   5.208   4.318
 2488TIP3    H1 7470   3.799   5.263   4.392
 2488TIP3    H2 7471   3.860   5.128   4.358
 2489TIP3   OH2 7472   2.353   1.190   4.481
 2489TIP3    H1 7473   2.315   1.264   4.527
 2489TIP3    H2 7474   2.447   1.198   4.497
 2490TIP3   OH2 7475   0.814   0.819   0.377
 2490TIP3    H1 7476   0.730   0.862   0.392
 2490TIP3    H2 7477   0.853   0.868   0.304
 2491TIP3   OH2 7478   2.929   2.179   4.296
 2491TIP3    H1 7479   2.929   2.261   4.345
 2491TIP3    H2 7480   2.955   2.204   4.207
 2492TIP3   OH2 7481   1.368   5.000   4.720
 2492TIP3    H1 7482   1.283   5.011   4.676
 2492TIP3    H2 7483   1.416   4.940   4.663
 2493TIP3   OH2 7484   1.533   0.422   0.231
 2493TIP3    H1 7485   1.484   0.341   0.217
 2493TIP3    H2 7486   1.505   0.452   0.318
 2494TIP3   OH2 7487   0.302   1.037   4.409
 2494TIP3    H1 7488   0.297   1.131   4.394
 2494TIP3    H2 7489   0.374   1.026   4.471
 2495TIP3   OH2 7490   1.848   4.254   0.049
 2495TIP3    H1 7491   1.867   4.232   0.140
 2495TIP3    H2 7492   1.753   4.243   0.041
 2496TIP3   OH2 7493   3.279   4.364   1.839
 2496TIP3    H1 7494   3.230   4.444   1.823
 2496TIP3    H2 7495   3.216   4.305   1.881
 2497TIP3   OH2 7496   4.329   0.236   4.790
 2497TIP3    H1 7497   4.421   0.212   4.780
 2497TIP3    H2 7498   4.299   0.183   4.864
 2498TIP3   OH2 7499   1.196   4.838   0.899
 2498TIP3    H1 7500   1.284   4.804   0.882
 2498TIP3    H2 7501   1.141   4.800   0.830
 2499TIP3   OH2 7502   4.863   2.790   1.612
 2499TIP3    H1 7503   4.815   2.734   1.550
 2499TIP3    H2 7504   4.850   2.748   1.697
 2500TIP3   OH2 7505   0.844   2.308   1.644
 2500TIP3    H1 7506   0.873   2.355   1.566
 2500TIP3    H2 7507   0.769   2.359   1.676
 2501TIP3   OH2 7508   2.164   2.558   3.232
 2501TIP3    H1 7509   2.069   2.574   3.232
 2501TIP3    H2 7510   2.189   2.567   3.140
 2502TIP3   OH2 7511   0.080   2.662   1.900
 2502TIP3    H1 7512   0.090   2.597   1.969
 2502TIP3    H2 7513  -0.011   2.689   1.906
 2503TIP3   OH2 7514   5.624   5.690   2.169
 2503TIP3    H1 7515   5.539   5.647   2.178
 2503TIP3    H2 7516   5.668   5.643   2.098
 2504TIP3   OH2 7517   6.115   3.139   1.969
 2504TIP3    H1 7518   6.038   3.130   2.025
 2504TIP3    H2 7519   6.164   3.057   1.982
 2505TIP3   OH2 7520   3.946   0.082   3.112
 2505TIP3    H1 7521   3.919   0.063   3.202
 2505TIP3    H2 7522   3.910   0.168   3.093
 2506TIP3   OH2 7523   0.543   1.334   0.148
 2506TIP3    H1 7524   0.541   1.239   0.138
 2506TIP3    H2 7525   0.515   1.367   0.062
 2507TIP3   OH2 7526   1.379   2.772   2.907
 2507TIP3    H1 7527   1.367   2.818   2.824
 2507TIP3    H2 7528   1.472   2.752   2.911
 2508TIP3   OH2 7529   5.706   3.415   3.668
 2508TIP3    H1 7530   5.699   3.460   3.752
 2508TIP3    H2 7531   5.641   3.345   3.673
 2509TIP3   OH2 7532   1.954   2.022   4.995
 2509TIP3    H1 7533   1.976   1.939   4.953
 2509TIP3    H2 7534   1.913   2.074   4.926
 2510TIP3   OH2 7535   2.164   3.817   3.590
 2510TIP3    H1 7536   2.211   3.739   3.563
 2510TIP3    H2 7537   2.168   3.876   3.515
 2511TIP3   OH2 7538   5.004   0.403   4.792
 2511TIP3    H1 7539   4.987   0.369   4.880
 2511TIP3    H2 7540   5.099   0.413   4.789
 2512TIP3   OH2 7541   0.603   2.387   3.170
 2512TIP3    H1 7542   0.580   2.375   3.263
 2512TIP3    H2 7543   0.569   2.474   3.149
 2513TIP3   OH2 7544   0.692   4.663   0.869
 2513TIP3    H1 7545   0.654   4.587   0.913
 2513TIP3    H2 7546   0.682   4.734   0.932
 2514TIP3   OH2 7547   3.570   5.277   1.134
 2514TIP3    H1 7548   3.532   5.206   1.082
 2514TIP3    H2 7549   3.664   5.273   1.115
 2515TIP3   OH2 7550   3.448   1.837   2.661
 2515TIP3    H1 7551   3.422   1.747   2.678
 2515TIP3    H2 7552   3.460   1.875   2.747
 2516TIP3   OH2 7553   0.299   0.604   1.600
 2516TIP3    H1 7554   0.307   0.573   1.691
 2516TIP3    H2 7555   0.253   0.533   1.555
 2517TIP3   OH2 7556   4.825   3.787   1.965
 2517TIP3    H1 7557   4.743   3.835   1.977
 2517TIP3    H2 7558   4.830   3.728   2.040
 2518TIP3   OH2 7559   1.954   3.638   5.141
 2518TIP3    H1 7560   1.900   3.705   5.182
 2518TIP3    H2 7561   2.030   3.686   5.107
 2519TIP3   OH2 7562   3.074   0.951   1.273
 2519TIP3    H1 7563   3.119   0.886   1.327
 2519TIP3    H2 7564   3.028   1.007   1.335
 2520TIP3   OH2 7565   4.297   2.131   5.013
 2520TIP3    H1 7566   4.377   2.164   5.054
 2520TIP3    H2 7567   4.226   2.176   5.059
 2521TIP3   OH2 7568   1.784   5.831   5.173
 2521TIP3    H1 7569   1.870   5.792   5.187
 2521TIP3    H2 7570   1.801   5.921   5.146
 2522TIP3   OH2 7571   2.909   2.263   2.704
 2522TIP3    H1 7572   2.969   2.315   2.757
 2522TIP3    H2 7573   2.826   2.266   2.751
 2523TIP3   OH2 7574   3.948   5.588   2.958
 2523TIP3    H1 7575   4.014   5.531   2.918
 2523TIP3    H2 7576   3.869   5.534   2.962
 2524TIP3   OH2 7577   1.762   5.402   4.581
 2524TIP3    H1 7578   1.740   5.338   4.513
 2524TIP3    H2 7579   1.858   5.400   4.585
 2525TIP3   OH2 7580   6.024   5.093   2.028
 2525TIP3    H1 7581   6.097   5.137   1.985
 2525TIP3    H2 7582   5.950   5.105   1.969
 2526TIP3   OH2 7583   5.786   2.152   2.022
 2526TIP3    H1 7584   5.861   2.210   2.036
 2526TIP3    H2 7585   5.813   2.068   2.059
 2527TIP3   OH2 7586   0.164   4.061   3.325
 2527TIP3    H1 7587   0.149   3.986   3.382
 2527TIP3    H2 7588   0.110   4.045   3.248
 2528TIP3   OH2 7589   2.515   5.386   0.338
 2528TIP3    H1 7590   2.535   5.339   0.419
 2528TIP3    H2 7591   2.587   5.447   0.328
 2529TIP3   OH2 7592   4.113   0.543   0.244
 2529TIP3    H1 7593   4.080   0.627   0.276
 2529TIP3    H2 7594   4.105   0.549   0.148
 2530TIP3   OH2 7595   3.047   2.819   0.125
 2530TIP3    H1 7596   2.954   2.796   0.123
 2530TIP3    H2 7597   3.059   2.880   0.052
 2531TIP3   OH2 7598   1.125   5.711   4.749
 2531TIP3    H1 7599   1.154   5.755   4.669
 2531TIP3    H2 7600   1.179   5.632   4.754
 2532TIP3   OH2 7601   0.302   1.930   2.827
 2532TIP3    H1 7602   0.275   1.876   2.752
 2532TIP3    H2 7603   0.272   2.018   2.803
 2533TIP3   OH2 7604   1.974   0.837   1.389
 2533TIP3    H1 7605   1.963   0.815   1.296
 2533TIP3    H2 7606   1.925   0.918   1.400
 2534TIP3   OH2 7607   0.724   5.030   2.116
 2534TIP3    H1 7608   0.788   5.100   2.109
 2534TIP3    H2 7609   0.669   5.055   2.191
 2535TIP3   OH2 7610   6.057   2.721   0.271
 2535TIP3    H1 7611   6.033   2.758   0.356
 2535TIP3    H2 7612   6.033   2.790   0.208
 2536TIP3   OH2 7613   6.025   5.777   1.963
 2536TIP3    H1 7614   6.031   5.771   2.058
 2536TIP3    H2 7615   6.051   5.867   1.943
 2537TIP3   OH2 7616   4.216   5.293   2.437
 2537TIP3    H1 7617   4.311   5.305   2.438
 2537TIP3    H2 7618   4.203   5.213   2.386
 2538TIP3   OH2 7619   4.588   5.548   1.729
 2538TIP3    H1 7620   4.682   5.567   1.723
 2538TIP3    H2 7621   4.555   5.607   1.796
 2539TIP3   OH2 7622   2.716   0.506   4.073
 2539TIP3    H1 7623   2.659   0.439   4.111
 2539TIP3    H2 7624   2.727   0.571   4.143
 2540TIP3   OH2 7625   2.598   3.274   3.189
 2540TIP3    H1 7626   2.634   3.263   3.277
 2540TIP3    H2 7627   2.665   3.321   3.141
 2541TIP3   OH2 7628   0.794   0.443   2.682
 2541TIP3    H1 7629   0.780   0.463   2.774
 2541TIP3    H2 7630   0.885   0.410   2.678
 2542TIP3   OH2 7631   1.670   3.994   4.208
 2542TIP3    H1 7632   1.727   3.935   4.256
 2542TIP3    H2 7633   1.724   4.071   4.191
 2543TIP3   OH2 7634   6.304   5.839   3.793
 2543TIP3    H1 7635   6.226   5.797   3.757
 2543TIP3    H2 7636   6.287   5.933   3.784
 2544TIP3   OH2 7637   1.487   2.186   0.335
 2544TIP3    H1 7638   1.557   2.183   0.401
 2544TIP3    H2 7639   1.450   2.274   0.342
 2545TIP3   OH2 7640   2.793   0.030   2.531
 2545TIP3    H1 7641   2.849   0.101   2.563
 2545TIP3    H2 7642   2.733   0.013   2.603
 2546TIP3   OH2 7643   4.071   1.719   5.103
 2546TIP3    H1 7644   3.990   1.748   5.145
 2546TIP3    H2 7645   4.045   1.644   5.049
 2547TIP3   OH2 7646   5.133   2.755   1.977
 2547TIP3    H1 7647   5.222   2.772   2.008
 2547TIP3    H2 7648   5.128   2.800   1.893
 2548TIP3   OH2 7649   3.420   0.180   3.159
 2548TIP3    H1 7650   3.405   0.124   3.083
 2548TIP3    H2 7651   3.511   0.163   3.183
 2549TIP3   OH2 7652   5.675   4.207   4.840
 2549TIP3    H1 7653   5.640   4.271   4.902
 2549TIP3    H2 7654   5.648   4.239   4.754
 2550TIP3   OH2 7655   2.290   3.339   1.891
 2550TIP3    H1 7656   2.216   3.350   1.831
 2550TIP3    H2 7657   2.283   3.413   1.952
 2551TIP3   OH2 7658   5.704   5.056   2.731
 2551TIP3    H1 7659   5.636   5.016   2.676
 2551TIP3    H2 7660   5.746   5.121   2.674
 2552TIP3   OH2 7661   3.906   1.259   1.740
 2552TIP3    H1 7662   3.956   1.209   1.805
 2552TIP3    H2 7663   3.843   1.309   1.792
 2553TIP3   OH2 7664   6.333   5.412   0.477
 2553TIP3    H1 7665   6.423   5.385   0.460
 2553TIP3    H2 7666   6.280   5.367   0.412
 2554TIP3   OH2 7667   5.953   4.422   4.843
 2554TIP3    H1 7668   5.902   4.384   4.915
 2554TIP3    H2 7669   6.044   4.417   4.872
 2555TIP3   OH2 7670   5.532   3.819   5.154
 2555TIP3    H1 7671   5.441   3.846   5.141
 2555TIP3    H2 7672   5.553   3.767   5.077
 2556TIP3   OH2 7673   3.621   4.138   3.776
 2556TIP3    H1 7674   3.657   4.055   3.743
 2556TIP3    H2 7675   3.533   4.116   3.805
 2557TIP3   OH2 7676   5.264   3.806   1.100
 2557TIP3    H1 7677   5.337   3.791   1.040
 2557TIP3    H2 7678   5.205   3.732   1.085
 2558TIP3   OH2 7679   0.475   5.085   2.588
 2558TIP3    H1 7680   0.469   5.019   2.519
 2558TIP3    H2 7681   0.420   5.051   2.658
 2559TIP3   OH2 7682   6.056   1.192   2.926
 2559TIP3    H1 7683   6.148   1.211   2.944
 2559TIP3    H2 7684   6.053   1.170   2.833
 2560TIP3   OH2 7685   5.447   2.218   0.892
 2560TIP3    H1 7686   5.398   2.294   0.862
 2560TIP3    H2 7687   5.528   2.254   0.929
 2561TIP3   OH2 7688   6.295   2.999   4.489
 2561TIP3    H1 7689   6.281   3.008   4.583
 2561TIP3    H2 7690   6.302   2.905   4.474
 2562TIP3   OH2 7691   3.579   0.482   0.884
 2562TIP3    H1 7692   3.498   0.480   0.833
 2562TIP3    H2 7693   3.594   0.575   0.901
 2563TIP3   OH2 7694   3.925   0.042   3.405
 2563TIP3    H1 7695   3.972   0.123   3.424
 2563TIP3    H2 7696   3.862   0.033   3.476
 2564TIP3   OH2 7697   1.720   5.088   3.612
 2564TIP3    H1 7698   1.661   5.056   3.680
 2564TIP3    H2 7699   1.760   5.166   3.650
 2565TIP3   OH2 7700   3.072   3.336   2.193
 2565TIP3    H1 7701   3.013   3.400   2.233
 2565TIP3    H2 7702   3.123   3.388   2.130
 2566TIP3   OH2 7703   5.782   3.657   3.264
 2566TIP3    H1 7704   5.779   3.660   3.360
 2566TIP3    H2 7705   5.697   3.620   3.239
 2567TIP3   OH2 7706   2.391   3.970   3.219
 2567TIP3    H1 7707   2.309   3.922   3.223
 2567TIP3    H2 7708   2.450   3.924   3.279
 2568TIP3   OH2 7709   4.350   1.435   4.122
 2568TIP3    H1 7710   4.271   1.384   4.104
 2568TIP3    H2 7711   4.350   1.505   4.057
 2569TIP3   OH2 7712   5.375   5.329   0.327
 2569TIP3    H1 7713   5.388   5.275   0.405
 2569TIP3    H2 7714   5.288   5.367   0.339
 2570TIP3   OH2 7715   1.098   1.132   4.923
 2570TIP3    H1 7716   1.187   1.095   4.927
 2570TIP3    H2 7717   1.043   1.059   4.895
 2571TIP3   OH2 7718   0.100   0.690   2.163
 2571TIP3    H1 7719   0.183   0.729   2.189
 2571TIP3    H2 7720   0.123   0.629   2.093
 2572TIP3   OH2 7721   4.194   1.166   0.929
 2572TIP3    H1 7722   4.224   1.227   0.861
 2572TIP3    H2 7723   4.251   1.090   0.919
 2573TIP3   OH2 7724   0.921   3.418   4.014
 2573TIP3    H1 7725   0.975   3.392   3.940
 2573TIP3    H2 7726   0.880   3.500   3.987
 2574TIP3   OH2 7727   5.551   1.642   0.859
 2574TIP3    H1 7728   5.546   1.736   0.876
 2574TIP3    H2 7729   5.541   1.602   0.945
 2575TIP3   OH2 7730   2.828   5.349   1.120
 2575TIP3    H1 7731   2.790   5.386   1.200
 2575TIP3    H2 7732   2.831   5.423   1.059
 2576TIP3   OH2 7733   2.804   1.577   3.673
 2576TIP3    H1 7734   2.814   1.482   3.679
 2576TIP3    H2 7735   2.751   1.590   3.595
 2577TIP3   OH2 7736   1.029   3.214   3.462
 2577TIP3    H1 7737   0.968   3.171   3.522
 2577TIP3    H2 7738   1.013   3.308   3.475
 2578TIP3   OH2 7739   5.599   5.045   4.104
 2578TIP3    H1 7740   5.511   5.063   4.139
 2578TIP3    H2 7741   5.582   5.003   4.020
 2579TIP3   OH2 7742   4.898   3.869   3.625
 2579TIP3    H1 7743   4.885   3.775   3.617
 2579TIP3    H2 7744   4.815   3.907   3.594
 2580TIP3   OH2 7745   0.854   4.513   3.052
 2580TIP3    H1 7746   0.865   4.604   3.077
 2580TIP3    H2 7747   0.896   4.464   3.122
 2581TIP3   OH2 7748   1.910   0.725   1.833
 2581TIP3    H1 7749   1.912   0.820   1.820
 2581TIP3    H2 7750   1.817   0.703   1.832
 2582TIP3   OH2 7751   4.220   3.299   4.094
 2582TIP3    H1 7752   4.148   3.246   4.061
 2582TIP3    H2 7753   4.226   3.278   4.187
 2583TIP3   OH2 7754   5.275   0.075   0.159
 2583TIP3    H1 7755   5.296   0.016   0.087
 2583TIP3    H2 7756   5.251   0.157   0.117
 2584TIP3   OH2 7757   1.108   4.759   4.187
 2584TIP3    H1 7758   1.054   4.829   4.227
 2584TIP3    H2 7759   1.188   4.803   4.160
 2585TIP3   OH2 7760   3.726   5.263   1.630
 2585TIP3    H1 7761   3.674   5.335   1.595
 2585TIP3    H2 7762   3.815   5.297   1.631
 2586TIP3   OH2 7763   6.089   0.211   2.645
 2586TIP3    H1 7764   6.150   0.240   2.576
 2586TIP3    H2 7765   6.025   0.282   2.652
 2587TIP3   OH2 7766   0.172   2.946   4.010
 2587TIP3    H1 7767   0.209   2.964   4.096
 2587TIP3    H2 7768   0.091   2.997   4.007
 2588TIP3   OH2 7769   5.021   4.574   4.964
 2588TIP3    H1 7770   5.023   4.479   4.950
 2588TIP3    H2 7771   4.999   4.584   5.057
 2589TIP3   OH2 7772   3.887   2.285   4.889
 2589TIP3    H1 7773   3.837   2.263   4.968
 2589TIP3    H2 7774   3.977   2.295   4.920
 2590TIP3   OH2 7775   2.707   0.587   0.928
 2590TIP3    H1 7776   2.777   0.541   0.974
 2590TIP3    H2 7777   2.751   0.644   0.866
 2591TIP3   OH2 7778   1.909   2.607   3.315
 2591TIP3    H1 7779   1.852   2.576   3.244
 2591TIP3    H2 7780   1.858   2.589   3.395
 2592TIP3   OH2 7781   3.586   0.924   5.129
 2592TIP3    H1 7782   3.608   0.840   5.090
 2592TIP3    H2 7783   3.495   0.939   5.105
 2593TIP3   OH2 7784   0.160   3.430   2.248
 2593TIP3    H1 7785   0.229   3.494   2.230
 2593TIP3    H2 7786   0.201   3.368   2.310
 2594TIP3   OH2 7787   1.130   0.830   0.729
 2594TIP3    H1 7788   1.089   0.843   0.814
 2594TIP3    H2 7789   1.062   0.792   0.674
 2595TIP3   OH2 7790   1.585   0.880   3.683
 2595TIP3    H1 7791   1.607   0.786   3.681
 2595TIP3    H2 7792   1.492   0.883   3.662
 2596TIP3   OH2 7793   0.487   3.591   2.374
 2596TIP3    H1 7794   0.533   3.615   2.454
 2596TIP3    H2 7795   0.503   3.498   2.363
 2597TIP3   OH2 7796   4.323   4.196   1.670
 2597TIP3    H1 7797   4.241   4.160   1.635
 2597TIP3    H2 7798   4.368   4.231   1.593
 2598TIP3   OH2 7799   4.195   1.243   0.649
 2598TIP3    H1 7800   4.202   1.158   0.605
 2598TIP3    H2 7801   4.103   1.249   0.675
 2599TIP3   OH2 7802   3.375   3.269   3.677
 2599TIP3    H1 7803   3.372   3.357   3.715
 2599TIP3    H2 7804   3.461   3.235   3.704
 2600TIP3   OH2 7805   2.213   5.506   3.248
 2600TIP3    H1 7806   2.132   5.555   3.263
 2600TIP3    H2 7807   2.256   5.504   3.333
 2601TIP3   OH2 7808   6.336   1.258   1.583
 2601TIP3    H1 7809   6.404   1.250   1.649
 2601TIP3    H2 7810   6.275   1.188   1.603
 2602TIP3   OH2 7811   6.040   0.060   0.161
 2602TIP3    H1 7812   6.082   0.095   0.240
 2602TIP3    H2 7813   6.094   0.092   0.089
 2603TIP3   OH2 7814   2.201   0.576   0.401
 2603TIP3    H1 7815   2.263   0.527   0.346
 2603TIP3    H2 7816   2.174   0.650   0.347
 2604TIP3   OH2 7817   0.704   3.325   2.076
 2604TIP3    H1 7818   0.670   3.275   2.002
 2604TIP3    H2 7819   0.764   3.388   2.037
 2605TIP3   OH2 7820   4.723   4.831   3.754
 2605TIP3    H1 7821   4.727   4.790   3.668
 2605TIP3    H2 7822   4.793   4.897   3.752
 2606TIP3   OH2 7823   3.050   4.114   1.632
 2606TIP3    H1 7824   3.055   4.206   1.657
 2606TIP3    H2 7825   3.099   4.068   1.700
 2607TIP3   OH2 7826   3.898   4.846   0.076
 2607TIP3    H1 7827   3.950   4.922   0.103
 2607TIP3    H2 7828   3.952   4.771   0.100
 2608TIP3   OH2 7829   2.397   4.869   2.452
 2608TIP3    H1 7830   2.477   4.862   2.399
 2608TIP3    H2 7831   2.358   4.782   2.449
 2609TIP3   OH2 7832   1.076   2.154   3.463
 2609TIP3    H1 7833   0.997   2.148   3.410
 2609TIP3    H2 7834   1.065   2.087   3.531
 2610TIP3   OH2 7835   0.801   3.459   1.814
 2610TIP3    H1 7836   0.856   3.521   1.766
 2610TIP3    H2 7837   0.757   3.409   1.746
 2611TIP3   OH2 7838   3.988   4.778   4.730
 2611TIP3    H1 7839   3.930   4.730   4.670
 2611TIP3    H2 7840   3.936   4.789   4.809
 2612TIP3   OH2 7841   3.298   1.758   3.012
 2612TIP3    H1 7842   3.337   1.682   2.970
 2612TIP3    H2 7843   3.361   1.829   2.996
 2613TIP3   OH2 7844   0.448   3.295   4.418
 2613TIP3    H1 7845   0.514   3.348   4.374
 2613TIP3    H2 7846   0.488   3.273   4.503
 2614TIP3   OH2 7847   0.269   4.845   0.021
 2614TIP3    H1 7848   0.301   4.760   0.051
 2614TIP3    H2 7849   0.319   4.909   0.072
 2615TIP3   OH2 7850   3.945   1.189   2.703
 2615TIP3    H1 7851   4.001   1.189   2.781
 2615TIP3    H2 7852   3.935   1.281   2.680
 2616TIP3   OH2 7853   1.187   4.367   4.194
 2616TIP3    H1 7854   1.131   4.301   4.153
 2616TIP3    H2 7855   1.247   4.394   4.124
 2617TIP3   OH2 7856   1.538   3.936   1.994
 2617TIP3    H1 7857   1.595   3.950   1.919
 2617TIP3    H2 7858   1.594   3.954   2.070
 2618TIP3   OH2 7859   5.760   3.827   3.023
 2618TIP3    H1 7860   5.800   3.763   2.965
 2618TIP3    H2 7861   5.772   3.791   3.111
 2619TIP3   OH2 7862   4.439   2.106   0.415
 2619TIP3    H1 7863   4.518   2.118   0.468
 2619TIP3    H2 7864   4.470   2.112   0.325
 2620TIP3   OH2 7865   1.579   5.933   3.534
 2620TIP3    H1 7866   1.535   5.922   3.618
 2620TIP3    H2 7867   1.557   5.854   3.485
 2621TIP3   OH2 7868   4.232   0.153   1.971
 2621TIP3    H1 7869   4.142   0.177   1.949
 2621TIP3    H2 7870   4.224   0.067   2.013
 2622TIP3   OH2 7871   3.566   1.458   0.433
 2622TIP3    H1 7872   3.654   1.421   0.439
 2622TIP3    H2 7873   3.525   1.411   0.361
 2623TIP3   OH2 7874   0.051   2.166   3.250
 2623TIP3    H1 7875   0.128   2.134   3.204
 2623TIP3    H2 7876   0.055   2.261   3.241
 2624TIP3   OH2 7877   5.505   4.483   0.777
 2624TIP3    H1 7878   5.532   4.574   0.765
 2624TIP3    H2 7879   5.430   4.473   0.719
 2625TIP3   OH2 7880   3.956   3.904   2.267
 2625TIP3    H1 7881   3.893   3.936   2.331
 2625TIP3    H2 7882   3.906   3.895   2.186
 2626TIP3   OH2 7883   2.321   5.697   4.958
 2626TIP3    H1 7884   2.263   5.742   5.020
 2626TIP3    H2 7885   2.402   5.682   5.007
 2627TIP3   OH2 7886   6.140   4.967   4.180
 2627TIP3    H1 7887   6.053   4.967   4.141
 2627TIP3    H2 7888   6.173   4.879   4.164
 2628TIP3   OH2 7889   5.837   5.712   2.352
 2628TIP3    H1 7890   5.770   5.694   2.286
 2628TIP3    H2 7891   5.912   5.659   2.325
 2629TIP3   OH2 7892   4.012   2.764   1.047
 2629TIP3    H1 7893   4.100   2.791   1.073
 2629TIP3    H2 7894   4.016   2.757   0.952
 2630TIP3   OH2 7895   5.146   0.654   1.385
 2630TIP3    H1 7896   5.234   0.636   1.418
 2630TIP3    H2 7897   5.124   0.740   1.420
 2631TIP3   OH2 7898   1.851   2.784   0.317
 2631TIP3    H1 7899   1.909   2.760   0.245
 2631TIP3    H2 7900   1.769   2.807   0.275
 2632TIP3   OH2 7901   2.418   5.745   0.664
 2632TIP3    H1 7902   2.454   5.658   0.646
 2632TIP3    H2 7903   2.326   5.729   0.685
 2633TIP3   OH2 7904   1.256   5.332   3.929
 2633TIP3    H1 7905   1.206   5.326   4.010
 2633TIP3    H2 7906   1.251   5.244   3.891
 2634TIP3   OH2 7907   5.998   4.143   5.127
 2634TIP3    H1 7908   5.943   4.215   5.159
 2634TIP3    H2 7909   6.078   4.148   5.180
 2635TIP3   OH2 7910   2.515   4.134   2.726
 2635TIP3    H1 7911   2.607   4.160   2.729
 2635TIP3    H2 7912   2.516   4.044   2.694
 2636TIP3   OH2 7913   4.578   4.297   1.527
 2636TIP3    H1 7914   4.517   4.366   1.501
 2636TIP3    H2 7915   4.627   4.277   1.447
 2637TIP3   OH2 7916   5.954   0.124   2.039
 2637TIP3    H1 7917   5.939   0.054   1.974
 2637TIP3    H2 7918   5.871   0.171   2.043
 2638TIP3   OH2 7919   1.074   1.435   4.064
 2638TIP3    H1 7920   1.027   1.420   3.982
 2638TIP3    H2 7921   1.101   1.348   4.093
 2639TIP3   OH2 7922   0.767   0.460   4.127
 2639TIP3    H1 7923   0.754   0.426   4.215
 2639TIP3    H2 7924   0.697   0.421   4.075
 2640TIP3   OH2 7925   5.426   3.430   1.282
 2640TIP3    H1 7926   5.344   3.403   1.239
 2640TIP3    H2 7927   5.455   3.351   1.328
 2641TIP3   OH2 7928   5.063   5.548   0.879
 2641TIP3    H1 7929   5.111   5.524   0.800
 2641TIP3    H2 7930   5.128   5.541   0.949
 2642TIP3   OH2 7931   0.960   4.747   0.683
 2642TIP3    H1 7932   1.030   4.743   0.617
 2642TIP3    H2 7933   0.920   4.660   0.680
 2643TIP3   OH2 7934   0.034   0.932   3.346
 2643TIP3    H1 7935   0.044   0.964   3.436
 2643TIP3    H2 7936  -0.030   0.861   3.352
 2644TIP3   OH2 7937   5.994   2.389   4.403
 2644TIP3    H1 7938   5.957   2.403   4.316
 2644TIP3    H2 7939   6.041   2.306   4.396
 2645TIP3   OH2 7940   5.034   5.233   2.789
 2645TIP3    H1 7941   5.085   5.311   2.810
 2645TIP3    H2 7942   4.955   5.266   2.746
 2646TIP3   OH2 7943   1.435   1.095   3.820
 2646TIP3    H1 7944   1.464   1.172   3.869
 2646TIP3    H2 7945   1.490   1.094   3.742
 2647TIP3   OH2 7946   4.010   3.284   1.002
 2647TIP3    H1 7947   3.926   3.289   0.956
 2647TIP3    H2 7948   3.990   3.316   1.090
 2648TIP3   OH2 7949   3.813   0.308   3.071
 2648TIP3    H1 7950   3.761   0.293   2.992
 2648TIP3    H2 7951   3.866   0.386   3.050
 2649TIP3   OH2 7952   1.160   3.567   2.067
 2649TIP3    H1 7953   1.134   3.612   2.147
 2649TIP3    H2 7954   1.252   3.591   2.055
 2650TIP3   OH2 7955   4.998   5.194   1.102
 2650TIP3    H1 7956   4.961   5.133   1.038
 2650TIP3    H2 7957   5.089   5.167   1.112
 2651TIP3   OH2 7958   0.031   3.523   3.375
 2651TIP3    H1 7959  -0.028   3.474   3.318
 2651TIP3    H2 7960   0.018   3.485   3.462
 2652TIP3   OH2 7961   2.310   5.786   0.984
 2652TIP3    H1 7962   2.241   5.799   0.919
 2652TIP3    H2 7963   2.385   5.755   0.933
 2653TIP3   OH2 7964   1.732   4.145   1.054
 2653TIP3    H1 7965   1.743   4.223   1.109
 2653TIP3    H2 7966   1.760   4.073   1.110
 2654TIP3   OH2 7967   0.366   0.107   1.405
 2654TIP3    H1 7968   0.322   0.141   1.482
 2654TIP3    H2 7969   0.415   0.182   1.370
 2655TIP3   OH2 7970   4.328   0.574   1.932
 2655TIP3    H1 7971   4.366   0.660   1.949
 2655TIP3    H2 7972   4.302   0.577   1.840
 2656TIP3   OH2 7973   5.104   4.834   4.194
 2656TIP3    H1 7974   5.167   4.763   4.180
 2656TIP3    H2 7975   5.030   4.790   4.236
 2657TIP3   OH2 7976   1.127   5.153   1.944
 2657TIP3    H1 7977   1.179   5.106   2.010
 2657TIP3    H2 7978   1.133   5.097   1.866
 2658TIP3   OH2 7979   1.621   4.454   0.273
 2658TIP3    H1 7980   1.582   4.508   0.342
 2658TIP3    H2 7981   1.586   4.367   0.288
 2659TIP3   OH2 7982   6.078   0.889   5.191
 2659TIP3    H1 7983   6.135   0.836   5.135
 2659TIP3    H2 7984   6.028   0.942   5.129
 2660TIP3   OH2 7985   3.506   4.914   2.787
 2660TIP3    H1 7986   3.494   4.973   2.861
 2660TIP3    H2 7987   3.592   4.874   2.802
 2661TIP3   OH2 7988   3.730   4.425   0.025
 2661TIP3    H1 7989   3.647   4.378   0.023
 2661TIP3    H2 7990   3.730   4.472   0.108
 2662TIP3   OH2 7991   4.582   2.595   0.734
 2662TIP3    H1 7992   4.668   2.635   0.722
 2662TIP3    H2 7993   4.593   2.536   0.808
 2663TIP3   OH2 7994   5.866   5.796   2.801
 2663TIP3    H1 7995   5.792   5.801   2.739
 2663TIP3    H2 7996   5.871   5.883   2.840
 2664TIP3   OH2 7997   2.512   4.883   1.586
 2664TIP3    H1 7998   2.434   4.935   1.604
 2664TIP3    H2 7999   2.479   4.809   1.534
 2665TIP3   OH2 8000   2.397   0.670   2.514
 2665TIP3    H1 8001   2.421   0.582   2.484
 2665TIP3    H2 8002   2.316   0.690   2.467
 2666TIP3   OH2 8003   6.082   3.680   0.201
 2666TIP3    H1 8004   6.064   3.729   0.281
 2666TIP3    H2 8005   6.047   3.736   0.131
 2667TIP3   OH2 8006   0.895   2.856   1.036
 2667TIP3    H1 8007   0.971   2.850   0.977
 2667TIP3    H2 8008   0.822   2.881   0.979
 2668TIP3   OH2 8009   0.696   0.609   0.089
 2668TIP3    H1 8010   0.765   0.659   0.045
 2668TIP3    H2 8011   0.731   0.521   0.097
 2669TIP3   OH2 8012   2.074   0.654   1.582
 2669TIP3    H1 8013   2.035   0.698   1.658
 2669TIP3    H2 8014   2.054   0.712   1.508
 2670TIP3   OH2 8015   1.703   1.884   2.519
 2670TIP3    H1 8016   1.639   1.812   2.522
 2670TIP3    H2 8017   1.787   1.840   2.507
 2671TIP3   OH2 8018   5.812   4.664   0.979
 2671TIP3    H1 8019   5.760   4.732   0.935
 2671TIP3    H2 8020   5.748   4.600   1.009
 2672TIP3   OH2 8021   0.078   3.276   3.775
 2672TIP3    H1 8022   0.091   3.251   3.867
 2672TIP3    H2 8023   0.039   3.199   3.734
 2673TIP3   OH2 8024   4.150   4.852   2.183
 2673TIP3    H1 8025   4.119   4.775   2.232
 2673TIP3    H2 8026   4.097   4.851   2.103
 2674TIP3   OH2 8027   2.906   2.975   3.715
 2674TIP3    H1 8028   2.898   2.970   3.810
 2674TIP3    H2 8029   2.887   2.886   3.684
 2675TIP3   OH2 8030   3.151   5.481   3.023
 2675TIP3    H1 8031   3.132   5.574   3.031
 2675TIP3    H2 8032   3.115   5.456   2.937
 2676TIP3   OH2 8033   4.181   3.990   4.124
 2676TIP3    H1 8034   4.247   4.050   4.160
 2676TIP3    H2 8035   4.101   4.043   4.121
 2677TIP3   OH2 8036   2.737   0.978   5.121
 2677TIP3    H1 8037   2.766   1.056   5.168
 2677TIP3    H2 8038   2.791   0.975   5.042
 2678TIP3   OH2 8039   3.006   5.042   0.244
 2678TIP3    H1 8040   3.042   5.067   0.330
 2678TIP3    H2 8041   2.979   5.125   0.206
 2679TIP3   OH2 8042   4.376   4.458   1.075
 2679TIP3    H1 8043   4.350   4.398   1.005
 2679TIP3    H2 8044   4.465   4.431   1.099
 2680TIP3   OH2 8045   5.065   4.814   2.106
 2680TIP3    H1 8046   5.096   4.813   2.015
 2680TIP3    H2 8047   5.096   4.898   2.140
 2681TIP3   OH2 8048   0.621   2.594   5.194
 2681TIP3    H1 8049   0.580   2.657   5.135
 2681TIP3    H2 8050   0.602   2.627   5.282
 2682TIP3   OH2 8051   3.964   5.894   1.580
 2682TIP3    H1 8052   4.055   5.875   1.602
 2682TIP3    H2 8053   3.913   5.836   1.637
 2683TIP3   OH2 8054   4.229   2.276   0.250
 2683TIP3    H1 8055   4.234   2.183   0.272
 2683TIP3    H2 8056   4.314   2.296   0.211
 2684TIP3   OH2 8057   1.791   1.654   3.952
 2684TIP3    H1 8058   1.874   1.617   3.921
 2684TIP3    H2 8059   1.817   1.730   4.004
 2685TIP3   OH2 8060   6.343   4.066   1.111
 2685TIP3    H1 8061   6.312   4.118   1.186
 2685TIP3    H2 8062   6.436   4.085   1.107
 2686TIP3   OH2 8063   5.175   2.226   2.703
 2686TIP3    H1 8064   5.103   2.288   2.691
 2686TIP3    H2 8065   5.132   2.146   2.736
 2687TIP3   OH2 8066   4.395   0.714   2.922
 2687TIP3    H1 8067   4.356   0.800   2.933
 2687TIP3    H2 8068   4.346   0.673   2.851
 2688TIP3   OH2 8069   2.035   5.269   3.707
 2688TIP3    H1 8070   1.953   5.317   3.697
 2688TIP3    H2 8071   2.031   5.230   3.794
 2689TIP3   OH2 8072   1.665   2.840   5.096
 2689TIP3    H1 8073   1.729   2.870   5.161
 2689TIP3    H2 8074   1.689   2.749   5.079
 2690TIP3   OH2 8075   4.639   3.463   0.742
 2690TIP3    H1 8076   4.726   3.490   0.773
 2690TIP3    H2 8077   4.589   3.544   0.739
 2691TIP3   OH2 8078   4.782   3.057   3.179
 2691TIP3    H1 8079   4.836   2.978   3.174
 2691TIP3    H2 8080   4.829   3.122   3.127
 2692TIP3   OH2 8081   4.267   1.702   0.491
 2692TIP3    H1 8082   4.362   1.690   0.502
 2692TIP3    H2 8083   4.253   1.693   0.396
 2693TIP3   OH2 8084   5.488   3.972   1.649
 2693TIP3    H1 8085   5.523   3.904   1.591
 2693TIP3    H2 8086   5.542   3.967   1.727
 2694TIP3   OH2 8087   3.231   3.698   0.458
 2694TIP3    H1 8088   3.162   3.738   0.404
 2694TIP3    H2 8089   3.187   3.629   0.507
 2695TIP3   OH2 8090   1.699   3.823   0.462
 2695TIP3    H1 8091   1.687   3.837   0.369
 2695TIP3    H2 8092   1.689   3.910   0.501
 2696TIP3   OH2 8093   4.928   1.333   0.427
 2696TIP3    H1 8094   4.837   1.336   0.455
 2696TIP3    H2 8095   4.924   1.348   0.332
 2697TIP3   OH2 8096   5.840   0.443   2.926
 2697TIP3    H1 8097   5.878   0.364   2.964
 2697TIP3    H2 8098   5.827   0.502   3.000
 2698TIP3   OH2 8099   1.605   3.200   0.654
 2698TIP3    H1 8100   1.539   3.265   0.629
 2698TIP3    H2 8101   1.555   3.127   0.689
 2699TIP3   OH2 8102   2.830   4.131   4.016
 2699TIP3    H1 8103   2.867   4.044   4.031
 2699TIP3    H2 8104   2.811   4.165   4.104
 2700TIP3   OH2 8105   0.631   5.389   0.825
 2700TIP3    H1 8106   0.705   5.336   0.796
 2700TIP3    H2 8107   0.563   5.326   0.847
 2701TIP3   OH2 8108   4.070   0.449   0.770
 2701TIP3    H1 8109   4.060   0.373   0.828
 2701TIP3    H2 8110   3.984   0.461   0.731
 2702TIP3   OH2 8111   3.720   2.919   3.015
 2702TIP3    H1 8112   3.799   2.896   2.966
 2702TIP3    H2 8113   3.746   2.914   3.107
 2703TIP3   OH2 8114   1.423   1.542   0.237
 2703TIP3    H1 8115   1.481   1.476   0.275
 2703TIP3    H2 8116   1.404   1.602   0.309
 2704TIP3   OH2 8117   3.962   3.686   1.499
 2704TIP3    H1 8118   3.875   3.646   1.501
 2704TIP3    H2 8119   4.023   3.612   1.505
 2705TIP3   OH2 8120   4.489   3.688   0.747
 2705TIP3    H1 8121   4.413   3.730   0.786
 2705TIP3    H2 8122   4.521   3.751   0.683
 2706TIP3   OH2 8123   0.061   5.472   4.470
 2706TIP3    H1 8124   0.029   5.422   4.395
 2706TIP3    H2 8125  -0.018   5.512   4.508
 2707TIP3   OH2 8126   5.039   0.124   1.110
 2707TIP3    H1 8127   5.074   0.042   1.075
 2707TIP3    H2 8128   5.095   0.144   1.185
 2708TIP3   OH2 8129   0.463   0.172   5.119
 2708TIP3    H1 8130   0.525   0.117   5.071
 2708TIP3    H2 8131   0.506   0.257   5.126
 2709TIP3   OH2 8132   6.060   2.667   2.572
 2709TIP3    H1 8133   6.015   2.679   2.488
 2709TIP3    H2 8134   6.037   2.578   2.598
 2710TIP3   OH2 8135   2.298   3.045   2.300
 2710TIP3    H1 8136   2.298   3.080   2.211
 2710TIP3    H2 8137   2.244   2.967   2.296
 2711TIP3   OH2 8138   1.332   5.113   3.786
 2711TIP3    H1 8139   1.271   5.095   3.714
 2711TIP3    H2 8140   1.394   5.040   3.782
 2712TIP3   OH2 8141   5.203   1.915   4.517
 2712TIP3    H1 8142   5.177   2.005   4.535
 2712TIP3    H2 8143   5.120   1.869   4.502
 2713TIP3   OH2 8144   0.521   5.958   3.392
 2713TIP3    H1 8145   0.505   5.865   3.375
 2713TIP3    H2 8146   0.530   5.998   3.306
 2714TIP3   OH2 8147   0.893   2.102   0.527
 2714TIP3    H1 8148   0.846   2.026   0.494
 2714TIP3    H2 8149   0.932   2.142   0.449
 2715TIP3   OH2 8150   1.348   5.549   4.106
 2715TIP3    H1 8151   1.303   5.473   4.071
 2715TIP3    H2 8152   1.331   5.546   4.200
 2716TIP3   OH2 8153   6.159   5.841   4.140
 2716TIP3    H1 8154   6.079   5.893   4.135
 2716TIP3    H2 8155   6.230   5.905   4.128
 2717TIP3   OH2 8156   0.977   3.839   2.219
 2717TIP3    H1 8157   1.029   3.844   2.139
 2717TIP3    H2 8158   1.015   3.767   2.268
 2718TIP3   OH2 8159   1.539   1.178   1.645
 2718TIP3    H1 8160   1.557   1.272   1.639
 2718TIP3    H2 8161   1.546   1.159   1.738
 2719TIP3   OH2 8162   1.686   3.964   1.751
 2719TIP3    H1 8163   1.682   3.936   1.660
 2719TIP3    H2 8164   1.780   3.971   1.769
 2720TIP3   OH2 8165   0.548   4.439   1.000
 2720TIP3    H1 8166   0.498   4.459   1.079
 2720TIP3    H2 8167   0.591   4.356   1.018
 2721TIP3   OH2 8168   1.957   0.893   0.145
 2721TIP3    H1 8169   1.865   0.869   0.151
 2721TIP3    H2 8170   1.965   0.937   0.060
 2722TIP3   OH2 8171   2.698   4.601   2.098
 2722TIP3    H1 8172   2.618   4.603   2.151
 2722TIP3    H2 8173   2.764   4.644   2.153
 2723TIP3   OH2 8174   2.558   1.237   2.585
 2723TIP3    H1 8175   2.486   1.218   2.524
 2723TIP3    H2 8176   2.621   1.166   2.571
 2724TIP3   OH2 8177   6.356   0.397   0.832
 2724TIP3    H1 8178   6.296   0.329   0.863
 2724TIP3    H2 8179   6.299   0.469   0.807
 2725TIP3   OH2 8180   4.612   3.464   2.041
 2725TIP3    H1 8181   4.644   3.520   2.112
 2725TIP3    H2 8182   4.550   3.519   1.993
 2726TIP3   OH2 8183   4.722   4.352   3.971
 2726TIP3    H1 8184   4.676   4.346   4.055
 2726TIP3    H2 8185   4.697   4.272   3.924
 2727TIP3   OH2 8186   2.413   2.445   0.619
 2727TIP3    H1 8187   2.324   2.467   0.647
 2727TIP3    H2 8188   2.419   2.350   0.631
 2728TIP3   OH2 8189   3.039   2.777   0.916
 2728TIP3    H1 8190   3.048   2.723   0.995
 2728TIP3    H2 8191   2.992   2.722   0.854
 2729TIP3   OH2 8192   3.161   4.295   3.765
 2729TIP3    H1 8193   3.207   4.373   3.733
 2729TIP3    H2 8194   3.104   4.269   3.693
 2730TIP3   OH2 8195   1.679   0.565   2.738
 2730TIP3    H1 8196   1.618   0.565   2.664
 2730TIP3    H2 8197   1.679   0.656   2.770
 2731TIP3   OH2 8198   5.778   5.226   2.463
 2731TIP3    H1 8199   5.799   5.318   2.480
 2731TIP3    H2 8200   5.685   5.227   2.439
 2732TIP3   OH2 8201   3.404   2.123   2.232
 2732TIP3    H1 8202   3.453   2.206   2.233
 2732TIP3    H2 8203   3.312   2.149   2.234
 2733TIP3   OH2 8204   3.555   0.423   4.253
 2733TIP3    H1 8205   3.477   0.411   4.198
 2733TIP3    H2 8206   3.621   0.366   4.213
 2734TIP3   OH2 8207   5.328   0.022   4.005
 2734TIP3    H1 8208   5.423   0.012   4.008
 2734TIP3    H2 8209   5.301   0.026   4.097
 2735TIP3   OH2 8210   5.341   1.883   2.779
 2735TIP3    H1 8211   5.257   1.865   2.738
 2735TIP3    H2 8212   5.358   1.807   2.835
 2736TIP3   OH2 8213   5.832   4.563   2.938
 2736TIP3    H1 8214   5.807   4.472   2.923
 2736TIP3    H2 8215   5.916   4.558   2.985
 2737TIP3   OH2 8216   4.729   1.969   3.627
 2737TIP3    H1 8217   4.809   2.020   3.641
 2737TIP3    H2 8218   4.705   1.938   3.714
 2738TIP3   OH2 8219   2.705   2.780   0.798
 2738TIP3    H1 8220   2.747   2.855   0.839
 2738TIP3    H2 8221   2.776   2.734   0.753
 2739TIP3   OH2 8222   1.603   5.558   4.741
 2739TIP3    H1 8223   1.511   5.533   4.742
 2739TIP3    H2 8224   1.644   5.494   4.682
 2740TIP3   OH2 8225   3.789   4.519   0.271
 2740TIP3    H1 8226   3.856   4.460   0.308
 2740TIP3    H2 8227   3.806   4.603   0.313
 2741TIP3   OH2 8228   5.660   4.142   1.095
 2741TIP3    H1 8229   5.573   4.130   1.056
 2741TIP3    H2 8230   5.690   4.054   1.114
 2742TIP3   OH2 8231   0.445   0.805   0.174
 2742TIP3    H1 8232   0.466   0.745   0.102
 2742TIP3    H2 8233   0.447   0.750   0.252
 2743TIP3   OH2 8234   0.287   1.847   1.114
 2743TIP3    H1 8235   0.338   1.783   1.065
 2743TIP3    H2 8236   0.217   1.873   1.054
 2744TIP3   OH2 8237   2.590   2.764   4.682
 2744TIP3    H1 8238   2.643   2.723   4.750
 2744TIP3    H2 8239   2.570   2.852   4.716
 2745TIP3   OH2 8240   0.313   1.349   1.998
 2745TIP3    H1 8241   0.221   1.367   2.019
 2745TIP3    H2 8242   0.351   1.436   1.984
 2746TIP3   OH2 8243   6.007   4.922   0.418
 2746TIP3    H1 8244   6.041   5.004   0.455
 2746TIP3    H2 8245   5.917   4.916   0.450
 2747TIP3   OH2 8246   3.295   3.219   1.105
 2747TIP3    H1 8247   3.276   3.204   1.012
 2747TIP3    H2 8248   3.301   3.314   1.113
 2748TIP3   OH2 8249   3.343   0.471   0.027
 2748TIP3    H1 8250   3.397   0.512  -0.041
 2748TIP3    H2 8251   3.391   0.393   0.052
 2749TIP3   OH2 8252   0.472   1.758   0.523
 2749TIP3    H1 8253   0.462   1.678   0.471
 2749TIP3    H2 8254   0.386   1.799   0.520
 2750TIP3   OH2 8255   1.298   4.311   1.426
 2750TIP3    H1 8256   1.319   4.219   1.412
 2750TIP3    H2 8257   1.202   4.313   1.431
 2751TIP3   OH2 8258   1.100   2.176   2.153
 2751TIP3    H1 8259   1.084   2.233   2.077
 2751TIP3    H2 8260   1.130   2.236   2.221
 2752TIP3   OH2 8261   4.956   4.424   3.397
 2752TIP3    H1 8262   4.994   4.344   3.362
 2752TIP3    H2 8263   4.918   4.397   3.481
 2753TIP3   OH2 8264   1.299   4.473   2.358
 2753TIP3    H1 8265   1.264   4.392   2.395
 2753TIP3    H2 8266   1.221   4.526   2.339
 2754TIP3   OH2 8267   5.976   4.140   0.443
 2754TIP3    H1 8268   6.058   4.188   0.450
 2754TIP3    H2 8269   5.916   4.201   0.400
 2755TIP3   OH2 8270   4.749   2.776   0.636
 2755TIP3    H1 8271   4.762   2.761   0.543
 2755TIP3    H2 8272   4.808   2.848   0.657
 2756TIP3   OH2 8273   1.107   4.473   0.834
 2756TIP3    H1 8274   1.080   4.383   0.853
 2756TIP3    H2 8275   1.068   4.525   0.903
 2757TIP3   OH2 8276   4.840   0.867   3.065
 2757TIP3    H1 8277   4.784   0.824   3.000
 2757TIP3    H2 8278   4.904   0.915   3.013
 2758TIP3   OH2 8279   4.360   1.109   4.001
 2758TIP3    H1 8280   4.397   1.048   4.065
 2758TIP3    H2 8281   4.429   1.122   3.937
 2759TIP3   OH2 8282   3.018   5.829   3.898
 2759TIP3    H1 8283   3.038   5.865   3.985
 2759TIP3    H2 8284   2.999   5.906   3.844
 2760TIP3   OH2 8285   5.484   2.686   3.338
 2760TIP3    H1 8286   5.425   2.729   3.276
 2760TIP3    H2 8287   5.537   2.627   3.285
 2761TIP3   OH2 8288   6.294   2.702   0.011
 2761TIP3    H1 8289   6.294   2.611  -0.019
 2761TIP3    H2 8290   6.311   2.696   0.105
 2762TIP3   OH2 8291   1.862   3.551   0.473
 2762TIP3    H1 8292   1.845   3.616   0.405
 2762TIP3    H2 8293   1.954   3.528   0.461
 2763TIP3   OH2 8294   4.825   4.344   4.822
 2763TIP3    H1 8295   4.918   4.338   4.842
 2763TIP3    H2 8296   4.820   4.410   4.753
 2764TIP3   OH2 8297   2.021   3.599   2.233
 2764TIP3    H1 8298   1.970   3.528   2.194
 2764TIP3    H2 8299   2.110   3.565   2.240
 2765TIP3   OH2 8300   4.616   1.821   4.726
 2765TIP3    H1 8301   4.668   1.845   4.802
 2765TIP3    H2 8302   4.535   1.784   4.762
 2766TIP3   OH2 8303   4.132   5.339   4.569
 2766TIP3    H1 8304   4.041   5.363   4.584
 2766TIP3    H2 8305   4.158   5.391   4.493
 2767TIP3   OH2 8306   4.831   1.705   1.369
 2767TIP3    H1 8307   4.774   1.675   1.298
 2767TIP3    H2 8308   4.909   1.650   1.361
 2768TIP3   OH2 8309   5.187   5.779   4.177
 2768TIP3    H1 8310   5.115   5.725   4.208
 2768TIP3    H2 8311   5.160   5.809   4.090
 2769TIP3   OH2 8312   4.965   2.089   3.748
 2769TIP3    H1 8313   5.001   2.002   3.765
 2769TIP3    H2 8314   5.037   2.138   3.708
 2770TIP3   OH2 8315   3.347   0.492   1.977
 2770TIP3    H1 8316   3.325   0.410   2.021
 2770TIP3    H2 8317   3.386   0.464   1.894
 2771TIP3   OH2 8318   1.529   2.601   2.279
 2771TIP3    H1 8319   1.486   2.521   2.248
 2771TIP3    H2 8320   1.560   2.578   2.367
 2772TIP3   OH2 8321   4.872   0.339   4.263
 2772TIP3    H1 8322   4.810   0.356   4.193
 2772TIP3    H2 8323   4.870   0.418   4.317
 2773TIP3   OH2 8324   0.420   2.129   5.100
 2773TIP3    H1 8325   0.477   2.138   5.024
 2773TIP3    H2 8326   0.403   2.218   5.129
 2774TIP3   OH2 8327   1.957   1.020   0.693
 2774TIP3    H1 8328   1.887   1.017   0.758
 2774TIP3    H2 8329   1.941   0.944   0.638
 2775TIP3   OH2 8330   4.927   4.513   0.401
 2775TIP3    H1 8331   4.856   4.459   0.364
 2775TIP3    H2 8332   5.007   4.465   0.379
 2776TIP3   OH2 8333   2.845   4.373   2.029
 2776TIP3    H1 8334   2.780   4.440   2.048
 2776TIP3    H2 8335   2.923   4.422   2.002
 2777TIP3   OH2 8336   3.218   4.761   0.728
 2777TIP3    H1 8337   3.302   4.715   0.734
 2777TIP3    H2 8338   3.233   4.843   0.775
 2778TIP3   OH2 8339   2.219   1.120   0.273
 2778TIP3    H1 8340   2.253   1.097   0.187
 2778TIP3    H2 8341   2.229   1.041   0.326
 2779TIP3   OH2 8342   5.145   5.367   4.420
 2779TIP3    H1 8343   5.217   5.317   4.383
 2779TIP3    H2 8344   5.175   5.393   4.507
 2780TIP3   OH2 8345   1.164   4.571   3.792
 2780TIP3    H1 8346   1.078   4.592   3.756
 2780TIP3    H2 8347   1.179   4.480   3.764
 2781TIP3   OH2 8348   1.293   5.949   4.853
 2781TIP3    H1 8349   1.253   6.032   4.880
 2781TIP3    H2 8350   1.222   5.885   4.862
 2782TIP3   OH2 8351   3.123   0.062   5.117
 2782TIP3    H1 8352   3.089   0.141   5.075
 2782TIP3    H2 8353   3.048   0.025   5.164
 2783TIP3   OH2 8354   4.247   3.409   2.032
 2783TIP3    H1 8355   4.176   3.346   2.016
 2783TIP3    H2 8356   4.213   3.492   1.999
 2784TIP3   OH2 8357   3.541   3.930   4.752
 2784TIP3    H1 8358   3.593   3.986   4.810
 2784TIP3    H2 8359   3.492   3.873   4.810
 2785TIP3   OH2 8360   4.182   0.909   4.860
 2785TIP3    H1 8361   4.151   0.921   4.770
 2785TIP3    H2 8362   4.125   0.842   4.896
 2786TIP3   OH2 8363   3.688   3.896   5.132
 2786TIP3    H1 8364   3.598   3.919   5.153
 2786TIP3    H2 8365   3.730   3.884   5.217
 2787TIP3   OH2 8366   0.766   5.649   1.286
 2787TIP3    H1 8367   0.685   5.699   1.296
 2787TIP3    H2 8368   0.737   5.558   1.280
 2788TIP3   OH2 8369   1.408   5.262   4.197
 2788TIP3    H1 8370   1.367   5.179   4.220
 2788TIP3    H2 8371   1.444   5.249   4.110
 2789TIP3   OH2 8372   6.151   5.800   2.239
 2789TIP3    H1 8373   6.131   5.724   2.294
 2789TIP3    H2 8374   6.202   5.857   2.296
 2790TIP3   OH2 8375   2.893   1.472   0.716
 2790TIP3    H1 8376   2.982   1.504   0.701
 2790TIP3    H2 8377   2.899   1.422   0.798
 2791TIP3   OH2 8378   0.905   3.893   4.054
 2791TIP3    H1 8379   0.877   3.863   3.968
 2791TIP3    H2 8380   0.992   3.930   4.040
 2792TIP3   OH2 8381   4.660   0.482   3.573
 2792TIP3    H1 8382   4.639   0.459   3.483
 2792TIP3    H2 8383   4.691   0.572   3.568
 2793TIP3   OH2 8384   3.427   3.024   4.061
 2793TIP3    H1 8385   3.394   3.046   4.148
 2793TIP3    H2 8386   3.485   3.096   4.038
 2794TIP3   OH2 8387   6.328   2.392   1.934
 2794TIP3    H1 8388   6.407   2.425   1.978
 2794TIP3    H2 8389   6.337   2.297   1.936
 2795TIP3   OH2 8390   1.315   3.829   3.357
 2795TIP3    H1 8391   1.312   3.910   3.407
 2795TIP3    H2 8392   1.224   3.803   3.347
 2796TIP3   OH2 8393   2.385   1.412   2.160
 2796TIP3    H1 8394   2.351   1.324   2.177
 2796TIP3    H2 8395   2.312   1.461   2.124
 2797TIP3   OH2 8396   1.529   3.409   1.462
 2797TIP3    H1 8397   1.611   3.446   1.496
 2797TIP3    H2 8398   1.527   3.436   1.370
 2798TIP3   OH2 8399   5.313   2.022   2.215
 2798TIP3    H1 8400   5.226   2.062   2.208
 2798TIP3    H2 8401   5.371   2.082   2.167
 2799TIP3   OH2 8402   3.908   1.229   4.923
 2799TIP3    H1 8403   3.818   1.198   4.912
 2799TIP3    H2 8404   3.939   1.183   5.001
 2800TIP3   OH2 8405   0.350   5.699   3.982
 2800TIP3    H1 8406   0.351   5.701   4.077
 2800TIP3    H2 8407   0.257   5.699   3.959
 2801TIP3   OH2 8408   4.359   2.571   2.171
 2801TIP3    H1 8409   4.365   2.478   2.192
 2801TIP3    H2 8410   4.397   2.579   2.083
 2802TIP3   OH2 8411   4.009   2.300   0.023
 2802TIP3    H1 8412   4.102   2.309   0.044
 2802TIP3    H2 8413   3.967   2.284   0.107
 2803TIP3   OH2 8414   5.100   4.809   3.220
 2803TIP3    H1 8415   5.168   4.798   3.286
 2803TIP3    H2 8416   5.146   4.796   3.136
 2804TIP3   OH2 8417   6.308   1.660   2.094
 2804TIP3    H1 8418   6.308   1.567   2.069
 2804TIP3    H2 8419   6.346   1.661   2.182
 2805TIP3   OH2 8420   5.646   0.222   0.967
 2805TIP3    H1 8421   5.715   0.175   0.919
 2805TIP3    H2 8422   5.565   0.201   0.920
 2806TIP3   OH2 8423   4.427   4.082   3.149
 2806TIP3    H1 8424   4.510   4.108   3.189
 2806TIP3    H2 8425   4.360   4.113   3.211
 2807TIP3   OH2 8426   5.380   1.730   4.391
 2807TIP3    H1 8427   5.338   1.805   4.435
 2807TIP3    H2 8428   5.314   1.700   4.327
 2808TIP3   OH2 8429   0.510   3.581   0.291
 2808TIP3    H1 8430   0.596   3.600   0.329
 2808TIP3    H2 8431   0.447   3.613   0.356
 2809TIP3   OH2 8432   0.731   4.184   3.771
 2809TIP3    H1 8433   0.643   4.181   3.735
 2809TIP3    H2 8434   0.718   4.185   3.866
 2810TIP3   OH2 8435   4.490   2.536   5.134
 2810TIP3    H1 8436   4.436   2.528   5.055
 2810TIP3    H2 8437   4.572   2.493   5.112
 2811TIP3   OH2 8438   1.860   2.143   3.935
 2811TIP3    H1 8439   1.802   2.216   3.955
 2811TIP3    H2 8440   1.947   2.183   3.926
 2812TIP3   OH2 8441   3.097   5.334   1.137
 2812TIP3    H1 8442   3.124   5.409   1.083
 2812TIP3    H2 8443   3.003   5.345   1.147
 2813TIP3   OH2 8444   3.952   3.938   3.052
 2813TIP3    H1 8445   4.007   3.911   2.978
 2813TIP3    H2 8446   3.864   3.946   3.015
 2814TIP3   OH2 8447   0.462   2.440   2.108
 2814TIP3    H1 8448   0.522   2.415   2.038
 2814TIP3    H2 8449   0.455   2.362   2.163
 2815TIP3   OH2 8450   1.319   5.232   2.989
 2815TIP3    H1 8451   1.376   5.294   2.943
 2815TIP3    H2 8452   1.231   5.254   2.960
 2816TIP3   OH2 8453   3.762   0.151   1.650
 2816TIP3    H1 8454   3.764   0.246   1.663
 2816TIP3    H2 8455   3.850   0.129   1.617
 2817TIP3   OH2 8456   5.875   4.990   4.091
 2817TIP3    H1 8457   5.878   5.084   4.105
 2817TIP3    H2 8458   5.782   4.969   4.087
 2818TIP3   OH2 8459   1.493   5.093   0.247
 2818TIP3    H1 8460   1.474   5.124   0.158
 2818TIP3    H2 8461   1.430   5.138   0.302
 2819TIP3   OH2 8462   2.494   0.502   1.092
 2819TIP3    H1 8463   2.560   0.540   1.035
 2819TIP3    H2 8464   2.467   0.422   1.047
 2820TIP3   OH2 8465   1.500   1.877   0.638
 2820TIP3    H1 8466   1.446   1.954   0.621
 2820TIP3    H2 8467   1.585   1.913   0.666
 2821TIP3   OH2 8468   0.940   2.718   0.015
 2821TIP3    H1 8469   0.901   2.710   0.102
 2821TIP3    H2 8470   1.031   2.689   0.026
 2822TIP3   OH2 8471   5.470   1.284   3.671
 2822TIP3    H1 8472   5.413   1.257   3.744
 2822TIP3    H2 8473   5.554   1.244   3.691
 2823TIP3   OH2 8474   4.017   0.273   4.057
 2823TIP3    H1 8475   4.091   0.307   4.007
 2823TIP3    H2 8476   4.057   0.238   4.137
 2824TIP3   OH2 8477   0.740   5.944   0.067
 2824TIP3    H1 8478   0.775   5.993  -0.008
 2824TIP3    H2 8479   0.659   5.905   0.033
 2825TIP3   OH2 8480   3.395   2.082   0.533
 2825TIP3    H1 8481   3.343   2.148   0.488
 2825TIP3    H2 8482   3.334   2.040   0.594
 2826TIP3   OH2 8483   1.334   0.484   4.650
 2826TIP3    H1 8484   1.309   0.558   4.706
 2826TIP3    H2 8485   1.425   0.501   4.626
 2827TIP3   OH2 8486   5.615   4.847   2.532
 2827TIP3    H1 8487   5.538   4.881   2.577
 2827TIP3    H2 8488   5.615   4.753   2.551
 2828TIP3   OH2 8489   1.974   2.776   1.006
 2828TIP3    H1 8490   2.060   2.757   1.043
 2828TIP3    H2 8491   1.993   2.819   0.923
 2829TIP3   OH2 8492   0.797   0.815   1.322
 2829TIP3    H1 8493   0.764   0.823   1.233
 2829TIP3    H2 8494   0.852   0.892   1.334
 2830TIP3   OH2 8495   0.037   5.168   3.511
 2830TIP3    H1 8496   0.024   5.253   3.554
 2830TIP3    H2 8497  -0.051   5.134   3.499
 2831TIP3   OH2 8498   3.980   2.241   2.796
 2831TIP3    H1 8499   3.887   2.222   2.812
 2831TIP3    H2 8500   3.980   2.329   2.759
 2832TIP3   OH2 8501   1.565   4.494   4.837
 2832TIP3    H1 8502   1.621   4.570   4.820
 2832TIP3    H2 8503   1.484   4.514   4.789
 2833TIP3   OH2 8504   1.886   1.765   1.676
 2833TIP3    H1 8505   1.972   1.725   1.660
 2833TIP3    H2 8506   1.882   1.838   1.614
 2834TIP3   OH2 8507   1.868   3.784   3.466
 2834TIP3    H1 8508   1.944   3.768   3.523
 2834TIP3    H2 8509   1.801   3.724   3.500
 2835TIP3   OH2 8510   2.653   2.398   2.796
 2835TIP3    H1 8511   2.701   2.478   2.775
 2835TIP3    H2 8512   2.631   2.408   2.889
 2836TIP3   OH2 8513   2.429   4.003   0.843
 2836TIP3    H1 8514   2.407   4.018   0.935
 2836TIP3    H2 8515   2.369   3.933   0.814
 2837TIP3   OH2 8516   6.370   1.804   0.316
 2837TIP3    H1 8517   6.372   1.874   0.381
 2837TIP3    H2 8518   6.277   1.797   0.292
 2838TIP3   OH2 8519   0.407   0.359   1.313
 2838TIP3    H1 8520   0.323   0.380   1.353
 2838TIP3    H2 8521   0.386   0.338   1.222
 2839TIP3   OH2 8522   1.775   0.123   0.268
 2839TIP3    H1 8523   1.759   0.216   0.284
 2839TIP3    H2 8524   1.756   0.080   0.351
 2840TIP3   OH2 8525   0.357   4.761   1.389
 2840TIP3    H1 8526   0.273   4.767   1.343
 2840TIP3    H2 8527   0.352   4.829   1.457
 2841TIP3   OH2 8528   3.994   4.846   3.221
 2841TIP3    H1 8529   3.900   4.861   3.206
 2841TIP3    H2 8530   4.038   4.903   3.159
 2842TIP3   OH2 8531   0.906   5.941   2.054
 2842TIP3    H1 8532   0.856   6.017   2.086
 2842TIP3    H2 8533   0.981   5.935   2.114
 2843TIP3   OH2 8534   1.083   3.153   4.658
 2843TIP3    H1 8535   1.064   3.243   4.682
 2843TIP3    H2 8536   1.105   3.158   4.565
 2844TIP3   OH2 8537   5.110   5.069   4.295
 2844TIP3    H1 8538   5.094   4.985   4.252
 2844TIP3    H2 8539   5.178   5.050   4.359
 2845TIP3   OH2 8540   1.297   2.104   4.493
 2845TIP3    H1 8541   1.328   2.192   4.473
 2845TIP3    H2 8542   1.202   2.113   4.502
 2846TIP3   OH2 8543   1.753   5.514   0.482
 2846TIP3    H1 8544   1.756   5.601   0.521
 2846TIP3    H2 8545   1.816   5.517   0.410
 2847TIP3   OH2 8546   5.129   4.106   3.880
 2847TIP3    H1 8547   5.113   4.054   3.958
 2847TIP3    H2 8548   5.054   4.166   3.875
 2848TIP3   OH2 8549   2.096   3.058   0.153
 2848TIP3    H1 8550   2.121   3.077   0.243
 2848TIP3    H2 8551   2.160   2.994   0.123
 2849TIP3   OH2 8552   5.460   3.950   4.895
 2849TIP3    H1 8553   5.500   4.036   4.905
 2849TIP3    H2 8554   5.384   3.952   4.953
 2850TIP3   OH2 8555   1.321   1.308   1.125
 2850TIP3    H1 8556   1.325   1.369   1.052
 2850TIP3    H2 8557   1.251   1.247   1.103
 2851TIP3   OH2 8558   2.080   1.576   2.065
 2851TIP3    H1 8559   2.049   1.667   2.068
 2851TIP3    H2 8560   2.168   1.582   2.027
 2852TIP3   OH2 8561   1.714   4.019   2.205
 2852TIP3    H1 8562   1.694   4.083   2.274
 2852TIP3    H2 8563   1.798   3.980   2.232
 2853TIP3   OH2 8564   0.709   2.996   3.301
 2853TIP3    H1 8565   0.733   3.086   3.324
 2853TIP3    H2 8566   0.669   2.960   3.380
 2854TIP3   OH2 8567   2.469   1.865   1.089
 2854TIP3    H1 8568   2.449   1.944   1.038
 2854TIP3    H2 8569   2.483   1.797   1.022
 2855TIP3   OH2 8570   2.058   1.779   0.322
 2855TIP3    H1 8571   2.004   1.787   0.401
 2855TIP3    H2 8572   2.107   1.861   0.318
 2856TIP3   OH2 8573   4.065   4.196   5.066
 2856TIP3    H1 8574   4.014   4.160   5.139
 2856TIP3    H2 8575   4.006   4.259   5.024
 2857TIP3   OH2 8576   3.616   2.649   2.181
 2857TIP3    H1 8577   3.571   2.677   2.101
 2857TIP3    H2 8578   3.626   2.729   2.232
 2858TIP3   OH2 8579   5.634   3.564   0.255
 2858TIP3    H1 8580   5.581   3.552   0.333
 2858TIP3    H2 8581   5.674   3.651   0.266
 2859TIP3   OH2 8582   3.167   1.033   2.198
 2859TIP3    H1 8583   3.251   1.070   2.171
 2859TIP3    H2 8584   3.169   1.034   2.293
 2860TIP3   OH2 8585   5.749   3.341   1.107
 2860TIP3    H1 8586   5.769   3.363   1.016
 2860TIP3    H2 8587   5.655   3.356   1.116
 2861TIP3   OH2 8588   5.692   3.826   3.930
 2861TIP3    H1 8589   5.702   3.920   3.915
 2861TIP3    H2 8590   5.598   3.811   3.924
 2862TIP3   OH2 8591   0.933   5.466   0.290
 2862TIP3    H1 8592   0.870   5.498   0.226
 2862TIP3    H2 8593   0.953   5.377   0.261
 2863TIP3   OH2 8594   0.265   2.598   4.320
 2863TIP3    H1 8595   0.239   2.603   4.228
 2863TIP3    H2 8596   0.192   2.554   4.363
 2864TIP3   OH2 8597   0.366   2.049   0.890
 2864TIP3    H1 8598   0.454   2.035   0.856
 2864TIP3    H2 8599   0.379   2.079   0.980
 2865TIP3   OH2 8600   0.989   1.058   4.634
 2865TIP3    H1 8601   1.055   1.119   4.601
 2865TIP3    H2 8602   1.039   0.989   4.678
 2866TIP3   OH2 8603   1.421   5.923   1.368
 2866TIP3    H1 8604   1.368   5.949   1.293
 2866TIP3    H2 8605   1.400   5.831   1.382
 2867TIP3   OH2 8606   5.958   1.955   3.881
 2867TIP3    H1 8607   5.870   1.988   3.903
 2867TIP3    H2 8608   5.982   2.003   3.801
 2868TIP3   OH2 8609   4.331   4.325   3.461
 2868TIP3    H1 8610   4.261   4.387   3.481
 2868TIP3    H2 8611   4.348   4.280   3.544
 2869TIP3   OH2 8612   3.669   0.025   2.452
 2869TIP3    H1 8613   3.761   0.017   2.479
 2869TIP3    H2 8614   3.652  -0.056   2.403
 2870TIP3   OH2 8615   0.951   3.095   2.098
 2870TIP3    H1 8616   0.960   3.108   2.193
 2870TIP3    H2 8617   0.923   3.004   2.088
 2871TIP3   OH2 8618   4.309   5.829   4.575
 2871TIP3    H1 8619   4.239   5.799   4.633
 2871TIP3    H2 8620   4.264   5.881   4.508
 2872TIP3   OH2 8621   1.370   0.701   1.530
 2872TIP3    H1 8622   1.345   0.792   1.514
 2872TIP3    H2 8623   1.357   0.689   1.624
 2873TIP3   OH2 8624   5.681   2.269   1.659
 2873TIP3    H1 8625   5.721   2.307   1.581
 2873TIP3    H2 8626   5.715   2.322   1.732
 2874TIP3   OH2 8627   4.850   0.588   0.624
 2874TIP3    H1 8628   4.888   0.623   0.544
 2874TIP3    H2 8629   4.925   0.566   0.679
 2875TIP3   OH2 8630   5.016   1.650   0.975
 2875TIP3    H1 8631   5.021   1.603   1.058
 2875TIP3    H2 8632   4.923   1.650   0.953
 2876TIP3   OH2 8633   2.395   4.165   4.674
 2876TIP3    H1 8634   2.358   4.080   4.698
 2876TIP3    H2 8635   2.486   4.145   4.653
 2877TIP3   OH2 8636   3.267   4.525   1.584
 2877TIP3    H1 8637   3.178   4.537   1.552
 2877TIP3    H2 8638   3.271   4.576   1.665
 2878TIP3   OH2 8639   0.665   0.970   2.989
 2878TIP3    H1 8640   0.669   1.063   3.009
 2878TIP3    H2 8641   0.586   0.939   3.034
 2879TIP3   OH2 8642   0.340   0.960   2.120
 2879TIP3    H1 8643   0.386   1.037   2.086
 2879TIP3    H2 8644   0.297   0.921   2.044
 2880TIP3   OH2 8645   3.909   0.245   2.209
 2880TIP3    H1 8646   3.877   0.335   2.214
 2880TIP3    H2 8647   3.940   0.236   2.118
 2881TIP3   OH2 8648   5.512   3.244   0.133
 2881TIP3    H1 8649   5.529   3.285   0.048
 2881TIP3    H2 8650   5.424   3.272   0.156
 2882TIP3   OH2 8651   5.878   2.384   2.426
 2882TIP3    H1 8652   5.947   2.401   2.491
 2882TIP3    H2 8653   5.800   2.426   2.462
 2883TIP3   OH2 8654   6.121   1.827   4.947
 2883TIP3    H1 8655   6.111   1.774   5.026
 2883TIP3    H2 8656   6.201   1.794   4.906
 2884TIP3   OH2 8657   0.457   5.470   4.950
 2884TIP3    H1 8658   0.530   5.420   4.986
 2884TIP3    H2 8659   0.463   5.455   4.855
 2885TIP3   OH2 8660   5.736   3.436   4.303
 2885TIP3    H1 8661   5.686   3.508   4.342
 2885TIP3    H2 8662   5.793   3.405   4.373
 2886TIP3   OH2 8663   2.025   3.465   2.801
 2886TIP3    H1 8664   2.070   3.501   2.725
 2886TIP3    H2 8665   2.032   3.534   2.867
 2887TIP3   OH2 8666   5.647   2.847   3.491
 2887TIP3    H1 8667   5.603   2.816   3.412
 2887TIP3    H2 8668   5.664   2.939   3.474
 2888TIP3   OH2 8669   3.708   3.555   1.568
 2888TIP3    H1 8670   3.652   3.580   1.496
 2888TIP3    H2 8671   3.694   3.461   1.579
 2889TIP3   OH2 8672   6.335   5.615   0.255
 2889TIP3    H1 8673   6.279   5.692   0.244
 2889TIP3    H2 8674   6.313   5.583   0.342
 2890TIP3   OH2 8675   0.688   0.812   4.680
 2890TIP3    H1 8676   0.663   0.861   4.758
 2890TIP3    H2 8677   0.662   0.722   4.699
 2891TIP3   OH2 8678   0.668   3.562   0.833
 2891TIP3    H1 8679   0.651   3.654   0.814
 2891TIP3    H2 8680   0.756   3.546   0.800
 2892TIP3   OH2 8681   1.284   3.588   3.856
 2892TIP3    H1 8682   1.299   3.653   3.787
 2892TIP3    H2 8683   1.369   3.579   3.899
 2893TIP3   OH2 8684   1.631   3.690   3.893
 2893TIP3    H1 8685   1.618   3.621   3.958
 2893TIP3    H2 8686   1.722   3.717   3.905
 2894TIP3   OH2 8687   2.336   4.292   3.243
 2894TIP3    H1 8688   2.242   4.275   3.247
 2894TIP3    H2 8689   2.366   4.245   3.165
 2895TIP3   OH2 8690   3.338   5.504   2.306
 2895TIP3    H1 8691   3.299   5.433   2.254
 2895TIP3    H2 8692   3.293   5.583   2.276
 2896TIP3   OH2 8693   4.664   1.704   1.165
 2896TIP3    H1 8694   4.573   1.674   1.172
 2896TIP3    H2 8695   4.660   1.797   1.184
 2897TIP3   OH2 8696   1.283   3.448   2.936
 2897TIP3    H1 8697   1.334   3.441   2.856
 2897TIP3    H2 8698   1.251   3.538   2.937
 2898TIP3   OH2 8699   4.417   4.731   3.920
 2898TIP3    H1 8700   4.479   4.688   3.979
 2898TIP3    H2 8701   4.470   4.797   3.874
 2899TIP3   OH2 8702   5.501   0.364   4.599
 2899TIP3    H1 8703   5.566   0.433   4.612
 2899TIP3    H2 8704   5.531   0.292   4.655
 2900TIP3   OH2 8705   5.329   0.225   3.835
 2900TIP3    H1 8706   5.297   0.230   3.745
 2900TIP3    H2 8707   5.281   0.152   3.874
 2901TIP3   OH2 8708   1.623   0.780   4.099
 2901TIP3    H1 8709   1.676   0.808   4.024
 2901TIP3    H2 8710   1.533   0.796   4.072
 2902TIP3   OH2 8711   1.323   3.441   4.875
 2902TIP3    H1 8712   1.410   3.478   4.865
 2902TIP3    H2 8713   1.329   3.354   4.834
 2903TIP3   OH2 8714   4.017   0.302   2.481
 2903TIP3    H1 8715   4.103   0.297   2.441
 2903TIP3    H2 8716   3.956   0.292   2.408
 2904TIP3   OH2 8717   2.161   2.533   1.381
 2904TIP3    H1 8718   2.123   2.620   1.369
 2904TIP3    H2 8719   2.193   2.508   1.294
 2905TIP3   OH2 8720   0.935   1.820   3.472
 2905TIP3    H1 8721   1.025   1.833   3.444
 2905TIP3    H2 8722   0.895   1.769   3.401
 2906TIP3   OH2 8723   1.389   0.656   4.867
 2906TIP3    H1 8724   1.481   0.679   4.873
 2906TIP3    H2 8725   1.342   0.733   4.899
 2907TIP3   OH2 8726   2.883   5.656   4.901
 2907TIP3    H1 8727   2.967   5.677   4.942
 2907TIP3    H2 8728   2.848   5.740   4.872
 2908TIP3   OH2 8729   2.692   4.474   3.891
 2908TIP3    H1 8730   2.672   4.486   3.798
 2908TIP3    H2 8731   2.772   4.420   3.891
 2909TIP3   OH2 8732   0.501   5.430   1.906
 2909TIP3    H1 8733   0.508   5.396   1.995
 2909TIP3    H2 8734   0.407   5.427   1.886
 2910TIP3   OH2 8735   3.702   2.877   4.145
 2910TIP3    H1 8736   3.754   2.949   4.179
 2910TIP3    H2 8737   3.745   2.853   4.063
 2911TIP3   OH2 8738   4.635   4.508   1.253
 2911TIP3    H1 8739   4.591   4.515   1.338
 2911TIP3    H2 8740   4.685   4.589   1.245
 2912TIP3   OH2 8741   1.363   3.697   4.984
 2912TIP3    H1 8742   1.332   3.636   5.051
 2912TIP3    H2 8743   1.445   3.732   5.020
 2913TIP3   OH2 8744   6.193   1.284   4.059
 2913TIP3    H1 8745   6.183   1.339   4.137
 2913TIP3    H2 8746   6.277   1.309   4.023
 2914TIP3   OH2 8747   0.498   4.939   3.633
 2914TIP3    H1 8748   0.593   4.930   3.640
 2914TIP3    H2 8749   0.484   4.983   3.549
 2915TIP3   OH2 8750   1.481   3.532   4.044
 2915TIP3    H1 8751   1.452   3.533   4.135
 2915TIP3    H2 8752   1.483   3.439   4.020
 2916TIP3   OH2 8753   0.594   4.865   4.868
 2916TIP3    H1 8754   0.568   4.790   4.813
 2916TIP3    H2 8755   0.641   4.825   4.942
 2917TIP3   OH2 8756   1.088   2.323  -0.026
 2917TIP3    H1 8757   1.138   2.266   0.032
 2917TIP3    H2 8758   1.011   2.348   0.026
 2918TIP3   OH2 8759   0.027   4.851   2.157
 2918TIP3    H1 8760   0.075   4.811   2.085
 2918TIP3    H2 8761  -0.065   4.838   2.134
 2919TIP3   OH2 8762   3.517   5.935   5.157
 2919TIP3    H1 8763   3.579   6.008   5.161
 2919TIP3    H2 8764   3.433   5.975   5.136
 2920TIP3   OH2 8765   0.697   2.549   1.676
 2920TIP3    H1 8766   0.665   2.589   1.595
 2920TIP3    H2 8767   0.775   2.600   1.699
 2921TIP3   OH2 8768   5.534   1.398   0.559
 2921TIP3    H1 8769   5.567   1.323   0.509
 2921TIP3    H2 8770   5.589   1.402   0.637
 2922TIP3   OH2 8771   6.061   1.523   2.250
 2922TIP3    H1 8772   6.122   1.540   2.178
 2922TIP3    H2 8773   6.020   1.607   2.267
 2923TIP3   OH2 8774   3.898   5.767   4.455
 2923TIP3    H1 8775   3.850   5.850   4.450
 2923TIP3    H2 8776   3.990   5.793   4.456
 2924TIP3   OH2 8777   3.992   1.925   2.365
 2924TIP3    H1 8778   4.026   1.945   2.452
 2924TIP3    H2 8779   4.060   1.953   2.305
 2925TIP3   OH2 8780   5.848   1.377   2.146
 2925TIP3    H1 8781   5.918   1.416   2.198
 2925TIP3    H2 8782   5.884   1.370   2.058
 2926TIP3   OH2 8783   2.947   2.568   4.003
 2926TIP3    H1 8784   2.945   2.584   4.098
 2926TIP3    H2 8785   2.999   2.641   3.968
 2927TIP3   OH2 8786   0.688   5.503   3.699
 2927TIP3    H1 8787   0.731   5.533   3.779
 2927TIP3    H2 8788   0.598   5.535   3.706
 2928TIP3   OH2 8789   2.150   1.023   2.659
 2928TIP3    H1 8790   2.071   0.976   2.631
 2928TIP3    H2 8791   2.201   0.959   2.707
 2929TIP3   OH2 8792   4.994   5.720   1.588
 2929TIP3    H1 8793   4.972   5.657   1.519
 2929TIP3    H2 8794   5.090   5.727   1.584
 2930TIP3   OH2 8795   4.193   0.358   0.520
 2930TIP3    H1 8796   4.262   0.299   0.551
 2930TIP3    H2 8797   4.174   0.414   0.595
 2931TIP3   OH2 8798   1.838   0.021   1.889
 2931TIP3    H1 8799   1.807   0.035   1.800
 2931TIP3    H2 8800   1.932   0.037   1.885
 2932TIP3   OH2 8801   0.385   4.454   0.777
 2932TIP3    H1 8802   0.360   4.362   0.788
 2932TIP3    H2 8803   0.456   4.467   0.839
 2933TIP3   OH2 8804   4.020   4.373   2.064
 2933TIP3    H1 8805   4.043   4.286   2.096
 2933TIP3    H2 8806   3.925   4.378   2.074
 2934TIP3   OH2 8807   2.060   0.423   3.710
 2934TIP3    H1 8808   2.010   0.405   3.789
 2934TIP3    H2 8809   2.143   0.377   3.722
 2935TIP3   OH2 8810   1.567   0.502   2.490
 2935TIP3    H1 8811   1.520   0.466   2.415
 2935TIP3    H2 8812   1.544   0.595   2.490
 2936TIP3   OH2 8813   0.023   2.529   0.535
 2936TIP3    H1 8814   0.010   2.484   0.618
 2936TIP3    H2 8815   0.099   2.585   0.550
 2937TIP3   OH2 8816   1.072   5.291   2.895
 2937TIP3    H1 8817   1.024   5.355   2.948
 2937TIP3    H2 8818   1.047   5.311   2.805
 2938TIP3   OH2 8819   4.892   3.411   2.368
 2938TIP3    H1 8820   4.934   3.377   2.448
 2938TIP3    H2 8821   4.799   3.413   2.389
 2939TIP3   OH2 8822   1.791   4.631   2.796
 2939TIP3    H1 8823   1.862   4.671   2.747
 2939TIP3    H2 8824   1.832   4.559   2.844
 2940TIP3   OH2 8825   5.469   3.826   0.891
 2940TIP3    H1 8826   5.472   3.922   0.900
 2940TIP3    H2 8827   5.559   3.798   0.907
 2941TIP3   OH2 8828   0.158   2.466   5.093
 2941TIP3    H1 8829   0.153   2.489   5.000
 2941TIP3    H2 8830   0.243   2.423   5.103
 2942TIP3   OH2 8831   5.933   1.690   0.928
 2942TIP3    H1 8832   5.900   1.633   0.858
 2942TIP3    H2 8833   5.994   1.749   0.884
 2943TIP3   OH2 8834   2.351   0.117   5.179
 2943TIP3    H1 8835   2.347   0.209   5.154
 2943TIP3    H2 8836   2.260   0.087   5.174
 2944TIP3   OH2 8837   5.239   3.769   3.685
 2944TIP3    H1 8838   5.187   3.844   3.656
 2944TIP3    H2 8839   5.324   3.780   3.643
 2945TIP3   OH2 8840   2.996   3.923   2.821
 2945TIP3    H1 8841   3.012   4.014   2.846
 2945TIP3    H2 8842   2.905   3.921   2.793
 2946TIP3   OH2 8843   6.076   2.435   3.403
 2946TIP3    H1 8844   5.991   2.406   3.437
 2946TIP3    H2 8845   6.127   2.453   3.482
 2947TIP3   OH2 8846   0.174   1.008   3.115
 2947TIP3    H1 8847   0.121   0.957   3.053
 2947TIP3    H2 8848   0.131   0.995   3.199
 2948TIP3   OH2 8849   5.904   0.960   3.357
 2948TIP3    H1 8850   5.876   1.024   3.291
 2948TIP3    H2 8851   5.909   0.877   3.310
 2949TIP3   OH2 8852   5.762   2.477   4.797
 2949TIP3    H1 8853   5.854   2.462   4.821
 2949TIP3    H2 8854   5.748   2.570   4.817
 2950TIP3   OH2 8855   6.148   5.038   3.478
 2950TIP3    H1 8856   6.068   5.085   3.499
 2950TIP3    H2 8857   6.144   5.023   3.384
 2951TIP3   OH2 8858   0.473   5.434   0.259
 2951TIP3    H1 8859   0.423   5.512   0.283
 2951TIP3    H2 8860   0.493   5.392   0.343
 2952TIP3   OH2 8861   2.138   5.669   4.230
 2952TIP3    H1 8862   2.120   5.684   4.323
 2952TIP3    H2 8863   2.125   5.575   4.218
 2953TIP3   OH2 8864   1.185   3.995   3.126
 2953TIP3    H1 8865   1.094   3.990   3.097
 2953TIP3    H2 8866   1.180   4.010   3.220
 2954TIP3   OH2 8867   4.042   2.005   2.658
 2954TIP3    H1 8868   4.034   2.095   2.689
 2954TIP3    H2 8869   3.986   1.954   2.716
 2955TIP3   OH2 8870   5.744   1.050   4.749
 2955TIP3    H1 8871   5.716   1.130   4.793
 2955TIP3    H2 8872   5.814   1.079   4.690
 2956TIP3   OH2 8873   3.619   2.648   0.403
 2956TIP3    H1 8874   3.638   2.724   0.349
 2956TIP3    H2 8875   3.678   2.657   0.479
 2957TIP3   OH2 8876   4.606   4.748   2.367
 2957TIP3    H1 8877   4.517   4.737   2.334
 2957TIP3    H2 8878   4.598   4.815   2.435
 2958TIP3   OH2 8879   0.883   1.100   2.457
 2958TIP3    H1 8880   0.887   1.017   2.505
 2958TIP3    H2 8881   0.817   1.086   2.389
 2959TIP3   OH2 8882   2.235   5.017   4.449
 2959TIP3    H1 8883   2.229   5.104   4.409
 2959TIP3    H2 8884   2.198   5.028   4.536
 2960TIP3   OH2 8885   0.258   2.772   2.283
 2960TIP3    H1 8886   0.299   2.714   2.347
 2960TIP3    H2 8887   0.190   2.817   2.332
 2961TIP3   OH2 8888   2.026   1.853   2.660
 2961TIP3    H1 8889   1.974   1.791   2.609
 2961TIP3    H2 8890   2.067   1.910   2.595
 2962TIP3   OH2 8891   2.103   0.251   2.122
 2962TIP3    H1 8892   2.020   0.216   2.153
 2962TIP3    H2 8893   2.079   0.329   2.072
 2963TIP3   OH2 8894   5.866   3.775   4.855
 2963TIP3    H1 8895   5.821   3.846   4.810
 2963TIP3    H2 8896   5.911   3.727   4.785
 2964TIP3   OH2 8897   3.584   1.966   2.418
 2964TIP3    H1 8898   3.533   2.008   2.349
 2964TIP3    H2 8899   3.519   1.918   2.469
 2965TIP3   OH2 8900   4.806   5.299   3.786
 2965TIP3    H1 8901   4.845   5.222   3.744
 2965TIP3    H2 8902   4.808   5.279   3.879
 2966TIP3   OH2 8903   4.348   1.314   3.436
 2966TIP3    H1 8904   4.414   1.293   3.371
 2966TIP3    H2 8905   4.298   1.386   3.398
 2967TIP3   OH2 8906   3.633   1.070   0.319
 2967TIP3    H1 8907   3.686   1.144   0.290
 2967TIP3    H2 8908   3.564   1.062   0.253
 2968TIP3   OH2 8909   4.733   0.184   1.111
 2968TIP3    H1 8910   4.652   0.135   1.097
 2968TIP3    H2 8911   4.794   0.119   1.149
 2969TIP3   OH2 8912   3.112   1.374   4.409
 2969TIP3    H1 8913   3.079   1.463   4.408
 2969TIP3    H2 8914   3.174   1.370   4.336
 2970TIP3   OH2 8915   2.607   4.324   0.731
 2970TIP3    H1 8916   2.573   4.325   0.820
 2970TIP3    H2 8917   2.665   4.248   0.728
 2971TIP3   OH2 8918   4.432   1.623   4.874
 2971TIP3    H1 8919   4.494   1.611   4.947
 2971TIP3    H2 8920   4.406   1.715   4.880
 2972TIP3   OH2 8921   0.057   5.700   3.219
 2972TIP3    H1 8922   0.052   5.686   3.313
 2972TIP3    H2 8923   0.151   5.698   3.199
 2973TIP3   OH2 8924   0.148   5.365   2.470
 2973TIP3    H1 8925   0.226   5.406   2.509
 2973TIP3    H2 8926   0.095   5.339   2.546
 2974TIP3   OH2 8927   4.230   5.867   4.992
 2974TIP3    H1 8928   4.188   5.858   5.078
 2974TIP3    H2 8929   4.227   5.961   4.974
 2975TIP3   OH2 8930   0.582   4.486   4.164
 2975TIP3    H1 8931   0.658   4.495   4.107
 2975TIP3    H2 8932   0.507   4.499   4.106
 2976TIP3   OH2 8933   3.215   2.438   3.498
 2976TIP3    H1 8934   3.291   2.484   3.463
 2976TIP3    H2 8935   3.241   2.412   3.586
 2977TIP3   OH2 8936   3.141   4.594   1.843
 2977TIP3    H1 8937   3.153   4.681   1.805
 2977TIP3    H2 8938   3.047   4.578   1.837
 2978TIP3   OH2 8939   1.832   0.141   2.135
 2978TIP3    H1 8940   1.781   0.073   2.180
 2978TIP3    H2 8941   1.817   0.125   2.042
 2979TIP3   OH2 8942   2.939   2.118   5.117
 2979TIP3    H1 8943   2.988   2.195   5.090
 2979TIP3    H2 8944   2.944   2.118   5.212
 2980TIP3   OH2 8945   4.688   3.378   1.169
 2980TIP3    H1 8946   4.672   3.467   1.201
 2980TIP3    H2 8947   4.706   3.327   1.248
 2981TIP3   OH2 8948   1.447   0.281   2.696
 2981TIP3    H1 8949   1.438   0.189   2.672
 2981TIP3    H2 8950   1.489   0.322   2.620
 2982TIP3   OH2 8951   2.398   0.814   3.573
 2982TIP3    H1 8952   2.379   0.723   3.598
 2982TIP3    H2 8953   2.494   0.819   3.574
 2983TIP3   OH2 8954   0.808   1.267   2.804
 2983TIP3    H1 8955   0.764   1.349   2.827
 2983TIP3    H2 8956   0.850   1.284   2.720
 2984TIP3   OH2 8957   0.713   0.729   4.109
 2984TIP3    H1 8958   0.783   0.754   4.049
 2984TIP3    H2 8959   0.710   0.634   4.104
 2985TIP3   OH2 8960   1.299   5.536   4.376
 2985TIP3    H1 8961   1.336   5.480   4.444
 2985TIP3    H2 8962   1.251   5.603   4.424
 2986TIP3   OH2 8963   5.384   1.753   0.658
 2986TIP3    H1 8964   5.426   1.669   0.640
 2986TIP3    H2 8965   5.442   1.797   0.719
 2987TIP3   OH2 8966   5.546   5.802   0.532
 2987TIP3    H1 8967   5.559   5.888   0.573
 2987TIP3    H2 8968   5.537   5.821   0.439
 2988TIP3   OH2 8969   0.274   0.506   1.891
 2988TIP3    H1 8970   0.341   0.439   1.878
 2988TIP3    H2 8971   0.211   0.466   1.950
 2989TIP3   OH2 8972   2.174   0.605   5.092
 2989TIP3    H1 8973   2.217   0.532   5.137
 2989TIP3    H2 8974   2.196   0.682   5.145
 2990TIP3   OH2 8975   4.063   1.226   2.943
 2990TIP3    H1 8976   4.012   1.302   2.971
 2990TIP3    H2 8977   4.075   1.174   3.022
 2991TIP3   OH2 8978   5.220   5.097   1.255
 2991TIP3    H1 8979   5.247   5.140   1.337
 2991TIP3    H2 8980   5.261   5.011   1.260
 2992TIP3   OH2 8981   2.519   5.774   4.416
 2992TIP3    H1 8982   2.505   5.696   4.470
 2992TIP3    H2 8983   2.478   5.753   4.333
 2993TIP3   OH2 8984   5.658   4.935   5.136
 2993TIP3    H1 8985   5.677   5.025   5.108
 2993TIP3    H2 8986   5.649   4.886   5.055
 2994TIP3   OH2 8987   1.030   4.648   1.090
 2994TIP3    H1 8988   0.952   4.698   1.066
 2994TIP3    H2 8989   1.089   4.712   1.130
 2995TIP3   OH2 8990   0.688   1.723   3.710
 2995TIP3    H1 8991   0.658   1.803   3.752
 2995TIP3    H2 8992   0.783   1.726   3.717
 2996TIP3   OH2 8993   2.169   3.630   3.258
 2996TIP3    H1 8994   2.210   3.548   3.233
 2996TIP3    H2 8995   2.097   3.605   3.316
 2997TIP3   OH2 8996   4.092   5.267   4.045
 2997TIP3    H1 8997   4.181   5.242   4.019
 2997TIP3    H2 8998   4.083   5.231   4.133
 2998TIP3   OH2 8999   1.945   0.722   0.623
 2998TIP3    H1 9000   1.933   0.663   0.548
 2998TIP3    H2 9001   1.866   0.711   0.676
 2999TIP3   OH2 9002   2.708   5.834   2.704
 2999TIP3    H1 9003   2.701   5.924   2.671
 2999TIP3    H2 9004   2.802   5.818   2.713
 3000TIP3   OH2 9005   4.736   2.804   4.834
 3000TIP3    H1 9006   4.662   2.838   4.785
 3000TIP3    H2 9007   4.742   2.712   4.808
 3001TIP3   OH2 9008   4.236   5.535   4.072
 3001TIP3    H1 9009   4.153   5.487   4.067
 3001TIP3    H2 9010   4.303   5.466   4.075
 3002TIP3   OH2 9011   4.041   0.975   4.606
 3002TIP3    H1 9012   3.953   0.982   4.643
 3002TIP3    H2 9013   4.047   1.050   4.546
 3003TIP3   OH2 9014   4.703   5.341   0.371
 3003TIP3    H1 9015   4.731   5.333   0.462
 3003TIP3    H2 9016   4.750   5.417   0.338
 3004TIP3   OH2 9017   2.761   0.267   4.398
 3004TIP3    H1 9018   2.801   0.183   4.378
 3004TIP3    H2 9019   2.702   0.283   4.325
 3005TIP3   OH2 9020   5.365   2.718   3.822
 3005TIP3    H1 9021   5.350   2.706   3.728
 3005TIP3    H2 9022   5.460   2.711   3.832
 3006TIP3   OH2 9023   5.458   1.102   0.904
 3006TIP3    H1 9024   5.383   1.143   0.947
 3006TIP3    H2 9025   5.419   1.052   0.832
 3007TIP3   OH2 9026   5.717   4.049   4.193
 3007TIP3    H1 9027   5.744   3.959   4.208
 3007TIP3    H2 9028   5.748   4.069   4.105
 3008TIP3   OH2 9029   1.542   4.219   2.703
 3008TIP3    H1 9030   1.523   4.308   2.734
 3008TIP3    H2 9031   1.636   4.209   2.718
 3009TIP3   OH2 9032   4.608   2.301   4.942
 3009TIP3    H1 9033   4.557   2.273   5.019
 3009TIP3    H2 9034   4.618   2.222   4.890
 3010TIP3   OH2 9035   6.180   5.556   4.724
 3010TIP3    H1 9036   6.148   5.600   4.803
 3010TIP3    H2 9037   6.228   5.480   4.757
 3011TIP3   OH2 9038   3.450   2.919   1.588
 3011TIP3    H1 9039   3.459   2.966   1.505
 3011TIP3    H2 9040   3.358   2.931   1.612
 3012TIP3   OH2 9041   2.679   2.411   1.137
 3012TIP3    H1 9042   2.623   2.483   1.165
 3012TIP3    H2 9043   2.767   2.434   1.168
 3013TIP3   OH2 9044   0.706   3.942   4.665
 3013TIP3    H1 9045   0.744   4.030   4.660
 3013TIP3    H2 9046   0.779   3.883   4.644
 3014TIP3   OH2 9047   2.820   1.622   2.072
 3014TIP3    H1 9048   2.882   1.641   2.143
 3014TIP3    H2 9049   2.874   1.619   1.993
 3015TIP3   OH2 9050   1.925   1.228   2.222
 3015TIP3    H1 9051   1.858   1.233   2.153
 3015TIP3    H2 9052   1.942   1.134   2.232
 3016TIP3   OH2 9053   5.191   1.188   3.268
 3016TIP3    H1 9054   5.281   1.160   3.282
 3016TIP3    H2 9055   5.173   1.248   3.341
 3017TIP3   OH2 9056   1.738   1.113   5.057
 3017TIP3    H1 9057   1.643   1.106   5.046
 3017TIP3    H2 9058   1.772   1.113   4.967
 3018TIP3   OH2 9059   4.161   2.950   0.003
 3018TIP3    H1 9060   4.169   2.932   0.097
 3018TIP3    H2 9061   4.117   3.034  -0.001
 3019TIP3   OH2 9062   3.599   4.091   1.037
 3019TIP3    H1 9063   3.588   4.186   1.034
 3019TIP3    H2 9064   3.512   4.058   1.058
 3020TIP3   OH2 9065   3.416   3.487   0.686
 3020TIP3    H1 9066   3.423   3.577   0.719
 3020TIP3    H2 9067   3.506   3.455   0.685
 3021TIP3   OH2 9068   0.936   5.295   1.393
 3021TIP3    H1 9069   0.945   5.209   1.351
 3021TIP3    H2 9070   0.989   5.354   1.339
 3022TIP3   OH2 9071   2.082   5.640   1.563
 3022TIP3    H1 9072   2.073   5.560   1.614
 3022TIP3    H2 9073   2.076   5.711   1.628
 3023TIP3   OH2 9074   2.166   0.244   2.820
 3023TIP3    H1 9075   2.243   0.292   2.851
 3023TIP3    H2 9076   2.160   0.267   2.728
 3024TIP3   OH2 9077   5.050   3.469   1.680
 3024TIP3    H1 9078   5.116   3.494   1.614
 3024TIP3    H2 9079   5.078   3.513   1.760
 3025TIP3   OH2 9080   1.209   2.480   1.349
 3025TIP3    H1 9081   1.276   2.422   1.313
 3025TIP3    H2 9082   1.198   2.548   1.282
 3026TIP3   OH2 9083   1.160   3.016   2.788
 3026TIP3    H1 9084   1.088   2.953   2.775
 3026TIP3    H2 9085   1.182   3.007   2.881
 3027TIP3   OH2 9086   0.053   5.810   1.094
 3027TIP3    H1 9087   0.127   5.776   1.043
 3027TIP3    H2 9088   0.001   5.859   1.030
 3028TIP3   OH2 9089   0.167   1.055   3.947
 3028TIP3    H1 9090   0.164   1.128   4.010
 3028TIP3    H2 9091   0.077   1.045   3.917
 3029TIP3   OH2 9092   1.065   2.530   4.121
 3029TIP3    H1 9093   1.126   2.533   4.195
 3029TIP3    H2 9094   0.984   2.494   4.158
 3030TIP3   OH2 9095   6.333   3.934   0.436
 3030TIP3    H1 9096   6.360   4.024   0.417
 3030TIP3    H2 9097   6.398   3.879   0.393
 3031TIP3   OH2 9098   5.524   2.556   1.131
 3031TIP3    H1 9099   5.461   2.611   1.177
 3031TIP3    H2 9100   5.596   2.615   1.107
 3032TIP3   OH2 9101   5.277   1.106   4.359
 3032TIP3    H1 9102   5.243   1.192   4.383
 3032TIP3    H2 9103   5.371   1.112   4.375
 3033TIP3   OH2 9104   5.306   4.941   0.100
 3033TIP3    H1 9105   5.361   4.931   0.177
 3033TIP3    H2 9106   5.257   5.022   0.116
 3034TIP3   OH2 9107   4.494   2.444   4.428
 3034TIP3    H1 9108   4.524   2.370   4.375
 3034TIP3    H2 9109   4.551   2.443   4.505
 3035TIP3   OH2 9110   3.080   2.623   0.328
 3035TIP3    H1 9111   2.992   2.613   0.362
 3035TIP3    H2 9112   3.076   2.701   0.273
 3036TIP3   OH2 9113   2.198   4.304   2.545
 3036TIP3    H1 9114   2.139   4.379   2.543
 3036TIP3    H2 9115   2.191   4.269   2.634
 3037TIP3   OH2 9116   1.388   5.269   2.519
 3037TIP3    H1 9117   1.446   5.339   2.489
 3037TIP3    H2 9118   1.300   5.304   2.507
 3038TIP3   OH2 9119   2.665   2.651   4.371
 3038TIP3    H1 9120   2.726   2.680   4.304
 3038TIP3    H2 9121   2.581   2.688   4.346
 3039TIP3   OH2 9122   2.418   5.534   1.452
 3039TIP3    H1 9123   2.411   5.615   1.402
 3039TIP3    H2 9124   2.434   5.562   1.542
 3040TIP3   OH2 9125   2.309   2.625   1.879
 3040TIP3    H1 9126   2.394   2.594   1.846
 3040TIP3    H2 9127   2.245   2.587   1.818
 3041TIP3   OH2 9128   1.036   3.306   5.200
 3041TIP3    H1 9129   0.987   3.308   5.117
 3041TIP3    H2 9130   1.119   3.349   5.179
 3042TIP3   OH2 9131   4.191   2.299   2.255
 3042TIP3    H1 9132   4.190   2.257   2.169
 3042TIP3    H2 9133   4.247   2.243   2.308
 3043TIP3   OH2 9134   5.972   4.491   4.092
 3043TIP3    H1 9135   5.977   4.522   4.001
 3043TIP3    H2 9136   5.983   4.570   4.145
 3044TIP3   OH2 9137   3.794   3.203   1.316
 3044TIP3    H1 9138   3.850   3.270   1.276
 3044TIP3    H2 9139   3.705   3.238   1.309
 3045TIP3   OH2 9140   3.047   3.543   1.089
 3045TIP3    H1 9141   3.054   3.457   1.130
 3045TIP3    H2 9142   3.101   3.600   1.144
 3046TIP3   OH2 9143   2.387   4.733   0.811
 3046TIP3    H1 9144   2.323   4.774   0.869
 3046TIP3    H2 9145   2.340   4.658   0.774
 3047TIP3   OH2 9146   2.267   1.224   3.925
 3047TIP3    H1 9147   2.270   1.194   3.834
 3047TIP3    H2 9148   2.225   1.152   3.972
 3048TIP3   OH2 9149   5.036   4.756   0.710
 3048TIP3    H1 9150   5.104   4.734   0.646
 3048TIP3    H2 9151   4.987   4.827   0.670
 3049TIP3   OH2 9152   6.193   1.111   0.212
 3049TIP3    H1 9153   6.171   1.184   0.269
 3049TIP3    H2 9154   6.166   1.033   0.261
 3050TIP3   OH2 9155   6.110   3.805   3.247
 3050TIP3    H1 9156   6.201   3.813   3.275
 3050TIP3    H2 9157   6.111   3.836   3.156
 3051TIP3   OH2 9158   3.477   5.595   1.870
 3051TIP3    H1 9159   3.406   5.598   1.934
 3051TIP3    H2 9160   3.449   5.655   1.800
 3052TIP3   OH2 9161   0.769   2.265   3.829
 3052TIP3    H1 9162   0.859   2.269   3.862
 3052TIP3    H2 9163   0.725   2.204   3.888
 3053TIP3   OH2 9164   5.587   0.491   1.267
 3053TIP3    H1 9165   5.638   0.560   1.308
 3053TIP3    H2 9166   5.645   0.415   1.266
 3054TIP3   OH2 9167   3.702   1.696   3.089
 3054TIP3    H1 9168   3.719   1.772   3.145
 3054TIP3    H2 9169   3.673   1.734   3.006
 3055TIP3   OH2 9170   3.463   5.492   5.075
 3055TIP3    H1 9171   3.425   5.413   5.114
 3055TIP3    H2 9172   3.538   5.460   5.025
 3056TIP3   OH2 9173   1.433   4.428   1.810
 3056TIP3    H1 9174   1.426   4.337   1.784
 3056TIP3    H2 9175   1.510   4.461   1.763
 3057TIP3   OH2 9176   0.562   3.281   4.696
 3057TIP3    H1 9177   0.567   3.194   4.656
 3057TIP3    H2 9178   0.497   3.272   4.766
 3058TIP3   OH2 9179   5.532   1.556   1.595
 3058TIP3    H1 9180   5.488   1.619   1.652
 3058TIP3    H2 9181   5.576   1.611   1.529
 3059TIP3   OH2 9182   2.165   4.758   4.402
 3059TIP3    H1 9183   2.203   4.843   4.424
 3059TIP3    H2 9184   2.175   4.752   4.307
 3060TIP3   OH2 9185   2.191   2.477   1.690
 3060TIP3    H1 9186   2.112   2.520   1.656
 3060TIP3    H2 9187   2.245   2.462   1.613
 3061TIP3   OH2 9188   0.199   5.670   0.627
 3061TIP3    H1 9189   0.280   5.721   0.636
 3061TIP3    H2 9190   0.229   5.582   0.603
 3062TIP3   OH2 9191   3.164   2.148  -0.033
 3062TIP3    H1 9192   3.192   2.064   0.004
 3062TIP3    H2 9193   3.156   2.205   0.044
 3063TIP3   OH2 9194   0.848   1.349   2.541
 3063TIP3    H1 9195   0.881   1.398   2.466
 3063TIP3    H2 9196   0.879   1.259   2.525
 3064TIP3   OH2 9197   0.234   4.004   2.668
 3064TIP3    H1 9198   0.317   4.005   2.621
 3064TIP3    H2 9199   0.184   3.933   2.627
 3065TIP3   OH2 9200   0.618   2.350   2.553
 3065TIP3    H1 9201   0.713   2.334   2.560
 3065TIP3    H2 9202   0.609   2.445   2.560
 3066TIP3   OH2 9203   0.942   4.754   2.396
 3066TIP3    H1 9204   0.865   4.809   2.379
 3066TIP3    H2 9205   0.966   4.774   2.486
 3067TIP3   OH2 9206   4.184   1.999   2.175
 3067TIP3    H1 9207   4.274   1.965   2.178
 3067TIP3    H2 9208   4.189   2.074   2.117
 3068TIP3   OH2 9209   3.880   5.101   0.367
 3068TIP3    H1 9210   3.920   5.121   0.283
 3068TIP3    H2 9211   3.953   5.072   0.422
 3069TIP3   OH2 9212   5.486   5.384   1.243
 3069TIP3    H1 9213   5.502   5.452   1.178
 3069TIP3    H2 9214   5.474   5.431   1.325
 3070TIP3   OH2 9215   2.848   0.586   5.025
 3070TIP3    H1 9216   2.794   0.648   4.976
 3070TIP3    H2 9217   2.874   0.635   5.104
 3071TIP3   OH2 9218   5.791   2.015   0.734
 3071TIP3    H1 9219   5.709   1.991   0.777
 3071TIP3    H2 9220   5.790   2.111   0.731
 3072TIP3   OH2 9221   5.812   1.324   1.639
 3072TIP3    H1 9222   5.746   1.328   1.708
 3072TIP3    H2 9223   5.838   1.415   1.625
 3073TIP3   OH2 9224   4.466   2.747   4.051
 3073TIP3    H1 9225   4.457   2.733   3.957
 3073TIP3    H2 9226   4.511   2.831   4.059
 3074TIP3   OH2 9227   6.133   4.813   2.935
 3074TIP3    H1 9228   6.045   4.849   2.938
 3074TIP3    H2 9229   6.121   4.721   2.910
 3075TIP3   OH2 9230   2.697   3.097   4.173
 3075TIP3    H1 9231   2.743   3.100   4.257
 3075TIP3    H2 9232   2.687   3.004   4.155
 3076TIP3   OH2 9233   3.151   3.151   0.690
 3076TIP3    H1 9234   3.151   3.223   0.752
 3076TIP3    H2 9235   3.173   3.074   0.743
 3077TIP3   OH2 9236   3.043   0.534   0.446
 3077TIP3    H1 9237   2.985   0.466   0.411
 3077TIP3    H2 9238   3.116   0.538   0.384
 3078TIP3   OH2 9239   2.966   1.116   0.047
 3078TIP3    H1 9240   2.903   1.171   0.093
 3078TIP3    H2 9241   2.917   1.081  -0.028
 3079TIP3   OH2 9242   3.622   4.852   1.003
 3079TIP3    H1 9243   3.709   4.815   0.994
 3079TIP3    H2 9244   3.612   4.870   1.096
 3080TIP3   OH2 9245   0.038   4.630   4.571
 3080TIP3    H1 9246   0.096   4.633   4.647
 3080TIP3    H2 9247   0.092   4.596   4.500
 3081TIP3   OH2 9248   5.484   0.925   0.031
 3081TIP3    H1 9249   5.432   1.002   0.057
 3081TIP3    H2 9250   5.552   0.919   0.097
 3082TIP3   OH2 9251   3.866   5.670   0.459
 3082TIP3    H1 9252   3.958   5.655   0.439
 3082TIP3    H2 9253   3.819   5.638   0.382
 3083TIP3   OH2 9254   0.503   3.529   1.384
 3083TIP3    H1 9255   0.535   3.620   1.381
 3083TIP3    H2 9256   0.582   3.476   1.381
 3084TIP3   OH2 9257   5.304   0.472   0.221
 3084TIP3    H1 9258   5.279   0.430   0.304
 3084TIP3    H2 9259   5.278   0.408   0.154
 3085TIP3   OH2 9260   3.295   0.267   2.133
 3085TIP3    H1 9261   3.336   0.286   2.218
 3085TIP3    H2 9262   3.288   0.172   2.130
 3086TIP3   OH2 9263   4.450   2.146   2.972
 3086TIP3    H1 9264   4.356   2.164   2.982
 3086TIP3    H2 9265   4.474   2.100   3.053
 3087TIP3   OH2 9266   5.612   1.560   4.998
 3087TIP3    H1 9267   5.533   1.510   5.020
 3087TIP3    H2 9268   5.684   1.506   5.031
 3088TIP3   OH2 9269   2.900   1.603   5.109
 3088TIP3    H1 9270   2.895   1.673   5.045
 3088TIP3    H2 9271   2.968   1.631   5.171
 3089TIP3   OH2 9272   6.258   2.093   1.830
 3089TIP3    H1 9273   6.164   2.090   1.844
 3089TIP3    H2 9274   6.291   2.014   1.874
 3090TIP3   OH2 9275   4.433   5.209   0.106
 3090TIP3    H1 9276   4.501   5.233   0.043
 3090TIP3    H2 9277   4.356   5.258   0.077
 3091TIP3   OH2 9278   5.082   2.682   2.758
 3091TIP3    H1 9279   5.009   2.622   2.742
 3091TIP3    H2 9280   5.071   2.751   2.694
 3092TIP3   OH2 9281   0.636   2.393   1.896
 3092TIP3    H1 9282   0.710   2.401   1.955
 3092TIP3    H2 9283   0.656   2.454   1.824
 3093TIP3   OH2 9284   6.207   1.410   0.358
 3093TIP3    H1 9285   6.284   1.459   0.329
 3093TIP3    H2 9286   6.134   1.471   0.348
 3094TIP3   OH2 9287   5.743   5.357   3.461
 3094TIP3    H1 9288   5.682   5.428   3.478
 3094TIP3    H2 9289   5.696   5.298   3.402
 3095TIP3   OH2 9290   4.528   1.253   3.822
 3095TIP3    H1 9291   4.460   1.320   3.816
 3095TIP3    H2 9292   4.604   1.298   3.858
 3096TIP3   OH2 9293   1.628   2.135   2.355
 3096TIP3    H1 9294   1.691   2.063   2.356
 3096TIP3    H2 9295   1.548   2.097   2.319
 3097TIP3   OH2 9296   5.902   1.707   4.001
 3097TIP3    H1 9297   5.812   1.721   4.033
 3097TIP3    H2 9298   5.925   1.790   3.959
 3098TIP3   OH2 9299   4.100   3.511   2.282
 3098TIP3    H1 9300   4.115   3.584   2.343
 3098TIP3    H2 9301   4.020   3.534   2.236
 3099TIP3   OH2 9302   5.006   5.518   3.978
 3099TIP3    H1 9303   4.921   5.539   3.939
 3099TIP3    H2 9304   5.049   5.603   3.990
 3100TIP3   OH2 9305   1.076   3.649   4.925
 3100TIP3    H1 9306   1.111   3.656   5.014
 3100TIP3    H2 9307   1.153   3.646   4.868
 3101TIP3   OH2 9308   2.221   1.224   2.893
 3101TIP3    H1 9309   2.199   1.172   2.816
 3101TIP3    H2 9310   2.140   1.227   2.944
 3102TIP3   OH2 9311   1.789   0.158   0.843
 3102TIP3    H1 9312   1.804   0.219   0.771
 3102TIP3    H2 9313   1.874   0.117   0.858
 3103TIP3   OH2 9314   4.431   1.033   4.274
 3103TIP3    H1 9315   4.468   1.121   4.285
 3103TIP3    H2 9316   4.490   0.976   4.322
 3104TIP3   OH2 9317   1.846   2.310   0.271
 3104TIP3    H1 9318   1.844   2.303   0.176
 3104TIP3    H2 9319   1.798   2.232   0.301
 3105TIP3   OH2 9320   1.520   2.757   4.469
 3105TIP3    H1 9321   1.452   2.816   4.436
 3105TIP3    H2 9322   1.502   2.673   4.427
 3106TIP3   OH2 9323   0.605   4.271   2.458
 3106TIP3    H1 9324   0.683   4.325   2.468
 3106TIP3    H2 9325   0.532   4.331   2.473
 3107TIP3   OH2 9326   6.000   5.524   3.852
 3107TIP3    H1 9327   6.050   5.555   3.776
 3107TIP3    H2 9328   6.019   5.430   3.856
 3108TIP3   OH2 9329   5.925   1.163   4.367
 3108TIP3    H1 9330   5.914   1.196   4.278
 3108TIP3    H2 9331   5.886   1.076   4.366
 3109TIP3   OH2 9332   5.991   2.771   2.824
 3109TIP3    H1 9333   6.017   2.714   2.751
 3109TIP3    H2 9334   6.071   2.818   2.848
 3110TIP3   OH2 9335   5.957   5.530   2.660
 3110TIP3    H1 9336   6.014   5.592   2.707
 3110TIP3    H2 9337   5.929   5.468   2.727
 3111TIP3   OH2 9338   3.689   0.838   2.634
 3111TIP3    H1 9339   3.699   0.798   2.548
 3111TIP3    H2 9340   3.663   0.765   2.691
 3112TIP3   OH2 9341   3.749   3.772   3.372
 3112TIP3    H1 9342   3.699   3.692   3.354
 3112TIP3    H2 9343   3.831   3.760   3.324
 3113TIP3   OH2 9344   4.723   5.612   3.914
 3113TIP3    H1 9345   4.631   5.590   3.924
 3113TIP3    H2 9346   4.743   5.593   3.822
 3114TIP3   OH2 9347   1.869   3.508   1.214
 3114TIP3    H1 9348   1.833   3.423   1.188
 3114TIP3    H2 9349   1.803   3.544   1.273
 3115TIP3   OH2 9350   3.601   3.134   2.912
 3115TIP3    H1 9351   3.667   3.067   2.930
 3115TIP3    H2 9352   3.605   3.192   2.989
 3116TIP3   OH2 9353   2.539   0.270   0.118
 3116TIP3    H1 9354   2.470   0.323   0.158
 3116TIP3    H2 9355   2.620   0.314   0.145
 3117TIP3   OH2 9356   0.286   4.468   1.732
 3117TIP3    H1 9357   0.293   4.435   1.822
 3117TIP3    H2 9358   0.357   4.532   1.725
 3118TIP3   OH2 9359   5.608   3.315   1.477
 3118TIP3    H1 9360   5.591   3.285   1.566
 3118TIP3    H2 9361   5.685   3.264   1.450
 3119TIP3   OH2 9362   6.079   2.992   0.568
 3119TIP3    H1 9363   6.174   2.994   0.582
 3119TIP3    H2 9364   6.068   3.028   0.479
 3120TIP3   OH2 9365   1.359   3.297   4.457
 3120TIP3    H1 9366   1.307   3.370   4.490
 3120TIP3    H2 9367   1.447   3.314   4.488
 3121TIP3   OH2 9368   2.813   3.442   2.458
 3121TIP3    H1 9369   2.812   3.346   2.462
 3121TIP3    H2 9370   2.901   3.464   2.430
 3122TIP3   OH2 9371   4.781   1.103   1.633
 3122TIP3    H1 9372   4.707   1.155   1.602
 3122TIP3    H2 9373   4.760   1.013   1.606
 3123TIP3   OH2 9374   4.194   3.516   1.103
 3123TIP3    H1 9375   4.251   3.440   1.098
 3123TIP3    H2 9376   4.246   3.582   1.150
 3124TIP3   OH2 9377   3.527   5.797   0.396
 3124TIP3    H1 9378   3.590   5.831   0.332
 3124TIP3    H2 9379   3.442   5.832   0.366
 3125TIP3   OH2 9380   5.353   0.775   3.862
 3125TIP3    H1 9381   5.314   0.862   3.856
 3125TIP3    H2 9382   5.386   0.769   3.952
 3126TIP3   OH2 9383   2.472   0.182   3.498
 3126TIP3    H1 9384   2.523   0.113   3.456
 3126TIP3    H2 9385   2.430   0.229   3.425
 3127TIP3   OH2 9386   3.082   3.679   3.427
 3127TIP3    H1 9387   3.105   3.750   3.487
 3127TIP3    H2 9388   2.987   3.684   3.420
 3128TIP3   OH2 9389   0.592   5.476   4.020
 3128TIP3    H1 9390   0.562   5.392   3.986
 3128TIP3    H2 9391   0.520   5.537   3.999
 3129TIP3   OH2 9392   4.067   0.072   1.657
 3129TIP3    H1 9393   4.077   0.039   1.567
 3129TIP3    H2 9394   4.143   0.129   1.671
 3130TIP3   OH2 9395   5.838   3.170   2.900
 3130TIP3    H1 9396   5.846   3.076   2.917
 3130TIP3    H2 9397   5.760   3.177   2.845
 3131TIP3   OH2 9398   2.694   4.000   4.583
 3131TIP3    H1 9399   2.630   3.956   4.640
 3131TIP3    H2 9400   2.672   3.971   4.495
 3132TIP3   OH2 9401   3.924   5.138   3.440
 3132TIP3    H1 9402   3.866   5.179   3.504
 3132TIP3    H2 9403   3.949   5.055   3.480
 3133TIP3   OH2 9404   0.538   1.306   4.015
 3133TIP3    H1 9405   0.512   1.286   4.105
 3133TIP3    H2 9406   0.621   1.261   4.003
 3134TIP3   OH2 9407   4.453   2.356   0.070
 3134TIP3    H1 9408   4.422   2.447   0.078
 3134TIP3    H2 9409   4.544   2.359   0.100
 3135TIP3   OH2 9410   5.421   5.234   3.401
 3135TIP3    H1 9411   5.479   5.196   3.335
 3135TIP3    H2 9412   5.335   5.237   3.359
 3136TIP3   OH2 9413   5.058   3.678   3.165
 3136TIP3    H1 9414   5.123   3.711   3.228
 3136TIP3    H2 9415   4.985   3.650   3.219
 3137TIP3   OH2 9416   2.064   4.135   4.524
 3137TIP3    H1 9417   1.974   4.152   4.496
 3137TIP3    H2 9418   2.087   4.212   4.576
 3138TIP3   OH2 9419   4.368   2.580   2.810
 3138TIP3    H1 9420   4.349   2.674   2.817
 3138TIP3    H2 9421   4.356   2.547   2.899
 3139TIP3   OH2 9422   3.795   1.147   1.474
 3139TIP3    H1 9423   3.798   1.100   1.558
 3139TIP3    H2 9424   3.738   1.092   1.419
 3140TIP3   OH2 9425   3.234   1.988   0.219
 3140TIP3    H1 9426   3.239   2.048   0.294
 3140TIP3    H2 9427   3.143   1.957   0.220
 3141TIP3   OH2 9428   0.609   2.841   1.700
 3141TIP3    H1 9429   0.600   2.760   1.648
 3141TIP3    H2 9430   0.680   2.888   1.656
 3142TIP3   OH2 9431   3.870   4.563   3.240
 3142TIP3    H1 9432   3.964   4.563   3.220
 3142TIP3    H2 9433   3.866   4.548   3.334
 3143TIP3   OH2 9434   1.100   1.995   4.992
 3143TIP3    H1 9435   1.067   2.057   5.058
 3143TIP3    H2 9436   1.039   2.004   4.919
 3144TIP3   OH2 9437   4.930   4.685   4.719
 3144TIP3    H1 9438   4.986   4.684   4.796
 3144TIP3    H2 9439   4.947   4.770   4.678
 3145TIP3   OH2 9440   4.115   4.598   2.264
 3145TIP3    H1 9441   4.061   4.545   2.205
 3145TIP3    H2 9442   4.110   4.552   2.348
 3146TIP3   OH2 9443   1.604   3.667   0.906
 3146TIP3    H1 9444   1.686   3.715   0.913
 3146TIP3    H2 9445   1.607   3.627   0.819
 3147TIP3   OH2 9446   4.975   0.842   1.702
 3147TIP3    H1 9447   4.898   0.813   1.749
 3147TIP3    H2 9448   4.940   0.885   1.623
 3148TIP3   OH2 9449   5.207   1.803   0.129
 3148TIP3    H1 9450   5.269   1.864   0.089
 3148TIP3    H2 9451   5.244   1.785   0.216
 3149TIP3   OH2 9452   0.503   2.002   0.186
 3149TIP3    H1 9453   0.492   2.029   0.095
 3149TIP3    H2 9454   0.597   2.015   0.204
 3150TIP3   OH2 9455   5.190   1.996   4.902
 3150TIP3    H1 9456   5.179   1.901   4.893
 3150TIP3    H2 9457   5.120   2.034   4.848
 3151TIP3   OH2 9458   1.877   2.935   4.612
 3151TIP3    H1 9459   1.927   2.866   4.569
 3151TIP3    H2 9460   1.808   2.888   4.660
 3152TIP3   OH2 9461   4.688   4.513   5.055
 3152TIP3    H1 9462   4.743   4.445   5.018
 3152TIP3    H2 9463   4.720   4.594   5.015
 3153TIP3   OH2 9464   5.414   3.059   3.924
 3153TIP3    H1 9465   5.464   3.069   3.843
 3153TIP3    H2 9466   5.387   3.148   3.946
 3154TIP3   OH2 9467   2.959   1.824   0.036
 3154TIP3    H1 9468   2.972   1.863   0.122
 3154TIP3    H2 9469   2.869   1.792   0.037
 3155TIP3   OH2 9470   3.843   1.878   0.133
 3155TIP3    H1 9471   3.778   1.944   0.157
 3155TIP3    H2 9472   3.923   1.928   0.118
 3156TIP3   OH2 9473   0.889   0.837   2.946
 3156TIP3    H1 9474   0.910   0.866   3.035
 3156TIP3    H2 9475   0.803   0.876   2.929
 3157TIP3   OH2 9476   1.773   1.890   3.275
 3157TIP3    H1 9477   1.823   1.821   3.318
 3157TIP3    H2 9478   1.729   1.845   3.203
 3158TIP3   OH2 9479   4.909   5.103   3.648
 3158TIP3    H1 9480   4.940   5.151   3.571
 3158TIP3    H2 9481   4.916   5.011   3.624
 3159TIP3   OH2 9482   5.096   2.620   3.195
 3159TIP3    H1 9483   5.069   2.571   3.273
 3159TIP3    H2 9484   5.085   2.557   3.123
 3160TIP3   OH2 9485   3.639   1.149   4.918
 3160TIP3    H1 9486   3.602   1.060   4.917
 3160TIP3    H2 9487   3.568   1.204   4.883
 3161TIP3   OH2 9488   5.740   3.493   2.005
 3161TIP3    H1 9489   5.786   3.517   2.085
 3161TIP3    H2 9490   5.647   3.494   2.029
 3162TIP3   OH2 9491   5.602   1.896   0.960
 3162TIP3    H1 9492   5.666   1.873   1.027
 3162TIP3    H2 9493   5.537   1.949   1.006
 3163TIP3   OH2 9494   2.109   5.580   2.115
 3163TIP3    H1 9495   2.172   5.508   2.119
 3163TIP3    H2 9496   2.040   5.549   2.058
 3164TIP3   OH2 9497   0.379   0.760   5.060
 3164TIP3    H1 9498   0.327   0.773   5.139
 3164TIP3    H2 9499   0.437   0.687   5.081
 3165TIP3   OH2 9500   2.563   0.578   0.542
 3165TIP3    H1 9501   2.552   0.641   0.613
 3165TIP3    H2 9502   2.601   0.628   0.470
 3166TIP3   OH2 9503   5.863   1.939   2.698
 3166TIP3    H1 9504   5.769   1.951   2.702
 3166TIP3    H2 9505   5.891   1.929   2.789
 3167TIP3   OH2 9506   4.863   4.679   1.458
 3167TIP3    H1 9507   4.906   4.694   1.373
 3167TIP3    H2 9508   4.771   4.698   1.442
 3168TIP3   OH2 9509   2.597   1.313   4.531
 3168TIP3    H1 9510   2.644   1.238   4.569
 3168TIP3    H2 9511   2.660   1.354   4.472
 3169TIP3   OH2 9512   6.106   1.763   0.229
 3169TIP3    H1 9513   6.125   1.743   0.138
 3169TIP3    H2 9514   6.064   1.850   0.226
 3170TIP3   OH2 9515   1.562   5.987   4.009
 3170TIP3    H1 9516   1.484   5.969   4.062
 3170TIP3    H2 9517   1.632   5.938   4.051
 3171TIP3   OH2 9518   3.895   2.298   3.126
 3171TIP3    H1 9519   3.861   2.215   3.090
 3171TIP3    H2 9520   3.990   2.286   3.129
 3172TIP3   OH2 9521   2.809   5.516   5.138
 3172TIP3    H1 9522   2.762   5.530   5.056
 3172TIP3    H2 9523   2.857   5.597   5.152
 3173TIP3   OH2 9524   3.106   4.503   0.755
 3173TIP3    H1 9525   3.038   4.498   0.689
 3173TIP3    H2 9526   3.151   4.586   0.738
 3174TIP3   OH2 9527   6.041   0.965   2.720
 3174TIP3    H1 9528   6.011   0.989   2.633
 3174TIP3    H2 9529   6.084   0.880   2.709
 3175TIP3   OH2 9530   0.792   3.514   4.878
 3175TIP3    H1 9531   0.733   3.506   4.803
 3175TIP3    H2 9532   0.819   3.606   4.878
 3176TIP3   OH2 9533   1.468   1.634   2.281
 3176TIP3    H1 9534   1.526   1.654   2.208
 3176TIP3    H2 9535   1.511   1.673   2.357
 3177TIP3   OH2 9536   3.327   5.308   0.293
 3177TIP3    H1 9537   3.232   5.322   0.285
 3177TIP3    H2 9538   3.349   5.347   0.377
 3178TIP3   OH2 9539   5.764   0.737   3.965
 3178TIP3    H1 9540   5.687   0.692   3.999
 3178TIP3    H2 9541   5.821   0.748   4.041
 3179TIP3   OH2 9542   0.229   2.778   0.515
 3179TIP3    H1 9543   0.265   2.764   0.427
 3179TIP3    H2 9544   0.298   2.751   0.575
 3180TIP3   OH2 9545   1.236   2.550   2.741
 3180TIP3    H1 9546   1.301   2.564   2.810
 3180TIP3    H2 9547   1.152   2.544   2.788
 3181TIP3   OH2 9548   0.469   3.678   3.082
 3181TIP3    H1 9549   0.545   3.721   3.045
 3181TIP3    H2 9550   0.486   3.584   3.071
 3182TIP3   OH2 9551   0.526   4.144   4.515
 3182TIP3    H1 9552   0.473   4.213   4.476
 3182TIP3    H2 9553   0.542   4.173   4.604
 3183TIP3   OH2 9554   3.044   1.002   3.101
 3183TIP3    H1 9555   3.069   0.987   3.009
 3183TIP3    H2 9556   2.948   1.009   3.098
 3184TIP3   OH2 9557   5.043   0.686   2.043
 3184TIP3    H1 9558   5.102   0.684   1.968
 3184TIP3    H2 9559   4.956   0.700   2.005
 3185TIP3   OH2 9560   5.162   3.097   2.034
 3185TIP3    H1 9561   5.115   3.136   1.959
 3185TIP3    H2 9562   5.120   3.136   2.111
 3186TIP3   OH2 9563   0.825   3.008   1.570
 3186TIP3    H1 9564   0.852   3.053   1.650
 3186TIP3    H2 9565   0.907   2.985   1.526
 3187TIP3   OH2 9566   1.704   0.386   2.254
 3187TIP3    H1 9567   1.674   0.465   2.211
 3187TIP3    H2 9568   1.698   0.318   2.187
 3188TIP3   OH2 9569   0.522   0.597   1.985
 3188TIP3    H1 9570   0.579   0.645   1.925
 3188TIP3    H2 9571   0.441   0.583   1.936
 3189TIP3   OH2 9572   2.214   1.089   3.353
 3189TIP3    H1 9573   2.267   1.169   3.358
 3189TIP3    H2 9574   2.273   1.023   3.316
 3190TIP3   OH2 9575   5.407   1.676   2.965
 3190TIP3    H1 9576   5.420   1.593   3.010
 3190TIP3    H2 9577   5.361   1.731   3.030
 3191TIP3   OH2 9578   0.172   5.169   0.752
 3191TIP3    H1 9579   0.190   5.093   0.807
 3191TIP3    H2 9580   0.082   5.155   0.721
 3192TIP3   OH2 9581   4.389   5.966   2.471
 3192TIP3    H1 9582   4.449   6.039   2.487
 3192TIP3    H2 9583   4.354   5.945   2.557
 3193TIP3   OH2 9584   6.282   3.993   4.478
 3193TIP3    H1 9585   6.225   3.977   4.553
 3193TIP3    H2 9586   6.243   3.943   4.407
 3194TIP3   OH2 9587   5.217   4.619   0.109
 3194TIP3    H1 9588   5.285   4.649   0.048
 3194TIP3    H2 9589   5.201   4.694   0.166
 3195TIP3   OH2 9590   1.134   2.944   3.063
 3195TIP3    H1 9591   1.046   2.910   3.045
 3195TIP3    H2 9592   1.124   3.000   3.139
 3196TIP3   OH2 9593   6.355   3.151   3.361
 3196TIP3    H1 9594   6.284   3.212   3.378
 3196TIP3    H2 9595   6.313   3.077   3.316
 3197TIP3   OH2 9596   1.483   3.110   3.363
 3197TIP3    H1 9597   1.421   3.056   3.413
 3197TIP3    H2 9598   1.515   3.051   3.295
 3198TIP3   OH2 9599   4.008   2.790   4.217
 3198TIP3    H1 9600   4.019   2.846   4.139
 3198TIP3    H2 9601   3.955   2.843   4.276
 3199TIP3   OH2 9602   5.764   2.156   1.203
 3199TIP3    H1 9603   5.796   2.075   1.164
 3199TIP3    H2 9604   5.716   2.129   1.281
 3200TIP3   OH2 9605   2.875   1.687   0.544
 3200TIP3    H1 9606   2.917   1.752   0.600
 3200TIP3    H2 9607   2.863   1.611   0.600
 3201TIP3   OH2 9608   1.226   5.272   4.586
 3201TIP3    H1 9609   1.152   5.221   4.622
 3201TIP3    H2 9610   1.255   5.221   4.510
 3202TIP3   OH2 9611   3.802   0.405   1.570
 3202TIP3    H1 9612   3.811   0.493   1.608
 3202TIP3    H2 9613   3.769   0.420   1.482
 3203TIP3   OH2 9614   4.446   0.285   2.874
 3203TIP3    H1 9615   4.373   0.318   2.820
 3203TIP3    H2 9616   4.435   0.190   2.873
 3204TIP3   OH2 9617   5.965   0.139   1.102
 3204TIP3    H1 9618   5.883   0.109   1.064
 3204TIP3    H2 9619   5.961   0.112   1.193
 3205TIP3   OH2 9620   2.554   5.372  -0.011
 3205TIP3    H1 9621   2.616   5.444  -0.019
 3205TIP3    H2 9622   2.564   5.342   0.080
 3206TIP3   OH2 9623   1.098   4.710   2.179
 3206TIP3    H1 9624   1.043   4.708   2.258
 3206TIP3    H2 9625   1.095   4.802   2.151
 3207TIP3   OH2 9626   2.945   3.847   2.411
 3207TIP3    H1 9627   2.917   3.755   2.408
 3207TIP3    H2 9628   2.863   3.897   2.409
 3208TIP3   OH2 9629   5.171   3.299   1.205
 3208TIP3    H1 9630   5.120   3.260   1.277
 3208TIP3    H2 9631   5.130   3.265   1.126
 3209TIP3   OH2 9632   0.712   2.960   1.263
 3209TIP3    H1 9633   0.761   2.946   1.344
 3209TIP3    H2 9634   0.764   3.026   1.216
 3210TIP3   OH2 9635   5.507   1.345   2.800
 3210TIP3    H1 9636   5.539   1.435   2.809
 3210TIP3    H2 9637   5.586   1.291   2.798
 3211TIP3   OH2 9638   6.011   4.817   3.900
 3211TIP3    H1 9639   5.956   4.782   3.830
 3211TIP3    H2 9640   5.950   4.849   3.966
 3212TIP3   OH2 9641   4.902   1.538   2.243
 3212TIP3    H1 9642   4.846   1.520   2.318
 3212TIP3    H2 9643   4.957   1.460   2.234
 3213TIP3   OH2 9644   4.289   1.926   1.111
 3213TIP3    H1 9645   4.272   1.836   1.085
 3213TIP3    H2 9646   4.205   1.971   1.098
 3214TIP3   OH2 9647   0.478   1.222   4.913
 3214TIP3    H1 9648   0.433   1.201   4.994
 3214TIP3    H2 9649   0.563   1.177   4.920
 3215TIP3   OH2 9650   1.812   5.849   4.745
 3215TIP3    H1 9651   1.885   5.844   4.807
 3215TIP3    H2 9652   1.824   5.933   4.701
 3216TIP3   OH2 9653   2.241   5.160   0.062
 3216TIP3    H1 9654   2.227   5.089  -0.001
 3216TIP3    H2 9655   2.332   5.150   0.089
 3217TIP3   OH2 9656   1.364   3.366   2.659
 3217TIP3    H1 9657   1.272   3.344   2.671
 3217TIP3    H2 9658   1.364   3.434   2.591
 3218TIP3   OH2 9659   4.096   2.573   4.026
 3218TIP3    H1 9660   4.070   2.511   4.094
 3218TIP3    H2 9661   4.103   2.519   3.947
 3219TIP3   OH2 9662   1.889   1.022   3.209
 3219TIP3    H1 9663   1.970   1.047   3.253
 3219TIP3    H2 9664   1.916   0.994   3.122
 3220TIP3   OH2 9665   2.724   4.209   4.297
 3220TIP3    H1 9666   2.692   4.171   4.379
 3220TIP3    H2 9667   2.687   4.297   4.296
 3221TIP3   OH2 9668   1.703   2.115   5.166
 3221TIP3    H1 9669   1.764   2.067   5.111
 3221TIP3    H2 9670   1.630   2.055   5.180
 3222TIP3   OH2 9671   6.354   5.572   2.719
 3222TIP3    H1 9672   6.417   5.630   2.761
 3222TIP3    H2 9673   6.273   5.624   2.715
 3223TIP3   OH2 9674   2.473   1.765   4.381
 3223TIP3    H1 9675   2.447   1.744   4.291
 3223TIP3    H2 9676   2.459   1.684   4.430
 3224TIP3   OH2 9677   3.647   0.756   0.910
 3224TIP3    H1 9678   3.665   0.850   0.903
 3224TIP3    H2 9679   3.671   0.734   1.000
 3225TIP3   OH2 9680   5.804   4.063   1.451
 3225TIP3    H1 9681   5.877   4.047   1.511
 3225TIP3    H2 9682   5.746   4.121   1.499
 3226TIP3   OH2 9683   5.279   0.330   3.045
 3226TIP3    H1 9684   5.355   0.283   3.011
 3226TIP3    H2 9685   5.299   0.345   3.138
 3227TIP3   OH2 9686   2.940   5.820   4.201
 3227TIP3    H1 9687   2.992   5.894   4.234
 3227TIP3    H2 9688   2.882   5.798   4.274
 3228TIP3   OH2 9689   3.304   0.734   4.590
 3228TIP3    H1 9690   3.378   0.715   4.532
 3228TIP3    H2 9691   3.227   0.730   4.534
 3229TIP3   OH2 9692   5.708   2.755   1.095
 3229TIP3    H1 9693   5.752   2.761   1.180
 3229TIP3    H2 9694   5.708   2.844   1.061
 3230TIP3   OH2 9695   5.840   3.418   0.867
 3230TIP3    H1 9696   5.928   3.382   0.869
 3230TIP3    H2 9697   5.834   3.464   0.784
 3231TIP3   OH2 9698   1.383   2.032   1.638
 3231TIP3    H1 9699   1.432   2.104   1.597
 3231TIP3    H2 9700   1.297   2.036   1.598
 3232TIP3   OH2 9701   5.525   0.863   3.534
 3232TIP3    H1 9702   5.572   0.781   3.526
 3232TIP3    H2 9703   5.458   0.847   3.600
 3233TIP3   OH2 9704   5.317   5.892   2.091
 3233TIP3    H1 9705   5.386   5.948   2.055
 3233TIP3    H2 9706   5.278   5.850   2.014
 3234TIP3   OH2 9707   3.092   1.648   3.191
 3234TIP3    H1 9708   3.038   1.592   3.135
 3234TIP3    H2 9709   3.151   1.693   3.130
 3235TIP3   OH2 9710   3.352   2.333   3.860
 3235TIP3    H1 9711   3.261   2.314   3.836
 3235TIP3    H2 9712   3.403   2.307   3.783
 3236TIP3   OH2 9713   0.305   2.641   3.097
 3236TIP3    H1 9714   0.396   2.639   3.068
 3236TIP3    H2 9715   0.296   2.566   3.155
 3237TIP3   OH2 9716   3.872   0.066   2.828
 3237TIP3    H1 9717   3.830   0.145   2.794
 3237TIP3    H2 9718   3.914   0.094   2.910
 3238TIP3   OH2 9719   6.083   2.747   2.173
 3238TIP3    H1 9720   6.132   2.808   2.118
 3238TIP3    H2 9721   6.073   2.669   2.117
 3239TIP3   OH2 9722   2.896   4.743   0.058
 3239TIP3    H1 9723   2.891   4.838   0.047
 3239TIP3    H2 9724   2.874   4.729   0.150
 3240TIP3   OH2 9725   2.803   5.676   1.216
 3240TIP3    H1 9726   2.827   5.665   1.124
 3240TIP3    H2 9727   2.742   5.605   1.234
 3241TIP3   OH2 9728   0.070   2.073   4.701
 3241TIP3    H1 9729   0.039   2.132   4.770
 3241TIP3    H2 9730   0.149   2.034   4.738
 3242TIP3   OH2 9731   5.928   2.428   1.788
 3242TIP3    H1 9732   5.851   2.446   1.841
 3242TIP3    H2 9733   5.930   2.499   1.724
 3243TIP3   OH2 9734   2.462   5.334   5.150
 3243TIP3    H1 9735   2.488   5.245   5.125
 3243TIP3    H2 9736   2.511   5.351   5.231
 3244TIP3   OH2 9737   5.591   2.507   3.157
 3244TIP3    H1 9738   5.634   2.422   3.166
 3244TIP3    H2 9739   5.598   2.527   3.064
 3245TIP3   OH2 9740   3.090   3.541   2.439
 3245TIP3    H1 9741   3.120   3.629   2.415
 3245TIP3    H2 9742   3.128   3.525   2.525
 3246TIP3   OH2 9743   0.255   0.404   0.428
 3246TIP3    H1 9744   0.268   0.393   0.523
 3246TIP3    H2 9745   0.254   0.314   0.394
 3247TIP3   OH2 9746   5.107   2.371   0.551
 3247TIP3    H1 9747   5.014   2.348   0.543
 3247TIP3    H2 9748   5.154   2.297   0.514
 3248TIP3   OH2 9749   0.881   2.157   0.257
 3248TIP3    H1 9750   0.875   2.238   0.206
 3248TIP3    H2 9751   0.808   2.104   0.226
 3249TIP3   OH2 9752   2.929   4.595   3.340
 3249TIP3    H1 9753   2.850   4.542   3.345
 3249TIP3    H2 9754   2.918   4.661   3.408
 3250TIP3   OH2 9755   2.048   3.971   0.166
 3250TIP3    H1 9756   2.101   3.947   0.091
 3250TIP3    H2 9757   1.958   3.970   0.133
 3251TIP3   OH2 9758   1.064   2.269   1.888
 3251TIP3    H1 9759   1.015   2.196   1.849
 3251TIP3    H2 9760   1.153   2.257   1.854
 3252TIP3   OH2 9761   1.036   3.057   0.561
 3252TIP3    H1 9762   1.100   3.118   0.526
 3252TIP3    H2 9763   0.952   3.090   0.530
 3253TIP3   OH2 9764   4.659   4.768   4.439
 3253TIP3    H1 9765   4.652   4.819   4.520
 3253TIP3    H2 9766   4.572   4.731   4.426
 3254TIP3   OH2 9767   2.413   1.035   4.240
 3254TIP3    H1 9768   2.477   1.080   4.184
 3254TIP3    H2 9769   2.370   1.106   4.287
 3255TIP3   OH2 9770   0.373   2.499   3.866
 3255TIP3    H1 9771   0.348   2.563   3.932
 3255TIP3    H2 9772   0.375   2.549   3.784
 3256TIP3   OH2 9773   2.805   0.471   1.850
 3256TIP3    H1 9774   2.895   0.465   1.882
 3256TIP3    H2 9775   2.806   0.546   1.790
 3257TIP3   OH2 9776   2.680   0.558   3.774
 3257TIP3    H1 9777   2.749   0.495   3.755
 3257TIP3    H2 9778   2.647   0.533   3.861
 3258TIP3   OH2 9779   2.641   3.174   1.570
 3258TIP3    H1 9780   2.616   3.151   1.659
 3258TIP3    H2 9781   2.567   3.146   1.516
 3259TIP3   OH2 9782   2.094   1.789   5.129
 3259TIP3    H1 9783   2.036   1.723   5.167
 3259TIP3    H2 9784   2.066   1.871   5.169
 3260TIP3   OH2 9785   3.081   5.739   3.153
 3260TIP3    H1 9786   3.092   5.817   3.099
 3260TIP3    H2 9787   3.128   5.757   3.234
 3261TIP3   OH2 9788   0.948   1.347   4.888
 3261TIP3    H1 9789   0.984   1.259   4.874
 3261TIP3    H2 9790   0.856   1.332   4.911
 3262TIP3   OH2 9791   2.556   2.663   1.220
 3262TIP3    H1 9792   2.645   2.687   1.197
 3262TIP3    H2 9793   2.501   2.722   1.168
 3263TIP3   OH2 9794   6.095   5.599   2.419
 3263TIP3    H1 9795   6.092   5.504   2.414
 3263TIP3    H2 9796   6.070   5.620   2.509
 3264TIP3   OH2 9797   3.227   3.221   1.972
 3264TIP3    H1 9798   3.253   3.310   1.948
 3264TIP3    H2 9799   3.310   3.175   1.988
 3265TIP3   OH2 9800   4.412   5.155   2.812
 3265TIP3    H1 9801   4.485   5.121   2.864
 3265TIP3    H2 9802   4.344   5.088   2.820
 3266TIP3   OH2 9803   2.063   2.825   2.341
 3266TIP3    H1 9804   2.066   2.811   2.435
 3266TIP3    H2 9805   1.998   2.762   2.310
 3267TIP3   OH2 9806   1.275   2.935   4.074
 3267TIP3    H1 9807   1.213   2.901   4.010
 3267TIP3    H2 9808   1.304   3.018   4.037
 3268TIP3   OH2 9809   0.325   5.538   1.550
 3268TIP3    H1 9810   0.284   5.591   1.617
 3268TIP3    H2 9811   0.335   5.596   1.475
 3269TIP3   OH2 9812   1.716   5.827   3.081
 3269TIP3    H1 9813   1.751   5.812   2.993
 3269TIP3    H2 9814   1.774   5.894   3.118
 3270TIP3   OH2 9815   5.209   2.959   0.463
 3270TIP3    H1 9816   5.209   3.055   0.460
 3270TIP3    H2 9817   5.232   2.938   0.553
 3271TIP3   OH2 9818   4.059   5.508   1.266
 3271TIP3    H1 9819   4.093   5.539   1.350
 3271TIP3    H2 9820   3.970   5.543   1.262
 3272TIP3   OH2 9821   1.993   2.536   3.744
 3272TIP3    H1 9822   1.983   2.608   3.682
 3272TIP3    H2 9823   1.962   2.572   3.827
 3273TIP3   OH2 9824   3.375   4.588   1.073
 3273TIP3    H1 9825   3.290   4.609   1.034
 3273TIP3    H2 9826   3.390   4.659   1.136
 3274TIP3   OH2 9827   4.953   0.283   0.927
 3274TIP3    H1 9828   5.009   0.269   1.003
 3274TIP3    H2 9829   4.864   0.271   0.961
 3275TIP3   OH2 9830   0.633   0.580   3.193
 3275TIP3    H1 9831   0.634   0.485   3.202
 3275TIP3    H2 9832   0.711   0.610   3.239
 3276TIP3   OH2 9833   4.545   4.080   0.713
 3276TIP3    H1 9834   4.491   4.011   0.676
 3276TIP3    H2 9835   4.611   4.098   0.645
 3277TIP3   OH2 9836   1.907   0.832   1.133
 3277TIP3    H1 9837   1.913   0.800   1.043
 3277TIP3    H2 9838   1.939   0.923   1.127
 3278TIP3   OH2 9839   4.394   1.604   1.109
 3278TIP3    H1 9840   4.372   1.631   1.020
 3278TIP3    H2 9841   4.311   1.571   1.145
 3279TIP3   OH2 9842   6.218   0.421   3.462
 3279TIP3    H1 9843   6.282   0.478   3.505
 3279TIP3    H2 9844   6.254   0.333   3.471
 3280TIP3   OH2 9845   6.263   3.384   1.024
 3280TIP3    H1 9846   6.249   3.299   0.982
 3280TIP3    H2 9847   6.177   3.425   1.023
 3281TIP3   OH2 9848   3.598   1.787   4.540
 3281TIP3    H1 9849   3.607   1.692   4.531
 3281TIP3    H2 9850   3.675   1.823   4.497
 3282TIP3   OH2 9851   1.077   4.398   2.189
 3282TIP3    H1 9852   1.042   4.330   2.130
 3282TIP3    H2 9853   1.062   4.363   2.277
 3283TIP3   OH2 9854   0.246   4.823   2.936
 3283TIP3    H1 9855   0.168   4.833   2.990
 3283TIP3    H2 9856   0.262   4.910   2.901
 3284TIP3   OH2 9857   0.906   0.783   4.509
 3284TIP3    H1 9858   0.865   0.855   4.556
 3284TIP3    H2 9859   0.834   0.722   4.493
 3285TIP3   OH2 9860   3.525   5.896   4.747
 3285TIP3    H1 9861   3.513   5.879   4.654
 3285TIP3    H2 9862   3.436   5.893   4.784
 3286TIP3   OH2 9863   4.555   0.829   5.113
 3286TIP3    H1 9864   4.542   0.798   5.024
 3286TIP3    H2 9865   4.613   0.765   5.153
 3287TIP3   OH2 9866   4.926   4.479   2.172
 3287TIP3    H1 9867   4.830   4.469   2.168
 3287TIP3    H2 9868   4.958   4.428   2.098
 3288TIP3   OH2 9869   5.638   2.073   1.455
 3288TIP3    H1 9870   5.605   2.101   1.540
 3288TIP3    H2 9871   5.688   1.993   1.473
 3289TIP3   OH2 9872   0.088   5.171   1.421
 3289TIP3    H1 9873   0.033   5.247   1.442
 3289TIP3    H2 9874   0.031   5.096   1.433
 3290TIP3   OH2 9875   3.083   5.488   4.756
 3290TIP3    H1 9876   3.058   5.540   4.679
 3290TIP3    H2 9877   3.123   5.551   4.816
 3291TIP3   OH2 9878   2.497   3.650   0.142
 3291TIP3    H1 9879   2.576   3.615   0.101
 3291TIP3    H2 9880   2.524   3.732   0.182
 3292TIP3   OH2 9881   0.070   4.264   5.121
 3292TIP3    H1 9882   0.073   4.295   5.031
 3292TIP3    H2 9883   0.161   4.257   5.148
 3293TIP3   OH2 9884   4.212   4.548   3.815
 3293TIP3    H1 9885   4.136   4.603   3.835
 3293TIP3    H2 9886   4.287   4.599   3.846
 3294TIP3   OH2 9887   6.129   3.645   2.296
 3294TIP3    H1 9888   6.068   3.584   2.337
 3294TIP3    H2 9889   6.205   3.646   2.353
 3295TIP3   OH2 9890   2.911   3.858   1.968
 3295TIP3    H1 9891   2.860   3.845   1.888
 3295TIP3    H2 9892   2.862   3.924   2.017
 3296TIP3   OH2 9893   3.761   5.383   2.984
 3296TIP3    H1 9894   3.666   5.393   2.978
 3296TIP3    H2 9895   3.774   5.311   3.045
 3297TIP3   OH2 9896   2.855   4.657   4.269
 3297TIP3    H1 9897   2.792   4.728   4.279
 3297TIP3    H2 9898   2.918   4.689   4.204
 3298TIP3   OH2 9899   5.180   2.648   0.559
 3298TIP3    H1 9900   5.131   2.567   0.544
 3298TIP3    H2 9901   5.132   2.693   0.628
 3299TIP3   OH2 9902   3.932   1.277   4.649
 3299TIP3    H1 9903   3.906   1.263   4.741
 3299TIP3    H2 9904   3.945   1.372   4.643
 3300TIP3   OH2 9905   5.035   4.083   2.814
 3300TIP3    H1 9906   5.126   4.109   2.829
 3300TIP3    H2 9907   5.041   4.004   2.761
 3301TIP3   OH2 9908   6.188   4.585   3.846
 3301TIP3    H1 9909   6.250   4.587   3.774
 3301TIP3    H2 9910   6.149   4.672   3.847
 3302TIP3   OH2 9911   5.856   4.663   0.378
 3302TIP3    H1 9912   5.855   4.741   0.433
 3302TIP3    H2 9913   5.948   4.638   0.373
 3303TIP3   OH2 9914   1.372   2.362   4.359
 3303TIP3    H1 9915   1.372   2.409   4.443
 3303TIP3    H2 9916   1.402   2.427   4.296
 3304TIP3   OH2 9917   3.848   2.950   4.413
 3304TIP3    H1 9918   3.903   2.947   4.491
 3304TIP3    H2 9919   3.761   2.971   4.446
 3305TIP3   OH2 9920   3.288   5.461   2.757
 3305TIP3    H1 9921   3.366   5.516   2.759
 3305TIP3    H2 9922   3.225   5.511   2.705
 3306TIP3   OH2 9923   4.651   2.265   0.824
 3306TIP3    H1 9924   4.660   2.183   0.872
 3306TIP3    H2 9925   4.614   2.326   0.887
 3307TIP3   OH2 9926   4.368   4.636   2.338
 3307TIP3    H1 9927   4.289   4.605   2.296
 3307TIP3    H2 9928   4.350   4.629   2.432
 3308TIP3   OH2 9929   5.117   5.400   0.344
 3308TIP3    H1 9930   5.040   5.451   0.319
 3308TIP3    H2 9931   5.087   5.346   0.417
 3309TIP3   OH2 9932   1.010   3.258   1.349
 3309TIP3    H1 9933   1.021   3.286   1.440
 3309TIP3    H2 9934   1.039   3.167   1.348
 3310TIP3   OH2 9935   4.105   3.528   0.838
 3310TIP3    H1 9936   4.172   3.594   0.824
 3310TIP3    H2 9937   4.111   3.506   0.931
 3311TIP3   OH2 9938   0.824   3.216   2.883
 3311TIP3    H1 9939   0.799   3.141   2.937
 3311TIP3    H2 9940   0.915   3.234   2.909
 3312TIP3   OH2 9941   0.779   1.973   0.069
 3312TIP3    H1 9942   0.818   1.998  -0.015
 3312TIP3    H2 9943   0.740   1.887   0.053
 3313TIP3   OH2 9944   5.586   2.427   0.038
 3313TIP3    H1 9945   5.531   2.489   0.086
 3313TIP3    H2 9946   5.625   2.372   0.106
 3314TIP3   OH2 9947   2.342   5.313   1.023
 3314TIP3    H1 9948   2.253   5.309   0.988
 3314TIP3    H2 9949   2.383   5.386   0.978
 3315TIP3   OH2 9950   5.724   0.892   1.012
 3315TIP3    H1 9951   5.660   0.952   1.050
 3315TIP3    H2 9952   5.685   0.806   1.022
 3316TIP3   OH2 9953   4.003   2.661   1.907
 3316TIP3    H1 9954   3.944   2.676   1.833
 3316TIP3    H2 9955   4.068   2.599   1.873
 3317TIP3   OH2 9956   2.564   0.173   3.950
 3317TIP3    H1 9957   2.607   0.202   3.870
 3317TIP3    H2 9958   2.634   0.134   4.002
 3318TIP3   OH2 9959   1.239   1.119   0.651
 3318TIP3    H1 9960   1.289   1.090   0.728
 3318TIP3    H2 9961   1.167   1.056   0.644
 3319TIP3   OH2 9962   0.989   3.702   1.142
 3319TIP3    H1 9963   1.016   3.613   1.162
 3319TIP3    H2 9964   0.948   3.696   1.055
 3320TIP3   OH2 9965   3.238   5.636   0.049
 3320TIP3    H1 9966   3.250   5.722   0.009
 3320TIP3    H2 9967   3.300   5.580   0.002
 3321TIP3   OH2 9968   6.169   2.748   3.513
 3321TIP3    H1 9969   6.073   2.751   3.506
 3321TIP3    H2 9970   6.186   2.753   3.607
 3322TIP3   OH2 9971   0.318   5.136   3.732
 3322TIP3    H1 9972   0.297   5.061   3.677
 3322TIP3    H2 9973   0.241   5.192   3.726
 3323TIP3   OH2 9974   3.298   0.433   0.793
 3323TIP3    H1 9975   3.207   0.410   0.776
 3323TIP3    H2 9976   3.294   0.519   0.834
 3324TIP3   OH2 9977   6.167   3.004   2.558
 3324TIP3    H1 9978   6.194   3.002   2.650
 3324TIP3    H2 9979   6.072   2.990   2.561
 3325TIP3   OH2 9980   5.831   2.116   4.565
 3325TIP3    H1 9981   5.891   2.042   4.557
 3325TIP3    H2 9982   5.880   2.183   4.613
 3326TIP3   OH2 9983   0.590   2.126   0.541
 3326TIP3    H1 9984   0.628   2.124   0.629
 3326TIP3    H2 9985   0.652   2.077   0.487
 3327TIP3   OH2 9986   2.542   2.373   4.419
 3327TIP3    H1 9987   2.576   2.460   4.442
 3327TIP3    H2 9988   2.451   2.374   4.447
 3328TIP3   OH2 9989   3.312   1.446   1.297
 3328TIP3    H1 9990   3.398   1.410   1.276
 3328TIP3    H2 9991   3.275   1.384   1.360
 3329TIP3   OH2 9992   3.523   2.224   4.808
 3329TIP3    H1 9993   3.546   2.134   4.785
 3329TIP3    H2 9994   3.568   2.240   4.891
 3330TIP3   OH2 9995   5.124   1.704   5.170
 3330TIP3    H1 9996   5.107   1.766   5.241
 3330TIP3    H2 9997   5.217   1.685   5.175
 3331TIP3   OH2 9998   3.996   3.510   3.114
 3331TIP3    H1 9999   3.989   3.423   3.154
 3331TIP3    H210000   4.085   3.514   3.080
 3332TIP3   OH210001   2.476   0.885   4.486
 3332TIP3    H110002   2.469   0.908   4.393
 3332TIP3    H210003   2.387   0.860   4.511
 3333TIP3   OH210004   0.932   2.426   1.416
 3333TIP3    H110005   0.867   2.494   1.399
 3333TIP3    H210006   1.017   2.468   1.400
 3334TIP3   OH210007   4.423   0.211   0.659
 3334TIP3    H110008   4.479   0.286   0.681
 3334TIP3    H210009   4.461   0.137   0.706
 3335TIP3   OH210010   4.180   3.313   3.406
 3335TIP3    H110011   4.275   3.316   3.394
 3335TIP3    H210012   4.161   3.392   3.458
 3336TIP3   OH210013   6.063   5.397   1.266
 3336TIP3    H110014   6.022   5.444   1.193
 3336TIP3    H210015   6.119   5.332   1.223
 3337TIP3   OH210016   3.887   4.106   1.063
 3337TIP3    H110017   3.836   4.120   0.983
 3337TIP3    H210018   3.844   4.032   1.106
 3338TIP3   OH210019   1.489   2.938   1.032
 3338TIP3    H110020   1.549   2.954   1.105
 3338TIP3    H210021   1.402   2.937   1.072
 3339TIP3   OH210022   0.954   3.331   0.868
 3339TIP3    H110023   0.863   3.314   0.846
 3339TIP3    H210024   0.969   3.282   0.949
 3340TIP3   OH210025   4.920   2.323   4.846
 3340TIP3    H110026   4.832   2.348   4.817
 3340TIP3    H210027   4.966   2.406   4.855
 3341TIP3   OH210028   5.508   0.513   2.565
 3341TIP3    H110029   5.555   0.517   2.648
 3341TIP3    H210030   5.454   0.435   2.571
 3342TIP3   OH210031   6.191   5.863   3.537
 3342TIP3    H110032   6.115   5.918   3.521
 3342TIP3    H210033   6.260   5.899   3.480
 3343TIP3   OH210034   3.734   5.039   2.606
 3343TIP3    H110035   3.726   5.134   2.607
 3343TIP3    H210036   3.806   5.022   2.545
 3344TIP3   OH210037   3.839   4.681   0.925
 3344TIP3    H110038   3.847   4.623   1.002
 3344TIP3    H210039   3.814   4.622   0.854
 3345TIP3   OH210040   5.519   3.889   2.887
 3345TIP3    H110041   5.589   3.875   2.951
 3345TIP3    H210042   5.499   3.802   2.854
 3346TIP3   OH210043   3.597   1.102   2.616
 3346TIP3    H110044   3.598   1.006   2.616
 3346TIP3    H210045   3.504   1.125   2.607
 3347TIP3   OH210046   2.247   5.878   0.157
 3347TIP3    H110047   2.200   5.950   0.200
 3347TIP3    H210048   2.273   5.821   0.230
 3348TIP3   OH210049   1.172   5.028   2.530
 3348TIP3    H110050   1.256   5.068   2.553
 3348TIP3    H210051   1.112   5.102   2.519
 3349TIP3   OH210052   2.413   2.805   0.343
 3349TIP3    H110053   2.482   2.869   0.324
 3349TIP3    H210054   2.365   2.843   0.416
 3350TIP3   OH210055   1.862   2.378   1.329
 3350TIP3    H110056   1.867   2.468   1.296
 3350TIP3    H210057   1.881   2.386   1.423
 3351TIP3   OH210058   3.762   1.627   0.236
 3351TIP3    H110059   3.777   1.578   0.156
 3351TIP3    H210060   3.747   1.717   0.206
 3352TIP3   OH210061   3.018   3.975   4.571
 3352TIP3    H110062   3.037   4.051   4.516
 3352TIP3    H210063   2.926   3.956   4.555
 3353TIP3   OH210064   4.694   3.278   1.823
 3353TIP3    H110065   4.627   3.290   1.757
 3353TIP3    H210066   4.768   3.238   1.776
 3354TIP3   OH210067   2.985   0.150   1.759
 3354TIP3    H110068   2.924   0.131   1.831
 3354TIP3    H210069   3.066   0.106   1.784
 3355TIP3   OH210070   5.586   4.349   4.109
 3355TIP3    H110071   5.630   4.398   4.178
 3355TIP3    H210072   5.587   4.258   4.139
 3356TIP3   OH210073   1.026   0.468   1.244
 3356TIP3    H110074   1.105   0.453   1.295
 3356TIP3    H210075   0.971   0.522   1.300
 3357TIP3   OH210076   4.133   4.426   4.429
 3357TIP3    H110077   4.166   4.418   4.519
 3357TIP3    H210078   4.204   4.471   4.383
 3358TIP3   OH210079   5.183   0.484   1.676
 3358TIP3    H110080   5.237   0.519   1.605
 3358TIP3    H210081   5.181   0.554   1.741
 3359TIP3   OH210082   3.936   2.462   2.655
 3359TIP3    H110083   3.935   2.514   2.574
 3359TIP3    H210084   3.922   2.527   2.724
 3360TIP3   OH210085   4.829   1.658   0.233
 3360TIP3    H110086   4.842   1.577   0.284
 3360TIP3    H210087   4.892   1.720   0.270
 3361TIP3   OH210088   4.287   0.790   3.927
 3361TIP3    H110089   4.312   0.817   3.839
 3361TIP3    H210090   4.224   0.856   3.955
 3362TIP3   OH210091   5.428   2.483   5.188
 3362TIP3    H110092   5.476   2.476   5.105
 3362TIP3    H210093   5.410   2.392   5.213
 3363TIP3   OH210094   1.705   0.997   1.504
 3363TIP3    H110095   1.766   1.041   1.445
 3363TIP3    H210096   1.633   1.059   1.515
 3364TIP3   OH210097   3.583   0.395   2.589
 3364TIP3    H110098   3.530   0.360   2.518
 3364TIP3    H210099   3.606   0.319   2.642
 3365TIP3   OH210100   0.851   4.941   0.151
 3365TIP3    H110101   0.920   4.978   0.206
 3365TIP3    H210102   0.865   4.981   0.065
 3366TIP3   OH210103   2.692   0.249   1.717
 3366TIP3    H110104   2.744   0.316   1.761
 3366TIP3    H210105   2.703   0.267   1.624
 3367TIP3   OH210106   4.475   3.236   0.887
 3367TIP3    H110107   4.445   3.270   0.972
 3367TIP3    H210108   4.403   3.181   0.856
 3368TIP3   OH210109   2.939   2.275   1.735
 3368TIP3    H110110   2.906   2.358   1.772
 3368TIP3    H210111   2.859   2.229   1.708
 3369TIP3   OH210112   6.098   2.657   4.276
 3369TIP3    H110113   6.029   2.632   4.215
 3369TIP3    H210114   6.060   2.641   4.363
 3370TIP3   OH210115   1.418   0.523   2.244
 3370TIP3    H110116   1.484   0.549   2.179
 3370TIP3    H210117   1.347   0.585   2.230
 3371TIP3   OH210118   1.825   3.820   0.853
 3371TIP3    H110119   1.876   3.821   0.935
 3371TIP3    H210120   1.883   3.860   0.788
 3372TIP3   OH210121   6.091   4.122   1.416
 3372TIP3    H110122   6.029   4.184   1.377
 3372TIP3    H210123   6.131   4.170   1.488
 3373TIP3   OH210124   4.853   0.016   2.341
 3373TIP3    H110125   4.765  -0.007   2.312
 3373TIP3    H210126   4.846   0.106   2.374
 3374TIP3   OH210127   5.016   1.314   3.081
 3374TIP3    H110128   5.068   1.289   3.157
 3374TIP3    H210129   5.049   1.258   3.010
 3375TIP3   OH210130   3.906   2.362   2.276
 3375TIP3    H110131   3.897   2.446   2.233
 3375TIP3    H210132   3.999   2.340   2.269
 3376TIP3   OH210133   5.118   3.567   1.942
 3376TIP3    H110134   5.089   3.657   1.957
 3376TIP3    H210135   5.209   3.575   1.916
 3377TIP3   OH210136   0.257   3.404   1.882
 3377TIP3    H110137   0.322   3.448   1.937
 3377TIP3    H210138   0.301   3.392   1.797
 3378TIP3   OH210139   4.732   0.410   4.056
 3378TIP3    H110140   4.735   0.480   3.991
 3378TIP3    H210141   4.639   0.388   4.065
 3379TIP3   OH210142   5.303   0.772   4.759
 3379TIP3    H110143   5.220   0.809   4.788
 3379TIP3    H210144   5.362   0.848   4.751
 3380TIP3   OH210145   4.071   4.619   4.073
 3380TIP3    H110146   3.993   4.573   4.105
 3380TIP3    H210147   4.086   4.688   4.137
 3381TIP3   OH210148   5.347   4.445   4.340
 3381TIP3    H110149   5.442   4.448   4.348
 3381TIP3    H210150   5.316   4.507   4.405
 3382TIP3   OH210151   0.880   1.106   1.365
 3382TIP3    H110152   0.788   1.118   1.390
 3382TIP3    H210153   0.925   1.184   1.399
 3383TIP3   OH210154   0.853   2.836   1.979
 3383TIP3    H110155   0.763   2.867   1.979
 3383TIP3    H210156   0.850   2.750   2.020
 3384TIP3   OH210157   2.419   0.030   0.081
 3384TIP3    H110158   2.406   0.012   0.174
 3384TIP3    H210159   2.481   0.104   0.080
 3385TIP3   OH210160   4.235   3.098   0.877
 3385TIP3    H110161   4.197   3.013   0.855
 3385TIP3    H210162   4.161   3.153   0.901
 3386TIP3   OH210163   2.751   0.624   4.321
 3386TIP3    H110164   2.759   0.718   4.337
 3386TIP3    H210165   2.720   0.588   4.404
 3387TIP3   OH210166   3.197   0.291   2.565
 3387TIP3    H110167   3.165   0.268   2.477
 3387TIP3    H210168   3.262   0.224   2.585
 3388TIP3   OH210169   2.487   4.834   3.045
 3388TIP3    H110170   2.514   4.907   2.990
 3388TIP3    H210171   2.410   4.867   3.092
 3389TIP3   OH210172   1.706   3.083   4.468
 3389TIP3    H110173   1.644   3.073   4.541
 3389TIP3    H210174   1.786   3.041   4.499
 3390TIP3   OH210175   5.891   5.862   5.013
 3390TIP3    H110176   5.977   5.886   5.048
 3390TIP3    H210177   5.887   5.767   5.021
 3391TIP3   OH210178   2.168   1.194   1.351
 3391TIP3    H110179   2.179   1.145   1.433
 3391TIP3    H210180   2.183   1.129   1.282
 3392TIP3   OH210181   0.083   4.865   4.947
 3392TIP3    H110182  -0.010   4.887   4.949
 3392TIP3    H210183   0.087   4.775   4.979
 3393TIP3   OH210184   1.689   1.414   2.848
 3393TIP3    H110185   1.756   1.429   2.781
 3393TIP3    H210186   1.649   1.330   2.824
 3394TIP3   OH210187   1.796   4.849   5.009
 3394TIP3    H110188   1.800   4.800   4.926
 3394TIP3    H210189   1.850   4.797   5.069
 3395TIP3   OH210190   2.112   1.336   4.387
 3395TIP3    H110191   2.104   1.402   4.318
 3395TIP3    H210192   2.071   1.376   4.463
 3396TIP3   OH210193   3.822   2.554   4.265
 3396TIP3    H110194   3.853   2.638   4.232
 3396TIP3    H210195   3.795   2.572   4.355
 3397TIP3   OH210196   2.834   4.830   4.600
 3397TIP3    H110197   2.763   4.767   4.614
 3397TIP3    H210198   2.817   4.901   4.661
 3398TIP3   OH210199   2.898   3.171   2.865
 3398TIP3    H110200   2.804   3.186   2.865
 3398TIP3    H210201   2.932   3.230   2.933
 3399TIP3   OH210202   1.898   1.425   3.561
 3399TIP3    H110203   1.931   1.463   3.642
 3399TIP3    H210204   1.816   1.472   3.544
 3400TIP3   OH210205   1.127   5.523   3.286
 3400TIP3    H110206   1.141   5.618   3.283
 3400TIP3    H210207   1.104   5.505   3.377
 3401TIP3   OH210208   4.872   0.875   5.140
 3401TIP3    H110209   4.808   0.806   5.119
 3401TIP3    H210210   4.899   0.856   5.230
 3402TIP3   OH210211   2.095   0.869   4.157
 3402TIP3    H110212   2.126   0.831   4.075
 3402TIP3    H210213   2.122   0.961   4.153
 3403TIP3   OH210214   5.002   3.364   0.416
 3403TIP3    H110215   5.056   3.363   0.337
 3403TIP3    H210216   4.925   3.415   0.392
 3404TIP3   OH210217   3.003   2.366   2.472
 3404TIP3    H110218   2.971   2.436   2.529
 3404TIP3    H210219   2.998   2.287   2.525
 3405TIP3   OH210220   1.630   5.251   4.357
 3405TIP3    H110221   1.609   5.256   4.451
 3405TIP3    H210222   1.547   5.269   4.314
 3406TIP3   OH210223   3.305   3.527   3.494
 3406TIP3    H110224   3.376   3.591   3.481
 3406TIP3    H210225   3.229   3.567   3.453
 3407TIP3   OH210226   3.197   4.291   4.098
 3407TIP3    H110227   3.207   4.201   4.129
 3407TIP3    H210228   3.190   4.343   4.178
 3408TIP3   OH210229   4.347   0.897   0.901
 3408TIP3    H110230   4.302   0.815   0.921
 3408TIP3    H210231   4.417   0.872   0.841
 3409TIP3   OH210232   5.225   4.609   4.164
 3409TIP3    H110233   5.188   4.557   4.093
 3409TIP3    H210234   5.268   4.545   4.221
 3410TIP3   OH210235   0.219   4.193   0.538
 3410TIP3    H110236   0.227   4.187   0.633
 3410TIP3    H210237   0.278   4.126   0.504
 3411TIP3   OH210238   0.999   1.743   4.621
 3411TIP3    H110239   0.963   1.714   4.705
 3411TIP3    H210240   0.924   1.778   4.573
 3412TIP3   OH210241   1.373   3.310   3.197
 3412TIP3    H110242   1.350   3.237   3.254
 3412TIP3    H210243   1.290   3.339   3.160
 3413TIP3   OH210244   1.001   3.094   0.182
 3413TIP3    H110245   1.044   3.171   0.220
 3413TIP3    H210246   1.058   3.067   0.111
 3414TIP3   OH210247   1.678   1.994   1.368
 3414TIP3    H110248   1.720   1.909   1.374
 3414TIP3    H210249   1.603   1.980   1.311
 3415TIP3   OH210250   1.945   2.867   1.471
 3415TIP3    H110251   1.933   2.892   1.562
 3415TIP3    H210252   1.998   2.938   1.434
 3416TIP3   OH210253   5.045   2.244   1.873
 3416TIP3    H110254   5.132   2.236   1.912
 3416TIP3    H210255   4.995   2.170   1.909
 3417TIP3   OH210256   1.392   5.764   1.684
 3417TIP3    H110257   1.300   5.782   1.666
 3417TIP3    H210258   1.425   5.845   1.724
 3418TIP3   OH210259   3.527   4.253   4.055
 3418TIP3    H110260   3.567   4.227   4.138
 3418TIP3    H210261   3.490   4.173   4.020
 3419TIP3   OH210262   3.095   0.736   4.437
 3419TIP3    H110263   3.109   0.789   4.359
 3419TIP3    H210264   3.029   0.672   4.412
 3420TIP3   OH210265   4.221   4.431   1.872
 3420TIP3    H110266   4.196   4.399   1.785
 3420TIP3    H210267   4.146   4.409   1.928
 3421TIP3   OH210268   2.500   4.961   4.410
 3421TIP3    H110269   2.419   5.002   4.440
 3421TIP3    H210270   2.550   5.032   4.369
 3422TIP3   OH210271   3.133   2.563   1.398
 3422TIP3    H110272   3.217   2.526   1.425
 3422TIP3    H210273   3.142   2.657   1.413
 3423TIP3   OH210274   5.059   0.510   5.068
 3423TIP3    H110275   5.013   0.594   5.055
 3423TIP3    H210276   5.139   0.534   5.115
 3424TIP3   OH210277   4.146   0.243   0.980
 3424TIP3    H110278   4.223   0.299   0.995
 3424TIP3    H210279   4.161   0.205   0.894
 3425TIP3   OH210280   1.696   2.503   3.538
 3425TIP3    H110281   1.690   2.422   3.488
 3425TIP3    H210282   1.630   2.560   3.499
 3426TIP3   OH210283   6.009   0.762   4.147
 3426TIP3    H110284   6.078   0.696   4.139
 3426TIP3    H210285   6.050   0.843   4.117
 3427TIP3   OH210286   3.975   3.794  -0.020
 3427TIP3    H110287   4.009   3.741   0.052
 3427TIP3    H210288   3.981   3.884   0.011
 3428TIP3   OH210289   2.398   4.335   0.527
 3428TIP3    H110290   2.333   4.404   0.540
 3428TIP3    H210291   2.470   4.358   0.585
 3429TIP3   OH210292   3.360   3.103   0.541
 3429TIP3    H110293   3.341   3.031   0.481
 3429TIP3    H210294   3.276   3.121   0.584
 3430TIP3   OH210295   2.573   0.319   4.210
 3430TIP3    H110296   2.514   0.385   4.246
 3430TIP3    H210297   2.516   0.260   4.161
 3431TIP3   OH210298   0.620   0.558   1.380
 3431TIP3    H110299   0.675   0.565   1.302
 3431TIP3    H210300   0.551   0.496   1.356
 3432TIP3   OH210301   0.928   4.097   2.329
 3432TIP3    H110302   0.961   4.009   2.309
 3432TIP3    H210303   0.931   4.143   2.246
 3433TIP3   OH210304   5.901   4.426   2.100
 3433TIP3    H110305   5.820   4.476   2.104
 3433TIP3    H210306   5.882   4.354   2.040
 3434TIP3   OH210307   3.708   3.116   4.716
 3434TIP3    H110308   3.703   3.021   4.728
 3434TIP3    H210309   3.708   3.128   4.621
 3435TIP3   OH210310   2.327   4.916   3.685
 3435TIP3    H110311   2.353   4.974   3.614
 3435TIP3    H210312   2.388   4.842   3.679
 3436TIP3   OH210313   6.021   2.206   0.978
 3436TIP3    H110314   5.994   2.283   1.028
 3436TIP3    H210315   5.979   2.132   1.022
 3437TIP3   OH210316   5.541   5.859   0.255
 3437TIP3    H110317   5.461   5.881   0.209
 3437TIP3    H210318   5.609   5.913   0.213
 3438TIP3   OH210319   1.680   2.883   4.276
 3438TIP3    H110320   1.629   2.834   4.340
 3438TIP3    H210321   1.659   2.975   4.293
 3439TIP3   OH210322   6.148   1.962   3.124
 3439TIP3    H110323   6.215   1.896   3.142
 3439TIP3    H210324   6.167   2.033   3.185
 3440TIP3   OH210325   6.305   3.621   1.696
 3440TIP3    H110326   6.316   3.681   1.770
 3440TIP3    H210327   6.236   3.661   1.643
 3441TIP3   OH210328   5.691   5.241   1.125
 3441TIP3    H110329   5.672   5.294   1.048
 3441TIP3    H210330   5.633   5.276   1.193
 3442TIP3   OH210331   5.706   2.705   0.420
 3442TIP3    H110332   5.767   2.778   0.428
 3442TIP3    H210333   5.760   2.626   0.423
 3443TIP3   OH210334   5.558   2.779   2.503
 3443TIP3    H110335   5.608   2.799   2.424
 3443TIP3    H210336   5.467   2.793   2.478
 3444TIP3   OH210337   2.230   3.536   3.603
 3444TIP3    H110338   2.252   3.475   3.674
 3444TIP3    H210339   2.291   3.515   3.533
 3445TIP3   OH210340   3.612   3.585   3.215
 3445TIP3    H110341   3.539   3.645   3.208
 3445TIP3    H210342   3.686   3.632   3.177
 3446TIP3   OH210343   3.550   2.838   3.344
 3446TIP3    H110344   3.559   2.888   3.425
 3446TIP3    H210345   3.487   2.888   3.292
 3447TIP3   OH210346   4.299   1.928   2.598
 3447TIP3    H110347   4.326   1.884   2.679
 3447TIP3    H210348   4.207   1.948   2.612
 3448TIP3   OH210349   1.050   1.725   3.152
 3448TIP3    H110350   1.045   1.813   3.115
 3448TIP3    H210351   1.104   1.734   3.229
 3449TIP3   OH210352   1.984   5.451   4.080
 3449TIP3    H110353   2.052   5.393   4.045
 3449TIP3    H210354   1.907   5.432   4.026
 3450TIP3   OH210355   4.953   2.001   4.740
 3450TIP3    H110356   4.890   1.972   4.806
 3450TIP3    H210357   4.929   1.952   4.661
 3451TIP3   OH210358   2.944   3.540   0.288
 3451TIP3    H110359   2.876   3.590   0.332
 3451TIP3    H210360   2.968   3.472   0.351
 3452TIP3   OH210361   4.538   5.454   2.108
 3452TIP3    H110362   4.624   5.489   2.084
 3452TIP3    H210363   4.557   5.365   2.139
 3453TIP3   OH210364   0.040   1.113   0.034
 3453TIP3    H110365   0.052   1.199  -0.007
 3453TIP3    H210366  -0.022   1.129   0.105
 3454TIP3   OH210367   4.288   0.709   1.104
 3454TIP3    H110368   4.307   0.669   1.189
 3454TIP3    H210369   4.193   0.704   1.095
 3455TIP3   OH210370   3.300   2.079   5.018
 3455TIP3    H110371   3.269   2.114   4.934
 3455TIP3    H210372   3.266   1.989   5.020
 3456TIP3   OH210373   1.338   4.612   4.018
 3456TIP3    H110374   1.355   4.518   4.023
 3456TIP3    H210375   1.259   4.619   3.965
 3457TIP3   OH210376   3.291   3.994   2.837
 3457TIP3    H110377   3.237   4.006   2.916
 3457TIP3    H210378   3.301   4.083   2.803
 3458TIP3   OH210379   4.054   1.881   0.548
 3458TIP3    H110380   3.982   1.840   0.595
 3458TIP3    H210381   4.123   1.815   0.547
 3459TIP3   OH210382   3.264   0.491   3.319
 3459TIP3    H110383   3.174   0.475   3.347
 3459TIP3    H210384   3.270   0.587   3.310
 3460TIP3   OH210385   1.731   5.033   0.095
 3460TIP3    H110386   1.788   5.077   0.158
 3460TIP3    H210387   1.647   5.024   0.140
 3461TIP3   OH210388   0.949   0.559   3.163
 3461TIP3    H110389   0.925   0.652   3.171
 3461TIP3    H210390   1.028   0.551   3.217
 3462TIP3   OH210391   0.221   3.322   4.232
 3462TIP3    H110392   0.221   3.365   4.317
 3462TIP3    H210393   0.296   3.262   4.235
 3463TIP3   OH210394   6.138   4.403   1.890
 3463TIP3    H110395   6.139   4.409   1.986
 3463TIP3    H210396   6.229   4.389   1.866
 3464TIP3   OH210397   5.895   1.769   2.329
 3464TIP3    H110398   5.975   1.781   2.381
 3464TIP3    H210399   5.837   1.839   2.356
 3465TIP3   OH210400   1.940   3.657   4.265
 3465TIP3    H110401   1.894   3.691   4.188
 3465TIP3    H210402   1.915   3.715   4.336
 3466TIP3   OH210403   3.152   5.255   4.902
 3466TIP3    H110404   3.177   5.289   4.988
 3466TIP3    H210405   3.144   5.334   4.847
 3467TIP3   OH210406   6.091   2.460   0.176
 3467TIP3    H110407   6.147   2.411   0.236
 3467TIP3    H210408   6.089   2.549   0.212
 3468TIP3   OH210409   1.647   5.377   2.380
 3468TIP3    H110410   1.645   5.414   2.291
 3468TIP3    H210411   1.659   5.283   2.367
 3469TIP3   OH210412   3.506   4.869   0.748
 3469TIP3    H110413   3.530   4.871   0.841
 3469TIP3    H210414   3.457   4.788   0.738
 3470TIP3   OH210415   1.721   3.176   3.533
 3470TIP3    H110416   1.779   3.224   3.475
 3470TIP3    H210417   1.653   3.141   3.475
 3471TIP3   OH210418   1.438   4.067   3.045
 3471TIP3    H110419   1.347   4.086   3.066
 3471TIP3    H210420   1.434   3.988   2.990
 3472TIP3   OH210421   1.332   4.482   0.233
 3472TIP3    H110422   1.414   4.480   0.182
 3472TIP3    H210423   1.359   4.513   0.319
 3473TIP3   OH210424   3.261   5.879   4.780
 3473TIP3    H110425   3.187   5.940   4.787
 3473TIP3    H210426   3.255   5.846   4.690
 3474TIP3   OH210427   2.796   5.406   4.416
 3474TIP3    H110428   2.839   5.470   4.472
 3474TIP3    H210429   2.729   5.456   4.369
 3475TIP3   OH210430   4.294   0.558   3.298
 3475TIP3    H110431   4.317   0.489   3.359
 3475TIP3    H210432   4.365   0.622   3.306
 3476TIP3   OH210433   5.694   0.278   3.697
 3476TIP3    H110434   5.784   0.309   3.693
 3476TIP3    H210435   5.696   0.208   3.763
 3477TIP3   OH210436   3.472   4.025   4.318
 3477TIP3    H110437   3.403   4.037   4.383
 3477TIP3    H210438   3.443   3.951   4.266
 3478TIP3   OH210439   1.125   2.996   0.861
 3478TIP3    H110440   1.102   3.010   0.769
 3478TIP3    H210441   1.092   3.075   0.906
 3479TIP3   OH210442   3.927   2.128   0.661
 3479TIP3    H110443   3.977   2.047   0.660
 3479TIP3    H210444   3.851   2.109   0.605
 3480TIP3   OH210445   5.242   1.784   1.817
 3480TIP3    H110446   5.242   1.790   1.912
 3480TIP3    H210447   5.333   1.800   1.792
 3481TIP3   OH210448   1.584   1.325   0.336
 3481TIP3    H110449   1.561   1.303   0.246
 3481TIP3    H210450   1.670   1.284   0.350
 3482TIP3   OH210451   2.156   5.044   2.693
 3482TIP3    H110452   2.143   5.001   2.777
 3482TIP3    H210453   2.094   5.002   2.634
 3483TIP3   OH210454   4.924   3.573   3.931
 3483TIP3    H110455   4.849   3.515   3.915
 3483TIP3    H210456   4.947   3.607   3.845
 3484TIP3   OH210457   5.749   3.990   0.627
 3484TIP3    H110458   5.668   4.041   0.630
 3484TIP3    H210459   5.805   4.036   0.564
 3485TIP3   OH210460   2.884   4.683   0.602
 3485TIP3    H110461   2.932   4.763   0.619
 3485TIP3    H210462   2.810   4.710   0.548
 3486TIP3   OH210463   0.195   4.075   4.872
 3486TIP3    H110464   0.244   4.044   4.948
 3486TIP3    H210465   0.121   4.016   4.864
 3487TIP3   OH210466   5.897   1.928   3.214
 3487TIP3    H110467   5.979   1.939   3.166
 3487TIP3    H210468   5.832   1.911   3.146
 3488TIP3   OH210469   2.345   5.675   3.891
 3488TIP3    H110470   2.299   5.604   3.846
 3488TIP3    H210471   2.355   5.743   3.825
 3489TIP3   OH210472   2.755   4.206   2.744
 3489TIP3    H110473   2.840   4.231   2.707
 3489TIP3    H210474   2.767   4.213   2.839
 3490TIP3   OH210475   1.629   3.676   3.559
 3490TIP3    H110476   1.547   3.699   3.603
 3490TIP3    H210477   1.606   3.676   3.466
 3491TIP3   OH210478   1.191   0.528   0.548
 3491TIP3    H110479   1.175   0.450   0.601
 3491TIP3    H210480   1.115   0.584   0.564
 3492TIP3   OH210481   3.904   1.907   3.975
 3492TIP3    H110482   3.860   1.991   3.981
 3492TIP3    H210483   3.900   1.871   4.064
 3493TIP3   OH210484   2.551   1.590   1.485
 3493TIP3    H110485   2.596   1.633   1.412
 3493TIP3    H210486   2.471   1.642   1.498
 3494TIP3   OH210487   4.696   2.492   2.189
 3494TIP3    H110488   4.664   2.454   2.107
 3494TIP3    H210489   4.636   2.460   2.256
 3495TIP3   OH210490   5.541   4.136   2.341
 3495TIP3    H110491   5.558   4.197   2.412
 3495TIP3    H210492   5.556   4.187   2.261
 3496TIP3   OH210493   3.274   3.480   5.057
 3496TIP3    H110494   3.314   3.489   4.971
 3496TIP3    H210495   3.345   3.445   5.112
 3497TIP3   OH210496   4.106   4.665   0.949
 3497TIP3    H110497   4.094   4.618   1.031
 3497TIP3    H210498   4.017   4.684   0.919
 3498TIP3   OH210499   5.948   0.362   3.481
 3498TIP3    H110500   5.929   0.280   3.435
 3498TIP3    H210501   6.043   0.365   3.486
 3499TIP3   OH210502   0.744   1.341   1.080
 3499TIP3    H110503   0.661   1.304   1.108
 3499TIP3    H210504   0.763   1.408   1.146
 3500TIP3   OH210505   1.898   2.960   3.622
 3500TIP3    H110506   1.850   2.911   3.555
 3500TIP3    H210507   1.969   2.901   3.647
 3501TIP3   OH210508   3.697   4.901   4.245
 3501TIP3    H110509   3.694   4.945   4.330
 3501TIP3    H210510   3.765   4.947   4.197
 3502TIP3   OH210511   3.967   2.372   4.442
 3502TIP3    H110512   4.050   2.415   4.425
 3502TIP3    H210513   3.923   2.370   4.357
 3503TIP3   OH210514   2.528   4.849   4.935
 3503TIP3    H110515   2.550   4.806   5.018
 3503TIP3    H210516   2.458   4.795   4.898
 3504TIP3   OH210517   4.592   4.166   4.133
 3504TIP3    H110518   4.633   4.082   4.155
 3504TIP3    H210519   4.512   4.167   4.186
 3505TIP3   OH210520   1.892   5.161   0.872
 3505TIP3    H110521   1.916   5.132   0.783
 3505TIP3    H210522   1.947   5.238   0.887
 3506TIP3   OH210523   5.160   5.419   0.063
 3506TIP3    H110524   5.092   5.366   0.022
 3506TIP3    H210525   5.137   5.421   0.156
 3507TIP3   OH210526   1.798   3.846   3.189
 3507TIP3    H110527   1.810   3.800   3.271
 3507TIP3    H210528   1.722   3.903   3.205
 3508TIP3   OH210529   4.487   2.996   0.585
 3508TIP3    H110530   4.395   2.971   0.577
 3508TIP3    H210531   4.524   2.977   0.498
 3509TIP3   OH210532   1.831   5.691   2.856
 3509TIP3    H110533   1.848   5.612   2.907
 3509TIP3    H210534   1.844   5.664   2.765
 3510TIP3   OH210535   3.782   4.004   2.447
 3510TIP3    H110536   3.728   3.929   2.469
 3510TIP3    H210537   3.721   4.070   2.415
 3511TIP3   OH210538   1.029   0.301   5.107
 3511TIP3    H110539   1.116   0.335   5.089
 3511TIP3    H210540   0.986   0.369   5.160
 3512TIP3   OH210541   5.887   1.674   1.412
 3512TIP3    H110542   5.980   1.692   1.425
 3512TIP3    H210543   5.884   1.618   1.334
 3513TIP3   OH210544   2.132   5.240   3.175
 3513TIP3    H110545   2.138   5.211   3.266
 3513TIP3    H210546   2.153   5.334   3.178
 3514TIP3   OH210547   1.943   2.987   0.471
 3514TIP3    H110548   1.898   3.071   0.482
 3514TIP3    H210549   2.033   3.011   0.453
 3515TIP3   OH210550   1.656   1.546   0.009
 3515TIP3    H110551   1.724   1.592   0.060
 3515TIP3    H210552   1.574   1.578   0.045
 3516TIP3   OH210553   3.999   2.089   1.862
 3516TIP3    H110554   3.945   2.012   1.848
 3516TIP3    H210555   3.952   2.141   1.927
 3517TIP3   OH210556   5.840   2.675   3.009
 3517TIP3    H110557   5.871   2.586   2.994
 3517TIP3    H210558   5.883   2.726   2.941
 3518TIP3   OH210559   5.197   0.832   3.235
 3518TIP3    H110560   5.237   0.873   3.159
 3518TIP3    H210561   5.239   0.745   3.239
 3519TIP3   OH210562   0.211   4.008   0.081
 3519TIP3    H110563   0.256   3.962   0.010
 3519TIP3    H210564   0.126   4.031   0.043
 3520TIP3   OH210565   4.498   2.914   3.447
 3520TIP3    H110566   4.435   2.986   3.447
 3520TIP3    H210567   4.478   2.865   3.527
 3521TIP3   OH210568   2.832   3.095   4.404
 3521TIP3    H110569   2.913   3.146   4.416
 3521TIP3    H210570   2.788   3.099   4.489
 3522TIP3   OH210571   3.118  -0.024   4.596
 3522TIP3    H110572   3.152   0.059   4.628
 3522TIP3    H210573   3.035  -0.036   4.642
 3523TIP3   OH210574   5.607   3.107   3.715
 3523TIP3    H110575   5.692   3.087   3.753
 3523TIP3    H210576   5.620   3.099   3.621
 3524TIP3   OH210577   3.254   3.631   4.044
 3524TIP3    H110578   3.252   3.553   4.100
 3524TIP3    H210579   3.162   3.644   4.020
 3525TIP3   OH210580   5.017   5.242   3.439
 3525TIP3    H110581   4.949   5.291   3.394
 3525TIP3    H210582   5.078   5.216   3.370
 3526TIP3   OH210583   3.640   0.161   1.142
 3526TIP3    H110584   3.709   0.124   1.196
 3526TIP3    H210585   3.660   0.130   1.053
 3527TIP3   OH210586   6.172   2.943   1.561
 3527TIP3    H110587   6.260   2.951   1.597
 3527TIP3    H210588   6.185   2.919   1.469
 3528TIP3   OH210589   5.220   3.532   4.852
 3528TIP3    H110590   5.262   3.593   4.792
 3528TIP3    H210591   5.127   3.536   4.830
 3529TIP3   OH210592   3.974   5.322   0.767
 3529TIP3    H110593   3.892   5.331   0.718
 3529TIP3    H210594   3.973   5.396   0.828
 3530TIP3   OH210595   3.585   1.924   0.773
 3530TIP3    H110596   3.621   1.998   0.724
 3530TIP3    H210597   3.627   1.847   0.736
 3531TIP3   OH210598   2.723   1.753   4.482
 3531TIP3    H110599   2.648   1.785   4.433
 3531TIP3    H210600   2.798   1.799   4.446
 3532TIP3   OH210601   2.824   4.108   0.734
 3532TIP3    H110602   2.802   4.092   0.826
 3532TIP3    H210603   2.885   4.037   0.712
 3533TIP3   OH210604   4.668   1.910   3.892
 3533TIP3    H110605   4.752   1.903   3.937
 3533TIP3    H210606   4.605   1.870   3.952
 3534TIP3   OH210607   3.994   1.481   4.971
 3534TIP3    H110608   4.076   1.449   4.935
 3534TIP3    H210609   3.930   1.413   4.952
 3535TIP3   OH210610   6.098   1.177   1.899
 3535TIP3    H110611   6.041   1.110   1.936
 3535TIP3    H210612   6.123   1.143   1.813
 3536TIP3   OH210613   1.333   0.075   0.649
 3536TIP3    H110614   1.295   0.068   0.737
 3536TIP3    H210615   1.410   0.131   0.661
 3537TIP3   OH210616   4.786   5.117   4.521
 3537TIP3    H110617   4.758   5.128   4.612
 3537TIP3    H210618   4.719   5.061   4.482
 3538TIP3   OH210619   2.112   5.840   1.761
 3538TIP3    H110620   2.171   5.791   1.818
 3538TIP3    H210621   2.052   5.885   1.821
 3539TIP3   OH210622   5.762   5.675   1.857
 3539TIP3    H110623   5.715   5.758   1.867
 3539TIP3    H210624   5.847   5.691   1.899
 3540TIP3   OH210625   1.323   3.979   0.631
 3540TIP3    H110626   1.339   4.042   0.561
 3540TIP3    H210627   1.409   3.966   0.672
 3541TIP3   OH210628   1.041   0.348   2.202
 3541TIP3    H110629   1.043   0.398   2.284
 3541TIP3    H210630   1.057   0.413   2.134
 3542TIP3   OH210631   2.823   0.834   3.889
 3542TIP3    H110632   2.772   0.869   3.962
 3542TIP3    H210633   2.805   0.740   3.890
 3543TIP3   OH210634   4.614   4.087   0.219
 3543TIP3    H110635   4.668   4.165   0.235
 3543TIP3    H210636   4.676   4.015   0.214
 3544TIP3   OH210637   6.160   2.080   0.627
 3544TIP3    H110638   6.230   2.065   0.563
 3544TIP3    H210639   6.099   2.137   0.581
 3545TIP3   OH210640   3.605   3.817   2.600
 3545TIP3    H110641   3.568   3.818   2.688
 3545TIP3    H210642   3.584   3.730   2.566
 3546TIP3   OH210643   4.515   5.984   5.207
 3546TIP3    H110644   4.483   5.953   5.122
 3546TIP3    H210645   4.575   6.055   5.185
 3547TIP3   OH210646   4.756   2.693   1.860
 3547TIP3    H110647   4.791   2.607   1.883
 3547TIP3    H210648   4.820   2.755   1.896
 3548TIP3   OH210649   2.581   4.419   4.397
 3548TIP3    H110650   2.493   4.404   4.430
 3548TIP3    H210651   2.581   4.510   4.367
 3549TIP3   OH210652   3.731   3.414   2.053
 3549TIP3    H110653   3.747   3.321   2.038
 3549TIP3    H210654   3.674   3.441   1.980
 3550TIP3   OH210655   3.197   3.874   2.042
 3550TIP3    H110656   3.129   3.851   1.978
 3550TIP3    H210657   3.149   3.900   2.120
 3551TIP3   OH210658   5.335   2.038   0.677
 3551TIP3    H110659   5.270   1.977   0.713
 3551TIP3    H210660   5.362   2.092   0.752
 3552TIP3   OH210661   5.603   1.194   4.387
 3552TIP3    H110662   5.620   1.274   4.337
 3552TIP3    H210663   5.637   1.212   4.475
 3553TIP3   OH210664   0.988   4.024   3.796
 3553TIP3    H110665   0.907   4.054   3.756
 3553TIP3    H210666   1.012   3.946   3.746
 3554TIP3   OH210667   3.051   1.830   2.889
 3554TIP3    H110668   3.118   1.776   2.931
 3554TIP3    H210669   3.040   1.791   2.802
 3555TIP3   OH210670   3.351   2.294   0.977
 3555TIP3    H110671   3.347   2.357   0.905
 3555TIP3    H210672   3.260   2.279   1.002
 3556TIP3   OH210673   0.149   5.741   2.886
 3556TIP3    H110674   0.175   5.826   2.851
 3556TIP3    H210675   0.091   5.761   2.959
 3557TIP3   OH210676   1.924   1.697   3.422
 3557TIP3    H110677   1.857   1.651   3.472
 3557TIP3    H210678   2.005   1.683   3.472
 3558TIP3   OH210679   0.386   1.701   3.657
 3558TIP3    H110680   0.328   1.772   3.684
 3558TIP3    H210681   0.461   1.707   3.717
 3559TIP3   OH210682   2.720   3.027   0.890
 3559TIP3    H110683   2.688   3.072   0.812
 3559TIP3    H210684   2.675   3.071   0.963
 3560TIP3   OH210685   5.269   1.888   3.371
 3560TIP3    H110686   5.268   1.923   3.460
 3560TIP3    H210687   5.305   1.800   3.380
 3561TIP3   OH210688   0.946   2.556   2.570
 3561TIP3    H110689   0.873   2.557   2.508
 3561TIP3    H210690   0.919   2.493   2.637
 3562TIP3   OH210691   0.219   3.769   1.948
 3562TIP3    H110692   0.134   3.745   1.911
 3562TIP3    H210693   0.214   3.740   2.039
 3563TIP3   OH210694   4.479   1.648   0.307
 3563TIP3    H110695   4.442   1.609   0.228
 3563TIP3    H210696   4.502   1.737   0.282
 3564TIP3   OH210697   5.533   4.836   4.297
 3564TIP3    H110698   5.516   4.835   4.203
 3564TIP3    H210699   5.500   4.921   4.327
 3565TIP3   OH210700   4.354   1.590   2.627
 3565TIP3    H110701   4.324   1.589   2.718
 3565TIP3    H210702   4.399   1.507   2.615
 3566TIP3   OH210703   4.944   2.998   2.335
 3566TIP3    H110704   4.855   3.009   2.370
 3566TIP3    H210705   4.966   3.084   2.300
 3567TIP3   OH210706   4.025   5.889   2.157
 3567TIP3    H110707   4.061   5.973   2.185
 3567TIP3    H210708   3.933   5.893   2.183
 3568TIP3   OH210709   4.812   4.459   0.646
 3568TIP3    H110710   4.743   4.501   0.696
 3568TIP3    H210711   4.851   4.531   0.595
 3569TIP3   OH210712   5.627   5.931   1.046
 3569TIP3    H110713   5.613   5.836   1.043
 3569TIP3    H210714   5.557   5.968   0.993
 3570TIP3   OH210715   3.231   2.978   1.766
 3570TIP3    H110716   3.167   3.000   1.833
 3570TIP3    H210717   3.187   2.997   1.683
 3571TIP3   OH210718   0.904   2.032   1.803
 3571TIP3    H110719   0.838   2.080   1.755
 3571TIP3    H210720   0.890   1.940   1.778
 3572TIP3   OH210721   2.105   0.867   0.389
 3572TIP3    H110722   2.031   0.832   0.439
 3572TIP3    H210723   2.072   0.874   0.299
 3573TIP3   OH210724   0.674   5.120   4.723
 3573TIP3    H110725   0.696   5.121   4.629
 3573TIP3    H210726   0.705   5.205   4.755
 3574TIP3   OH210727   4.690   5.558   3.650
 3574TIP3    H110728   4.599   5.543   3.626
 3574TIP3    H210729   4.719   5.475   3.687
 3575TIP3   OH210730   1.788   5.401   3.695
 3575TIP3    H110731   1.755   5.470   3.637
 3575TIP3    H210732   1.785   5.439   3.783
 3576TIP3   OH210733   3.233   4.471   4.651
 3576TIP3    H110734   3.197   4.553   4.685
 3576TIP3    H210735   3.211   4.472   4.557
 3577TIP3   OH210736   5.243   4.428   1.814
 3577TIP3    H110737   5.224   4.356   1.754
 3577TIP3    H210738   5.179   4.418   1.884
 3578TIP3   OH210739   2.161   5.826   2.659
 3578TIP3    H110740   2.183   5.849   2.569
 3578TIP3    H210741   2.099   5.754   2.651
 3579TIP3   OH210742   3.076   5.694   0.450
 3579TIP3    H110743   3.012   5.744   0.399
 3579TIP3    H210744   3.160   5.734   0.426
 3580TIP3   OH210745   6.262   2.864   2.877
 3580TIP3    H110746   6.224   2.906   2.955
 3580TIP3    H210747   6.352   2.842   2.904
 3581TIP3   OH210748   2.772   2.080   3.139
 3581TIP3    H110749   2.705   2.104   3.202
 3581TIP3    H210750   2.723   2.052   3.061
 3582TIP3   OH210751   3.278   0.102   3.413
 3582TIP3    H110752   3.251   0.158   3.486
 3582TIP3    H210753   3.346   0.153   3.368
 3583TIP3   OH210754   0.610   1.071   1.449
 3583TIP3    H110755   0.594   0.982   1.480
 3583TIP3    H210756   0.638   1.118   1.527
 3584TIP3   OH210757   4.987   1.767   4.474
 3584TIP3    H110758   5.024   1.701   4.534
 3584TIP3    H210759   4.893   1.754   4.481
 3585TIP3   OH210760   2.590   4.023   1.909
 3585TIP3    H110761   2.532   4.088   1.948
 3585TIP3    H210762   2.672   4.070   1.893
 3586TIP3   OH210763   5.511   4.119   4.400
 3586TIP3    H110764   5.570   4.057   4.358
 3586TIP3    H210765   5.448   4.142   4.332
 3587TIP3   OH210766   3.694   5.308   4.545
 3587TIP3    H110767   3.635   5.287   4.618
 3587TIP3    H210768   3.733   5.392   4.569
 3588TIP3   OH210769   2.425   1.663   4.114
 3588TIP3    H110770   2.437   1.570   4.130
 3588TIP3    H210771   2.344   1.668   4.062
 3589TIP3   OH210772   0.097   0.199   4.405
 3589TIP3    H110773   0.186   0.176   4.433
 3589TIP3    H210774   0.075   0.277   4.456
 3590TIP3   OH210775   0.506   3.937   4.849
 3590TIP3    H110776   0.454   3.965   4.773
 3590TIP3    H210777   0.586   3.901   4.812
 3591TIP3   OH210778   1.567   3.298   3.938
 3591TIP3    H110779   1.633   3.249   3.987
 3591TIP3    H210780   1.617   3.367   3.894
 3592TIP3   OH210781   2.576   2.231   3.827
 3592TIP3    H110782   2.544   2.168   3.763
 3592TIP3    H210783   2.531   2.207   3.909
 3593TIP3   OH210784   1.171   5.788   3.296
 3593TIP3    H110785   1.197   5.857   3.235
 3593TIP3    H210786   1.106   5.829   3.353
 3594TIP3   OH210787   4.076   4.870   4.246
 3594TIP3    H110788   4.014   4.906   4.310
 3594TIP3    H210789   4.156   4.857   4.296
 3595TIP3   OH210790   4.745   0.164   1.876
 3595TIP3    H110791   4.713   0.106   1.945
 3595TIP3    H210792   4.832   0.130   1.855
 3596TIP3   OH210793   4.187   5.501   0.611
 3596TIP3    H110794   4.128   5.431   0.638
 3596TIP3    H210795   4.171   5.510   0.517
 3597TIP3   OH210796   0.499   4.078   2.836
 3597TIP3    H110797   0.498   4.067   2.740
 3597TIP3    H210798   0.408   4.066   2.863
 3598TIP3   OH210799   1.897   3.886   4.429
 3598TIP3    H110800   1.950   3.964   4.446
 3598TIP3    H210801   1.863   3.862   4.515
 3599TIP3   OH210802   3.507   5.610   4.850
 3599TIP3    H110803   3.462   5.602   4.934
 3599TIP3    H210804   3.540   5.699   4.849
 3600TIP3   OH210805   1.626   4.266   2.111
 3600TIP3    H110806   1.532   4.283   2.104
 3600TIP3    H210807   1.633   4.172   2.124
 3601TIP3   OH210808   5.410   0.790   2.118
 3601TIP3    H110809   5.373   0.878   2.108
 3601TIP3    H210810   5.482   0.801   2.180
 3602TIP3   OH210811   0.635   2.965   3.614
 3602TIP3    H110812   0.667   2.875   3.611
 3602TIP3    H210813   0.568   2.963   3.682
 3603TIP3   OH210814   4.072   4.948   3.997
 3603TIP3    H110815   4.133   5.021   3.986
 3603TIP3    H210816   4.084   4.921   4.088
 3604TIP3   OH210817   0.469   0.409   2.982
 3604TIP3    H110818   0.380   0.381   3.003
 3604TIP3    H210819   0.525   0.347   3.028
 3605TIP3   OH210820   0.855   1.381   0.111
 3605TIP3    H110821   0.856   1.373   0.016
 3605TIP3    H210822   0.763   1.369   0.135
 3606TIP3   OH210823   2.855   2.810   3.124
 3606TIP3    H110824   2.890   2.721   3.133
 3606TIP3    H210825   2.932   2.865   3.107
 3607TIP3   OH210826   6.246   4.179   0.865
 3607TIP3    H110827   6.157   4.153   0.840
 3607TIP3    H210828   6.275   4.112   0.927
 3608TIP3   OH210829   1.922   4.978   3.307
 3608TIP3    H110830   1.862   5.048   3.335
 3608TIP3    H210831   2.005   5.022   3.290
 3609TIP3   OH210832   0.219   4.937   2.619
 3609TIP3    H110833   0.203   4.957   2.527
 3609TIP3    H210834   0.198   4.844   2.627
 3610TIP3   OH210835   3.132   5.174   1.806
 3610TIP3    H110836   3.191   5.245   1.832
 3610TIP3    H210837   3.160   5.099   1.859
 3611TIP3   OH210838   2.386   5.994   2.743
 3611TIP3    H110839   2.324   5.922   2.731
 3611TIP3    H210840   2.458   5.955   2.793
 3612TIP3   OH210841   1.092   5.050   4.685
 3612TIP3    H110842   1.013   4.999   4.668
 3612TIP3    H210843   1.075   5.091   4.770
 3613TIP3   OH210844   3.771   2.680   0.640
 3613TIP3    H110845   3.833   2.734   0.591
 3613TIP3    H210846   3.778   2.711   0.730
 3614TIP3   OH210847   2.304   4.714   1.469
 3614TIP3    H110848   2.281   4.640   1.525
 3614TIP3    H210849   2.301   4.680   1.380
 3615TIP3   OH210850   3.701   3.818   1.968
 3615TIP3    H110851   3.709   3.772   1.885
 3615TIP3    H210852   3.625   3.779   2.010
 3616TIP3   OH210853   2.456   4.873   1.224
 3616TIP3    H110854   2.403   4.793   1.230
 3616TIP3    H210855   2.404   4.939   1.270
 3617TIP3   OH210856   5.375   0.094   3.268
 3617TIP3    H110857   5.443   0.062   3.326
 3617TIP3    H210858   5.354   0.181   3.301
 3618TIP3   OH210859   3.422   0.843   4.331
 3618TIP3    H110860   3.466   0.808   4.254
 3618TIP3    H210861   3.334   0.865   4.301
 3619TIP3   OH210862   5.059   4.283   0.590
 3619TIP3    H110863   5.089   4.353   0.533
 3619TIP3    H210864   4.994   4.325   0.647
 3620TIP3   OH210865   6.282   4.727   4.096
 3620TIP3    H110866   6.253   4.695   4.182
 3620TIP3    H210867   6.306   4.648   4.048
 3621TIP3   OH210868   1.539   2.199   4.739
 3621TIP3    H110869   1.486   2.167   4.811
 3621TIP3    H210870   1.506   2.152   4.662
 3622TIP3   OH210871   6.034   3.521   3.262
 3622TIP3    H110872   5.961   3.493   3.207
 3622TIP3    H210873   6.022   3.616   3.270
 3623TIP3   OH210874   0.878   4.215   4.792
 3623TIP3    H110875   0.938   4.179   4.727
 3623TIP3    H210876   0.912   4.303   4.809
 3624TIP3   OH210877   0.985   0.982   0.193
 3624TIP3    H110878   1.020   1.007   0.279
 3624TIP3    H210879   1.029   1.042   0.132
 3625TIP3   OH210880   3.605   3.414   4.280
 3625TIP3    H110881   3.568   3.369   4.204
 3625TIP3    H210882   3.663   3.480   4.243
 3626TIP3   OH210883   0.179   1.604   4.498
 3626TIP3    H110884   0.213   1.688   4.470
 3626TIP3    H210885   0.219   1.590   4.585
 3627TIP3   OH210886   1.137   1.933   1.574
 3627TIP3    H110887   1.105   2.021   1.595
 3627TIP3    H210888   1.075   1.900   1.509
 3628TIP3   OH210889   3.380   0.412   1.537
 3628TIP3    H110890   3.288   0.393   1.555
 3628TIP3    H210891   3.402   0.354   1.464
 3629TIP3   OH210892   2.530   5.054   1.847
 3629TIP3    H110893   2.467   5.034   1.777
 3629TIP3    H210894   2.561   4.969   1.878
 3630TIP3   OH210895   0.337   5.027   4.797
 3630TIP3    H110896   0.288   5.038   4.879
 3630TIP3    H210897   0.269   5.014   4.731
 3631TIP3   OH210898   0.568   1.072   0.953
 3631TIP3    H110899   0.547   1.130   1.027
 3631TIP3    H210900   0.497   1.087   0.891
 3632TIP3   OH210901   0.069   0.403   2.030
 3632TIP3    H110902  -0.024   0.401   2.054
 3632TIP3    H210903   0.097   0.311   2.033
 3633TIP3   OH210904   1.921   2.158   0.722
 3633TIP3    H110905   1.936   2.234   0.778
 3633TIP3    H210906   1.960   2.182   0.638
 3634TIP3   OH210907   4.938   0.985   2.329
 3634TIP3    H110908   4.956   1.051   2.397
 3634TIP3    H210909   4.939   0.902   2.376
 3635TIP3   OH210910   4.409   0.420   3.930
 3635TIP3    H110911   4.434   0.362   3.858
 3635TIP3    H210912   4.454   0.502   3.912
 3636TIP3   OH210913   0.225   5.397   1.877
 3636TIP3    H110914   0.185   5.460   1.818
 3636TIP3    H210915   0.159   5.329   1.888
 3637TIP3   OH210916   2.934   4.265   0.026
 3637TIP3    H110917   2.994   4.252   0.100
 3637TIP3    H210918   2.947   4.356   0.000
 3638TIP3   OH210919   2.465   1.134   2.935
 3638TIP3    H110920   2.525   1.192   2.888
 3638TIP3    H210921   2.378   1.172   2.921
 3639TIP3   OH210922   1.888   4.765   0.862
 3639TIP3    H110923   1.911   4.815   0.784
 3639TIP3    H210924   1.970   4.760   0.912
 3640TIP3   OH210925   5.491   0.438   3.601
 3640TIP3    H110926   5.497   0.406   3.511
 3640TIP3    H210927   5.549   0.381   3.652
 3641TIP3   OH210928   5.059   3.748   0.716
 3641TIP3    H110929   5.048   3.825   0.661
 3641TIP3    H210930   5.135   3.767   0.770
 3642TIP3   OH210931   1.517   2.199   0.900
 3642TIP3    H110932   1.425   2.210   0.877
 3642TIP3    H210933   1.524   2.106   0.925
 3643TIP3   OH210934   6.170   0.323   1.247
 3643TIP3    H110935   6.252   0.273   1.249
 3643TIP3    H210936   6.116   0.283   1.315
 3644TIP3   OH210937   0.611   4.971   1.428
 3644TIP3    H110938   0.662   5.032   1.481
 3644TIP3    H210939   0.523   4.974   1.467
 3645TIP3   OH210940   5.737   5.186   5.071
 3645TIP3    H110941   5.696   5.264   5.108
 3645TIP3    H210942   5.796   5.220   5.004
 3646TIP3   OH210943   4.528   2.552   3.445
 3646TIP3    H110944   4.521   2.618   3.514
 3646TIP3    H210945   4.446   2.502   3.451
 3647TIP3   OH210946   1.531   5.094   3.120
 3647TIP3    H110947   1.460   5.150   3.089
 3647TIP3    H210948   1.594   5.092   3.048
 3648TIP3   OH210949   5.149   2.280   0.226
 3648TIP3    H110950   5.176   2.217   0.293
 3648TIP3    H210951   5.135   2.226   0.148
 3649TIP3   OH210952   4.474   0.854   2.065
 3649TIP3    H110953   4.422   0.909   2.123
 3649TIP3    H210954   4.511   0.787   2.122
 3650TIP3   OH210955   6.258   4.267   4.569
 3650TIP3    H110956   6.315   4.236   4.639
 3650TIP3    H210957   6.231   4.187   4.523
 3651TIP3   OH210958   3.719   1.249   5.192
 3651TIP3    H110959   3.797   1.291   5.230
 3651TIP3    H210960   3.738   1.243   5.098
 3652TIP3   OH210961   0.616   1.938   2.342
 3652TIP3    H110962   0.672   1.971   2.411
 3652TIP3    H210963   0.578   1.858   2.377
 3653TIP3   OH210964   1.105   5.953   4.069
 3653TIP3    H110965   1.087   5.877   4.014
 3653TIP3    H210966   1.090   6.028   4.011
 3654TIP3   OH210967   1.334   4.768   2.567
 3654TIP3    H110968   1.391   4.845   2.567
 3654TIP3    H210969   1.255   4.797   2.521
 3655TIP3   OH210970   0.205   3.764   3.062
 3655TIP3    H110971   0.209   3.839   3.004
 3655TIP3    H210972   0.297   3.742   3.079
 3656TIP3   OH210973   4.985   5.331   1.319
 3656TIP3    H110974   5.051   5.294   1.378
 3656TIP3    H210975   4.980   5.269   1.247
 3657TIP3   OH210976   4.976   3.818   1.551
 3657TIP3    H110977   4.910   3.886   1.567
 3657TIP3    H210978   5.059   3.861   1.570
 3658TIP3   OH210979   4.935   5.704   1.851
 3658TIP3    H110980   4.951   5.714   1.757
 3658TIP3    H210981   5.006   5.753   1.893
 3659TIP3   OH210982   5.194   0.979   0.705
 3659TIP3    H110983   5.173   1.050   0.644
 3659TIP3    H210984   5.117   0.974   0.763
 3660TIP3   OH210985   5.293   5.780   1.817
 3660TIP3    H110986   5.295   5.861   1.767
 3660TIP3    H210987   5.371   5.732   1.788
 3661TIP3   OH210988   5.771   5.062   0.246
 3661TIP3    H110989   5.832   5.109   0.189
 3661TIP3    H210990   5.773   5.110   0.329
 3662TIP3   OH210991   1.631   5.603   1.362
 3662TIP3    H110992   1.646   5.696   1.378
 3662TIP3    H210993   1.699   5.579   1.299
 3663TIP3   OH210994   2.631   5.095   5.120
 3663TIP3    H110995   2.706   5.128   5.070
 3663TIP3    H210996   2.578   5.049   5.055
 3664TIP3   OH210997   0.180   3.000   3.188
 3664TIP3    H110998   0.234   3.073   3.158
 3664TIP3    H210999   0.166   3.018   3.281
 3665TIP3   OH211000   2.839   5.566   2.431
 3665TIP3    H111001   2.844   5.520   2.514
 3665TIP3    H211002   2.837   5.496   2.365
 3666TIP3   OH211003   6.157   5.329   4.560
 3666TIP3    H111004   6.189   5.245   4.593
 3666TIP3    H211005   6.151   5.385   4.637
 3667TIP3   OH211006   5.089   2.686   2.417
 3667TIP3    H111007   5.175   2.708   2.381
 3667TIP3    H211008   5.027   2.717   2.351
 3668TIP3   OH211009   3.812   1.442   1.285
 3668TIP3    H111010   3.737   1.397   1.323
 3668TIP3    H211011   3.886   1.417   1.341
 3669TIP3   OH211012   3.866   4.458   4.165
 3669TIP3    H111013   3.792   4.514   4.189
 3669TIP3    H211014   3.847   4.431   4.075
 3670TIP3   OH211015   6.088   1.025   4.045
 3670TIP3    H111016   6.110   1.110   4.084
 3670TIP3    H211017   6.157   1.010   3.980
 3671TIP3   OH211018   0.064   1.246   3.366
 3671TIP3    H111019   0.074   1.160   3.407
 3671TIP3    H211020   0.140   1.296   3.394
 3672TIP3   OH211021   0.912   2.422   3.459
 3672TIP3    H111022   0.933   2.465   3.542
 3672TIP3    H211023   0.840   2.362   3.480
 3673TIP3   OH211024   3.218   0.832   1.497
 3673TIP3    H111025   3.185   0.854   1.584
 3673TIP3    H211026   3.196   0.740   1.486
 3674TIP3   OH211027   4.795   0.034   4.179
 3674TIP3    H111028   4.821  -0.052   4.145
 3674TIP3    H211029   4.867   0.092   4.155
 3675TIP3   OH211030   2.330   0.685   1.819
 3675TIP3    H111031   2.285   0.685   1.735
 3675TIP3    H211032   2.388   0.609   1.815
 3676TIP3   OH211033   0.392   4.194   1.245
 3676TIP3    H111034   0.452   4.149   1.305
 3676TIP3    H211035   0.393   4.285   1.273
 3677TIP3   OH211036   1.926   3.550   0.916
 3677TIP3    H111037   1.914   3.541   1.010
 3677TIP3    H211038   1.882   3.632   0.894
 3678TIP3   OH211039   6.075   4.816   1.267
 3678TIP3    H111040   6.063   4.843   1.358
 3678TIP3    H211041   6.005   4.861   1.219
 3679TIP3   OH211042   6.169   2.504   0.936
 3679TIP3    H111043   6.222   2.512   1.016
 3679TIP3    H211044   6.089   2.553   0.956
 3680TIP3   OH211045   1.695   5.348   1.506
 3680TIP3    H111046   1.685   5.358   1.601
 3680TIP3    H211047   1.679   5.436   1.471
 3681TIP3   OH211048   4.277   4.900   1.595
 3681TIP3    H111049   4.354   4.885   1.650
 3681TIP3    H211050   4.251   4.813   1.565
 3682TIP3   OH211051   1.703   5.206   1.790
 3682TIP3    H111052   1.754   5.132   1.823
 3682TIP3    H211053   1.627   5.211   1.849
 3683TIP3   OH211054   1.939   4.268   1.399
 3683TIP3    H111055   1.968   4.245   1.487
 3683TIP3    H211056   1.992   4.344   1.375
 3684TIP3   OH211057   1.308   0.325   2.393
 3684TIP3    H111058   1.290   0.383   2.467
 3684TIP3    H211059   1.349   0.382   2.328
 3685TIP3   OH211060   4.669   4.194   3.158
 3685TIP3    H111061   4.663   4.288   3.139
 3685TIP3    H211062   4.718   4.158   3.084
 3686TIP3   OH211063   5.127   4.515   2.635
 3686TIP3    H111064   5.055   4.460   2.665
 3686TIP3    H211065   5.087   4.573   2.570
 3687TIP3   OH211066   4.808   2.352   1.803
 3687TIP3    H111067   4.868   2.401   1.859
 3687TIP3    H211068   4.863   2.288   1.759
 3688TIP3   OH211069   2.201   0.906   1.237
 3688TIP3    H111070   2.290   0.869   1.237
 3688TIP3    H211071   2.147   0.838   1.277
 3689TIP3   OH211072   3.650   3.597   4.683
 3689TIP3    H111073   3.560   3.619   4.658
 3689TIP3    H211074   3.677   3.671   4.738
 3690TIP3   OH211075   3.115   2.089   1.321
 3690TIP3    H111076   3.098   2.080   1.414
 3690TIP3    H211077   3.071   2.014   1.281
 3691TIP3   OH211078   5.102   4.256   4.473
 3691TIP3    H111079   5.125   4.349   4.483
 3691TIP3    H211080   5.014   4.249   4.511
 3692TIP3   OH211081   6.298   1.793   1.011
 3692TIP3    H111082   6.299   1.872   1.064
 3692TIP3    H211083   6.313   1.722   1.073
 3693TIP3   OH211084   2.074   5.616   1.040
 3693TIP3    H111085   2.141   5.627   1.107
 3693TIP3    H211086   2.104   5.669   0.966
 3694TIP3   OH211087   0.886   4.526   4.887
 3694TIP3    H111088   0.958   4.569   4.934
 3694TIP3    H211089   0.853   4.593   4.827
 3695TIP3   OH211090   2.721   3.864   0.098
 3695TIP3    H111091   2.715   3.857   0.194
 3695TIP3    H211092   2.687   3.952   0.079
 3696TIP3   OH211093   4.188   3.217   3.023
 3696TIP3    H111094   4.097   3.212   3.054
 3696TIP3    H211095   4.217   3.305   3.047
 3697TIP3   OH211096   1.689   1.659   1.010
 3697TIP3    H111097   1.705   1.577   1.058
 3697TIP3    H211098   1.708   1.727   1.074
 3698TIP3   OH211099   3.505   4.075   1.904
 3698TIP3    H111100   3.580   4.016   1.899
 3698TIP3    H211101   3.501   4.103   1.995
 3699TIP3   OH211102   4.225   1.692   1.730
 3699TIP3    H111103   4.214   1.600   1.705
 3699TIP3    H211104   4.298   1.692   1.791
 3700TIP3   OH211105   2.351   0.136   4.506
 3700TIP3    H111106   2.378   0.186   4.583
 3700TIP3    H211107   2.378   0.046   4.525
 3701TIP3   OH211108   0.517   4.834   1.127
 3701TIP3    H111109   0.501   4.928   1.127
 3701TIP3    H211110   0.461   4.800   1.196
 3702TIP3   OH211111   1.396   3.753   3.653
 3702TIP3    H111112   1.361   3.839   3.631
 3702TIP3    H211113   1.353   3.693   3.592
 3703TIP3   OH211114   1.127   5.705   2.730
 3703TIP3    H111115   1.056   5.718   2.793
 3703TIP3    H211116   1.102   5.627   2.681
 3704TIP3   OH211117   2.114   2.422   1.088
 3704TIP3    H111118   2.060   2.350   1.053
 3704TIP3    H211119   2.187   2.378   1.131
 3705TIP3   OH211120   1.392   2.852   2.247
 3705TIP3    H111121   1.297   2.843   2.254
 3705TIP3    H211122   1.425   2.765   2.268
 3706TIP3   OH211123   5.759   0.486   4.372
 3706TIP3    H111124   5.723   0.398   4.364
 3706TIP3    H211125   5.749   0.508   4.464
 3707TIP3   OH211126   2.260   1.702   3.275
 3707TIP3    H111127   2.194   1.653   3.227
 3707TIP3    H211128   2.329   1.719   3.212
 3708TIP3   OH211129   5.939   4.565   5.162
 3708TIP3    H111130   5.890   4.617   5.098
 3708TIP3    H211131   6.021   4.613   5.175
 3709TIP3   OH211132   1.793   4.221   0.778
 3709TIP3    H111133   1.748   4.303   0.758
 3709TIP3    H211134   1.764   4.199   0.867
 3710TIP3   OH211135   2.348   5.739   0.375
 3710TIP3    H111136   2.396   5.717   0.454
 3710TIP3    H211137   2.356   5.661   0.319
 3711TIP3   OH211138   5.956   5.939   2.457
 3711TIP3    H111139   5.889   6.002   2.432
 3711TIP3    H211140   5.919   5.854   2.432
 3712TIP3   OH211141   2.413   5.745   4.153
 3712TIP3    H111142   2.322   5.730   4.179
 3712TIP3    H211143   2.413   5.735   4.058
 3713TIP3   OH211144   3.102   4.676   3.873
 3713TIP3    H111145   3.133   4.766   3.875
 3713TIP3    H211146   3.070   4.660   3.962
 3714TIP3   OH211147   2.971   1.336   0.963
 3714TIP3    H111148   2.988   1.259   0.909
 3714TIP3    H211149   3.053   1.385   0.963
 3715TIP3   OH211150   3.428   0.843   0.730
 3715TIP3    H111151   3.511   0.802   0.755
 3715TIP3    H211152   3.386   0.778   0.673
 3716TIP3   OH211153   3.492   0.292   1.775
 3716TIP3    H111154   3.474   0.360   1.710
 3716TIP3    H211155   3.469   0.210   1.731
 3717TIP3   OH211156   6.275   2.956   1.290
 3717TIP3    H111157   6.217   2.924   1.221
 3717TIP3    H211158   6.364   2.942   1.256
 3718TIP3   OH211159   1.949   5.865   1.430
 3718TIP3    H111160   2.025   5.807   1.430
 3718TIP3    H211161   1.874   5.806   1.439
 3719TIP3   OH211162   0.110   0.380   3.052
 3719TIP3    H111163   0.083   0.446   3.115
 3719TIP3    H211164   0.176   0.328   3.098
 3720TIP3   OH211165   5.089   5.811   4.847
 3720TIP3    H111166   5.122   5.744   4.788
 3720TIP3    H211167   4.998   5.822   4.822
 3721TIP3   OH211168   3.538   2.687   4.784
 3721TIP3    H111169   3.553   2.657   4.874
 3721TIP3    H211170   3.523   2.606   4.734
 3722TIP3   OH211171   1.755   4.091   0.528
 3722TIP3    H111172   1.837   4.123   0.489
 3722TIP3    H211173   1.764   4.111   0.621
 3723TIP3   OH211174   0.511   4.055   4.185
 3723TIP3    H111175   0.439   4.046   4.122
 3723TIP3    H211176   0.559   3.972   4.178
 3724TIP3   OH211177   2.196   5.860   2.331
 3724TIP3    H111178   2.145   5.866   2.251
 3724TIP3    H211179   2.241   5.776   2.325
 3725TIP3   OH211180   3.843   5.269   1.093
 3725TIP3    H111181   3.869   5.209   1.162
 3725TIP3    H211182   3.925   5.308   1.062
 3726TIP3   OH211183   3.707   5.724   1.063
 3726TIP3    H111184   3.722   5.667   1.139
 3726TIP3    H211185   3.661   5.668   1.000
 3727TIP3   OH211186   2.566   0.863   2.877
 3727TIP3    H111187   2.537   0.954   2.889
 3727TIP3    H211188   2.606   0.862   2.790
 3728TIP3   OH211189   1.159   4.961   1.695
 3728TIP3    H111190   1.093   4.896   1.672
 3728TIP3    H211191   1.174   5.011   1.615
 3729TIP3   OH211192   3.502   1.837   0.193
 3729TIP3    H111193   3.419   1.882   0.211
 3729TIP3    H211194   3.536   1.879   0.114
 3730TIP3   OH211195   0.241   4.193   2.235
 3730TIP3    H111196   0.191   4.151   2.164
 3730TIP3    H211197   0.185   4.264   2.264
 3731TIP3   OH211198   1.183   1.681   3.968
 3731TIP3    H111199   1.209   1.647   3.882
 3731TIP3    H211200   1.159   1.603   4.018
 3732TIP3   OH211201   0.481   3.943   2.568
 3732TIP3    H111202   0.527   3.944   2.484
 3732TIP3    H211203   0.500   3.857   2.605
 3733TIP3   OH211204   3.951   1.527   1.643
 3733TIP3    H111205   3.940   1.438   1.676
 3733TIP3    H211206   4.042   1.531   1.615
 3734TIP3   OH211207   1.113   3.005   4.889
 3734TIP3    H111208   1.109   3.034   4.798
 3734TIP3    H211209   1.024   3.016   4.922
 3735TIP3   OH211210   6.095   3.403   1.877
 3735TIP3    H111211   6.097   3.319   1.924
 3735TIP3    H211212   6.179   3.406   1.830
 3736TIP3   OH211213   4.247   3.813   2.067
 3736TIP3    H111214   4.289   3.877   2.009
 3736TIP3    H211215   4.195   3.758   2.009
 3737TIP3   OH211216   1.369   4.797   1.514
 3737TIP3    H111217   1.399   4.838   1.433
 3737TIP3    H211218   1.316   4.864   1.557
 3738TIP3   OH211219   1.069   2.832   3.583
 3738TIP3    H111220   1.022   2.752   3.560
 3738TIP3    H211221   1.000   2.897   3.598
 3739TIP3   OH211222   1.411   2.945   5.131
 3739TIP3    H111223   1.465   3.024   5.132
 3739TIP3    H211224   1.465   2.878   5.172
 3740TIP3   OH211225   6.309   3.810   2.568
 3740TIP3    H111226   6.290   3.884   2.510
 3740TIP3    H211227   6.344   3.742   2.511
 3741TIP3   OH211228   4.815   5.427   4.645
 3741TIP3    H111229   4.885   5.363   4.643
 3741TIP3    H211230   4.859   5.512   4.640
 3742TIP3   OH211231   4.582   5.059   2.320
 3742TIP3    H111232   4.662   5.095   2.359
 3742TIP3    H211233   4.613   4.993   2.258
 3743TIP3   OH211234   5.720   0.829   1.854
 3743TIP3    H111235   5.718   0.819   1.759
 3743TIP3    H211236   5.807   0.800   1.880
 3744TIP3   OH211237   4.411   2.437   2.593
 3744TIP3    H111238   4.392   2.486   2.673
 3744TIP3    H211239   4.358   2.479   2.526
 3745TIP3   OH211240   0.534   3.858   3.866
 3745TIP3    H111241   0.596   3.846   3.939
 3745TIP3    H211242   0.526   3.772   3.826
 3746TIP3   OH211243   2.763   5.214   2.936
 3746TIP3    H111244   2.832   5.189   2.997
 3746TIP3    H211245   2.807   5.263   2.868
 3747TIP3   OH211246   0.290   3.725   2.249
 3747TIP3    H111247   0.322   3.811   2.220
 3747TIP3    H211248   0.363   3.689   2.299
 3748TIP3   OH211249   2.867   1.326   3.682
 3748TIP3    H111250   2.939   1.329   3.618
 3748TIP3    H211251   2.827   1.240   3.669
 3749TIP3   OH211252   1.959   0.437   1.245
 3749TIP3    H111253   1.999   0.351   1.260
 3749TIP3    H211254   2.026   0.500   1.273
 3750TIP3   OH211255   2.242   4.519   2.881
 3750TIP3    H111256   2.330   4.555   2.865
 3750TIP3    H211257   2.228   4.532   2.974
 3751TIP3   OH211258   1.347   4.594   2.944
 3751TIP3    H111259   1.431   4.637   2.928
 3751TIP3    H211260   1.361   4.503   2.918
 3752TIP3   OH211261   4.247   1.539   3.289
 3752TIP3    H111262   4.276   1.599   3.357
 3752TIP3    H211263   4.289   1.570   3.209
 3753TIP3   OH211264   0.544   2.169   2.201
 3753TIP3    H111265   0.593   2.104   2.252
 3753TIP3    H211266   0.600   2.189   2.126
 3754TIP3   OH211267   3.668   1.015   0.939
 3754TIP3    H111268   3.731   1.069   0.987
 3754TIP3    H211269   3.587   1.065   0.941
 3755TIP3   OH211270   1.091   2.931   1.706
 3755TIP3    H111271   1.157   2.884   1.757
 3755TIP3    H211272   1.052   2.993   1.768
 3756TIP3   OH211273   3.497   1.319   0.183
 3756TIP3    H111274   3.462   1.392   0.132
 3756TIP3    H211275   3.479   1.242   0.130
 3757TIP3   OH211276   0.340   4.750   4.180
 3757TIP3    H111277   0.282   4.825   4.191
 3757TIP3    H211278   0.424   4.787   4.154
 3758TIP3   OH211279   0.520   2.606   2.589
 3758TIP3    H111280   0.564   2.690   2.577
 3758TIP3    H211281   0.429   2.622   2.564
 3759TIP3   OH211282   6.106   4.941   2.482
 3759TIP3    H111283   6.137   4.980   2.399
 3759TIP3    H211284   6.011   4.940   2.474
 3760TIP3   OH211285   2.814   1.300   0.467
 3760TIP3    H111286   2.749   1.251   0.518
 3760TIP3    H211287   2.892   1.300   0.522
 3761TIP3   OH211288   4.769   0.793   1.936
 3761TIP3    H111289   4.812   0.879   1.935
 3761TIP3    H211290   4.683   0.810   1.974
 3762TIP3   OH211291   2.178   0.775   3.158
 3762TIP3    H111292   2.243   0.842   3.137
 3762TIP3    H211293   2.230   0.703   3.196
 3763TIP3   OH211294   0.744   4.788   4.613
 3763TIP3    H111295   0.759   4.799   4.519
 3763TIP3    H211296   0.664   4.736   4.618
 3764TIP3   OH211297   2.684   2.803   2.900
 3764TIP3    H111298   2.662   2.895   2.916
 3764TIP3    H211299   2.735   2.776   2.976
 3765TIP3   OH211300   2.205   1.750   3.953
 3765TIP3    H111301   2.168   1.672   3.913
 3765TIP3    H211302   2.132   1.790   4.000
 3766TIP3   OH211303   1.990   4.230   1.020
 3766TIP3    H111304   1.898   4.205   1.020
 3766TIP3    H211305   2.029   4.179   0.949
 3767TIP3   OH211306   6.233   4.429   4.898
 3767TIP3    H111307   6.225   4.416   4.992
 3767TIP3    H211308   6.323   4.402   4.878
 3768TIP3   OH211309   5.942   2.112   3.651
 3768TIP3    H111310   5.870   2.124   3.589
 3768TIP3    H211311   5.996   2.043   3.612
 3769TIP3   OH211312   1.365   0.747   0.655
 3769TIP3    H111313   1.294   0.796   0.695
 3769TIP3    H211314   1.326   0.662   0.633
 3770TIP3   OH211315   5.808   3.328   1.798
 3770TIP3    H111316   5.898   3.344   1.769
 3770TIP3    H211317   5.800   3.376   1.880
 3771TIP3   OH211318   6.004   4.199   1.117
 3771TIP3    H111319   5.966   4.123   1.161
 3771TIP3    H211320   5.969   4.196   1.028
 3772TIP3   OH211321   0.945   5.677   0.719
 3772TIP3    H111322   0.994   5.759   0.725
 3772TIP3    H211323   0.911   5.662   0.807
 3773TIP3   OH211324   5.769   2.534   1.524
 3773TIP3    H111325   5.727   2.565   1.604
 3773TIP3    H211326   5.698   2.499   1.470
 3774TIP3   OH211327   3.276   5.279   3.521
 3774TIP3    H111328   3.351   5.238   3.564
 3774TIP3    H211329   3.253   5.219   3.451
 3775TIP3   OH211330   1.624   4.681   0.718
 3775TIP3    H111331   1.685   4.752   0.737
 3775TIP3    H211332   1.570   4.674   0.797
 3776TIP3   OH211333   4.297   5.219   3.613
 3776TIP3    H111334   4.242   5.273   3.556
 3776TIP3    H211335   4.236   5.157   3.653
 3777TIP3   OH211336   5.659   4.827   1.189
 3777TIP3    H111337   5.722   4.789   1.249
 3777TIP3    H211338   5.574   4.800   1.222
 3778TIP3   OH211339   3.428   2.307   0.091
 3778TIP3    H111340   3.369   2.306   0.166
 3778TIP3    H211341   3.377   2.269   0.020
 3779TIP3   OH211342   1.425   1.755   4.086
 3779TIP3    H111343   1.339   1.711   4.086
 3779TIP3    H211344   1.488   1.684   4.070
 3780TIP3   OH211345   0.567   2.619   3.009
 3780TIP3    H111346   0.573   2.710   2.979
 3780TIP3    H211347   0.652   2.581   2.988
 3781TIP3   OH211348   5.289   3.911   3.025
 3781TIP3    H111349   5.222   3.850   2.995
 3781TIP3    H211350   5.359   3.904   2.960
 3782TIP3   OH211351   0.597   2.711   1.443
 3782TIP3    H111352   0.548   2.673   1.370
 3782TIP3    H211353   0.670   2.758   1.402
 3783TIP3   OH211354   1.072   1.428   1.222
 3783TIP3    H111355   1.080   1.415   1.128
 3783TIP3    H211356   1.151   1.477   1.246
 3784TIP3   OH211357   3.474   2.304   3.628
 3784TIP3    H111358   3.516   2.340   3.550
 3784TIP3    H211359   3.441   2.219   3.601
 3785TIP3   OH211360   6.164   1.695   1.387
 3785TIP3    H111361   6.163   1.600   1.403
 3785TIP3    H211362   6.254   1.721   1.406
 3786TIP3   OH211363   4.421   1.209   1.535
 3786TIP3    H111364   4.450   1.234   1.447
 3786TIP3    H211365   4.472   1.265   1.594
 3787TIP3   OH211366   4.072   5.857   3.089
 3787TIP3    H111367   4.133   5.836   3.018
 3787TIP3    H211368   4.044   5.772   3.123
 3788TIP3   OH211369   4.325   4.116   5.010
 3788TIP3    H111370   4.234   4.145   5.013
 3788TIP3    H211371   4.346   4.113   4.916
 3789TIP3   OH211372   2.832   2.810   5.158
 3789TIP3    H111373   2.924   2.830   5.143
 3789TIP3    H211374   2.820   2.823   5.252
 3790TIP3   OH211375   1.162   4.093   3.380
 3790TIP3    H111376   1.068   4.110   3.383
 3790TIP3    H211377   1.190   4.095   3.471
 3791TIP3   OH211378   2.605   1.385   0.693
 3791TIP3    H111379   2.695   1.357   0.709
 3791TIP3    H211380   2.552   1.330   0.751
 3792TIP3   OH211381   4.102   2.888   3.981
 3792TIP3    H111382   4.113   2.795   3.999
 3792TIP3    H211383   4.143   2.901   3.896
 3793TIP3   OH211384   4.037   1.234   0.231
 3793TIP3    H111385   4.035   1.180   0.152
 3793TIP3    H211386   4.125   1.222   0.266
 3794TIP3   OH211387   1.637   4.514   5.131
 3794TIP3    H111388   1.605   4.524   5.041
 3794TIP3    H211389   1.718   4.464   5.123
 3795TIP3   OH211390   0.787   3.171   3.905
 3795TIP3    H111391   0.697   3.199   3.924
 3795TIP3    H211392   0.837   3.196   3.982
 3796TIP3   OH211393   1.465   2.030   1.204
 3796TIP3    H111394   1.421   2.115   1.213
 3796TIP3    H211395   1.395   1.966   1.200
 3797TIP3   OH211396   0.428   5.621   3.712
 3797TIP3    H111397   0.395   5.633   3.801
 3797TIP3    H211398   0.451   5.709   3.682
 3798TIP3   OH211399   2.976   1.146   4.307
 3798TIP3    H111400   3.033   1.209   4.352
 3798TIP3    H211401   2.953   1.083   4.375
 3799TIP3   OH211402   5.923   5.471   4.744
 3799TIP3    H111403   6.015   5.497   4.744
 3799TIP3    H211404   5.879   5.540   4.794
 3800TIP3   OH211405   0.409   4.035   3.175
 3800TIP3    H111406   0.338   4.045   3.238
 3800TIP3    H211407   0.367   4.040   3.089
 3801TIP3   OH211408   5.178   1.911   1.155
 3801TIP3    H111409   5.219   1.830   1.185
 3801TIP3    H211410   5.095   1.916   1.204
 3802TIP3   OH211411   4.177   2.019   0.348
 3802TIP3    H111412   4.264   2.027   0.388
 3802TIP3    H211413   4.126   1.969   0.412
 3803TIP3   OH211414   2.916   0.315   3.176
 3803TIP3    H111415   2.947   0.225   3.178
 3803TIP3    H211416   2.900   0.338   3.268
 3804TIP3   OH211417   4.193   3.823   0.503
 3804TIP3    H111418   4.116   3.792   0.551
 3804TIP3    H211419   4.262   3.761   0.526
 3805TIP3   OH211420   3.263   4.266   1.203
 3805TIP3    H111421   3.306   4.265   1.288
 3805TIP3    H211422   3.298   4.190   1.157
 3806TIP3   OH211423   4.337   4.880   4.739
 3806TIP3    H111424   4.346   4.836   4.823
 3806TIP3    H211425   4.302   4.967   4.760
 3807TIP3   OH211426   2.641   4.984   2.355
 3807TIP3    H111427   2.573   5.048   2.335
 3807TIP3    H211428   2.711   5.035   2.396
 3808TIP3   OH211429   6.261   5.024   4.651
 3808TIP3    H111430   6.349   4.987   4.637
 3808TIP3    H211431   6.231   4.984   4.732
 3809TIP3   OH211432   3.905   4.495   3.503
 3809TIP3    H111433   3.898   4.411   3.457
 3809TIP3    H211434   3.836   4.492   3.570
 3810TIP3   OH211435   5.229   4.132   4.703
 3810TIP3    H111436   5.168   4.063   4.726
 3810TIP3    H211437   5.215   4.147   4.609
 3811TIP3   OH211438   1.758   3.031   1.103
 3811TIP3    H111439   1.817   2.975   1.154
 3811TIP3    H211440   1.778   3.010   1.012
 3812TIP3   OH211441   2.624   0.210   2.360
 3812TIP3    H111442   2.676   0.136   2.392
 3812TIP3    H211443   2.671   0.241   2.283
 3813TIP3   OH211444   5.232   3.091   1.535
 3813TIP3    H111445   5.154   3.108   1.482
 3813TIP3    H211446   5.305   3.100   1.473
 3814TIP3   OH211447   5.158   1.649   4.232
 3814TIP3    H111448   5.143   1.562   4.269
 3814TIP3    H211449   5.077   1.696   4.248
 3815TIP3   OH211450   4.483   3.868   3.972
 3815TIP3    H111451   4.489   3.847   4.065
 3815TIP3    H211452   4.572   3.861   3.939
 3816TIP3   OH211453   4.758   1.680   0.911
 3816TIP3    H111454   4.708   1.670   0.992
 3816TIP3    H211455   4.705   1.737   0.857
 3817TIP3   OH211456   1.112   0.802   2.628
 3817TIP3    H111457   1.135   0.881   2.581
 3817TIP3    H211458   1.188   0.785   2.685
 3818TIP3   OH211459   4.582   2.283   2.743
 3818TIP3    H111460   4.562   2.300   2.835
 3818TIP3    H211461   4.517   2.333   2.694
 3819TIP3   OH211462   1.039   0.899   3.468
 3819TIP3    H111463   1.099   0.972   3.482
 3819TIP3    H211464   0.996   0.886   3.553
 3820TIP3   OH211465   3.461   1.183   0.499
 3820TIP3    H111466   3.523   1.137   0.442
 3820TIP3    H211467   3.412   1.239   0.440
 3821TIP3   OH211468   1.739   5.171   0.491
 3821TIP3    H111469   1.665   5.145   0.436
 3821TIP3    H211470   1.790   5.231   0.436
 3822TIP3   OH211471   6.279   3.508   0.313
 3822TIP3    H111472   6.344   3.494   0.245
 3822TIP3    H211473   6.230   3.585   0.285
 3823TIP3   OH211474   3.497   5.721   2.477
 3823TIP3    H111475   3.551   5.795   2.448
 3823TIP3    H211476   3.423   5.719   2.417
 3824TIP3   OH211477   1.777   4.840   1.488
 3824TIP3    H111478   1.723   4.918   1.478
 3824TIP3    H211479   1.865   4.868   1.462
 3825TIP3   OH211480   2.376   3.207   2.628
 3825TIP3    H111481   2.288   3.219   2.592
 3825TIP3    H211482   2.375   3.256   2.710
 3826TIP3   OH211483   3.929   3.093   1.564
 3826TIP3    H111484   3.867   3.042   1.616
 3826TIP3    H211485   3.878   3.122   1.488
 3827TIP3   OH211486   1.918   5.172   4.911
 3827TIP3    H111487   1.926   5.227   4.988
 3827TIP3    H211488   1.830   5.188   4.878
 3828TIP3   OH211489   2.944   0.073   0.671
 3828TIP3    H111490   3.024   0.041   0.627
 3828TIP3    H211491   2.873   0.048   0.611
 3829TIP3   OH211492   4.124   2.031   3.162
 3829TIP3    H111493   4.075   2.012   3.242
 3829TIP3    H211494   4.216   2.012   3.185
 3830TIP3   OH211495   2.197   1.758   4.557
 3830TIP3    H111496   2.183   1.818   4.630
 3830TIP3    H211497   2.170   1.807   4.480
 3831TIP3   OH211498   5.330   2.310   2.951
 3831TIP3    H111499   5.253   2.346   2.995
 3831TIP3    H211500   5.300   2.291   2.863
 3832TIP3   OH211501   1.311   0.439   2.903
 3832TIP3    H111502   1.230   0.451   2.853
 3832TIP3    H211503   1.366   0.385   2.846
 3833TIP3   OH211504   1.410   1.435   1.500
 3833TIP3    H111505   1.374   1.373   1.564
 3833TIP3    H211506   1.445   1.507   1.553
 3834TIP3   OH211507   1.062   5.530   0.988
 3834TIP3    H111508   1.157   5.521   0.999
 3834TIP3    H211509   1.027   5.448   1.021
 3835TIP3   OH211510   2.680   0.913   4.099
 3835TIP3    H111511   2.712   0.975   4.166
 3835TIP3    H211512   2.611   0.864   4.143
 3836TIP3   OH211513   6.079   1.780   2.576
 3836TIP3    H111514   5.999   1.800   2.625
 3836TIP3    H211515   6.080   1.684   2.572
 3837TIP3   OH211516   0.445   0.834   2.365
 3837TIP3    H111517   0.415   0.872   2.282
 3837TIP3    H211518   0.458   0.909   2.423
 3838TIP3   OH211519   0.258   4.666   2.335
 3838TIP3    H111520   0.184   4.652   2.394
 3838TIP3    H211521   0.242   4.608   2.260
 3839TIP3   OH211522   5.355   0.189   1.093
 3839TIP3    H111523   5.330   0.116   1.037
 3839TIP3    H211524   5.329   0.163   1.181
 3840TIP3   OH211525   5.966   4.408   0.939
 3840TIP3    H111526   5.899   4.476   0.949
 3840TIP3    H211527   6.033   4.431   1.003
 3841TIP3   OH211528   0.257   4.658   0.630
 3841TIP3    H111529   0.338   4.710   0.627
 3841TIP3    H211530   0.278   4.584   0.686
 3842TIP3   OH211531   4.519   5.217   5.143
 3842TIP3    H111532   4.510   5.164   5.222
 3842TIP3    H211533   4.546   5.303   5.175
 3843TIP3   OH211534   4.749   0.070   3.678
 3843TIP3    H111535   4.806  -0.007   3.674
 3843TIP3    H211536   4.695   0.056   3.756
 3844TIP3   OH211537   1.998   0.944   2.248
 3844TIP3    H111538   2.027   0.872   2.191
 3844TIP3    H211539   1.908   0.920   2.273
 3845TIP3   OH211540   0.502   0.676   1.005
 3845TIP3    H111541   0.465   0.664   0.918
 3845TIP3    H211542   0.546   0.594   1.024
 3846TIP3   OH211543   2.636   4.138   3.294
 3846TIP3    H111544   2.651   4.124   3.201
 3846TIP3    H211545   2.541   4.129   3.304
 3847TIP3   OH211546   3.126   5.114   3.318
 3847TIP3    H111547   3.081   5.112   3.233
 3847TIP3    H211548   3.171   5.029   3.323
 3848TIP3   OH211549   4.700   3.428   2.970
 3848TIP3    H111550   4.747   3.345   2.980
 3848TIP3    H211551   4.674   3.451   3.059
 3849TIP3   OH211552   1.478   2.940   0.522
 3849TIP3    H111553   1.426   2.993   0.583
 3849TIP3    H211554   1.486   2.994   0.444
 3850TIP3   OH211555   2.337   1.621   0.701
 3850TIP3    H111556   2.314   1.545   0.754
 3850TIP3    H211557   2.285   1.612   0.621
 3851TIP3   OH211558   0.304   2.662   0.244
 3851TIP3    H111559   0.374   2.596   0.245
 3851TIP3    H211560   0.317   2.709   0.162
 3852TIP3   OH211561   3.281   5.821   4.525
 3852TIP3    H111562   3.229   5.789   4.451
 3852TIP3    H211563   3.362   5.771   4.520
 3853TIP3   OH211564   0.409   1.593   1.975
 3853TIP3    H111565   0.465   1.651   1.923
 3853TIP3    H211566   0.404   1.636   2.060
 3854TIP3   OH211567   5.596   2.423   4.353
 3854TIP3    H111568   5.591   2.475   4.273
 3854TIP3    H211569   5.610   2.333   4.323
 3855TIP3   OH211570   0.234   5.244   3.213
 3855TIP3    H111571   0.227   5.152   3.237
 3855TIP3    H211572   0.145   5.278   3.222
 3856TIP3   OH211573   4.111   2.843   2.535
 3856TIP3    H111574   4.060   2.772   2.497
 3856TIP3    H211575   4.046   2.910   2.556
 3857TIP3   OH211576   2.370   0.965   3.155
 3857TIP3    H111577   2.400   1.015   3.079
 3857TIP3    H211578   2.445   0.967   3.216
 3858TIP3   OH211579   4.762   1.113   5.062
 3858TIP3    H111580   4.787   1.022   5.078
 3858TIP3    H211581   4.713   1.139   5.139
 3859TIP3   OH211582   4.638   1.619   0.548
 3859TIP3    H111583   4.607   1.674   0.476
 3859TIP3    H211584   4.562   1.567   0.573
 3860TIP3   OH211585   2.797   1.599   0.040
 3860TIP3    H111586   2.838   1.600   0.127
 3860TIP3    H211587   2.708   1.565   0.056
 3861TIP3   OH211588   3.304   5.314   3.195
 3861TIP3    H111589   3.255   5.238   3.226
 3861TIP3    H211590   3.244   5.359   3.135
 3862TIP3   OH211591   0.950   2.504   2.255
 3862TIP3    H111592   0.981   2.421   2.290
 3862TIP3    H211593   0.873   2.526   2.308
 3863TIP3   OH211594   3.761   0.565   4.051
 3863TIP3    H111595   3.759   0.471   4.067
 3863TIP3    H211596   3.822   0.600   4.115
 3864TIP3   OH211597   1.497   1.764   3.688
 3864TIP3    H111598   1.548   1.845   3.700
 3864TIP3    H211599   1.466   1.769   3.597
 3865TIP3   OH211600   4.231   3.602   3.810
 3865TIP3    H111601   4.153   3.556   3.839
 3865TIP3    H211602   4.209   3.695   3.817
 3866TIP3   OH211603   2.780   1.600   2.952
 3866TIP3    H111604   2.740   1.549   2.882
 3866TIP3    H211605   2.775   1.691   2.922
 3867TIP3   OH211606   1.525   5.205   0.932
 3867TIP3    H111607   1.571   5.130   0.895
 3867TIP3    H211608   1.592   5.272   0.940
 3868TIP3   OH211609   2.509   2.499   3.534
 3868TIP3    H111610   2.522   2.479   3.627
 3868TIP3    H211611   2.596   2.523   3.502
 3869TIP3   OH211612   3.476   2.735   1.950
 3869TIP3    H111613   3.399   2.678   1.959
 3869TIP3    H211614   3.517   2.709   1.868
 3870TIP3   OH211615   6.215   0.770   1.674
 3870TIP3    H111616   6.246   0.729   1.755
 3870TIP3    H211617   6.205   0.698   1.612
 3871TIP3   OH211618   0.225   1.283   1.419
 3871TIP3    H111619   0.225   1.331   1.336
 3871TIP3    H211620   0.143   1.307   1.461
 3872TIP3   OH211621   2.875   2.091   0.959
 3872TIP3    H111622   2.896   2.164   0.900
 3872TIP3    H211623   2.960   2.062   0.992
 3873TIP3   OH211624   5.787   1.513   3.466
 3873TIP3    H111625   5.814   1.603   3.449
 3873TIP3    H211626   5.698   1.520   3.502
 3874TIP3   OH211627   1.306   0.595   4.057
 3874TIP3    H111628   1.317   0.686   4.030
 3874TIP3    H211629   1.345   0.544   3.987
 3875TIP3   OH211630   2.069   5.380   0.076
 3875TIP3    H111631   2.110   5.444   0.018
 3875TIP3    H211632   2.115   5.298   0.059
 3876TIP3   OH211633   0.030   3.803   3.323
 3876TIP3    H111634   0.047   3.824   3.231
 3876TIP3    H211635   0.032   3.707   3.326
 3877TIP3   OH211636   5.615   5.601   2.497
 3877TIP3    H111637   5.608   5.533   2.430
 3877TIP3    H211638   5.662   5.673   2.454
 3878TIP3   OH211639   4.083   1.885   2.959
 3878TIP3    H111640   4.110   1.920   3.044
 3878TIP3    H211641   4.164   1.883   2.907
 3879TIP3   OH211642   3.552   3.403   3.464
 3879TIP3    H111643   3.463   3.437   3.477
 3879TIP3    H211644   3.594   3.468   3.408
 3880TIP3   OH211645   3.043   2.487   2.140
 3880TIP3    H111646   3.056   2.407   2.090
 3880TIP3    H211647   3.113   2.487   2.205
 3881TIP3   OH211648   1.646   4.995   3.841
 3881TIP3    H111649   1.604   4.911   3.862
 3881TIP3    H211650   1.721   4.999   3.900
 3882TIP3   OH211651   4.507   3.844   0.490
 3882TIP3    H111652   4.567   3.824   0.418
 3882TIP3    H211653   4.432   3.887   0.448
 3883TIP3   OH211654   2.576   0.850   1.005
 3883TIP3    H111655   2.641   0.897   1.057
 3883TIP3    H211656   2.628   0.796   0.945
 3884TIP3   OH211657   6.207   4.160   2.658
 3884TIP3    H111658   6.247   4.099   2.596
 3884TIP3    H211659   6.131   4.195   2.612
 3885TIP3   OH211660   3.793   2.906   3.710
 3885TIP3    H111661   3.847   2.896   3.632
 3885TIP3    H211662   3.833   2.848   3.774
 3886TIP3   OH211663   1.473   3.100   2.393
 3886TIP3    H111664   1.473   3.032   2.326
 3886TIP3    H211665   1.543   3.159   2.367
 3887TIP3   OH211666   6.326   4.435   0.893
 3887TIP3    H111667   6.276   4.448   0.974
 3887TIP3    H211668   6.310   4.343   0.871
 3888TIP3   OH211669   2.023   1.487   2.314
 3888TIP3    H111670   1.968   1.411   2.295
 3888TIP3    H211671   2.062   1.510   2.230
 3889TIP3   OH211672   5.291   2.961   0.717
 3889TIP3    H111673   5.367   3.017   0.728
 3889TIP3    H211674   5.320   2.874   0.744
 3890TIP3   OH211675   2.646   4.702   5.119
 3890TIP3    H111676   2.742   4.699   5.126
 3890TIP3    H211677   2.615   4.661   5.200
 3891TIP3   OH211678   2.696   1.358   2.334
 3891TIP3    H111679   2.730   1.441   2.367
 3891TIP3    H211680   2.607   1.353   2.368
 3892TIP3   OH211681   3.315   3.236   2.322
 3892TIP3    H111682   3.231   3.278   2.307
 3892TIP3    H211683   3.380   3.302   2.296
 3893TIP3   OH211684   4.148   2.697   3.389
 3893TIP3    H111685   4.181   2.781   3.358
 3893TIP3    H211686   4.100   2.661   3.314
 3894TIP3   OH211687   2.389   4.335   3.513
 3894TIP3    H111688   2.303   4.343   3.553
 3894TIP3    H211689   2.371   4.312   3.422
 3895TIP3   OH211690   0.358   2.866   1.473
 3895TIP3    H111691   0.430   2.804   1.457
 3895TIP3    H211692   0.300   2.821   1.534
 3896TIP3   OH211693   2.847   4.826   2.238
 3896TIP3    H111694   2.872   4.891   2.172
 3896TIP3    H211695   2.760   4.853   2.266
 3897TIP3   OH211696   2.341   2.673   0.112
 3897TIP3    H111697   2.345   2.720   0.195
 3897TIP3    H211698   2.345   2.741   0.045
 3898TIP3   OH211699   5.802   5.601   4.966
 3898TIP3    H111700   5.710   5.575   4.962
 3898TIP3    H211701   5.837   5.553   5.041
 3899TIP3   OH211702   5.949   2.896   0.888
 3899TIP3    H111703   5.976   2.808   0.864
 3899TIP3    H211704   5.903   2.929   0.811
 3900TIP3   OH211705   0.423   1.568   1.400
 3900TIP3    H111706   0.442   1.500   1.464
 3900TIP3    H211707   0.381   1.523   1.328
 3901TIP3   OH211708   3.761   4.099   0.120
 3901TIP3    H111709   3.747   4.194   0.128
 3901TIP3    H211710   3.810   4.090   0.038
 3902TIP3   OH211711   5.713   5.469   3.896
 3902TIP3    H111712   5.791   5.497   3.848
 3902TIP3    H211713   5.709   5.527   3.972
 3903TIP3   OH211714   4.784   0.727   3.609
 3903TIP3    H111715   4.735   0.809   3.618
 3903TIP3    H211716   4.867   0.744   3.653
 3904TIP3   OH211717   2.055   3.721   4.765
 3904TIP3    H111718   2.129   3.691   4.817
 3904TIP3    H211719   2.085   3.803   4.726
 3905TIP3   OH211720   2.680   3.791   1.356
 3905TIP3    H111721   2.690   3.804   1.262
 3905TIP3    H211722   2.746   3.847   1.396
 3906TIP3   OH211723   3.445   1.569   2.890
 3906TIP3    H111724   3.444   1.499   2.825
 3906TIP3    H211725   3.531   1.609   2.881
 3907TIP3   OH211726   6.156   1.863   1.988
 3907TIP3    H111727   6.174   1.935   2.050
 3907TIP3    H211728   6.218   1.795   2.012
 3908TIP3   OH211729   0.992   4.219   3.997
 3908TIP3    H111730   0.973   4.158   3.925
 3908TIP3    H211731   0.907   4.253   4.023
 3909TIP3   OH211732   0.849   0.447   0.354
 3909TIP3    H111733   0.851   0.542   0.337
 3909TIP3    H211734   0.832   0.440   0.448
 3910TIP3   OH211735   5.071   1.310   3.998
 3910TIP3    H111736   5.047   1.349   3.914
 3910TIP3    H211737   5.165   1.294   3.992
 3911TIP3   OH211738   1.970   0.297   3.477
 3911TIP3    H111739   1.958   0.369   3.415
 3911TIP3    H211740   1.992   0.340   3.559
 3912TIP3   OH211741   5.473   2.625   0.554
 3912TIP3    H111742   5.546   2.655   0.500
 3912TIP3    H211743   5.395   2.641   0.500
 3913TIP3   OH211744   0.847   3.592   1.499
 3913TIP3    H111745   0.859   3.667   1.441
 3913TIP3    H211746   0.805   3.526   1.444
 3914TIP3   OH211747   3.000   5.213   2.399
 3914TIP3    H111748   2.965   5.244   2.483
 3914TIP3    H211749   2.934   5.238   2.335
 3915TIP3   OH211750   0.654   3.831   2.951
 3915TIP3    H111751   0.704   3.818   2.871
 3915TIP3    H211752   0.590   3.899   2.929
 3916TIP3   OH211753   2.270   0.752   4.897
 3916TIP3    H111754   2.225   0.701   4.963
 3916TIP3    H211755   2.282   0.838   4.937
 3917TIP3   OH211756   0.703   3.857   0.785
 3917TIP3    H111757   0.729   3.917   0.716
 3917TIP3    H211758   0.784   3.841   0.834
 3918TIP3   OH211759   4.774   2.982   4.603
 3918TIP3    H111760   4.826   3.001   4.681
 3918TIP3    H211761   4.685   2.967   4.636
 3919TIP3   OH211762   2.287   2.329   2.902
 3919TIP3    H111763   2.311   2.277   2.980
 3919TIP3    H211764   2.288   2.266   2.830
 3920TIP3   OH211765   2.726   5.818   3.662
 3920TIP3    H111766   2.637   5.796   3.637
 3920TIP3    H211767   2.772   5.834   3.579
 3921TIP3   OH211768   3.982   2.518   0.329
 3921TIP3    H111769   4.048   2.486   0.390
 3921TIP3    H211770   4.030   2.571   0.266
 3922TIP3   OH211771   1.808   5.330   1.201
 3922TIP3    H111772   1.747   5.260   1.179
 3922TIP3    H211773   1.802   5.391   1.127
 3923TIP3   OH211774   2.374   0.509   0.184
 3923TIP3    H111775   2.351   0.477   0.096
 3923TIP3    H211776   2.436   0.581   0.167
 3924TIP3   OH211777   5.622   5.407   2.296
 3924TIP3    H111778   5.701   5.419   2.245
 3924TIP3    H211779   5.564   5.355   2.240
 3925TIP3   OH211780   2.605   0.927   3.298
 3925TIP3    H111781   2.610   1.008   3.350
 3925TIP3    H211782   2.662   0.866   3.345
 3926TIP3   OH211783   2.034   5.794   4.879
 3926TIP3    H111784   2.062   5.710   4.913
 3926TIP3    H211785   2.103   5.855   4.905
 3927TIP3   OH211786   6.258   2.552   1.443
 3927TIP3    H111787   6.236   2.582   1.531
 3927TIP3    H211788   6.174   2.531   1.403
 3928TIP3   OH211789   6.042   1.882   0.775
 3928TIP3    H111790   5.953   1.902   0.745
 3928TIP3    H211791   6.093   1.959   0.749
 3929TIP3   OH211792   6.288   1.277   0.606
 3929TIP3    H111793   6.223   1.281   0.536
 3929TIP3    H211794   6.370   1.307   0.565
 3930TIP3   OH211795   0.618   1.533   4.622
 3930TIP3    H111796   0.639   1.614   4.576
 3930TIP3    H211797   0.619   1.557   4.715
 3931TIP3   OH211798   3.427   1.039   0.121
 3931TIP3    H111799   3.335   1.062   0.108
 3931TIP3    H211800   3.441   0.962   0.066
 3932TIP3   OH211801   4.048   5.813   3.713
 3932TIP3    H111802   4.138   5.829   3.742
 3932TIP3    H211803   4.023   5.893   3.667
 3933TIP3   OH211804   5.635   1.674   4.390
 3933TIP3    H111805   5.670   1.724   4.464
 3933TIP3    H211806   5.541   1.686   4.396
 3934TIP3   OH211807   0.305   3.852   1.277
 3934TIP3    H111808   0.277   3.764   1.299
 3934TIP3    H211809   0.397   3.856   1.304
 3935TIP3   OH211810   2.757   4.246   0.332
 3935TIP3    H111811   2.782   4.311   0.266
 3935TIP3    H211812   2.715   4.298   0.401
 3936TIP3   OH211813   0.591   0.311   0.875
 3936TIP3    H111814   0.521   0.293   0.811
 3936TIP3    H211815   0.554   0.285   0.959
 3937TIP3   OH211816   2.555   0.901   4.745
 3937TIP3    H111817   2.486   0.954   4.786
 3937TIP3    H211818   2.531   0.898   4.652
 3938TIP3   OH211819   0.555   0.028   2.642
 3938TIP3    H111820   0.640  -0.007   2.616
 3938TIP3    H211821   0.569   0.122   2.650
 3939TIP3   OH211822   5.548   1.143   4.023
 3939TIP3    H111823   5.588   1.087   4.090
 3939TIP3    H211824   5.570   1.099   3.940
 3940TIP3   OH211825   0.312   3.633   0.480
 3940TIP3    H111826   0.231   3.681   0.467
 3940TIP3    H211827   0.315   3.616   0.574
 3941TIP3   OH211828   5.842   2.297   0.781
 3941TIP3    H111829   5.787   2.337   0.847
 3941TIP3    H211830   5.916   2.260   0.830
 3942TIP3   OH211831   3.751   3.169   0.916
 3942TIP3    H111832   3.721   3.120   0.993
 3942TIP3    H211833   3.701   3.132   0.843
 3943TIP3   OH211834   4.951   1.260   1.240
 3943TIP3    H111835   4.939   1.267   1.335
 3943TIP3    H211836   4.923   1.171   1.219
 3944TIP3   OH211837   0.559   5.730   4.500
 3944TIP3    H111838   0.517   5.767   4.578
 3944TIP3    H211839   0.636   5.784   4.487
 3945TIP3   OH211840   5.724   4.762   4.940
 3945TIP3    H111841   5.712   4.677   4.897
 3945TIP3    H211842   5.746   4.822   4.868
 3946TIP3   OH211843   5.010   0.062   3.305
 3946TIP3    H111844   4.954   0.139   3.297
 3946TIP3    H211845   5.067   0.066   3.228
 3947TIP3   OH211846   2.124   1.701   4.852
 3947TIP3    H111847   2.133   1.748   4.934
 3947TIP3    H211848   2.117   1.609   4.878
 3948TIP3   OH211849   6.163   1.527   2.507
 3948TIP3    H111850   6.136   1.501   2.419
 3948TIP3    H211851   6.235   1.467   2.529
 3949TIP3   OH211852   3.818   0.836   1.476
 3949TIP3    H111853   3.735   0.879   1.458
 3949TIP3    H211854   3.868   0.842   1.395
 3950TIP3   OH211855   5.583   3.865   2.327
 3950TIP3    H111856   5.526   3.878   2.252
 3950TIP3    H211857   5.629   3.949   2.337
 3951TIP3   OH211858   1.845   4.480   4.505
 3951TIP3    H111859   1.903   4.510   4.575
 3951TIP3    H211860   1.845   4.552   4.442
 3952TIP3   OH211861   5.925   2.938   4.754
 3952TIP3    H111862   5.949   2.924   4.845
 3952TIP3    H211863   5.899   3.030   4.750
 3953TIP3   OH211864   1.838   3.117   4.831
 3953TIP3    H111865   1.821   3.058   4.757
 3953TIP3    H211866   1.920   3.084   4.869
 3954TIP3   OH211867   0.042   0.375   4.187
 3954TIP3    H111868   0.121   0.321   4.189
 3954TIP3    H211869  -0.021   0.326   4.240
 3955TIP3   OH211870   0.661   3.665   2.067
 3955TIP3    H111871   0.675   3.727   1.995
 3955TIP3    H211872   0.686   3.714   2.146
 3956TIP3   OH211873   4.563   3.757   1.021
 3956TIP3    H111874   4.488   3.816   1.020
 3956TIP3    H211875   4.537   3.684   0.964
 3957TIP3   OH211876   1.710   3.976   3.723
 3957TIP3    H111877   1.801   4.004   3.707
 3957TIP3    H211878   1.707   3.885   3.694
 3958TIP3   OH211879   1.748   0.481   1.463
 3958TIP3    H111880   1.694   0.560   1.473
 3958TIP3    H211881   1.812   0.503   1.396
 3959TIP3   OH211882   2.636   1.453   2.753
 3959TIP3    H111883   2.632   1.382   2.690
 3959TIP3    H211884   2.546   1.460   2.786
 3960TIP3   OH211885   1.567   0.201   0.675
 3960TIP3    H111886   1.560   0.161   0.762
 3960TIP3    H211887   1.607   0.133   0.621
 3961TIP3   OH211888   4.137   4.167   0.786
 3961TIP3    H111889   4.120   4.259   0.767
 3961TIP3    H211890   4.054   4.122   0.771
 3962TIP3   OH211891   3.392   0.102   4.410
 3962TIP3    H111892   3.345   0.166   4.357
 3962TIP3    H211893   3.469   0.150   4.442
 3963TIP3   OH211894   5.749   2.072   3.445
 3963TIP3    H111895   5.781   2.026   3.368
 3963TIP3    H211896   5.704   2.005   3.497
 3964TIP3   OH211897   6.125   3.873   1.052
 3964TIP3    H111898   6.172   3.859   0.970
 3964TIP3    H211899   6.183   3.930   1.103
 3965TIP3   OH211900   5.250   2.450   2.251
 3965TIP3    H111901   5.155   2.444   2.244
 3965TIP3    H211902   5.265   2.487   2.338
 3966TIP3   OH211903   6.083   1.535   4.158
 3966TIP3    H111904   6.090   1.604   4.224
 3966TIP3    H211905   6.011   1.562   4.102
 3967TIP3   OH211906   3.157   3.130   3.237
 3967TIP3    H111907   3.247   3.097   3.232
 3967TIP3    H211908   3.149   3.167   3.325
 3968TIP3   OH211909   4.789   2.923   0.984
 3968TIP3    H111910   4.855   2.911   0.915
 3968TIP3    H211911   4.713   2.875   0.953
 3969TIP3   OH211912   2.655  -0.004   2.771
 3969TIP3    H111913   2.601   0.069   2.802
 3969TIP3    H211914   2.730  -0.004   2.830
 3970TIP3   OH211915   3.307   2.968   3.435
 3970TIP3    H111916   3.331   2.918   3.514
 3970TIP3    H211917   3.349   3.053   3.447
 3971TIP3   OH211918   1.205   3.910   2.059
 3971TIP3    H111919   1.222   3.915   2.153
 3971TIP3    H211920   1.262   3.840   2.029
 3972TIP3   OH211921   0.147   2.824   1.037
 3972TIP3    H111922   0.234   2.797   1.009
 3972TIP3    H211923   0.158   2.852   1.128
 3973TIP3   OH211924   3.861   1.902   2.839
 3973TIP3    H111925   3.817   1.984   2.860
 3973TIP3    H211926   3.942   1.903   2.890
 3974TIP3   OH211927   2.149   5.428   4.458
 3974TIP3    H111928   2.064   5.457   4.424
 3974TIP3    H211929   2.131   5.406   4.550
 3975TIP3   OH211930   1.624   1.362   0.820
 3975TIP3    H111931   1.630   1.392   0.910
 3975TIP3    H211932   1.652   1.270   0.823
 3976TIP3   OH211933   1.290   2.639   1.578
 3976TIP3    H111934   1.275   2.599   1.664
 3976TIP3    H211935   1.276   2.568   1.516
 3977TIP3   OH211936   1.106   2.196   0.700
 3977TIP3    H111937   1.035   2.134   0.683
 3977TIP3    H211938   1.091   2.267   0.637
 3978TIP3   OH211939   4.702   1.772   4.444
 3978TIP3    H111940   4.652   1.802   4.519
 3978TIP3    H211941   4.638   1.729   4.387
 3979TIP3   OH211942   4.193   2.805   1.507
 3979TIP3    H111943   4.231   2.833   1.590
 3979TIP3    H211944   4.130   2.737   1.530
 3980TIP3   OH211945   2.646   3.171   3.434
 3980TIP3    H111946   2.739   3.181   3.457
 3980TIP3    H211947   2.622   3.085   3.468
 3981TIP3   OH211948   5.928   0.988   2.016
 3981TIP3    H111949   5.960   0.899   2.001
 3981TIP3    H211950   5.836   0.976   2.039
 3982TIP3   OH211951   5.203   5.521   0.645
 3982TIP3    H111952   5.285   5.476   0.664
 3982TIP3    H211953   5.216   5.559   0.558
 3983TIP3   OH211954   3.649   4.648   4.202
 3983TIP3    H111955   3.659   4.742   4.219
 3983TIP3    H211956   3.623   4.643   4.110
 3984TIP3   OH211957   4.722   1.346   1.086
 3984TIP3    H111958   4.802   1.320   1.132
 3984TIP3    H211959   4.751   1.369   0.998
 3985TIP3   OH211960   4.314   5.091   3.981
 3985TIP3    H111961   4.381   5.044   3.932
 3985TIP3    H211962   4.355   5.113   4.065
 3986TIP3   OH211963   3.042   0.009   4.294
 3986TIP3    H111964   3.102   0.010   4.219
 3986TIP3    H211965   3.056   0.094   4.336
 3987TIP3   OH211966   0.708   1.892   0.440
 3987TIP3    H111967   0.622   1.865   0.474
 3987TIP3    H211968   0.739   1.816   0.390
 3988TIP3   OH211969   2.017   3.901   1.704
 3988TIP3    H111970   1.986   3.859   1.784
 3988TIP3    H211971   2.026   3.994   1.728
 3989TIP3   OH211972   3.392   1.194   2.265
 3989TIP3    H111973   3.410   1.279   2.224
 3989TIP3    H211974   3.478   1.153   2.272
 3990TIP3   OH211975   0.135   3.629   1.270
 3990TIP3    H111976   0.042   3.621   1.246
 3990TIP3    H211977   0.137   3.613   1.364
 3991TIP3   OH211978   4.016   1.741   1.276
 3991TIP3    H111979   4.043   1.733   1.184
 3991TIP3    H211980   3.931   1.697   1.281
 3992TIP3   OH211981   3.461   1.278   4.469
 3992TIP3    H111982   3.437   1.355   4.520
 3992TIP3    H211983   3.425   1.294   4.382
 3993TIP3   OH211984   0.367   5.477   2.595
 3993TIP3    H111985   0.450   5.460   2.550
 3993TIP3    H211986   0.380   5.561   2.640
 3994TIP3   OH211987   1.941   0.496   2.791
 3994TIP3    H111988   1.873   0.534   2.736
 3994TIP3    H211989   1.984   0.430   2.736
 3995TIP3   OH211990   0.486   1.029   4.613
 3995TIP3    H111991   0.555   1.081   4.653
 3995TIP3    H211992   0.465   0.962   4.678
 3996TIP3   OH211993   0.171   0.301   1.572
 3996TIP3    H111994   0.114   0.225   1.563
 3996TIP3    H211995   0.131   0.367   1.516
 3997TIP3   OH211996   0.815   4.336   3.546
 3997TIP3    H111997   0.782   4.289   3.623
 3997TIP3    H211998   0.755   4.410   3.535
 3998TIP3   OH211999   1.896   5.197   2.121
 3998TIP3    H112000   1.814   5.163   2.155
 3998TIP3    H212001   1.900   5.288   2.152
 3999TIP3   OH212002   1.089   5.533   3.833
 3999TIP3    H112003   1.142   5.453   3.840
 3999TIP3    H212004   1.000   5.504   3.852
 4000TIP3   OH212005   4.875   3.574   0.814
 4000TIP3    H112006   4.899   3.556   0.905
 4000TIP3    H212007   4.943   3.634   0.783
 4001TIP3   OH212008   1.350   4.166   4.806
 4001TIP3    H112009   1.360   4.190   4.898
 4001TIP3    H212010   1.284   4.097   4.806
 4002TIP3   OH212011   3.417   0.907   2.811
 4002TIP3    H112012   3.436   0.968   2.741
 4002TIP3    H212013   3.330   0.931   2.843
 4003TIP3   OH212014   3.638   0.340   5.144
 4003TIP3    H112015   3.655   0.253   5.109
 4003TIP3    H212016   3.724   0.373   5.170
 4004TIP3   OH212017   4.014   1.962   4.974
 4004TIP3    H112018   3.929   1.971   5.017
 4004TIP3    H212019   4.050   1.881   5.010
 4005TIP3   OH212020   3.115   4.829   1.134
 4005TIP3    H112021   3.047   4.767   1.105
 4005TIP3    H212022   3.163   4.782   1.202
 4006TIP3   OH212023   2.422   2.753   3.444
 4006TIP3    H112024   2.437   2.730   3.352
 4006TIP3    H212025   2.425   2.669   3.490
 4007TIP3   OH212026   0.510   3.343   0.135
 4007TIP3    H112027   0.598   3.327   0.167
 4007TIP3    H212028   0.478   3.417   0.188
 4008TIP3   OH212029   1.454   1.190   3.042
 4008TIP3    H112030   1.450   1.285   3.046
 4008TIP3    H212031   1.544   1.168   3.067
 4009TIP3   OH212032   6.126   5.610   3.631
 4009TIP3    H112033   6.050   5.600   3.574
 4009TIP3    H212034   6.169   5.690   3.599
 4010TIP3   OH212035   2.082   2.680   2.949
 4010TIP3    H112036   2.040   2.597   2.925
 4010TIP3    H212037   2.175   2.664   2.937
 4011TIP3   OH212038   6.249   4.740   3.553
 4011TIP3    H112039   6.153   4.747   3.561
 4011TIP3    H212040   6.265   4.741   3.458
 4012TIP3   OH212041   1.073   0.592   2.847
 4012TIP3    H112042   1.099   0.603   2.939
 4012TIP3    H212043   1.066   0.682   2.814
 4013TIP3   OH212044   5.044   1.567   1.456
 4013TIP3    H112045   5.066   1.498   1.518
 4013TIP3    H212046   5.078   1.647   1.495
 4014TIP3   OH212047   3.903   4.987   2.378
 4014TIP3    H112048   3.979   4.985   2.319
 4014TIP3    H212049   3.828   5.005   2.320
 4015TIP3   OH212050   2.836   0.025   2.957
 4015TIP3    H112051   2.903   0.092   2.973
 4015TIP3    H212052   2.863  -0.050   3.011
 4016TIP3   OH212053   3.016   4.510   1.452
 4016TIP3    H112054   2.923   4.501   1.472
 4016TIP3    H212055   3.027   4.469   1.367
 4017TIP3   OH212056   5.617   3.018   5.057
 4017TIP3    H112057   5.578   3.033   4.971
 4017TIP3    H212058   5.650   2.928   5.053
 4018TIP3   OH212059   5.226   0.535   4.649
 4018TIP3    H112060   5.173   0.582   4.585
 4018TIP3    H212061   5.266   0.603   4.702
 4019TIP3   OH212062   4.705   3.150   0.687
 4019TIP3    H112063   4.774   3.171   0.624
 4019TIP3    H212064   4.657   3.078   0.646
 4020TIP3   OH212065   2.350   1.983   0.485
 4020TIP3    H112066   2.352   1.918   0.415
 4020TIP3    H212067   2.347   1.932   0.566
 4021TIP3   OH212068   3.668   1.705   1.233
 4021TIP3    H112069   3.689   1.612   1.222
 4021TIP3    H212070   3.668   1.719   1.327
 4022TIP3   OH212071   6.305   4.711   3.282
 4022TIP3    H112072   6.392   4.672   3.291
 4022TIP3    H212073   6.315   4.774   3.211
 4023TIP3   OH212074   3.862   1.594   0.488
 4023TIP3    H112075   3.834   1.644   0.412
 4023TIP3    H212076   3.838   1.503   0.467
 4024TIP3   OH212077   4.087   5.366   3.538
 4024TIP3    H112078   4.090   5.380   3.443
 4024TIP3    H212079   3.994   5.368   3.560
 4025TIP3   OH212080   5.274   4.588   1.552
 4025TIP3    H112081   5.285   4.561   1.643
 4025TIP3    H212082   5.305   4.679   1.550
 4026TIP3   OH212083   5.898   5.217   3.064
 4026TIP3    H112084   5.860   5.276   2.998
 4026TIP3    H212085   5.902   5.132   3.020
 4027TIP3   OH212086   0.445   3.093   2.987
 4027TIP3    H112087   0.444   2.997   2.978
 4027TIP3    H212088   0.534   3.113   3.015
 4028TIP3   OH212089   1.521   0.809   0.872
 4028TIP3    H112090   1.476   0.804   0.788
 4028TIP3    H212091   1.503   0.725   0.914
 4029TIP3   OH212092   0.636   0.675   1.732
 4029TIP3    H112093   0.576   0.702   1.662
 4029TIP3    H212094   0.707   0.739   1.728
 4030TIP3   OH212095   5.752   4.242   0.311
 4030TIP3    H112096   5.704   4.268   0.232
 4030TIP3    H212097   5.735   4.312   0.374
 4031TIP3   OH212098   6.118   0.482   3.187
 4031TIP3    H112099   6.128   0.446   3.275
 4031TIP3    H212100   6.157   0.417   3.129
 4032TIP3   OH212101   4.633   0.489   3.306
 4032TIP3    H112102   4.581   0.472   3.228
 4032TIP3    H212103   4.645   0.584   3.307
 4033TIP3   OH212104   0.388   3.808   1.721
 4033TIP3    H112105   0.451   3.739   1.700
 4033TIP3    H212106   0.349   3.781   1.804
 4034TIP3   OH212107   3.731   2.979   1.708
 4034TIP3    H112108   3.637   2.981   1.725
 4034TIP3    H212109   3.750   2.887   1.689
 4035TIP3   OH212110   0.492   3.485   5.134
 4035TIP3    H112111   0.522   3.572   5.109
 4035TIP3    H212112   0.400   3.497   5.157
 4036TIP3   OH212113   4.147   5.044   1.846
 4036TIP3    H112114   4.092   5.117   1.874
 4036TIP3    H212115   4.094   4.997   1.782
 4037TIP3   OH212116   5.764   3.036   1.047
 4037TIP3    H112117   5.806   3.009   0.966
 4037TIP3    H212118   5.754   3.131   1.039
 4038TIP3   OH212119   1.397   4.159   5.092
 4038TIP3    H112120   1.347   4.090   5.136
 4038TIP3    H212121   1.360   4.241   5.126
 4039TIP3   OH212122   5.070   2.533   0.280
 4039TIP3    H112123   5.159   2.569   0.282
 4039TIP3    H212124   5.081   2.442   0.250
 4040TIP3   OH212125   5.422   5.323   4.262
 4040TIP3    H112126   5.450   5.412   4.280
 4040TIP3    H212127   5.370   5.330   4.182
 4041TIP3   OH212128   5.039   0.074   3.802
 4041TIP3    H112129   5.066   0.062   3.711
 4041TIP3    H212130   4.949   0.042   3.805
 4042TIP3   OH212131   5.883   1.114   0.269
 4042TIP3    H112132   5.909   1.114   0.361
 4042TIP3    H212133   5.948   1.060   0.225
 4043TIP3   OH212134   1.709   2.561   5.050
 4043TIP3    H112135   1.737   2.554   4.959
 4043TIP3    H212136   1.669   2.476   5.070
 4044TIP3   OH212137   4.716   5.759   0.414
 4044TIP3    H112138   4.746   5.782   0.502
 4044TIP3    H212139   4.633   5.714   0.428
 4045TIP3   OH212140  -0.007   4.834   0.124
 4045TIP3    H112141   0.085   4.811   0.119
 4045TIP3    H212142  -0.047   4.792   0.048
 4046TIP3   OH212143   4.269   0.062   4.992
 4046TIP3    H112144   4.313   0.090   5.072
 4046TIP3    H212145   4.177   0.051   5.017
 4047TIP3   OH212146   2.346   0.944   0.896
 4047TIP3    H112147   2.418   0.903   0.945
 4047TIP3    H212148   2.284   0.873   0.879
 4048TIP3   OH212149   0.938   5.415   4.303
 4048TIP3    H112150   0.948   5.510   4.295
 4048TIP3    H212151   0.862   5.403   4.359
 4049TIP3   OH212152   2.685   5.518   1.672
 4049TIP3    H112153   2.595   5.542   1.652
 4049TIP3    H212154   2.688   5.423   1.660
 4050TIP3   OH212155   1.825   0.328   1.731
 4050TIP3    H112156   1.772   0.363   1.660
 4050TIP3    H212157   1.828   0.233   1.714
 4051TIP3   OH212158   2.468   3.817   1.735
 4051TIP3    H112159   2.447   3.724   1.726
 4051TIP3    H212160   2.449   3.837   1.826
 4052TIP3   OH212161   1.320   3.336   4.178
 4052TIP3    H112162   1.325   3.331   4.273
 4052TIP3    H212163   1.230   3.364   4.160
 4053TIP3   OH212164   0.781   2.153   2.060
 4053TIP3    H112165   0.857   2.201   2.090
 4053TIP3    H212166   0.815   2.091   1.995
 4054TIP3   OH212167   2.894   5.350   1.481
 4054TIP3    H112168   2.968   5.290   1.487
 4054TIP3    H212169   2.819   5.294   1.458
 4055TIP3   OH212170   5.951   0.737   1.930
 4055TIP3    H112171   5.950   0.647   1.962
 4055TIP3    H212172   6.038   0.747   1.891
 4056TIP3   OH212173   4.012   2.055   4.425
 4056TIP3    H112174   3.970   2.132   4.462
 4056TIP3    H212175   4.106   2.069   4.442
 4057TIP3   OH212176   0.315   3.576   4.116
 4057TIP3    H112177   0.313   3.635   4.191
 4057TIP3    H212178   0.268   3.498   4.146
 4058TIP3   OH212179   5.450   0.638   4.999
 4058TIP3    H112180   5.394   0.672   5.068
 4058TIP3    H212181   5.401   0.652   4.918
 4059TIP3   OH212182   5.783   4.876   2.108
 4059TIP3    H112183   5.744   4.936   2.171
 4059TIP3    H212184   5.852   4.830   2.158
 4060TIP3   OH212185   6.123   2.074   2.654
 4060TIP3    H112186   6.118   2.043   2.563
 4060TIP3    H212187   6.036   2.056   2.690
 4061TIP3   OH212188   1.063   4.690   5.067
 4061TIP3    H112189   1.117   4.714   4.992
 4061TIP3    H212190   1.126   4.677   5.138
 4062TIP3   OH212191   3.113   1.689   2.046
 4062TIP3    H112192   3.152   1.740   2.117
 4062TIP3    H212193   3.044   1.745   2.011
 4063TIP3   OH212194   0.317   0.292   4.182
 4063TIP3    H112195   0.347   0.337   4.261
 4063TIP3    H212196   0.378   0.321   4.114
 4064TIP3   OH212197   4.782   0.349   2.111
 4064TIP3    H112198   4.749   0.260   2.127
 4064TIP3    H212199   4.747   0.372   2.025
 4065TIP3   OH212200   4.282   4.738   2.890
 4065TIP3    H112201   4.277   4.822   2.936
 4065TIP3    H212202   4.226   4.680   2.941
 4066TIP3   OH212203   4.867   1.367   0.149
 4066TIP3    H112204   4.895   1.406   0.066
 4066TIP3    H212205   4.777   1.339   0.133
 4067TIP3   OH212206   2.605   4.465   3.638
 4067TIP3    H112207   2.537   4.413   3.595
 4067TIP3    H212208   2.671   4.478   3.570
 4068TIP3   OH212209   4.935   4.978   0.452
 4068TIP3    H112210   4.881   4.955   0.528
 4068TIP3    H212211   4.937   4.898   0.400
 4069TIP3   OH212212   3.293   0.920   1.082
 4069TIP3    H112213   3.204   0.921   1.118
 4069TIP3    H212214   3.328   1.007   1.102
 4070TIP3   OH212215   3.258   2.619   4.247
 4070TIP3    H112216   3.351   2.625   4.225
 4070TIP3    H212217   3.228   2.539   4.204
 4071TIP3   OH212218   5.515   5.006   4.819
 4071TIP3    H112219   5.608   5.019   4.798
 4071TIP3    H212220   5.499   4.913   4.801
 4072TIP3   OH212221   1.957   3.999   1.298
 4072TIP3    H112222   2.038   3.959   1.329
 4072TIP3    H212223   1.949   4.080   1.348
 4073TIP3   OH212224   5.626   1.191   0.411
 4073TIP3    H112225   5.712   1.151   0.403
 4073TIP3    H212226   5.568   1.131   0.363
 4074TIP3   OH212227   6.139   3.236   0.244
 4074TIP3    H112228   6.208   3.270   0.301
 4074TIP3    H212229   6.159   3.273   0.158
 4075TIP3   OH212230   2.798   0.425   0.590
 4075TIP3    H112231   2.704   0.427   0.609
 4075TIP3    H212232   2.803   0.407   0.496
 4076TIP3   OH212233   4.300   2.345   3.471
 4076TIP3    H112234   4.269   2.258   3.493
 4076TIP3    H212235   4.238   2.404   3.514
 4077TIP3   OH212236   0.246   4.325   3.365
 4077TIP3    H112237   0.176   4.355   3.424
 4077TIP3    H212238   0.229   4.232   3.354
 4078TIP3   OH212239   5.502   0.873   0.433
 4078TIP3    H112240   5.446   0.948   0.453
 4078TIP3    H212241   5.450   0.820   0.373
 4079TIP3   OH212242   4.051   1.361   4.372
 4079TIP3    H112243   4.062   1.401   4.458
 4079TIP3    H212244   4.096   1.277   4.378
 4080TIP3   OH212245   0.072   5.818   2.506
 4080TIP3    H112246   0.016   5.746   2.537
 4080TIP3    H212247   0.010   5.885   2.479
 4081TIP3   OH212248   0.796   4.512   2.505
 4081TIP3    H112249   0.836   4.501   2.591
 4081TIP3    H212250   0.806   4.605   2.485
 4082TIP3   OH212251   5.140   4.022   3.624
 4082TIP3    H112252   5.153   4.046   3.716
 4082TIP3    H212253   5.053   3.981   3.622
 4083TIP3   OH212254   0.361   5.712   4.257
 4083TIP3    H112255   0.327   5.626   4.282
 4083TIP3    H212256   0.416   5.738   4.331
 4084TIP3   OH212257   5.253   3.774   0.470
 4084TIP3    H112258   5.271   3.816   0.554
 4084TIP3    H212259   5.284   3.837   0.405
 4085TIP3   OH212260   0.937   4.020   0.276
 4085TIP3    H112261   0.956   4.046   0.366
 4085TIP3    H212262   0.953   4.099   0.224
 4086TIP3   OH212263   1.686   4.627   3.500
 4086TIP3    H112264   1.711   4.656   3.413
 4086TIP3    H212265   1.752   4.665   3.558
 4087TIP3   OH212266   5.142   2.241   3.574
 4087TIP3    H112267   5.132   2.323   3.622
 4087TIP3    H212268   5.088   2.252   3.496
 4088TIP3   OH212269   3.395   3.675   4.635
 4088TIP3    H112270   3.349   3.643   4.557
 4088TIP3    H212271   3.363   3.763   4.648
 4089TIP3   OH212272   6.368   0.639   2.557
 4089TIP3    H112273   6.354   0.733   2.571
 4089TIP3    H212274   6.330   0.622   2.471
 4090TIP3   OH212275   3.611   0.283   2.901
 4090TIP3    H112276   3.523   0.320   2.902
 4090TIP3    H212277   3.598   0.192   2.930
 4091TIP3   OH212278   0.419   4.646   0.122
 4091TIP3    H112279   0.500   4.598   0.104
 4091TIP3    H212280   0.436   4.691   0.205
 4092TIP3   OH212281   0.649   4.094   1.328
 4092TIP3    H112282   0.720   4.053   1.378
 4092TIP3    H212283   0.652   4.052   1.242
 4093TIP3   OH212284   2.595   4.696   0.607
 4093TIP3    H112285   2.518   4.674   0.659
 4093TIP3    H212286   2.636   4.769   0.653
 4094TIP3   OH212287   2.707   0.286   1.455
 4094TIP3    H112288   2.770   0.249   1.394
 4094TIP3    H212289   2.621   0.269   1.416
 4095TIP3   OH212290   4.529   0.484   3.041
 4095TIP3    H112291   4.484   0.566   3.018
 4095TIP3    H212292   4.486   0.417   2.986
 4096TIP3   OH212293   5.222   3.228   0.496
 4096TIP3    H112294   5.131   3.256   0.494
 4096TIP3    H212295   5.267   3.288   0.435
 4097TIP3   OH212296   6.143   2.631   0.633
 4097TIP3    H112297   6.209   2.616   0.565
 4097TIP3    H212298   6.156   2.560   0.696
 4098TIP3   OH212299   4.443   4.597   5.192
 4098TIP3    H112300   4.425   4.537   5.264
 4098TIP3    H212301   4.538   4.607   5.192
 4099TIP3   OH212302   1.137   0.954   4.366
 4099TIP3    H112303   1.057   0.944   4.416
 4099TIP3    H212304   1.138   1.046   4.341
 4100TIP3   OH212305   4.780   4.652   2.580
 4100TIP3    H112306   4.782   4.593   2.655
 4100TIP3    H212307   4.722   4.723   2.606
 4101TIP3   OH212308   4.757   4.184   1.781
 4101TIP3    H112309   4.724   4.127   1.851
 4101TIP3    H212310   4.714   4.267   1.796
 4102TIP3   OH212311   4.319   0.095   0.320
 4102TIP3    H112312   4.294   0.054   0.404
 4102TIP3    H212313   4.413   0.111   0.329
 4103TIP3   OH212314   3.399   5.781   4.212
 4103TIP3    H112315   3.395   5.838   4.135
 4103TIP3    H212316   3.446   5.703   4.182
 4104TIP3   OH212317   2.772   3.833   1.701
 4104TIP3    H112318   2.699   3.864   1.756
 4104TIP3    H212319   2.767   3.887   1.623
 4105TIP3   OH212320   3.311   3.135   0.170
 4105TIP3    H112321   3.299   3.230   0.170
 4105TIP3    H212322   3.370   3.118   0.097
 4106TIP3   OH212323   1.142   5.670   2.098
 4106TIP3    H112324   1.194   5.743   2.064
 4106TIP3    H212325   1.204   5.617   2.148
 4107TIP3   OH212326   1.421   4.829   0.327
 4107TIP3    H112327   1.473   4.907   0.344
 4107TIP3    H212328   1.392   4.839   0.236
 4108TIP3   OH212329   0.131   1.088   2.256
 4108TIP3    H112330   0.052   1.087   2.203
 4108TIP3    H212331   0.195   1.036   2.207
 4109TIP3   OH212332   2.684   2.796   2.452
 4109TIP3    H112333   2.774   2.771   2.431
 4109TIP3    H212334   2.634   2.775   2.373
 4110TIP3   OH212335   0.618   4.129   1.982
 4110TIP3    H112336   0.611   4.218   1.948
 4110TIP3    H212337   0.595   4.137   2.074
 4111TIP3   OH212338   3.365   3.091   2.538
 4111TIP3    H112339   3.356   3.145   2.459
 4111TIP3    H212340   3.283   3.104   2.585
 4112TIP3   OH212341   0.873   4.915   4.802
 4112TIP3    H112342   0.836   4.900   4.889
 4112TIP3    H212343   0.807   4.881   4.742
 4113TIP3   OH212344   2.987   1.350   5.071
 4113TIP3    H112345   3.081   1.359   5.053
 4113TIP3    H212346   2.953   1.439   5.063
 4114TIP3   OH212347   5.656   0.532   3.190
 4114TIP3    H112348   5.597   0.596   3.151
 4114TIP3    H212349   5.742   0.573   3.189
 4115TIP3   OH212350   5.346   0.165   1.818
 4115TIP3    H112351   5.373   0.090   1.871
 4115TIP3    H212352   5.317   0.230   1.882
 4116TIP3   OH212353   1.373   5.340   3.233
 4116TIP3    H112354   1.311   5.399   3.276
 4116TIP3    H212355   1.322   5.298   3.164
 4117TIP3   OH212356   3.966   0.271   1.959
 4117TIP3    H112357   3.875   0.262   1.930
 4117TIP3    H212358   3.981   0.365   1.964
 4118TIP3   OH212359   6.297   3.921   2.835
 4118TIP3    H112360   6.283   3.840   2.786
 4118TIP3    H212361   6.217   3.972   2.820
 4119TIP3   OH212362   0.507   4.756   2.869
 4119TIP3    H112363   0.573   4.769   2.937
 4119TIP3    H212364   0.424   4.777   2.911
 4120TIP3   OH212365   1.489   3.812   2.615
 4120TIP3    H112366   1.468   3.896   2.575
 4120TIP3    H212367   1.513   3.755   2.542
 4121TIP3   OH212368   2.833   3.993   3.421
 4121TIP3    H112369   2.840   3.903   3.391
 4121TIP3    H212370   2.776   4.035   3.357
 4122TIP3   OH212371   3.202   4.209   3.307
 4122TIP3    H112372   3.246   4.288   3.275
 4122TIP3    H212373   3.129   4.243   3.360
 4123TIP3   OH212374   5.847   0.969   3.629
 4123TIP3    H112375   5.897   0.946   3.551
 4123TIP3    H212376   5.848   1.065   3.630
 4124TIP3   OH212377   0.021   3.616   2.407
 4124TIP3    H112378   0.095   3.637   2.464
 4124TIP3    H212379   0.050   3.541   2.356
 4125TIP3   OH212380   2.927   0.774   0.572
 4125TIP3    H112381   2.971   0.691   0.554
 4125TIP3    H212382   2.885   0.798   0.490
 4126TIP3   OH212383   4.361   0.388   1.053
 4126TIP3    H112384   4.456   0.391   1.041
 4126TIP3    H212385   4.344   0.442   1.130
 4127TIP3   OH212386   0.024   5.408   0.092
 4127TIP3    H112387   0.002   5.482   0.149
 4127TIP3    H212388   0.102   5.437   0.044
 4128TIP3   OH212389   3.973   2.963   2.907
 4128TIP3    H112390   4.035   2.898   2.875
 4128TIP3    H212391   3.987   3.039   2.849
 4129TIP3   OH212392   2.789   4.656   0.862
 4129TIP3    H112393   2.746   4.740   0.851
 4129TIP3    H212394   2.815   4.630   0.773
 4130TIP3   OH212395   4.742   3.096   2.042
 4130TIP3    H112396   4.805   3.025   2.034
 4130TIP3    H212397   4.665   3.056   2.082
 4131TIP3   OH212398   3.071   0.547   1.902
 4131TIP3    H112399   3.156   0.525   1.940
 4131TIP3    H212400   3.042   0.624   1.951
 4132TIP3   OH212401   3.775   2.955   1.173
 4132TIP3    H112402   3.792   3.036   1.220
 4132TIP3    H212403   3.847   2.897   1.199
 4133TIP3   OH212404   4.422   4.234   2.094
 4133TIP3    H112405   4.341   4.259   2.050
 4133TIP3    H212406   4.395   4.198   2.178
 4134TIP3   OH212407   3.026   4.194   2.843
 4134TIP3    H112408   3.033   4.219   2.751
 4134TIP3    H212409   3.078   4.259   2.890
 4135TIP3   OH212410   0.389   0.174   4.454
 4135TIP3    H112411   0.437   0.151   4.534
 4135TIP3    H212412   0.436   0.130   4.384
 4136TIP3   OH212413   0.498   1.708   2.755
 4136TIP3    H112414   0.405   1.700   2.736
 4136TIP3    H212415   0.521   1.797   2.727
 4137TIP3   OH212416   2.758   1.259   5.230
 4137TIP3    H112417   2.676   1.299   5.201
 4137TIP3    H212418   2.826   1.303   5.179
 4138TIP3   OH212419   2.659   3.567   1.787
 4138TIP3    H112420   2.707   3.636   1.741
 4138TIP3    H212421   2.579   3.556   1.736
 4139TIP3   OH212422   4.437   1.049   2.554
 4139TIP3    H112423   4.447   0.955   2.569
 4139TIP3    H212424   4.342   1.064   2.559
 4140TIP3   OH212425   5.672   3.547   5.060
 4140TIP3    H112426   5.722   3.465   5.054
 4140TIP3    H212427   5.720   3.600   5.124
 4141TIP3   OH212428   3.174   4.801   3.194
 4141TIP3    H112429   3.183   4.772   3.285
 4141TIP3    H212430   3.255   4.848   3.175
 4142TIP3   OH212431   4.660   3.041   3.766
 4142TIP3    H112432   4.734   2.980   3.767
 4142TIP3    H212433   4.590   2.994   3.721
 4143TIP3   OH212434   4.941   2.752   4.111
 4143TIP3    H112435   4.999   2.829   4.112
 4143TIP3    H212436   4.956   2.714   4.024
 4144TIP3   OH212437   2.190   3.776   1.100
 4144TIP3    H112438   2.220   3.847   1.157
 4144TIP3    H212439   2.237   3.790   1.018
 4145TIP3   OH212440   1.452   4.856   4.511
 4145TIP3    H112441   1.407   4.780   4.474
 4145TIP3    H212442   1.540   4.852   4.474
 4146TIP3   OH212443   3.020   5.397   4.056
 4146TIP3    H112444   3.028   5.340   4.132
 4146TIP3    H212445   3.104   5.388   4.011
 4147TIP3   OH212446   0.868   3.769   5.074
 4147TIP3    H112447   0.934   3.716   5.029
 4147TIP3    H212448   0.837   3.831   5.008
 4148TIP3   OH212449   3.061   4.999   4.447
 4148TIP3    H112450   2.986   4.946   4.476
 4148TIP3    H212451   3.116   5.007   4.526
 4149TIP3   OH212452   5.040   1.347   3.466
 4149TIP3    H112453   5.021   1.376   3.555
 4149TIP3    H212454   5.055   1.428   3.417
 4150TIP3   OH212455   4.949   1.461   1.933
 4150TIP3    H112456   4.991   1.493   2.013
 4150TIP3    H212457   4.959   1.366   1.937
 4151TIP3   OH212458   3.393   0.600   0.543
 4151TIP3    H112459   3.353   0.541   0.607
 4151TIP3    H212460   3.327   0.608   0.474
 4152TIP3   OH212461   4.239   2.928   2.786
 4152TIP3    H112462   4.226   3.022   2.781
 4152TIP3    H212463   4.218   2.895   2.699
 4153TIP3   OH212464   1.209   5.049   1.450
 4153TIP3    H112465   1.157   5.021   1.375
 4153TIP3    H212466   1.261   5.123   1.417
 4154TIP3   OH212467   1.981   1.316   3.017
 4154TIP3    H112468   2.024   1.319   3.102
 4154TIP3    H212469   2.002   1.400   2.977
 4155TIP3   OH212470   0.839   5.777   4.476
 4155TIP3    H112471   0.876   5.866   4.477
 4155TIP3    H212472   0.888   5.732   4.407
 4156TIP3   OH212473   0.604   1.994   3.262
 4156TIP3    H112474   0.657   2.051   3.205
 4156TIP3    H212475   0.627   1.905   3.234
 4157TIP3   OH212476   2.126   2.047   2.479
 4157TIP3    H112477   2.194   2.097   2.435
 4157TIP3    H212478   2.054   2.108   2.489
 4158TIP3   OH212479   3.171   1.387   0.534
 4158TIP3    H112480   3.200   1.477   0.524
 4158TIP3    H212481   3.238   1.346   0.590
 4159TIP3   OH212482   2.714   4.976   1.222
 4159TIP3    H112483   2.781   4.908   1.224
 4159TIP3    H212484   2.631   4.929   1.228
 4160TIP3   OH212485   1.310   3.079   1.204
 4160TIP3    H112486   1.274   3.069   1.292
 4160TIP3    H212487   1.392   3.126   1.217
 4161TIP3   OH212488   1.693   3.504   3.141
 4161TIP3    H112489   1.692   3.548   3.055
 4161TIP3    H212490   1.689   3.576   3.204
 4162TIP3   OH212491   2.840   5.380   4.803
 4162TIP3    H112492   2.929   5.409   4.783
 4162TIP3    H212493   2.803   5.450   4.857
 4163TIP3   OH212494   5.372   0.087   5.121
 4163TIP3    H112495   5.300   0.057   5.066
 4163TIP3    H212496   5.383   0.179   5.097
 4164TIP3   OH212497   2.281   2.392   0.256
 4164TIP3    H112498   2.290   2.298   0.274
 4164TIP3    H212499   2.359   2.414   0.205
 4165TIP3   OH212500   1.490   1.614   5.015
 4165TIP3    H112501   1.395   1.615   5.005
 4165TIP3    H212502   1.505   1.584   5.104
 4166TIP3   OH212503   5.376   3.297   4.508
 4166TIP3    H112504   5.315   3.224   4.497
 4166TIP3    H212505   5.415   3.309   4.422
 4167TIP3   OH212506   1.894   1.888   3.760
 4167TIP3    H112507   1.802   1.894   3.732
 4167TIP3    H212508   1.901   1.951   3.832
 4168TIP3   OH212509   1.984   3.836   2.955
 4168TIP3    H112510   1.920   3.841   3.027
 4168TIP3    H212511   1.930   3.825   2.877
 4169TIP3   OH212512   5.272   3.271   4.788
 4169TIP3    H112513   5.280   3.292   4.695
 4169TIP3    H212514   5.269   3.356   4.832
 4170TIP3   OH212515   2.742   5.558   0.344
 4170TIP3    H112516   2.773   5.583   0.431
 4170TIP3    H212517   2.723   5.640   0.300
 4171TIP3   OH212518   2.008   1.624   3.750
 4171TIP3    H112519   1.965   1.709   3.741
 4171TIP3    H212520   2.083   1.629   3.690
 4172TIP3   OH212521   5.189   1.518   3.207
 4172TIP3    H112522   5.102   1.529   3.167
 4172TIP3    H212523   5.243   1.480   3.138
 4173TIP3   OH212524   3.837   2.725   1.666
 4173TIP3    H112525   3.901   2.654   1.656
 4173TIP3    H212526   3.759   2.693   1.620
 4174TIP3   OH212527   3.063   3.091   2.481
 4174TIP3    H112528   2.977   3.125   2.458
 4174TIP3    H212529   3.108   3.079   2.398
 4175TIP3   OH212530   1.525   1.578   4.530
 4175TIP3    H112531   1.487   1.525   4.459
 4175TIP3    H212532   1.451   1.603   4.585
 4176TIP3   OH212533   0.488   0.298   4.821
 4176TIP3    H112534   0.583   0.306   4.829
 4176TIP3    H212535   0.454   0.338   4.901
 4177TIP3   OH212536   4.662   2.178   0.559
 4177TIP3    H112537   4.665   2.204   0.651
 4177TIP3    H212538   4.753   2.183   0.530
 4178TIP3   OH212539   1.130   0.574   0.234
 4178TIP3    H112540   1.194   0.645   0.247
 4178TIP3    H212541   1.083   0.569   0.317
 4179TIP3   OH212542   3.064   5.920   0.993
 4179TIP3    H112543   3.049   5.902   0.900
 4179TIP3    H212544   3.139   5.865   1.016
 4180TIP3   OH212545   0.092   5.803   4.717
 4180TIP3    H112546   0.069   5.829   4.806
 4180TIP3    H212547   0.041   5.722   4.702
 4181TIP3   OH212548   2.709   5.633   1.938
 4181TIP3    H112549   2.802   5.648   1.954
 4181TIP3    H212550   2.706   5.598   1.848
 4182TIP3   OH212551   0.474   4.039   3.680
 4182TIP3    H112552   0.516   3.998   3.604
 4182TIP3    H212553   0.501   3.987   3.755
 4183TIP3   OH212554   4.218   2.518   1.834
 4183TIP3    H112555   4.258   2.513   1.921
 4183TIP3    H212556   4.287   2.489   1.774
 4184TIP3   OH212557   2.113   3.672   1.385
 4184TIP3    H112558   2.174   3.708   1.450
 4184TIP3    H212559   2.160   3.681   1.302
 4185TIP3   OH212560   0.778   4.755   1.414
 4185TIP3    H112561   0.706   4.818   1.424
 4185TIP3    H212562   0.833   4.769   1.491
 4186TIP3   OH212563   1.645   3.853   0.193
 4186TIP3    H112564   1.711   3.890   0.135
 4186TIP3    H212565   1.563   3.890   0.163
 4187TIP3   OH212566   0.748   2.645   2.419
 4187TIP3    H112567   0.668   2.638   2.366
 4187TIP3    H212568   0.769   2.738   2.419
 4188TIP3   OH212569   3.857   0.589   1.758
 4188TIP3    H112570   3.935   0.642   1.742
 4188TIP3    H212571   3.872   0.550   1.843
 4189TIP3   OH212572   3.726   1.594   4.848
 4189TIP3    H112573   3.814   1.611   4.880
 4189TIP3    H212574   3.730   1.613   4.754
 4190TIP3   OH212575   1.147   1.124   1.247
 4190TIP3    H112576   1.064   1.144   1.292
 4190TIP3    H212577   1.214   1.151   1.309
 4191TIP3   OH212578   4.822   0.481   2.591
 4191TIP3    H112579   4.807   0.424   2.516
 4191TIP3    H212580   4.802   0.427   2.667
 4192TIP3   OH212581   3.923   4.261   4.374
 4192TIP3    H112582   3.970   4.185   4.410
 4192TIP3    H212583   3.988   4.331   4.374
 4193TIP3   OH212584   5.562   3.262   1.744
 4193TIP3    H112585   5.648   3.258   1.785
 4193TIP3    H212586   5.507   3.203   1.796
 4194TIP3   OH212587   6.133   3.853   1.402
 4194TIP3    H112588   6.103   3.943   1.412
 4194TIP3    H212589   6.091   3.806   1.475
 4195TIP3   OH212590   2.157   2.444   4.937
 4195TIP3    H112591   2.164   2.515   4.873
 4195TIP3    H212592   2.247   2.411   4.946
 4196TIP3   OH212593   3.820   1.852   4.387
 4196TIP3    H112594   3.891   1.791   4.363
 4196TIP3    H212595   3.865   1.925   4.429
 4197TIP3   OH212596   4.960   2.411   4.000
 4197TIP3    H112597   4.877   2.366   3.984
 4197TIP3    H212598   4.967   2.475   3.929
 4198TIP3   OH212599   1.916   5.501   4.348
 4198TIP3    H112600   1.827   5.468   4.360
 4198TIP3    H212601   1.939   5.476   4.258
 4199TIP3   OH212602   3.800   5.553   4.620
 4199TIP3    H112603   3.827   5.561   4.712
 4199TIP3    H212604   3.845   5.624   4.575
 4200TIP3   OH212605   1.590   3.809   5.136
 4200TIP3    H112606   1.539   3.818   5.216
 4200TIP3    H212607   1.681   3.822   5.164
 4201TIP3   OH212608   3.448   4.287   3.035
 4201TIP3    H112609   3.353   4.296   3.042
 4201TIP3    H212610   3.482   4.359   3.087
 4202TIP3   OH212611   1.969   5.721   3.986
 4202TIP3    H112612   1.888   5.670   3.996
 4202TIP3    H212613   2.027   5.687   4.054
 4203TIP3   OH212614   4.767   2.537   4.772
 4203TIP3    H112615   4.809   2.544   4.686
 4203TIP3    H212616   4.676   2.513   4.752
 4204TIP3   OH212617   4.255   1.256   2.270
 4204TIP3    H112618   4.279   1.222   2.357
 4204TIP3    H212619   4.187   1.321   2.288
 4205TIP3   OH212620   3.632   1.745   5.168
 4205TIP3    H112621   3.553   1.735   5.114
 4205TIP3    H212622   3.661   1.835   5.152
 4206TIP3   OH212623   4.923   0.258   5.076
 4206TIP3    H112624   4.943   0.209   5.156
 4206TIP3    H212625   4.982   0.333   5.078
 4207TIP3   OH212626   6.322   0.804   0.348
 4207TIP3    H112627   6.382   0.830   0.278
 4207TIP3    H212628   6.377   0.802   0.427
 4208TIP3   OH212629   4.349   0.564   0.746
 4208TIP3    H112630   4.406   0.576   0.821
 4208TIP3    H212631   4.274   0.515   0.779
 4209TIP3   OH212632   0.231   5.481   2.944
 4209TIP3    H112633   0.157   5.426   2.916
 4209TIP3    H212634   0.200   5.570   2.936
 4210TIP3   OH212635   3.171   5.035   4.211
 4210TIP3    H112636   3.149   5.028   4.304
 4210TIP3    H212637   3.265   5.057   4.210
 4211TIP3   OH212638   0.405   5.478   3.214
 4211TIP3    H112639   0.377   5.495   3.124
 4211TIP3    H212640   0.351   5.405   3.242
 4212TIP3   OH212641   3.227   1.568   4.110
 4212TIP3    H112642   3.274   1.615   4.179
 4212TIP3    H212643   3.294   1.549   4.044
 4213TIP3   OH212644   0.732   0.277   4.343
 4213TIP3    H112645   0.789   0.259   4.418
 4213TIP3    H212646   0.740   0.200   4.287
 4214TIP3   OH212647   4.678   0.353   4.980
 4214TIP3    H112648   4.764   0.319   5.007
 4214TIP3    H212649   4.647   0.290   4.916
 4215TIP3   OH212650   0.693   4.133   3.158
 4215TIP3    H112651   0.721   4.185   3.083
 4215TIP3    H212652   0.618   4.082   3.127
 4216TIP3   OH212653   5.077   4.309   1.997
 4216TIP3    H112654   5.137   4.300   2.071
 4216TIP3    H212655   5.024   4.229   2.001
 4217TIP3   OH212656   4.689   1.354   1.530
 4217TIP3    H112657   4.699   1.404   1.449
 4217TIP3    H212658   4.687   1.420   1.599
 4218TIP3   OH212659   1.609   1.675   1.570
 4218TIP3    H112660   1.533   1.702   1.518
 4218TIP3    H212661   1.675   1.651   1.505
 4219TIP3   OH212662   2.099   2.367   5.189
 4219TIP3    H112663   2.098   2.456   5.223
 4219TIP3    H212664   2.098   2.377   5.094
 4220TIP3   OH212665   5.262   5.924   3.456
 4220TIP3    H112666   5.347   5.965   3.441
 4220TIP3    H212667   5.199   5.983   3.415
 4221TIP3   OH212668   2.500   2.208   1.704
 4221TIP3    H112669   2.457   2.136   1.659
 4221TIP3    H212670   2.563   2.166   1.762
 4222TIP3   OH212671   1.089   1.014   2.870
 4222TIP3    H112672   1.041   0.933   2.885
 4222TIP3    H212673   1.118   1.008   2.779
 4223TIP3   OH212674   1.683   2.810   1.371
 4223TIP3    H112675   1.742   2.838   1.442
 4223TIP3    H212676   1.595   2.827   1.405
 4224TIP3   OH212677   0.681   0.094   0.171
 4224TIP3    H112678   0.732   0.175   0.182
 4224TIP3    H212679   0.658   0.092   0.078
 4225TIP3   OH212680   0.131   4.754   1.925
 4225TIP3    H112681   0.072   4.797   1.864
 4225TIP3    H212682   0.217   4.788   1.904
 4226TIP3   OH212683   5.684   2.445   1.935
 4226TIP3    H112684   5.597   2.463   1.970
 4226TIP3    H212685   5.734   2.413   2.011
 4227TIP3   OH212686   3.003   2.366   3.333
 4227TIP3    H112687   3.068   2.390   3.399
 4227TIP3    H212688   2.948   2.301   3.375
 4228TIP3   OH212689   1.022   4.272   1.733
 4228TIP3    H112690   1.080   4.269   1.809
 4228TIP3    H212691   1.067   4.327   1.670
 4229TIP3   OH212692   0.889   1.501   3.841
 4229TIP3    H112693   0.870   1.592   3.861
 4229TIP3    H212694   0.922   1.503   3.751
 4230TIP3   OH212695   1.896   1.406   2.612
 4230TIP3    H112696   1.962   1.386   2.545
 4230TIP3    H212697   1.876   1.321   2.650
 4231TIP3   OH212698   6.110   4.838   4.491
 4231TIP3    H112699   6.199   4.873   4.483
 4231TIP3    H212700   6.118   4.766   4.554
 4232TIP3   OH212701   4.972   4.898   4.533
 4232TIP3    H112702   4.969   4.831   4.464
 4232TIP3    H212703   4.925   4.973   4.496
 4233TIP3   OH212704   5.500   2.916   0.469
 4233TIP3    H112705   5.560   2.980   0.432
 4233TIP3    H212706   5.413   2.947   0.444
 4234TIP3   OH212707   6.096   1.976   1.318
 4234TIP3    H112708   6.186   1.974   1.286
 4234TIP3    H212709   6.086   1.893   1.365
 4235TIP3   OH212710   0.359   1.411   4.633
 4235TIP3    H112711   0.335   1.478   4.698
 4235TIP3    H212712   0.455   1.413   4.630
 4236TIP3   OH212713   2.409   1.175   5.116
 4236TIP3    H112714   2.430   1.129   5.197
 4236TIP3    H212715   2.314   1.173   5.111
 4237TIP3   OH212716   4.216   2.105   3.543
 4237TIP3    H112717   4.290   2.045   3.554
 4237TIP3    H212718   4.153   2.055   3.491
 4238TIP3   OH212719   2.885   2.941   1.843
 4238TIP3    H112720   2.909   2.884   1.770
 4238TIP3    H212721   2.875   2.881   1.918
 4239TIP3   OH212722   5.031   2.051   2.868
 4239TIP3    H112723   5.074   2.061   2.953
 4239TIP3    H212724   4.939   2.066   2.886
 4240TIP3   OH212725   0.586   5.290   3.545
 4240TIP3    H112726   0.650   5.360   3.533
 4240TIP3    H212727   0.525   5.324   3.610
 4241TIP3   OH212728   2.035   1.883   1.935
 4241TIP3    H112729   1.944   1.903   1.955
 4241TIP3    H212730   2.068   1.962   1.892
 4242TIP3   OH212731   1.458   4.810   4.887
 4242TIP3    H112732   1.450   4.886   4.828
 4242TIP3    H212733   1.533   4.830   4.942
 4243TIP3   OH212734   6.037   0.993   1.381
 4243TIP3    H112735   6.003   0.909   1.410
 4243TIP3    H212736   6.133   0.983   1.383
 4244TIP3   OH212737   1.661   0.319   2.895
 4244TIP3    H112738   1.586   0.276   2.855
 4244TIP3    H212739   1.678   0.395   2.839
 4245TIP3   OH212740   3.141   1.018   2.817
 4245TIP3    H112741   3.208   1.076   2.854
 4245TIP3    H212742   3.104   1.067   2.744
 4246TIP3   OH212743   0.385   1.017   0.352
 4246TIP3    H112744   0.422   0.960   0.420
 4246TIP3    H212745   0.393   0.965   0.272
 4247TIP3   OH212746   3.685   0.888   3.934
 4247TIP3    H112747   3.617   0.840   3.982
 4247TIP3    H212748   3.660   0.980   3.942
 4248TIP3   OH212749   1.451   0.506   0.479
 4248TIP3    H112750   1.463   0.529   0.571
 4248TIP3    H212751   1.356   0.515   0.465
 4249TIP3   OH212752   4.867   5.976   3.405
 4249TIP3    H112753   4.804   5.975   3.334
 4249TIP3    H212754   4.817   5.951   3.483
 4250TIP3   OH212755   4.283   1.105   5.035
 4250TIP3    H112756   4.319   1.186   4.998
 4250TIP3    H212757   4.296   1.039   4.967
 4251TIP3   OH212758   6.228   5.216   1.111
 4251TIP3    H112759   6.310   5.262   1.089
 4251TIP3    H212760   6.257   5.129   1.140
 4252TIP3   OH212761   2.033   3.113   1.890
 4252TIP3    H112762   1.952   3.121   1.940
 4252TIP3    H212763   2.103   3.121   1.955
 4253TIP3   OH212764   2.441   2.713   2.784
 4253TIP3    H112765   2.527   2.756   2.788
 4253TIP3    H212766   2.422   2.707   2.690
 4254TIP3   OH212767   6.290   5.349   4.865
 4254TIP3    H112768   6.386   5.352   4.875
 4254TIP3    H212769   6.262   5.280   4.926
 4255TIP3   OH212770   6.247   0.288   4.852
 4255TIP3    H112771   6.191   0.214   4.828
 4255TIP3    H212772   6.293   0.258   4.931
 4256TIP3   OH212773   2.377   4.631   4.891
 4256TIP3    H112774   2.405   4.574   4.820
 4256TIP3    H212775   2.293   4.666   4.861
 4257TIP3   OH212776   3.684   1.929   3.443
 4257TIP3    H112777   3.625   1.859   3.472
 4257TIP3    H212778   3.626   2.002   3.420
 4258TIP3   OH212779   4.261   4.215   2.617
 4258TIP3    H112780   4.212   4.288   2.578
 4258TIP3    H212781   4.193   4.159   2.656
 4259TIP3   OH212782   3.319   1.619   2.536
 4259TIP3    H112783   3.266   1.619   2.457
 4259TIP3    H212784   3.409   1.611   2.504
 4260TIP3   OH212785   0.658   3.643   3.708
 4260TIP3    H112786   0.570   3.639   3.671
 4260TIP3    H212787   0.680   3.552   3.728
 4261TIP3   OH212788   5.439   4.477   3.877
 4261TIP3    H112789   5.347   4.500   3.884
 4261TIP3    H212790   5.462   4.444   3.964
 4262TIP3   OH212791   0.957   0.661   0.565
 4262TIP3    H112792   0.904   0.722   0.514
 4262TIP3    H212793   0.893   0.607   0.612
 4263TIP3   OH212794   5.477   3.172   2.162
 4263TIP3    H112795   5.429   3.091   2.145
 4263TIP3    H212796   5.430   3.214   2.234
 4264TIP3   OH212797   6.096   5.170   0.503
 4264TIP3    H112798   6.061   5.256   0.527
 4264TIP3    H212799   6.158   5.188   0.433
 4265TIP3   OH212800   6.358   4.010   3.113
 4265TIP3    H112801   6.295   4.060   3.165
 4265TIP3    H212802   6.312   3.991   3.031
 4266TIP3   OH212803   0.673   4.273   2.847
 4266TIP3    H112804   0.604   4.338   2.836
 4266TIP3    H212805   0.625   4.191   2.862
 4267TIP3   OH212806   5.022   4.324   3.109
 4267TIP3    H112807   4.964   4.268   3.058
 4267TIP3    H212808   4.966   4.396   3.138
 4268TIP3   OH212809   5.620   4.507   4.355
 4268TIP3    H112810   5.657   4.583   4.400
 4268TIP3    H212811   5.675   4.434   4.382
 4269TIP3   OH212812   1.369   3.112   3.890
 4269TIP3    H112813   1.393   3.066   3.809
 4269TIP3    H212814   1.439   3.176   3.903
 4270TIP3   OH212815   5.687   1.822   1.205
 4270TIP3    H112816   5.719   1.734   1.187
 4270TIP3    H212817   5.609   1.810   1.259
 4271TIP3   OH212818   3.105   1.714   2.372
 4271TIP3    H112819   3.039   1.757   2.318
 4271TIP3    H212820   3.092   1.621   2.355
 4272TIP3   OH212821   3.703   4.946   0.575
 4272TIP3    H112822   3.626   4.900   0.609
 4272TIP3    H212823   3.729   5.006   0.645
 4273TIP3   OH212824   0.425   3.440   3.892
 4273TIP3    H112825   0.486   3.451   3.965
 4273TIP3    H212826   0.347   3.489   3.918
 4274TIP3   OH212827   1.550   4.973   0.775
 4274TIP3    H112828   1.622   4.972   0.712
 4274TIP3    H212829   1.526   4.881   0.785
 4275TIP3   OH212830   2.289   1.367   3.314
 4275TIP3    H112831   2.195   1.386   3.323
 4275TIP3    H212832   2.313   1.407   3.231
 4276TIP3   OH212833   2.780   5.190   4.047
 4276TIP3    H112834   2.845   5.260   4.042
 4276TIP3    H212835   2.762   5.167   3.956
 4277TIP3   OH212836   4.415   1.517   4.374
 4277TIP3    H112837   4.385   1.502   4.284
 4277TIP3    H212838   4.388   1.607   4.394
 4278TIP3   OH212839   1.627   4.062   3.252
 4278TIP3    H112840   1.564   4.074   3.180
 4278TIP3    H212841   1.580   4.093   3.329
 4279TIP3   OH212842   5.004   2.922   4.927
 4279TIP3    H112843   5.039   2.858   4.864
 4279TIP3    H212844   4.915   2.891   4.944
 4280TIP3   OH212845   4.930   0.993   2.025
 4280TIP3    H112846   4.898   0.961   2.109
 4280TIP3    H212847   5.024   0.979   2.029
 4281TIP3   OH212848   1.091   0.632   3.391
 4281TIP3    H112849   1.184   0.655   3.391
 4281TIP3    H212850   1.047   0.713   3.418
 4282TIP3   OH212851   3.120   2.149   2.303
 4282TIP3    H112852   3.101   2.106   2.386
 4282TIP3    H212853   3.117   2.243   2.324
 4283TIP3   OH212854   4.393   3.144   4.747
 4283TIP3    H112855   4.299   3.128   4.761
 4283TIP3    H212856   4.416   3.085   4.675
 4284TIP3   OH212857   5.212   5.146   2.522
 4284TIP3    H112858   5.194   5.069   2.576
 4284TIP3    H212859   5.198   5.221   2.579
 4285TIP3   OH212860   2.357   3.372   1.428
 4285TIP3    H112861   2.295   3.387   1.357
 4285TIP3    H212862   2.370   3.277   1.429
 4286TIP3   OH212863   2.420   5.876   1.380
 4286TIP3    H112864   2.497   5.931   1.396
 4286TIP3    H212865   2.358   5.900   1.450
 4287TIP3   OH212866   5.331   0.401   1.978
 4287TIP3    H112867   5.302   0.448   2.056
 4287TIP3    H212868   5.314   0.461   1.906
 4288TIP3   OH212869   3.426   2.885   5.052
 4288TIP3    H112870   3.512   2.865   5.089
 4288TIP3    H212871   3.366   2.828   5.100
 4289TIP3   OH212872   4.397   0.009   1.580
 4289TIP3    H112873   4.361  -0.065   1.629
 4289TIP3    H212874   4.397   0.082   1.643
 4290TIP3   OH212875   4.089   3.439   1.487
 4290TIP3    H112876   4.177   3.470   1.470
 4290TIP3    H212877   4.098   3.344   1.496
 4291TIP3   OH212878   2.511   1.933   3.336
 4291TIP3    H112879   2.444   1.937   3.269
 4291TIP3    H212880   2.493   1.851   3.383
 4292TIP3   OH212881   4.967   1.991   2.562
 4292TIP3    H112882   4.874   1.995   2.583
 4292TIP3    H212883   4.978   1.907   2.517
 4293TIP3   OH212884   5.890   2.934   2.563
 4293TIP3    H112885   5.859   2.877   2.633
 4293TIP3    H212886   5.865   2.890   2.482
 4294TIP3   OH212887   1.158   3.085   3.272
 4294TIP3    H112888   1.192   3.028   3.340
 4294TIP3    H212889   1.113   3.156   3.319
 4295TIP3   OH212890   0.761   0.995   2.001
 4295TIP3    H112891   0.732   0.975   1.912
 4295TIP3    H212892   0.696   1.057   2.034
 4296TIP3   OH212893   2.131   5.217   3.434
 4296TIP3    H112894   2.138   5.191   3.526
 4296TIP3    H212895   2.053   5.273   3.431
 4297TIP3   OH212896   4.962   3.602   0.169
 4297TIP3    H112897   5.038   3.545   0.165
 4297TIP3    H212898   4.976   3.656   0.247
 4298TIP3   OH212899   2.746   0.723   3.018
 4298TIP3    H112900   2.676   0.779   2.984
 4298TIP3    H212901   2.817   0.734   2.956
 4299TIP3   OH212902   1.242   5.082   4.352
 4299TIP3    H112903   1.301   5.014   4.323
 4299TIP3    H212904   1.179   5.037   4.409
 4300TIP3   OH212905   4.849   4.615   1.868
 4300TIP3    H112906   4.804   4.547   1.817
 4300TIP3    H212907   4.857   4.688   1.807
 4301TIP3   OH212908   4.418   3.200   1.358
 4301TIP3    H112909   4.335   3.176   1.398
 4301TIP3    H212910   4.451   3.119   1.320
 4302TIP3   OH212911   3.490   4.516   0.533
 4302TIP3    H112912   3.507   4.450   0.466
 4302TIP3    H212913   3.401   4.546   0.516
 4303TIP3   OH212914   5.361   0.468   1.118
 4303TIP3    H112915   5.431   0.471   1.183
 4303TIP3    H212916   5.345   0.375   1.104
 4304TIP3   OH212917   5.660   1.208   2.590
 4304TIP3    H112918   5.714   1.137   2.555
 4304TIP3    H212919   5.719   1.283   2.596
 4305TIP3   OH212920   1.924   0.690   4.294
 4305TIP3    H112921   1.941   0.771   4.246
 4305TIP3    H212922   1.939   0.620   4.230
 4306TIP3   OH212923   0.439   5.127   0.621
 4306TIP3    H112924   0.393   5.180   0.687
 4306TIP3    H212925   0.519   5.099   0.665
 4307TIP3   OH212926   5.271   5.778   1.493
 4307TIP3    H112927   5.205   5.804   1.429
 4307TIP3    H212928   5.347   5.832   1.473
 4308TIP3   OH212929   4.399   5.728   2.742
 4308TIP3    H112930   4.446   5.645   2.745
 4308TIP3    H212931   4.440   5.781   2.810
 4309TIP3   OH212932   0.653   2.303   4.311
 4309TIP3    H112933   0.590   2.301   4.239
 4309TIP3    H212934   0.699   2.219   4.305
 4310TIP3   OH212935   1.873   1.086   1.308
 4310TIP3    H112936   1.802   1.081   1.245
 4310TIP3    H212937   1.927   1.159   1.278
 4311TIP3   OH212938   5.491   4.411   0.232
 4311TIP3    H112939   5.433   4.474   0.189
 4311TIP3    H212940   5.522   4.355   0.160
 4312TIP3   OH212941   2.292   2.534   4.476
 4312TIP3    H112942   2.341   2.574   4.405
 4312TIP3    H212943   2.232   2.473   4.433
 4313TIP3   OH212944   3.642   3.271   1.688
 4313TIP3    H112945   3.601   3.198   1.642
 4313TIP3    H212946   3.721   3.233   1.728
 4314TIP3   OH212947   1.709   2.453   0.512
 4314TIP3    H112948   1.646   2.410   0.570
 4314TIP3    H212949   1.718   2.393   0.438
 4315TIP3   OH212950   4.812   4.262   1.367
 4315TIP3    H112951   4.886   4.298   1.417
 4315TIP3    H212952   4.808   4.317   1.289
 4316TIP3   OH212953   3.272   0.169   3.840
 4316TIP3    H112954   3.360   0.138   3.818
 4316TIP3    H212955   3.229   0.182   3.756
 4317TIP3   OH212956   1.470   5.820   2.314
 4317TIP3    H112957   1.431   5.856   2.234
 4317TIP3    H212958   1.399   5.767   2.352
 4318TIP3   OH212959   3.584   5.516   0.933
 4318TIP3    H112960   3.573   5.443   0.994
 4318TIP3    H212961   3.577   5.476   0.846
 4319TIP3   OH212962   1.629   4.239   4.836
 4319TIP3    H112963   1.621   4.334   4.850
 4319TIP3    H212964   1.539   4.210   4.822
 4320TIP3   OH212965   2.427   1.651   4.701
 4320TIP3    H112966   2.426   1.726   4.760
 4320TIP3    H212967   2.374   1.679   4.626
 4321TIP3   OH212968   2.797   0.986   1.127
 4321TIP3    H112969   2.882   0.979   1.170
 4321TIP3    H212970   2.767   1.074   1.148
 4322TIP3   OH212971   0.265   5.036   1.237
 4322TIP3    H112972   0.219   5.097   1.295
 4322TIP3    H212973   0.213   4.956   1.242
 4323TIP3   OH212974   2.994   3.872   0.360
 4323TIP3    H112975   2.977   3.853   0.268
 4323TIP3    H212976   2.908   3.898   0.395
 4324TIP3   OH212977   5.533   1.324   3.318
 4324TIP3    H112978   5.617   1.343   3.359
 4324TIP3    H212979   5.489   1.266   3.380
 4325TIP3   OH212980   6.250   0.088   2.328
 4325TIP3    H112981   6.193   0.114   2.400
 4325TIP3    H212982   6.306   0.020   2.365
 4326TIP3   OH212983   1.524   0.351   1.661
 4326TIP3    H112984   1.553   0.347   1.752
 4326TIP3    H212985   1.455   0.417   1.660
 4327TIP3   OH212986   4.304   1.530   0.147
 4327TIP3    H112987   4.318   1.458   0.209
 4327TIP3    H212988   4.232   1.580   0.185
 4328TIP3   OH212989   0.182   0.135   2.211
 4328TIP3    H112990   0.179   0.078   2.287
 4328TIP3    H212991   0.128   0.211   2.234
 4329TIP3   OH212992   2.166   5.462   1.789
 4329TIP3    H112993   2.087   5.462   1.843
 4329TIP3    H212994   2.175   5.371   1.761
 4330TIP3   OH212995   3.964   0.538   2.997
 4330TIP3    H112996   4.015   0.550   2.917
 4330TIP3    H212997   3.903   0.611   2.998
 4331TIP3   OH212998   0.881   0.743   2.026
 4331TIP3    H112999   0.874   0.745   2.122
 4331TIP3    H213000   0.852   0.829   1.998
 4332TIP3   OH213001   5.998   0.282   1.486
 4332TIP3    H113002   6.026   0.373   1.477
 4332TIP3    H213003   5.970   0.274   1.577
 4333TIP3   OH213004   1.827   4.500   0.658
 4333TIP3    H113005   1.748   4.553   0.672
 4333TIP3    H213006   1.884   4.523   0.732
 4334TIP3   OH213007   2.062   3.149   2.837
 4334TIP3    H113008   2.080   3.089   2.765
 4334TIP3    H213009   2.029   3.228   2.795
 4335TIP3   OH213010   1.058   4.691   1.426
 4335TIP3    H113011   1.126   4.734   1.373
 4335TIP3    H213012   1.031   4.759   1.488
 4336TIP3   OH213013   0.418   2.670   1.248
 4336TIP3    H113014   0.423   2.727   1.171
 4336TIP3    H213015   0.367   2.595   1.220
 4337TIP3   OH213016   6.274   4.096   3.648
 4337TIP3    H113017   6.351   4.149   3.666
 4337TIP3    H213018   6.228   4.142   3.578
 4338TIP3   OH213019   4.507   5.534   3.455
 4338TIP3    H113020   4.566   5.568   3.387
 4338TIP3    H213021   4.456   5.466   3.411
 4339TIP3   OH213022   2.062   5.008   4.745
 4339TIP3    H113023   2.035   5.070   4.812
 4339TIP3    H213024   1.979   4.974   4.709
 4340TIP3   OH213025   1.178   0.079   1.690
 4340TIP3    H113026   1.095   0.124   1.676
 4340TIP3    H213027   1.200   0.043   1.604
 4341TIP3   OH213028   1.994   0.987   3.493
 4341TIP3    H113029   2.060   1.025   3.434
 4341TIP3    H213030   1.993   0.894   3.469
 4342TIP3   OH213031   1.608   4.663   1.326
 4342TIP3    H113032   1.668   4.718   1.376
 4342TIP3    H213033   1.583   4.594   1.386
 4343TIP3   OH213034   0.371   4.556   3.607
 4343TIP3    H113035   0.385   4.466   3.636
 4343TIP3    H213036   0.408   4.610   3.677
 4344TIP3   OH213037   2.903   4.540   4.528
 4344TIP3    H113038   2.894   4.473   4.461
 4344TIP3    H213039   2.923   4.620   4.480
 4345TIP3   OH213040   0.647   2.694   3.260
 4345TIP3    H113041   0.714   2.755   3.229
 4345TIP3    H213042   0.682   2.608   3.238
 4346TIP3   OH213043   2.761   0.692   1.635
 4346TIP3    H113044   2.675   0.712   1.597
 4346TIP3    H213045   2.819   0.681   1.560
 4347TIP3   OH213046   6.029   3.202   1.625
 4347TIP3    H113047   6.119   3.170   1.620
 4347TIP3    H213048   6.032   3.289   1.586
 4348TIP3   OH213049   0.288   0.413   2.754
 4348TIP3    H113050   0.274   0.501   2.789
 4348TIP3    H213051   0.216   0.361   2.788
 4349TIP3   OH213052   4.622   1.059   4.834
 4349TIP3    H113053   4.575   0.977   4.848
 4349TIP3    H213054   4.681   1.066   4.909
 4350TIP3   OH213055   5.237   2.227   2.074
 4350TIP3    H113056   5.330   2.226   2.052
 4350TIP3    H213057   5.225   2.306   2.127
 4351TIP3   OH213058   5.783   0.172   5.121
 4351TIP3    H113059   5.741   0.214   5.196
 4351TIP3    H213060   5.870   0.213   5.116
 4352TIP3   OH213061   6.204   3.324   3.560
 4352TIP3    H113062   6.266   3.323   3.633
 4352TIP3    H213063   6.123   3.359   3.598
 4353TIP3   OH213064   4.393   3.445   3.957
 4353TIP3    H113065   4.359   3.518   3.906
 4353TIP3    H213066   4.317   3.409   4.002
 4354TIP3   OH213067   6.044   0.952   0.730
 4354TIP3    H113068   6.085   0.878   0.775
 4354TIP3    H213069   5.952   0.927   0.720
 4355TIP3   OH213070   4.999   2.858   4.482
 4355TIP3    H113071   4.962   2.796   4.419
 4355TIP3    H213072   4.924   2.907   4.514
 4356TIP3   OH213073   4.278   2.684   0.590
 4356TIP3    H113074   4.358   2.685   0.643
 4356TIP3    H213075   4.297   2.620   0.521
 4357TIP3   OH213076   1.190   4.826   1.204
 4357TIP3    H113077   1.185   4.835   1.109
 4357TIP3    H213078   1.283   4.832   1.224
 4358TIP3   OH213079   5.068   5.806   3.947
 4358TIP3    H113080   4.994   5.867   3.946
 4358TIP3    H213081   5.128   5.841   3.881
 4359TIP3   OH213082   0.574   3.061   4.537
 4359TIP3    H113083   0.495   3.012   4.559
 4359TIP3    H213084   0.636   2.994   4.508
 4360TIP3   OH213085   1.009   4.135   4.579
 4360TIP3    H113086   1.049   4.201   4.521
 4360TIP3    H213087   1.019   4.053   4.532
 4361TIP3   OH213088   2.308   5.337   2.032
 4361TIP3    H113089   2.338   5.255   1.994
 4361TIP3    H213090   2.228   5.358   1.984
 4362TIP3   OH213091   5.796   2.176   4.041
 4362TIP3    H113092   5.732   2.132   4.097
 4362TIP3    H213093   5.757   2.173   3.954
 4363TIP3   OH213094   5.928   3.672   4.587
 4363TIP3    H113095   5.912   3.583   4.556
 4363TIP3    H213096   5.911   3.728   4.512
 4364TIP3   OH213097   0.947   5.228   2.161
 4364TIP3    H113098   0.954   5.249   2.068
 4364TIP3    H213099   1.010   5.157   2.174
 4365TIP3   OH213100   2.997   5.108   0.837
 4365TIP3    H113101   2.969   5.192   0.800
 4365TIP3    H213102   2.918   5.072   0.876
 4366TIP3   OH213103   1.475   0.469   0.772
 4366TIP3    H113104   1.482   0.374   0.781
 4366TIP3    H213105   1.470   0.502   0.862
 4367TIP3   OH213106   3.722   5.122   3.687
 4367TIP3    H113107   3.797   5.147   3.741
 4367TIP3    H213108   3.686   5.045   3.730
 4368TIP3   OH213109   5.624   1.330   0.842
 4368TIP3    H113110   5.598   1.409   0.889
 4368TIP3    H213111   5.551   1.270   0.853
 4369TIP3   OH213112   4.932   4.053   5.011
 4369TIP3    H113113   4.928   3.958   5.001
 4369TIP3    H213114   4.873   4.087   4.944
 4370TIP3   OH213115   3.754   5.882   1.900
 4370TIP3    H113116   3.715   5.889   1.813
 4370TIP3    H213117   3.750   5.789   1.920
 4371TIP3   OH213118   5.800   1.565   0.735
 4371TIP3    H113119   5.710   1.554   0.765
 4371TIP3    H213120   5.793   1.620   0.657
 4372TIP3   OH213121   5.246   3.793   5.092
 4372TIP3    H113122   5.261   3.705   5.059
 4372TIP3    H213123   5.152   3.806   5.084
 4373TIP3   OH213124   6.328   5.408   3.931
 4373TIP3    H113125   6.364   5.493   3.956
 4373TIP3    H213126   6.331   5.409   3.835
 4374TIP3   OH213127   4.290   2.677   4.249
 4374TIP3    H113128   4.207   2.659   4.205
 4374TIP3    H213129   4.345   2.718   4.182
 4375TIP3   OH213130   0.785   5.163   4.449
 4375TIP3    H113131   0.724   5.131   4.383
 4375TIP3    H213132   0.862   5.106   4.441
 4376TIP3   OH213133   4.759   3.517   4.948
 4376TIP3    H113134   4.834   3.532   4.891
 4376TIP3    H213135   4.699   3.463   4.896
 4377TIP3   OH213136   2.297   2.306   0.877
 4377TIP3    H113137   2.204   2.315   0.856
 4377TIP3    H213138   2.301   2.318   0.972
 4378TIP3   OH213139   1.273   4.155   0.400
 4378TIP3    H113140   1.286   4.127   0.309
 4378TIP3    H213141   1.349   4.210   0.420
 4379TIP3   OH213142   4.832   5.491   0.623
 4379TIP3    H113143   4.919   5.528   0.639
 4379TIP3    H213144   4.801   5.463   0.710
 4380TIP3   OH213145   0.211   0.133   0.661
 4380TIP3    H113146   0.141   0.110   0.723
 4380TIP3    H213147   0.194   0.077   0.585
 4381TIP3   OH213148   2.252   3.772   0.805
 4381TIP3    H113149   2.180   3.804   0.751
 4381TIP3    H213150   2.266   3.682   0.776
 4382TIP3   OH213151   5.035   4.741   3.893
 4382TIP3    H113152   5.085   4.778   3.820
 4382TIP3    H213153   4.993   4.816   3.935
 4383TIP3   OH213154   3.135   1.830   5.063
 4383TIP3    H113155   3.057   1.862   5.016
 4383TIP3    H213156   3.138   1.884   5.142
 4384TIP3   OH213157   6.210   4.734   0.357
 4384TIP3    H113158   6.243   4.781   0.280
 4384TIP3    H213159   6.135   4.786   0.386
 4385TIP3   OH213160   3.339   2.526   0.426
 4385TIP3    H113161   3.412   2.588   0.433
 4385TIP3    H213162   3.272   2.574   0.377
 4386TIP3   OH213163   4.484   5.170   1.332
 4386TIP3    H113164   4.423   5.124   1.274
 4386TIP3    H213165   4.457   5.261   1.327
 4387TIP3   OH213166   4.536   0.062   4.257
 4387TIP3    H113167   4.504  -0.020   4.220
 4387TIP3    H213168   4.631   0.055   4.254
 4388TIP3   OH213169   5.777   3.921   1.224
 4388TIP3    H113170   5.718   3.875   1.285
 4388TIP3    H213171   5.806   3.998   1.272
 4389TIP3   OH213172   1.374   5.665   0.108
 4389TIP3    H113173   1.305   5.610   0.072
 4389TIP3    H213174   1.332   5.714   0.179
 4390TIP3   OH213175   2.161   0.609   1.294
 4390TIP3    H113176   2.242   0.620   1.243
 4390TIP3    H213177   2.192   0.585   1.382
 4391TIP3   OH213178   4.968   5.192   4.686
 4391TIP3    H113179   5.036   5.137   4.726
 4391TIP3    H213180   4.925   5.135   4.623
 4392TIP3   OH213181   1.822   0.373   2.507
 4392TIP3    H113182   1.769   0.436   2.555
 4392TIP3    H213183   1.786   0.375   2.418
 4393TIP3   OH213184   2.911   5.364   1.862
 4393TIP3    H113185   2.963   5.289   1.834
 4393TIP3    H213186   2.823   5.329   1.874
 4394TIP3   OH213187   4.138   3.537   4.866
 4394TIP3    H113188   4.101   3.598   4.930
 4394TIP3    H213189   4.094   3.454   4.884
 4395TIP3   OH213190   5.008   0.670   0.156
 4395TIP3    H113191   4.969   0.745   0.112
 4395TIP3    H213192   5.062   0.629   0.088
 4396TIP3   OH213193   0.427   3.513   2.068
 4396TIP3    H113194   0.513   3.513   2.028
 4396TIP3    H213195   0.434   3.578   2.138
 4397TIP3   OH213196   4.482   0.419   2.062
 4397TIP3    H113197   4.551   0.443   2.001
 4397TIP3    H213198   4.402   0.453   2.022
 4398TIP3   OH213199   3.137   2.710   2.934
 4398TIP3    H113200   3.086   2.786   2.962
 4398TIP3    H213201   3.154   2.661   3.015
 4399TIP3   OH213202   1.088   1.297   0.911
 4399TIP3    H113203   1.110   1.257   0.827
 4399TIP3    H213204   1.000   1.266   0.930
 4400TIP3   OH213205   0.742   4.492   4.391
 4400TIP3    H113206   0.688   4.428   4.345
 4400TIP3    H213207   0.819   4.442   4.419
 4401TIP3   OH213208   3.245   3.379   4.151
 4401TIP3    H113209   3.270   3.305   4.206
 4401TIP3    H213210   3.177   3.343   4.093
 4402TIP3   OH213211   3.615   3.280   4.924
 4402TIP3    H113212   3.534   3.255   4.968
 4402TIP3    H213213   3.618   3.225   4.846
 4403TIP3   OH213214   2.726   3.687   0.395
 4403TIP3    H113215   2.711   3.775   0.429
 4403TIP3    H213216   2.654   3.635   0.430
 4404TIP3   OH213217   5.396   4.792   4.044
 4404TIP3    H113218   5.352   4.719   4.087
 4404TIP3    H213219   5.331   4.861   4.040
 4405TIP3   OH213220   1.663   3.627   2.886
 4405TIP3    H113221   1.667   3.553   2.826
 4405TIP3    H213222   1.718   3.694   2.845
 4406TIP3   OH213223   0.071   0.377   4.610
 4406TIP3    H113224   0.038   0.353   4.697
 4406TIP3    H213225   0.090   0.471   4.617
 4407TIP3   OH213226   5.298   0.539   2.831
 4407TIP3    H113227   5.295   0.488   2.913
 4407TIP3    H213228   5.386   0.577   2.830
 4408TIP3   OH213229   1.016   1.316   1.445
 4408TIP3    H113230   1.059   1.340   1.527
 4408TIP3    H213231   1.051   1.378   1.381
 4409TIP3   OH213232   5.447   4.884   0.353
 4409TIP3    H113233   5.506   4.948   0.394
 4409TIP3    H213234   5.506   4.820   0.314
 4410TIP3   OH213235   2.359   5.563   3.483
 4410TIP3    H113236   2.346   5.652   3.451
 4410TIP3    H213237   2.454   5.551   3.482
 4411TIP3   OH213238   1.064   1.215   0.075
 4411TIP3    H113239   1.134   1.279   0.064
 4411TIP3    H213240   0.991   1.265   0.111
 4412TIP3   OH213241   4.065   3.212   2.005
 4412TIP3    H113242   4.100   3.126   2.028
 4412TIP3    H213243   3.971   3.197   1.991
 4413TIP3   OH213244   0.086   3.000   3.700
 4413TIP3    H113245   0.136   2.964   3.773
 4413TIP3    H213246   0.146   2.996   3.626
 4414TIP3   OH213247   6.018   1.404   0.631
 4414TIP3    H113248   5.954   1.457   0.679
 4414TIP3    H213249   6.066   1.468   0.577
 4415TIP3   OH213250   5.343   1.833   0.373
 4415TIP3    H113251   5.385   1.748   0.389
 4415TIP3    H213252   5.284   1.844   0.447
 4416TIP3   OH213253   4.082   5.047   0.561
 4416TIP3    H113254   4.061   4.963   0.601
 4416TIP3    H213255   4.072   5.111   0.632
 4417TIP3   OH213256   4.392   1.794   3.716
 4417TIP3    H113257   4.436   1.869   3.677
 4417TIP3    H213258   4.311   1.829   3.753
 4418TIP3   OH213259   0.444   1.711   4.045
 4418TIP3    H113260   0.374   1.766   4.081
 4418TIP3    H213261   0.478   1.760   3.970
 4419TIP3   OH213262   5.451   5.075   1.535
 4419TIP3    H113263   5.395   5.142   1.496
 4419TIP3    H213264   5.390   5.010   1.570
 4420TIP3   OH213265   2.136   1.330   3.631
 4420TIP3    H113266   2.061   1.381   3.599
 4420TIP3    H213267   2.104   1.240   3.634
 4421TIP3   OH213268   2.917   1.592   0.276
 4421TIP3    H113269   2.957   1.507   0.295
 4421TIP3    H213270   2.893   1.626   0.362
 4422TIP3   OH213271   6.153   0.492   0.312
 4422TIP3    H113272   6.133   0.560   0.376
 4422TIP3    H213273   6.073   0.484   0.260
 4423TIP3   OH213274   5.009   3.968   4.659
 4423TIP3    H113275   4.931   3.999   4.705
 4423TIP3    H213276   4.976   3.930   4.577
 4424TIP3   OH213277   0.051   1.787   3.597
 4424TIP3    H113278   0.101   1.745   3.667
 4424TIP3    H213279   0.108   1.781   3.520
 4425TIP3   OH213280   3.514   5.487   3.012
 4425TIP3    H113281   3.487   5.480   2.921
 4425TIP3    H213282   3.432   5.482   3.062
 4426TIP3   OH213283   6.238   4.599   4.346
 4426TIP3    H113284   6.286   4.648   4.412
 4426TIP3    H213285   6.181   4.540   4.396
 4427TIP3   OH213286   0.159   4.537   3.223
 4427TIP3    H113287   0.214   4.615   3.235
 4427TIP3    H213288   0.207   4.467   3.266
 4428TIP3   OH213289   3.688   2.089   0.220
 4428TIP3    H113290   3.761   2.150   0.230
 4428TIP3    H213291   3.646   2.116   0.138
 4429TIP3   OH213292   0.956   0.786   0.978
 4429TIP3    H113293   1.022   0.831   1.030
 4429TIP3    H213294   0.872   0.817   1.013
 4430TIP3   OH213295   4.127   1.605   2.186
 4430TIP3    H113296   4.042   1.648   2.192
 4430TIP3    H213297   4.109   1.519   2.149
 4431TIP3   OH213298   4.888   3.285   3.719
 4431TIP3    H113299   4.909   3.197   3.750
 4431TIP3    H213300   4.826   3.319   3.783
 4432TIP3   OH213301   5.977   3.459   0.037
 4432TIP3    H113302   6.025   3.530   0.080
 4432TIP3    H213303   6.042   3.415  -0.017
 4433TIP3   OH213304   5.357   2.908   1.095
 4433TIP3    H113305   5.434   2.904   1.151
 4433TIP3    H213306   5.360   2.827   1.044
 4434TIP3   OH213307   5.770   1.756   4.850
 4434TIP3    H113308   5.753   1.773   4.757
 4434TIP3    H213309   5.705   1.690   4.875
 4435TIP3   OH213310   0.963   5.981   1.011
 4435TIP3    H113311   0.911   5.908   1.044
 4435TIP3    H213312   0.994   5.952   0.925
 4436TIP3   OH213313   5.826   3.217   2.532
 4436TIP3    H113314   5.888   3.144   2.540
 4436TIP3    H213315   5.740   3.176   2.547
 4437TIP3   OH213316   0.852   2.540   4.428
 4437TIP3    H113317   0.786   2.543   4.497
 4437TIP3    H213318   0.933   2.513   4.472
 4438TIP3   OH213319   1.824   3.067   0.803
 4438TIP3    H113320   1.876   3.017   0.740
 4438TIP3    H213321   1.766   3.121   0.749
 4439TIP3   OH213322   6.045   3.474   0.453
 4439TIP3    H113323   6.110   3.508   0.391
 4439TIP3    H213324   5.977   3.436   0.398
 4440TIP3   OH213325   4.311   5.484   5.147
 4440TIP3    H113326   4.396   5.512   5.180
 4440TIP3    H213327   4.261   5.566   5.136
 4441TIP3   OH213328   4.492   3.406   4.462
 4441TIP3    H113329   4.449   3.435   4.543
 4441TIP3    H213330   4.546   3.331   4.489
 4442TIP3   OH213331   3.034   1.034   3.436
 4442TIP3    H113332   3.076   1.101   3.489
 4442TIP3    H213333   3.047   1.062   3.346
 4443TIP3   OH213334   2.963   4.167   1.367
 4443TIP3    H113335   3.021   4.177   1.443
 4443TIP3    H213336   3.016   4.198   1.294
 4444TIP3   OH213337   4.380   2.471   3.079
 4444TIP3    H113338   4.419   2.401   3.132
 4444TIP3    H213339   4.289   2.445   3.070
 4445TIP3   OH213340   5.133   3.410   3.163
 4445TIP3    H113341   5.146   3.504   3.148
 4445TIP3    H213342   5.104   3.376   3.079
 4446TIP3   OH213343   0.797   2.077   5.038
 4446TIP3    H113344   0.738   2.051   5.109
 4446TIP3    H213345   0.807   2.172   5.050
 4447TIP3   OH213346   0.787   5.109   1.032
 4447TIP3    H113347   0.718   5.147   1.086
 4447TIP3    H213348   0.856   5.175   1.032
 4448TIP3   OH213349   3.671   1.238   4.266
 4448TIP3    H113350   3.646   1.214   4.355
 4448TIP3    H213351   3.690   1.331   4.270
 4449TIP3   OH213352   3.039   1.657   3.471
 4449TIP3    H113353   3.045   1.629   3.380
 4449TIP3    H213354   2.946   1.651   3.493
 4450TIP3   OH213355   4.989   4.774   0.288
 4450TIP3    H113356   4.980   4.679   0.303
 4450TIP3    H213357   4.936   4.792   0.211
 4451TIP3   OH213358   0.120   4.353   4.859
 4451TIP3    H113359   0.157   4.265   4.861
 4451TIP3    H213360   0.190   4.407   4.821
 4452TIP3   OH213361   1.622   2.171   1.980
 4452TIP3    H113362   1.535   2.154   1.945
 4452TIP3    H213363   1.635   2.103   2.046
 4453TIP3   OH213364   6.127   2.291  -0.030
 4453TIP3    H113365   6.152   2.220   0.029
 4453TIP3    H213366   6.104   2.364   0.028
 4454TIP3   OH213367   5.510   2.068   3.207
 4454TIP3    H113368   5.471   2.105   3.128
 4454TIP3    H213369   5.441   2.016   3.247
 4455TIP3   OH213370   5.820   4.957   2.428
 4455TIP3    H113371   5.734   4.917   2.443
 4455TIP3    H213372   5.802   5.051   2.424
 4456TIP3   OH213373   3.248   3.995   1.798
 4456TIP3    H113374   3.342   4.004   1.812
 4456TIP3    H213375   3.210   4.008   1.885
 4457TIP3   OH213376   6.079   3.991   4.663
 4457TIP3    H113377   6.033   4.020   4.741
 4457TIP3    H213378   6.027   4.027   4.590
 4458TIP3   OH213379   0.946   5.860   1.280
 4458TIP3    H113380   0.876   5.795   1.270
 4458TIP3    H213381   0.938   5.889   1.371
 4459TIP3   OH213382   0.765   5.644   3.438
 4459TIP3    H113383   0.735   5.593   3.513
 4459TIP3    H213384   0.855   5.669   3.461
 4460TIP3   OH213385   4.412   4.610   4.465
 4460TIP3    H113386   4.424   4.515   4.460
 4460TIP3    H213387   4.418   4.630   4.558
 4461TIP3   OH213388   2.404   1.118   4.849
 4461TIP3    H113389   2.441   1.200   4.816
 4461TIP3    H213390   2.407   1.127   4.944
 4462TIP3   OH213391   2.566   4.735   3.619
 4462TIP3    H113392   2.563   4.640   3.614
 4462TIP3    H213393   2.659   4.757   3.623
 4463TIP3   OH213394   1.006   1.049   3.726
 4463TIP3    H113395   0.954   1.114   3.774
 4463TIP3    H213396   1.006   1.080   3.636
 4464TIP3   OH213397   1.122   4.540   1.661
 4464TIP3    H113398   1.091   4.537   1.571
 4464TIP3    H213399   1.200   4.595   1.657
 4465TIP3   OH213400   0.970   3.943   1.901
 4465TIP3    H113401   1.038   3.884   1.932
 4465TIP3    H213402   0.985   3.950   1.807
 4466TIP3   OH213403   3.611   1.876   1.956
 4466TIP3    H113404   3.546   1.942   1.933
 4466TIP3    H213405   3.642   1.902   2.043
 4467TIP3   OH213406   0.650   3.910   4.392
 4467TIP3    H113407   0.649   3.911   4.488
 4467TIP3    H213408   0.581   3.970   4.366
 4468TIP3   OH213409   3.766   4.196   1.387
 4468TIP3    H113410   3.748   4.256   1.314
 4468TIP3    H213411   3.685   4.146   1.397
 4469TIP3   OH213412   4.318   0.093   1.312
 4469TIP3    H113413   4.329   0.088   1.407
 4469TIP3    H213414   4.388   0.150   1.283
 4470TIP3   OH213415   5.999   1.308   1.139
 4470TIP3    H113416   5.977   1.223   1.101
 4470TIP3    H213417   5.993   1.294   1.234
 4471TIP3   OH213418   0.814   3.971   4.924
 4471TIP3    H113419   0.769   3.991   4.842
 4471TIP3    H213420   0.838   4.056   4.961
 4472TIP3   OH213421   1.857   4.999   4.265
 4472TIP3    H113422   1.842   5.080   4.216
 4472TIP3    H213423   1.932   4.958   4.222
 4473TIP3   OH213424   1.705   5.650   2.285
 4473TIP3    H113425   1.665   5.595   2.218
 4473TIP3    H213426   1.631   5.695   2.326
 4474TIP3   OH213427   4.463   2.786   0.010
 4474TIP3    H113428   4.468   2.880  -0.005
 4474TIP3    H213429   4.548   2.763   0.048
 4475TIP3   OH213430   1.136   2.738   0.580
 4475TIP3    H113431   1.111   2.715   0.670
 4475TIP3    H213432   1.160   2.654   0.540
 4476TIP3   OH213433   0.625   1.606   4.232
 4476TIP3    H113434   0.675   1.651   4.299
 4476TIP3    H213435   0.555   1.667   4.208
 4477TIP3   OH213436   4.383   5.903   2.979
 4477TIP3    H113437   4.413   5.980   2.930
 4477TIP3    H213438   4.430   5.907   3.062
 4478TIP3   OH213439   1.738   1.995   2.854
 4478TIP3    H113440   1.704   1.948   2.931
 4478TIP3    H213441   1.747   1.927   2.788
 4479TIP3   OH213442   1.550   5.211   1.229
 4479TIP3    H113443   1.509   5.236   1.146
 4479TIP3    H213444   1.489   5.239   1.296
 4480TIP3   OH213445   3.905   1.300   0.762
 4480TIP3    H113446   3.900   1.340   0.849
 4480TIP3    H213447   3.814   1.288   0.736
 4481TIP3   OH213448   0.523   4.329   3.264
 4481TIP3    H113449   0.543   4.243   3.226
 4481TIP3    H213450   0.427   4.330   3.269
 4482TIP3   OH213451   2.669   2.031   4.959
 4482TIP3    H113452   2.725   2.096   5.002
 4482TIP3    H213453   2.627   2.079   4.888
 4483TIP3   OH213454   0.820   1.233   3.965
 4483TIP3    H113455   0.800   1.261   4.055
 4483TIP3    H213456   0.835   1.315   3.917
 4484TIP3   OH213457   5.880   5.287   4.072
 4484TIP3    H113458   5.789   5.296   4.045
 4484TIP3    H213459   5.930   5.305   3.993
 4485TIP3   OH213460   2.213   1.811   2.284
 4485TIP3    H113461   2.170   1.879   2.335
 4485TIP3    H213462   2.245   1.857   2.206
 4486TIP3   OH213463   4.074   1.541   0.664
 4486TIP3    H113464   4.028   1.471   0.711
 4486TIP3    H213465   4.012   1.567   0.596
 4487TIP3   OH213466   2.141   4.697   4.774
 4487TIP3    H113467   2.076   4.674   4.708
 4487TIP3    H213468   2.135   4.792   4.781
 4488TIP3   OH213469   3.279   3.949   3.449
 4488TIP3    H113470   3.231   3.954   3.532
 4488TIP3    H213471   3.249   4.026   3.400
 4489TIP3   OH213472   2.920   3.629   2.154
 4489TIP3    H113473   2.908   3.723   2.145
 4489TIP3    H213474   2.832   3.596   2.174
 4490TIP3   OH213475   2.775   5.821   3.367
 4490TIP3    H113476   2.807   5.888   3.307
 4490TIP3    H213477   2.809   5.739   3.331
 4491TIP3   OH213478   4.964   3.547   4.743
 4491TIP3    H113479   5.001   3.494   4.671
 4491TIP3    H213480   4.909   3.611   4.699
 4492TIP3   OH213481   0.362   3.139   0.819
 4492TIP3    H113482   0.363   3.235   0.822
 4492TIP3    H213483   0.293   3.118   0.757
 4493TIP3   OH213484   1.604   5.849   2.735
 4493TIP3    H113485   1.657   5.915   2.692
 4493TIP3    H213486   1.660   5.814   2.804
 4494TIP3   OH213487   3.535   3.089   0.768
 4494TIP3    H113488   3.478   3.098   0.691
 4494TIP3    H213489   3.474   3.076   0.841
 4495TIP3   OH213490   4.796   5.721   4.429
 4495TIP3    H113491   4.812   5.812   4.405
 4495TIP3    H213492   4.726   5.693   4.369
 4496TIP3   OH213493   2.035   4.732   3.480
 4496TIP3    H113494   1.970   4.764   3.544
 4496TIP3    H213495   1.988   4.733   3.397
 4497TIP3   OH213496   1.931   4.141   3.650
 4497TIP3    H113497   2.018   4.155   3.689
 4497TIP3    H213498   1.949   4.100   3.566
 4498TIP3   OH213499   1.057   5.420   0.705
 4498TIP3    H113500   1.152   5.433   0.716
 4498TIP3    H213501   1.019   5.504   0.731
 4499TIP3   OH213502   1.864   3.791   3.992
 4499TIP3    H113503   1.863   3.886   4.003
 4499TIP3    H213504   1.946   3.774   3.945
 4500TIP3   OH213505   5.974   4.617   1.773
 4500TIP3    H113506   5.887   4.620   1.811
 4500TIP3    H213507   5.999   4.524   1.777
 4501TIP3   OH213508   0.055   4.485   4.160
 4501TIP3    H113509   0.020   4.544   4.227
 4501TIP3    H213510  -0.007   4.412   4.157
 4502TIP3   OH213511   3.445   4.545   1.967
 4502TIP3    H113512   3.394   4.477   1.922
 4502TIP3    H213513   3.399   4.558   2.050
 4503TIP3   OH213514   4.111   1.658   0.287
 4503TIP3    H113515   4.052   1.629   0.356
 4503TIP3    H213516   4.053   1.682   0.214
 4504TIP3   OH213517   5.620   2.286   0.274
 4504TIP3    H113518   5.577   2.201   0.264
 4504TIP3    H213519   5.579   2.325   0.350
 4505TIP3   OH213520   3.684   4.506   4.876
 4505TIP3    H113521   3.701   4.601   4.875
 4505TIP3    H213522   3.756   4.470   4.927
 4506TIP3   OH213523   1.248   5.735   3.912
 4506TIP3    H113524   1.292   5.719   3.996
 4506TIP3    H213525   1.185   5.664   3.904
 4507TIP3   OH213526   3.819   2.149   3.607
 4507TIP3    H113527   3.784   2.206   3.539
 4507TIP3    H213528   3.899   2.192   3.637
 4508TIP3   OH213529   5.480   3.838   3.614
 4508TIP3    H113530   5.504   3.867   3.702
 4508TIP3    H213531   5.457   3.919   3.567
 4509TIP3   OH213532   5.517   5.026   1.061
 4509TIP3    H113533   5.565   4.956   1.107
 4509TIP3    H213534   5.578   5.099   1.058
 4510TIP3   OH213535   3.220   2.953   0.843
 4510TIP3    H113536   3.297   2.933   0.897
 4510TIP3    H213537   3.152   2.894   0.876
 4511TIP3   OH213538   2.637   0.116   3.158
 4511TIP3    H113539   2.634   0.211   3.169
 4511TIP3    H213540   2.722   0.098   3.118
 4512TIP3   OH213541   4.341   1.043   4.591
 4512TIP3    H113542   4.341   1.129   4.632
 4512TIP3    H213543   4.261   1.041   4.538
 4513TIP3   OH213544   3.466   5.605   0.573
 4513TIP3    H113545   3.400   5.642   0.632
 4513TIP3    H213546   3.487   5.677   0.513
 4514TIP3   OH213547   5.514   0.557   3.856
 4514TIP3    H113548   5.485   0.647   3.867
 4514TIP3    H213549   5.505   0.540   3.762
 4515TIP3   OH213550   2.134   5.984   3.935
 4515TIP3    H113551   2.170   5.926   4.002
 4515TIP3    H213552   2.175   6.069   3.952
 4516TIP3   OH213553   3.041   1.913   0.613
 4516TIP3    H113554   3.131   1.899   0.643
 4516TIP3    H213555   3.019   2.001   0.643
 4517TIP3   OH213556   2.054   1.271   0.713
 4517TIP3    H113557   2.042   1.177   0.727
 4517TIP3    H213558   2.092   1.277   0.625
 4518TIP3   OH213559   2.260   2.458   4.045
 4518TIP3    H113560   2.334   2.400   4.059
 4518TIP3    H213561   2.298   2.546   4.046
 4519TIP3   OH213562   0.707   1.197   1.695
 4519TIP3    H113563   0.782   1.217   1.750
 4519TIP3    H213564   0.637   1.253   1.728
 4520TIP3   OH213565   0.192   3.099   4.935
 4520TIP3    H113566   0.260   3.164   4.953
 4520TIP3    H213567   0.209   3.029   4.998
 4521TIP3   OH213568   2.022   2.837   3.869
 4521TIP3    H113569   1.960   2.771   3.902
 4521TIP3    H213570   1.988   2.920   3.902
 4522TIP3   OH213571   5.535   3.095   4.801
 4522TIP3    H113572   5.443   3.122   4.798
 4522TIP3    H213573   5.581   3.162   4.752
 4523TIP3   OH213574   5.206   3.074   4.494
 4523TIP3    H113575   5.288   3.031   4.467
 4523TIP3    H213576   5.137   3.016   4.462
 4524TIP3   OH213577   2.786   2.774   1.206
 4524TIP3    H113578   2.856   2.835   1.184
 4524TIP3    H213579   2.795   2.760   1.300
 4525TIP3   OH213580   1.407   3.063   0.801
 4525TIP3    H113581   1.315   3.040   0.818
 4525TIP3    H213582   1.456   3.018   0.869
 4526TIP3   OH213583   4.405   0.692   0.507
 4526TIP3    H113584   4.392   0.643   0.588
 4526TIP3    H213585   4.424   0.625   0.441
 4527TIP3   OH213586   3.416   2.016   4.642
 4527TIP3    H113587   3.356   2.043   4.572
 4527TIP3    H213588   3.429   1.922   4.627
 4528TIP3   OH213589   4.689   4.657   3.960
 4528TIP3    H113590   4.725   4.721   3.898
 4528TIP3    H213591   4.745   4.580   3.950
 4529TIP3   OH213592   0.299   1.224   1.091
 4529TIP3    H113593   0.232   1.163   1.122
 4529TIP3    H213594   0.288   1.225   0.996
 4530TIP3   OH213595   0.218   3.980   3.600
 4530TIP3    H113596   0.150   4.043   3.623
 4530TIP3    H213597   0.300   4.030   3.604
 4531TIP3   OH213598   4.747   0.755   3.317
 4531TIP3    H113599   4.782   0.830   3.363
 4531TIP3    H213600   4.803   0.746   3.240
 4532TIP3   OH213601   1.915   2.376   4.557
 4532TIP3    H113602   1.934   2.286   4.531
 4532TIP3    H213603   1.868   2.414   4.482
 4533TIP3   OH213604   1.980   5.504   4.698
 4533TIP3    H113605   1.926   5.497   4.777
 4533TIP3    H213606   1.993   5.599   4.687
 4534TIP3   OH213607   5.568   0.591   0.233
 4534TIP3    H113608   5.486   0.543   0.227
 4534TIP3    H213609   5.608   0.560   0.314
 4535TIP3   OH213610   3.993   4.366   0.001
 4535TIP3    H113611   3.981   4.352   0.095
 4535TIP3    H213612   3.905   4.389  -0.030
 4536TIP3   OH213613   6.305   4.928   1.477
 4536TIP3    H113614   6.349   4.860   1.427
 4536TIP3    H213615   6.214   4.899   1.485
 4537TIP3   OH213616   4.981   3.710   0.422
 4537TIP3    H113617   4.946   3.685   0.507
 4537TIP3    H213618   5.073   3.732   0.440
 4538TIP3   OH213619   5.385   0.624   4.399
 4538TIP3    H113620   5.325   0.565   4.354
 4538TIP3    H213621   5.386   0.593   4.490
 4539TIP3   OH213622   2.663   1.463   4.156
 4539TIP3    H113623   2.677   1.492   4.246
 4539TIP3    H213624   2.748   1.473   4.113
 4540TIP3   OH213625   3.257   4.942   4.642
 4540TIP3    H113626   3.319   4.911   4.576
 4540TIP3    H213627   3.310   4.985   4.708
 4541TIP3   OH213628   4.485   4.360   0.626
 4541TIP3    H113629   4.427   4.387   0.698
 4541TIP3    H213630   4.475   4.265   0.623
 4542TIP3   OH213631   5.845   0.894   4.348
 4542TIP3    H113632   5.904   0.855   4.283
 4542TIP3    H213633   5.884   0.869   4.432
 4543TIP3   OH213634   2.467   1.854   4.883
 4543TIP3    H113635   2.482   1.805   4.964
 4543TIP3    H213636   2.512   1.937   4.898
 4544TIP3   OH213637   5.629   0.564   2.804
 4544TIP3    H113638   5.695   0.513   2.851
 4544TIP3    H213639   5.629   0.649   2.849
 4545TIP3   OH213640   6.296   2.306   2.727
 4545TIP3    H113641   6.307   2.225   2.677
 4545TIP3    H213642   6.295   2.278   2.819
 4546TIP3   OH213643   4.759   0.622   5.179
 4546TIP3    H113644   4.791   0.580   5.260
 4546TIP3    H213645   4.729   0.549   5.125
 4547TIP3   OH213646   2.635   0.371   3.225
 4547TIP3    H113647   2.659   0.389   3.316
 4547TIP3    H213648   2.590   0.451   3.197
 4548TIP3   OH213649   2.712   2.539   3.343
 4548TIP3    H113650   2.786   2.575   3.392
 4548TIP3    H213651   2.701   2.599   3.269
 4549TIP3   OH213652   3.758   5.156   3.155
 4549TIP3    H113653   3.752   5.061   3.165
 4549TIP3    H213654   3.750   5.189   3.245
 4550TIP3   OH213655   2.058   2.156   1.524
 4550TIP3    H113656   2.015   2.241   1.524
 4550TIP3    H213657   2.094   2.147   1.613
 4551TIP3   OH213658   3.362   4.755   1.284
 4551TIP3    H113659   3.448   4.787   1.312
 4551TIP3    H213660   3.300   4.804   1.337
 4552TIP3   OH213661   4.713   3.236   4.125
 4552TIP3    H113662   4.674   3.191   4.200
 4552TIP3    H213663   4.803   3.204   4.121
 4553TIP3   OH213664   5.697   5.655   0.743
 4553TIP3    H113665   5.647   5.731   0.715
 4553TIP3    H213666   5.671   5.641   0.834
 4554TIP3   OH213667   5.977   4.053   0.811
 4554TIP3    H113668   6.027   3.975   0.837
 4554TIP3    H213669   5.894   4.019   0.780
 4555TIP3   OH213670   5.847   3.566   2.880
 4555TIP3    H113671   5.937   3.598   2.873
 4555TIP3    H213672   5.847   3.513   2.959
 4556TIP3   OH213673   4.623   1.640   3.588
 4556TIP3    H113674   4.563   1.679   3.651
 4556TIP3    H213675   4.629   1.704   3.517
 4557TIP3   OH213676   5.340   5.698   4.440
 4557TIP3    H113677   5.413   5.727   4.386
 4557TIP3    H213678   5.267   5.687   4.379
 4558TIP3   OH213679   5.406   1.745   4.997
 4558TIP3    H113680   5.485   1.694   4.978
 4558TIP3    H213681   5.430   1.801   5.070
 4559TIP3   OH213682   4.461   3.273   1.625
 4559TIP3    H113683   4.391   3.218   1.661
 4559TIP3    H213684   4.457   3.258   1.531
 4560TIP3   OH213685   4.715   2.297   4.052
 4560TIP3    H113686   4.653   2.277   3.982
 4560TIP3    H213687   4.684   2.381   4.088
 4561TIP3   OH213688   0.584   1.960   1.956
 4561TIP3    H113689   0.490   1.963   1.936
 4561TIP3    H213690   0.587   1.946   2.051
 4562TIP3   OH213691   1.201   5.813   4.479
 4562TIP3    H113692   1.268   5.880   4.465
 4562TIP3    H213693   1.120   5.862   4.493
 4563TIP3   OH213694   1.398   1.764   1.462
 4563TIP3    H113695   1.360   1.770   1.375
 4563TIP3    H213696   1.372   1.845   1.506
 4564TIP3   OH213697   3.928   3.501   4.160
 4564TIP3    H113698   3.881   3.537   4.086
 4564TIP3    H213699   3.993   3.568   4.183
 4565TIP3   OH213700   3.850   3.414   4.961
 4565TIP3    H113701   3.833   3.482   5.026
 4565TIP3    H213702   3.765   3.374   4.946
 4566TIP3   OH213703   6.183   4.705   2.595
 4566TIP3    H113704   6.187   4.723   2.689
 4566TIP3    H213705   6.201   4.790   2.554
 4567TIP3   OH213706   5.522   5.739   1.640
 4567TIP3    H113707   5.563   5.809   1.691
 4567TIP3    H213708   5.580   5.728   1.564
 4568TIP3   OH213709   2.405   5.854   3.686
 4568TIP3    H113710   2.355   5.837   3.607
 4568TIP3    H213711   2.437   5.943   3.675
 4569TIP3   OH213712   3.235   5.009   0.929
 4569TIP3    H113713   3.169   5.039   0.866
 4569TIP3    H213714   3.184   4.982   1.006
 4570TIP3   OH213715   1.975   4.364   4.202
 4570TIP3    H113716   1.954   4.315   4.282
 4570TIP3    H213717   2.061   4.330   4.175
 4571TIP3   OH213718   4.069   1.756   4.276
 4571TIP3    H113719   4.119   1.815   4.219
 4571TIP3    H213720   4.074   1.671   4.233
 4572TIP3   OH213721   3.053   4.790   4.121
 4572TIP3    H113722   3.134   4.755   4.160
 4572TIP3    H213723   3.047   4.879   4.156
 4573TIP3   OH213724   3.008   1.846   1.198
 4573TIP3    H113725   3.033   1.786   1.127
 4573TIP3    H213726   2.915   1.828   1.213
 4574TIP3   OH213727   2.161   0.738   0.804
 4574TIP3    H113728   2.163   0.657   0.856
 4574TIP3    H213729   2.092   0.722   0.739
 4575TIP3   OH213730   3.793   4.760   4.938
 4575TIP3    H113731   3.720   4.822   4.945
 4575TIP3    H213732   3.846   4.778   5.016
 4576TIP3   OH213733   6.056   3.669   1.602
 4576TIP3    H113734   5.976   3.649   1.651
 4576TIP3    H213735   6.056   3.607   1.530
 4577TIP3   OH213736   0.546   3.197   4.048
 4577TIP3    H113737   0.500   3.165   3.970
 4577TIP3    H213738   0.493   3.167   4.121
 4578TIP3   OH213739   5.860   1.029   5.030
 4578TIP3    H113740   5.776   1.000   5.065
 4578TIP3    H213741   5.849   1.027   4.935
 4579TIP3   OH213742   4.079   2.580   1.582
 4579TIP3    H113743   4.146   2.564   1.648
 4579TIP3    H213744   4.085   2.505   1.522
 4580TIP3   OH213745   3.955   3.320   1.730
 4580TIP3    H113746   3.956   3.272   1.647
 4580TIP3    H213747   3.957   3.412   1.704
 4581TIP3   OH213748   5.510   2.635   0.193
 4581TIP3    H113749   5.423   2.652   0.229
 4581TIP3    H213750   5.567   2.695   0.242
 4582TIP3   OH213751   2.664   4.371   3.044
 4582TIP3    H113752   2.642   4.386   3.136
 4582TIP3    H213753   2.604   4.301   3.016
 4583TIP3   OH213754   5.630   0.898   5.067
 4583TIP3    H113755   5.640   0.835   4.996
 4583TIP3    H213756   5.536   0.899   5.085
 4584TIP3   OH213757   5.560   3.774   1.485
 4584TIP3    H113758   5.619   3.702   1.506
 4584TIP3    H213759   5.538   3.761   1.393
 4585TIP3   OH213760   0.687   2.547   4.653
 4585TIP3    H113761   0.605   2.581   4.688
 4585TIP3    H213762   0.753   2.574   4.717
 4586TIP3   OH213763   4.157   4.110   4.483
 4586TIP3    H113764   4.204   4.173   4.537
 4586TIP3    H213765   4.085   4.080   4.537
 4587TIP3   OH213766   5.890   5.648   3.058
 4587TIP3    H113767   5.947   5.714   3.097
 4587TIP3    H213768   5.865   5.685   2.973
 4588TIP3   OH213769   2.437   3.584   2.785
 4588TIP3    H113770   2.528   3.575   2.757
 4588TIP3    H213771   2.418   3.503   2.832
 4589TIP3   OH213772   2.077   4.451   3.518
 4589TIP3    H113773   2.023   4.419   3.446
 4589TIP3    H213774   2.079   4.546   3.506
 4590TIP3   OH213775   4.028   4.213   3.069
 4590TIP3    H113776   4.122   4.229   3.074
 4590TIP3    H213777   4.019   4.118   3.060
 4591TIP3   OH213778   5.197   1.577   0.778
 4591TIP3    H113779   5.250   1.654   0.755
 4591TIP3    H213780   5.135   1.610   0.843
 4592TIP3   OH213781   6.367   2.228   4.945
 4592TIP3    H113782   6.397   2.318   4.931
 4592TIP3    H213783   6.286   2.236   4.994
 4593TIP3   OH213784   2.651   0.790   0.066
 4593TIP3    H113785   2.661   0.878   0.101
 4593TIP3    H213786   2.570   0.794   0.015
 4594TIP3   OH213787   0.259   0.771   3.887
 4594TIP3    H113788   0.255   0.752   3.980
 4594TIP3    H213789   0.266   0.866   3.881
 4595TIP3   OH213790   0.852   2.374   0.106
 4595TIP3    H113791   0.851   2.452   0.161
 4595TIP3    H213792   0.776   2.384   0.048
 4596TIP3   OH213793   5.269   2.484   1.806
 4596TIP3    H113794   5.175   2.470   1.807
 4596TIP3    H213795   5.298   2.446   1.723
 4597TIP3   OH213796   1.461   4.745   0.957
 4597TIP3    H113797   1.438   4.673   1.015
 4597TIP3    H213798   1.522   4.798   1.008
 4598TIP3   OH213799   1.848   4.438   1.967
 4598TIP3    H113800   1.814   4.349   1.979
 4598TIP3    H213801   1.939   4.425   1.942
 4599TIP3   OH213802   3.310   1.424   3.697
 4599TIP3    H113803   3.241   1.474   3.740
 4599TIP3    H213804   3.360   1.489   3.647
 4600TIP3   OH213805   4.705   2.404   3.180
 4600TIP3    H113806   4.684   2.496   3.195
 4600TIP3    H213807   4.629   2.356   3.212
 4601TIP3   OH213808   1.790   2.745   2.546
 4601TIP3    H113809   1.702   2.718   2.570
 4601TIP3    H213810   1.822   2.794   2.621
 4602TIP3   OH213811   4.789   1.824   3.006
 4602TIP3    H113812   4.783   1.793   2.916
 4602TIP3    H213813   4.856   1.769   3.047
 4603TIP3   OH213814   1.581   5.478   2.130
 4603TIP3    H113815   1.554   5.550   2.073
 4603TIP3    H213816   1.559   5.399   2.081
 4604TIP3   OH213817   3.305   0.521   2.424
 4604TIP3    H113818   3.272   0.450   2.478
 4604TIP3    H213819   3.281   0.601   2.471
 4605TIP3   OH213820   4.344   0.991   3.052
 4605TIP3    H113821   4.283   1.036   3.111
 4605TIP3    H213822   4.427   0.989   3.100
 4606TIP3   OH213823   1.502   2.558   4.230
 4606TIP3    H113824   1.549   2.502   4.168
 4606TIP3    H213825   1.447   2.614   4.175
 4607TIP3   OH213826   1.935   3.236   3.756
 4607TIP3    H113827   2.030   3.242   3.744
 4607TIP3    H213828   1.912   3.311   3.810
 4608TIP3   OH213829   1.050   2.130   4.608
 4608TIP3    H113830   1.052   2.210   4.660
 4608TIP3    H213831   0.994   2.071   4.657
 4609TIP3   OH213832   0.153   1.382   0.103
 4609TIP3    H113833   0.114   1.416   0.183
 4609TIP3    H213834   0.211   1.311   0.133
 4610TIP3   OH213835   5.794   4.345   5.102
 4610TIP3    H113836   5.713   4.347   5.154
 4610TIP3    H213837   5.842   4.423   5.130
 4611TIP3   OH213838   0.409   5.456   4.685
 4611TIP3    H113839   0.487   5.479   4.635
 4611TIP3    H213840   0.356   5.404   4.624
 4612TIP3   OH213841   0.479  -0.015   2.376
 4612TIP3    H113842   0.544   0.051   2.350
 4612TIP3    H213843   0.450   0.014   2.463
 4613TIP3   OH213844   0.862   4.971   0.529
 4613TIP3    H113845   0.897   4.919   0.602
 4613TIP3    H213846   0.821   4.907   0.472
 4614TIP3   OH213847   5.208   5.157   0.825
 4614TIP3    H113848   5.235   5.068   0.849
 4614TIP3    H213849   5.262   5.214   0.879
 4615TIP3   OH213850   1.429   3.842   2.874
 4615TIP3    H113851   1.506   3.791   2.899
 4615TIP3    H213852   1.434   3.849   2.779
 4616TIP3   OH213853   0.111   1.857   1.895
 4616TIP3    H113854   0.104   1.790   1.963
 4616TIP3    H213855   0.073   1.816   1.818
 4617TIP3   OH213856   5.633   4.546   2.149
 4617TIP3    H113857   5.605   4.454   2.143
 4617TIP3    H213858   5.591   4.578   2.228
 4618TIP3   OH213859   0.861   3.119   3.644
 4618TIP3    H113860   0.833   3.144   3.732
 4618TIP3    H213861   0.802   3.049   3.618
 4619TIP3   OH213862   2.579   3.378   3.840
 4619TIP3    H113863   2.588   3.286   3.865
 4619TIP3    H213864   2.491   3.402   3.871
 4620TIP3   OH213865   2.827   5.012   2.018
 4620TIP3    H113866   2.799   5.103   2.004
 4620TIP3    H213867   2.749   4.960   1.999
 4621TIP3   OH213868   3.304   2.492   4.952
 4621TIP3    H113869   3.392   2.496   4.989
 4621TIP3    H213870   3.314   2.526   4.863
 4622TIP3   OH213871   5.446   3.344   3.993
 4622TIP3    H113872   5.424   3.373   3.905
 4622TIP3    H213873   5.462   3.424   4.042
 4623TIP3   OH213874   4.303   4.144   0.538
 4623TIP3    H113875   4.249   4.159   0.615
 4623TIP3    H213876   4.253   4.082   0.485
 4624TIP3   OH213877   0.988   0.354   0.761
 4624TIP3    H113878   1.038   0.285   0.803
 4624TIP3    H213879   0.966   0.415   0.832
 4625TIP3   OH213880   6.040   4.824   1.537
 4625TIP3    H113881   6.048   4.851   1.628
 4625TIP3    H213882   5.952   4.788   1.530
 4626TIP3   OH213883   6.030   0.472   1.970
 4626TIP3    H113884   6.112   0.422   1.973
 4626TIP3    H213885   5.986   0.452   2.052
 4627TIP3   OH213886   0.479   0.406   4.009
 4627TIP3    H113887   0.512   0.331   3.959
 4627TIP3    H213888   0.481   0.479   3.947
 4628TIP3   OH213889   0.779   4.458   0.676
 4628TIP3    H113890   0.801   4.397   0.747
 4628TIP3    H213891   0.752   4.538   0.722
 4629TIP3   OH213892   1.121   4.639   0.111
 4629TIP3    H113893   1.159   4.571   0.167
 4629TIP3    H213894   1.188   4.707   0.108
 4630TIP3   OH213895   3.769   5.633   1.952
 4630TIP3    H113896   3.771   5.607   2.044
 4630TIP3    H213897   3.689   5.595   1.917
 4631TIP3   OH213898   1.795   4.931   0.616
 4631TIP3    H113899   1.779   5.022   0.590
 4631TIP3    H213900   1.885   4.914   0.589
 4632TIP3   OH213901   3.820   3.896   0.296
 4632TIP3    H113902   3.737   3.851   0.304
 4632TIP3    H213903   3.798   3.980   0.254
 4633TIP3   OH213904   1.595   5.344   0.678
 4633TIP3    H113905   1.637   5.387   0.605
 4633TIP3    H213906   1.627   5.254   0.675
 4634TIP3   OH213907   6.080   0.744   4.934
 4634TIP3    H113908   6.110   0.814   4.877
 4634TIP3    H213909   6.119   0.665   4.897
 4635TIP3   OH213910   3.270   2.720   4.524
 4635TIP3    H113911   3.291   2.692   4.435
 4635TIP3    H213912   3.260   2.638   4.573
 4636TIP3   OH213913   0.479   2.896   0.951
 4636TIP3    H113914   0.482   2.927   0.860
 4636TIP3    H213915   0.451   2.972   1.002
 4637TIP3   OH213916   5.607   1.530   3.142
 4637TIP3    H113917   5.582   1.447   3.183
 4637TIP3    H213918   5.583   1.597   3.207
 4638TIP3   OH213919   3.411   1.266   5.201
 4638TIP3    H113920   3.383   1.191   5.149
 4638TIP3    H213921   3.506   1.271   5.186
 4639TIP3   OH213922   3.509   3.563   1.363
 4639TIP3    H113923   3.516   3.643   1.310
 4639TIP3    H213924   3.415   3.549   1.374
 4640TIP3   OH213925   4.113   2.900   1.996
 4640TIP3    H113926   4.154   2.866   2.075
 4640TIP3    H213927   4.088   2.821   1.946
 4641TIP3   OH213928   1.637   5.677   3.778
 4641TIP3    H113929   1.549   5.703   3.752
 4641TIP3    H213930   1.695   5.730   3.723
 4642TIP3   OH213931   5.772   5.752   3.541
 4642TIP3    H113932   5.699   5.707   3.499
 4642TIP3    H213933   5.849   5.700   3.518
 4643TIP3   OH213934   6.103   1.511   3.007
 4643TIP3    H113935   6.164   1.489   3.078
 4643TIP3    H213936   6.024   1.542   3.051
 4644TIP3   OH213937   0.458   2.403   0.170
 4644TIP3    H113938   0.542   2.445   0.155
 4644TIP3    H213939   0.460   2.377   0.262
 4645TIP3   OH213940   3.914   5.133   1.308
 4645TIP3    H113941   3.901   5.040   1.327
 4645TIP3    H213942   3.994   5.156   1.355
 4646TIP3   OH213943   2.491   4.023   4.140
 4646TIP3    H113944   2.498   4.118   4.145
 4646TIP3    H213945   2.401   4.004   4.167
 4647TIP3   OH213946   2.151   0.120   1.156
 4647TIP3    H113947   2.132   0.187   1.090
 4647TIP3    H213948   2.124   0.160   1.239
 4648TIP3   OH213949   5.303   0.745   0.307
 4648TIP3    H113950   5.303   0.654   0.275
 4648TIP3    H213951   5.215   0.777   0.287
 4649TIP3   OH213952   1.206   1.095   0.356
 4649TIP3    H113953   1.144   1.096   0.428
 4649TIP3    H213954   1.229   1.187   0.342
 4650TIP3   OH213955   5.699   2.027   1.789
 4650TIP3    H113956   5.735   2.057   1.872
 4650TIP3    H213957   5.668   2.106   1.746
 4651TIP3   OH213958   3.498   0.883   4.792
 4651TIP3    H113959   3.442   0.821   4.746
 4651TIP3    H213960   3.513   0.954   4.729
 4652TIP3   OH213961   4.964   0.189   2.645
 4652TIP3    H113962   4.982   0.270   2.693
 4652TIP3    H213963   5.049   0.149   2.631
 4653TIP3   OH213964   2.630   0.487   5.153
 4653TIP3    H113965   2.592   0.575   5.151
 4653TIP3    H213966   2.705   0.492   5.094
 4654TIP3   OH213967   5.249   5.279   1.464
 4654TIP3    H113968   5.306   5.356   1.451
 4654TIP3    H213969   5.237   5.275   1.559
 4655TIP3   OH213970   4.518   5.166   3.473
 4655TIP3    H113971   4.444   5.215   3.509
 4655TIP3    H213972   4.505   5.077   3.504
 4656TIP3   OH213973   5.826   2.744   5.158
 4656TIP3    H113974   5.738   2.719   5.186
 4656TIP3    H213975   5.883   2.679   5.199
 4657TIP3   OH213976   3.876   2.677   1.260
 4657TIP3    H113977   3.933   2.683   1.183
 4657TIP3    H213978   3.905   2.748   1.318
 4658TIP3   OH213979   4.285   1.562   2.903
 4658TIP3    H113980   4.194   1.590   2.907
 4658TIP3    H213981   4.330   1.618   2.967
 4659TIP3   OH213982   2.944   2.475   1.190
 4659TIP3    H113983   2.922   2.493   1.281
 4659TIP3    H213984   2.993   2.552   1.161
 4660TIP3   OH213985   4.287   0.501   1.307
 4660TIP3    H113986   4.219   0.519   1.371
 4660TIP3    H213987   4.346   0.439   1.349
 4661TIP3   OH213988   2.536   3.484   0.459
 4661TIP3    H113989   2.441   3.483   0.471
 4661TIP3    H213990   2.551   3.427   0.384
 4662TIP3   OH213991   1.306   0.734   1.189
 4662TIP3    H113992   1.373   0.702   1.128
 4662TIP3    H213993   1.284   0.658   1.242
 4663TIP3   OH213994   5.730   3.266   4.092
 4663TIP3    H113995   5.665   3.296   4.029
 4663TIP3    H213996   5.730   3.331   4.161
 4664TIP3   OH213997   6.165   0.530   4.473
 4664TIP3    H113998   6.174   0.451   4.420
 4664TIP3    H213999   6.255   0.560   4.486
 4665TIP3   OH214000   0.197   0.854   1.927
 4665TIP3    H114001   0.220   0.875   1.836
 4665TIP3    H214002   0.105   0.829   1.923
 4666TIP3   OH214003   4.119   3.675   0.236
 4666TIP3    H114004   4.076   3.748   0.280
 4666TIP3    H214005   4.213   3.690   0.252
 4667TIP3   OH214006   0.821   0.033   1.228
 4667TIP3    H114007   0.871  -0.046   1.208
 4667TIP3    H214008   0.779   0.015   1.312
 4668TIP3   OH214009   2.388   1.355   4.131
 4668TIP3    H114010   2.331   1.300   4.076
 4668TIP3    H214011   2.476   1.326   4.110
 4669TIP3   OH214012   4.544   4.781   0.114
 4669TIP3    H114013   4.570   4.766   0.023
 4669TIP3    H214014   4.627   4.785   0.162
 4670TIP3   OH214015   0.196   5.011   4.563
 4670TIP3    H114016   0.212   5.105   4.549
 4670TIP3    H214017   0.213   4.971   4.478
 4671TIP3   OH214018   5.232   1.670   3.939
 4671TIP3    H114019   5.208   1.651   4.029
 4671TIP3    H214020   5.325   1.646   3.933
 4672TIP3   OH214021   6.342   3.468   0.785
 4672TIP3    H114022   6.327   3.432   0.872
 4672TIP3    H214023   6.285   3.545   0.781
 4673TIP3   OH214024   1.968   1.880   4.066
 4673TIP3    H114025   1.893   1.856   4.121
 4673TIP3    H214026   1.943   1.964   4.027
 4674TIP3   OH214027   3.508   0.526   3.906
 4674TIP3    H114028   3.600   0.539   3.928
 4674TIP3    H214029   3.509   0.497   3.815
 4675TIP3   OH214030   3.473   1.945   2.965
 4675TIP3    H114031   3.461   2.033   2.929
 4675TIP3    H214032   3.551   1.952   3.019
 4676TIP3   OH214033   3.719   4.431   3.709
 4676TIP3    H114034   3.727   4.380   3.789
 4676TIP3    H214035   3.667   4.376   3.650
 4677TIP3   OH214036   1.322   0.773   3.644
 4677TIP3    H114037   1.324   0.712   3.718
 4677TIP3    H214038   1.229   0.784   3.625
 4678TIP3   OH214039   1.561   4.777   4.050
 4678TIP3    H114040   1.635   4.717   4.059
 4678TIP3    H214041   1.484   4.720   4.054
 4679TIP3   OH214042   2.895   5.014   3.810
 4679TIP3    H114043   2.923   5.090   3.759
 4679TIP3    H214044   2.958   5.010   3.882
 4680TIP3   OH214045   1.984   0.008   0.441
 4680TIP3    H114046   2.065  -0.024   0.481
 4680TIP3    H214047   2.009   0.090   0.398
 4681TIP3   OH214048   5.531   5.454   5.013
 4681TIP3    H114049   5.457   5.446   4.953
 4681TIP3    H214050   5.503   5.521   5.076
 4682TIP3   OH214051   1.578   4.653   1.676
 4682TIP3    H114052   1.510   4.715   1.648
 4682TIP3    H214053   1.557   4.573   1.628
 4683TIP3   OH214054   2.817   2.188   0.237
 4683TIP3    H114055   2.759   2.171   0.163
 4683TIP3    H214056   2.863   2.105   0.251
 4684TIP3   OH214057   1.715   5.073   2.878
 4684TIP3    H114058   1.720   5.151   2.824
 4684TIP3    H214059   1.643   5.022   2.842
 4685TIP3   OH214060   5.700   3.746   2.675
 4685TIP3    H114061   5.605   3.750   2.674
 4685TIP3    H214062   5.720   3.663   2.719
 4686TIP3   OH214063   0.927   2.720   1.687
 4686TIP3    H114064   0.917   2.801   1.737
 4686TIP3    H214065   1.012   2.686   1.714
 4687TIP3   OH214066   0.304   4.504   4.070
 4687TIP3    H114067   0.309   4.597   4.092
 4687TIP3    H214068   0.211   4.488   4.057
 4688TIP3   OH214069   1.513   4.609   0.464
 4688TIP3    H114070   1.558   4.644   0.541
 4688TIP3    H214071   1.474   4.685   0.422
 4689TIP3   OH214072   1.723   0.734   3.419
 4689TIP3    H114073   1.804   0.785   3.411
 4689TIP3    H214074   1.703   0.707   3.330
 4690TIP3   OH214075   1.828   3.081   2.066
 4690TIP3    H114076   1.817   3.037   2.150
 4690TIP3    H214077   1.762   3.151   2.067
 4691TIP3   OH214078   5.784   2.642   4.560
 4691TIP3    H114079   5.783   2.570   4.623
 4691TIP3    H214080   5.725   2.613   4.490
 4692TIP3   OH214081   0.461   1.271   0.583
 4692TIP3    H114082   0.527   1.321   0.536
 4692TIP3    H214083   0.444   1.195   0.528
 4693TIP3   OH214084   2.552   0.746   5.154
 4693TIP3    H114085   2.563   0.726   5.061
 4693TIP3    H214086   2.612   0.818   5.170
 4694TIP3   OH214087   4.138   3.539   3.538
 4694TIP3    H114088   4.079   3.517   3.611
 4694TIP3    H214089   4.215   3.577   3.580
 4695TIP3   OH214090   5.784   2.996   1.534
 4695TIP3    H114091   5.839   3.007   1.612
 4695TIP3    H214092   5.795   3.077   1.486
 4696TIP3   OH214093   1.810   5.874   1.818
 4696TIP3    H114094   1.860   5.940   1.769
 4696TIP3    H214095   1.742   5.923   1.863
 4697TIP3   OH214096   1.370   3.505   1.660
 4697TIP3    H114097   1.430   3.463   1.598
 4697TIP3    H214098   1.404   3.594   1.670
 4698TIP3   OH214099   0.250   1.910   3.765
 4698TIP3    H114100   0.182   1.910   3.832
 4698TIP3    H214101   0.246   1.998   3.727
 4699TIP3   OH214102   0.206   4.102   4.038
 4699TIP3    H114103   0.120   4.126   4.002
 4699TIP3    H214104   0.219   4.012   4.010
 4700TIP3   OH214105   5.676   3.919   4.722
 4700TIP3    H114106   5.602   3.898   4.780
 4700TIP3    H214107   5.677   4.014   4.717
 4701TIP3   OH214108   4.976   0.450   1.453
 4701TIP3    H114109   5.019   0.446   1.539
 4701TIP3    H214110   5.016   0.526   1.410
 4702TIP3   OH214111   2.158   2.049   0.294
 4702TIP3    H114112   2.131   2.082   0.380
 4702TIP3    H214113   2.123   2.114   0.232
 4703TIP3   OH214114   3.090   5.593   2.608
 4703TIP3    H114115   3.109   5.629   2.522
 4703TIP3    H214116   3.048   5.665   2.655
 4704TIP3   OH214117   5.746   1.024   2.351
 4704TIP3    H114118   5.716   1.025   2.261
 4704TIP3    H214119   5.820   1.085   2.352
 4705TIP3   OH214120   2.684   4.688   3.164
 4705TIP3    H114121   2.622   4.630   3.209
 4705TIP3    H214122   2.629   4.747   3.112
 4706TIP3   OH214123   0.695   3.881   1.877
 4706TIP3    H114124   0.639   3.957   1.891
 4706TIP3    H214125   0.783   3.910   1.903
 4707TIP3   OH214126   6.011   5.473   0.552
 4707TIP3    H114127   5.951   5.519   0.493
 4707TIP3    H214128   6.096   5.516   0.538
 4708TIP3   OH214129   4.302   2.940   1.696
 4708TIP3    H114130   4.398   2.939   1.692
 4708TIP3    H214131   4.282   2.990   1.775
 4709TIP3   OH214132   5.941   5.549   3.430
 4709TIP3    H114133   5.879   5.476   3.427
 4709TIP3    H214134   5.994   5.538   3.351
 4710TIP3   OH214135   4.757   1.367   4.904
 4710TIP3    H114136   4.665   1.386   4.918
 4710TIP3    H214137   4.768   1.278   4.937
 4711TIP3   OH214138   5.306   0.688   0.980
 4711TIP3    H114139   5.326   0.607   1.027
 4711TIP3    H214140   5.387   0.708   0.932
 4712TIP3   OH214141   5.790   0.779   4.807
 4712TIP3    H114142   5.753   0.862   4.775
 4712TIP3    H214143   5.884   0.797   4.817
 4713TIP3   OH214144   2.454   5.098   2.603
 4713TIP3    H114145   2.367   5.135   2.594
 4713TIP3    H214146   2.446   5.008   2.572
 4714TIP3   OH214147   0.140   0.166   2.791
 4714TIP3    H114148   0.234   0.158   2.803
 4714TIP3    H214149   0.108   0.210   2.870
 4715TIP3   OH214150   2.137   0.129   4.851
 4715TIP3    H114151   2.048   0.161   4.866
 4715TIP3    H214152   2.144   0.049   4.903
 4716TIP3   OH214153   0.115   4.251   2.693
 4716TIP3    H114154   0.022   4.237   2.677
 4716TIP3    H214155   0.157   4.169   2.665
 4717TIP3   OH214156   4.099   5.423   1.002
 4717TIP3    H114157   4.098   5.476   1.082
 4717TIP3    H214158   4.141   5.480   0.937
 4718TIP3   OH214159   1.106   0.062   4.186
 4718TIP3    H114160   1.042   0.001   4.222
 4718TIP3    H214161   1.065   0.148   4.195
 4719TIP3   OH214162   2.885   0.353   3.474
 4719TIP3    H114163   2.882   0.277   3.532
 4719TIP3    H214164   2.817   0.411   3.506
 4720TIP3   OH214165   4.256   3.673   5.138
 4720TIP3    H114166   4.261   3.580   5.116
 4720TIP3    H214167   4.178   3.681   5.193
 4721TIP3   OH214168   6.068   5.336   2.854
 4721TIP3    H114169   6.162   5.319   2.857
 4721TIP3    H214170   6.029   5.254   2.824
 4722TIP3   OH214171   5.452   0.292   4.250
 4722TIP3    H114172   5.501   0.290   4.168
 4722TIP3    H214173   5.519   0.300   4.318
 4723TIP3   OH214174   0.775   3.814   0.184
 4723TIP3    H114175   0.738   3.768   0.260
 4723TIP3    H214176   0.843   3.870   0.222
 4724TIP3   OH214177   1.731   0.412   5.018
 4724TIP3    H114178   1.695   0.470   4.950
 4724TIP3    H214179   1.825   0.417   5.006
 4725TIP3   OH214180   0.634   1.984   1.666
 4725TIP3    H114181   0.624   1.993   1.761
 4725TIP3    H214182   0.588   2.059   1.629
 4726TIP3   OH214183   1.048   1.212   3.492
 4726TIP3    H114184   1.022   1.300   3.519
 4726TIP3    H214185   1.051   1.217   3.396
 4727TIP3   OH214186   5.567   2.058   4.158
 4727TIP3    H114187   5.481   2.017   4.157
 4727TIP3    H214188   5.580   2.086   4.248
 4728TIP3   OH214189   3.157   0.283   3.630
 4728TIP3    H114190   3.097   0.303   3.557
 4728TIP3    H214191   3.203   0.365   3.647
 4729TIP3   OH214192   0.276   5.053   4.223
 4729TIP3    H114193   0.183   5.054   4.243
 4729TIP3    H214194   0.290   5.135   4.175
 4730TIP3   OH214195   3.378   1.510   4.602
 4730TIP3    H114196   3.410   1.530   4.690
 4730TIP3    H214197   3.350   1.594   4.567
 4731TIP3   OH214198   3.819   2.209   1.515
 4731TIP3    H114199   3.760   2.135   1.526
 4731TIP3    H214200   3.897   2.172   1.473
 4732TIP3   OH214201   1.782   5.946   2.120
 4732TIP3    H114202   1.743   5.867   2.156
 4732TIP3    H214203   1.742   6.018   2.170
 4733TIP3   OH214204   3.807   2.316   3.392
 4733TIP3    H114205   3.798   2.404   3.428
 4733TIP3    H214206   3.839   2.329   3.302
 4734TIP3   OH214207   2.463   3.885   0.318
 4734TIP3    H114208   2.439   3.963   0.269
 4734TIP3    H214209   2.385   3.862   0.368
 4735TIP3   OH214210   1.974   0.109   3.724
 4735TIP3    H114211   2.057   0.125   3.680
 4735TIP3    H214212   1.975   0.169   3.799
 4736TIP3   OH214213   0.646   0.081   2.146
 4736TIP3    H114214   0.681   0.170   2.136
 4736TIP3    H214215   0.551   0.093   2.139
 4737TIP3   OH214216   1.187   2.621   3.341
 4737TIP3    H114217   1.176   2.636   3.248
 4737TIP3    H214218   1.259   2.679   3.366
 4738TIP3   OH214219   0.307   2.169   2.057
 4738TIP3    H114220   0.356   2.159   2.139
 4738TIP3    H214221   0.344   2.104   1.999
 4739TIP3   OH214222   4.310   2.645   1.253
 4739TIP3    H114223   4.233   2.611   1.209
 4739TIP3    H214224   4.283   2.657   1.344
 4740TIP3   OH214225   2.285   3.562   2.046
 4740TIP3    H114226   2.319   3.538   2.133
 4740TIP3    H214227   2.302   3.656   2.039
 4741TIP3   OH214228   6.356   5.913   3.052
 4741TIP3    H114229   6.367   5.868   3.135
 4741TIP3    H214230   6.432   5.970   3.044
 4742TIP3   OH214231   5.829   2.467   0.343
 4742TIP3    H114232   5.872   2.519   0.276
 4742TIP3    H214233   5.768   2.411   0.294
 4743TIP3   OH214234   4.983   1.867   3.421
 4743TIP3    H114235   5.048   1.937   3.412
 4743TIP3    H214236   4.910   1.895   3.366
 4744TIP3   OH214237   0.805   1.368   0.421
 4744TIP3    H114238   0.900   1.368   0.432
 4744TIP3    H214239   0.783   1.277   0.402
 4745TIP3   OH214240   0.527   1.436   3.380
 4745TIP3    H114241   0.615   1.405   3.358
 4745TIP3    H214242   0.539   1.529   3.400
 4746TIP3   OH214243   4.739   1.318   2.992
 4746TIP3    H114244   4.834   1.325   2.997
 4746TIP3    H214245   4.724   1.244   2.933
 4747TIP3   OH214246   0.541   2.414   3.464
 4747TIP3    H114247   0.552   2.320   3.479
 4747TIP3    H214248   0.574   2.455   3.544
 4748TIP3   OH214249   6.094   4.748   1.984
 4748TIP3    H114250   6.050   4.686   1.926
 4748TIP3    H214251   6.032   4.762   2.056
 4749TIP3   OH214252   2.628   0.848   1.986
 4749TIP3    H114253   2.551   0.881   1.939
 4749TIP3    H214254   2.614   0.875   2.077
 4750TIP3   OH214255   3.273   2.414   2.580
 4750TIP3    H114256   3.202   2.456   2.629
 4750TIP3    H214257   3.252   2.321   2.583
 4751TIP3   OH214258   1.940   0.935   2.940
 4751TIP3    H114259   2.015   0.876   2.937
 4751TIP3    H214260   1.866   0.880   2.914
 4752TIP3   OH214261   2.404   2.059   0.903
 4752TIP3    H114262   2.346   2.001   0.853
 4752TIP3    H214263   2.368   2.146   0.888
 4753TIP3   OH214264   1.656   5.829   1.496
 4753TIP3    H114265   1.585   5.890   1.475
 4753TIP3    H214266   1.684   5.856   1.584
 4754TIP3   OH214267   0.543   5.003   0.261
 4754TIP3    H114268   0.574   4.913   0.259
 4754TIP3    H214269   0.464   5.000   0.315
 4755TIP3   OH214270   0.152   2.932   4.298
 4755TIP3    H114271   0.108   2.849   4.315
 4755TIP3    H214272   0.096   2.998   4.339
 4756TIP3   OH214273   4.319   3.738   1.266
 4756TIP3    H114274   4.394   3.793   1.288
 4756TIP3    H214275   4.251   3.799   1.240
 4757TIP3   OH214276   5.171   1.482   0.375
 4757TIP3    H114277   5.115   1.530   0.436
 4757TIP3    H214278   5.237   1.440   0.431
 4758TIP3   OH214279   6.213   2.318   0.365
 4758TIP3    H114280   6.185   2.321   0.456
 4758TIP3    H214281   6.308   2.324   0.369
 4759TIP3   OH214282   4.569   3.225   0.244
 4759TIP3    H114283   4.518   3.299   0.276
 4759TIP3    H214284   4.548   3.220   0.151
 4760TIP3   OH214285   6.098   1.723   4.378
 4760TIP3    H114286   6.093   1.709   4.473
 4760TIP3    H214287   6.072   1.814   4.366
 4761TIP3   OH214288   2.201   5.900   3.165
 4761TIP3    H114289   2.138   5.870   3.100
 4761TIP3    H214290   2.187   5.994   3.170
 4762TIP3   OH214291   0.241   5.580   0.938
 4762TIP3    H114292   0.222   5.558   0.847
 4762TIP3    H214293   0.281   5.666   0.935
 4763TIP3   OH214294   5.772   4.871   0.549
 4763TIP3    H114295   5.759   4.835   0.637
 4763TIP3    H214296   5.687   4.909   0.526
 4764TIP3   OH214297   1.861   4.865   2.330
 4764TIP3    H114298   1.798   4.834   2.265
 4764TIP3    H214299   1.937   4.808   2.319
 4765TIP3   OH214300   3.078   3.617   4.738
 4765TIP3    H114301   3.049   3.689   4.794
 4765TIP3    H214302   3.090   3.658   4.652
 4766TIP3   OH214303   1.378   0.255   3.936
 4766TIP3    H114304   1.340   0.194   4.000
 4766TIP3    H214305   1.308   0.318   3.920
 4767TIP3   OH214306   4.211   5.183   0.952
 4767TIP3    H114307   4.159   5.262   0.950
 4767TIP3    H214308   4.236   5.168   0.861
 4768TIP3   OH214309   1.155   2.138   0.191
 4768TIP3    H114310   1.176   2.046   0.180
 4768TIP3    H214311   1.060   2.140   0.206
 4769TIP3   OH214312   4.605   1.549   5.072
 4769TIP3    H114313   4.675   1.598   5.030
 4769TIP3    H214314   4.607   1.577   5.164
 4770TIP3   OH214315   3.219   4.477   3.265
 4770TIP3    H114316   3.145   4.537   3.259
 4770TIP3    H214317   3.255   4.492   3.352
 4771TIP3   OH214318   0.964   2.825   2.775
 4771TIP3    H114319   0.985   2.758   2.710
 4771TIP3    H214320   0.894   2.877   2.735
 4772TIP3   OH214321   0.488   4.805   0.695
 4772TIP3    H114322   0.568   4.758   0.720
 4772TIP3    H214323   0.505   4.896   0.721
 4773TIP3   OH214324   2.177   2.088   3.770
 4773TIP3    H114325   2.103   2.039   3.735
 4773TIP3    H214326   2.139   2.168   3.805
 4774TIP3   OH214327   1.419   0.535   3.784
 4774TIP3    H114328   1.479   0.477   3.737
 4774TIP3    H214329   1.335   0.488   3.784
 4775TIP3   OH214330   1.106   2.509   4.528
 4775TIP3    H114331   1.173   2.571   4.498
 4775TIP3    H214332   1.137   2.478   4.613
 4776TIP3   OH214333   0.716   4.220   4.044
 4776TIP3    H114334   0.728   4.209   4.138
 4776TIP3    H214335   0.621   4.222   4.031
 4777TIP3   OH214336   1.175   0.093   3.064
 4777TIP3    H114337   1.261   0.051   3.069
 4777TIP3    H214338   1.117   0.024   3.031
 4778TIP3   OH214339   5.855   3.008   3.753
 4778TIP3    H114340   5.924   3.017   3.819
 4778TIP3    H214341   5.902   3.003   3.669
 4779TIP3   OH214342   5.985   1.256   1.405
 4779TIP3    H114343   6.001   1.162   1.408
 4779TIP3    H214344   5.909   1.270   1.461
 4780TIP3   OH214345   3.880   3.714   1.772
 4780TIP3    H114346   3.828   3.650   1.724
 4780TIP3    H214347   3.909   3.777   1.705
 4781TIP3   OH214348   5.922   5.206   4.848
 4781TIP3    H114349   5.903   5.291   4.807
 4781TIP3    H214350   6.017   5.204   4.856
 4782TIP3   OH214351   2.415   0.366   0.600
 4782TIP3    H114352   2.462   0.283   0.592
 4782TIP3    H214353   2.465   0.428   0.547
 4783TIP3   OH214354   4.285   5.404   1.988
 4783TIP3    H114355   4.250   5.469   2.049
 4783TIP3    H214356   4.379   5.406   2.002
 4784TIP3   OH214357   2.007   0.477   1.960
 4784TIP3    H114358   1.979   0.440   1.877
 4784TIP3    H214359   1.986   0.570   1.954
 4785TIP3   OH214360   6.184   0.740   3.679
 4785TIP3    H114361   6.160   0.809   3.617
 4785TIP3    H214362   6.100   0.710   3.715
 4786TIP3   OH214363   6.020   3.479   1.406
 4786TIP3    H114364   6.021   3.544   1.336
 4786TIP3    H214365   6.043   3.397   1.363
 4787TIP3   OH214366   1.930   5.836   0.404
 4787TIP3    H114367   2.006   5.873   0.449
 4787TIP3    H214368   1.961   5.754   0.367
 4788TIP3   OH214369   5.643   1.780   2.071
 4788TIP3    H114370   5.711   1.723   2.034
 4788TIP3    H214371   5.691   1.854   2.108
 4789TIP3   OH214372   3.086   0.591   1.479
 4789TIP3    H114373   3.099   0.522   1.544
 4789TIP3    H214374   3.084   0.546   1.395
 4790TIP3   OH214375   4.790   0.318   4.648
 4790TIP3    H114376   4.861   0.348   4.705
 4790TIP3    H214377   4.800   0.370   4.568
 4791TIP3   OH214378   0.911   4.084   1.566
 4791TIP3    H114379   0.982   4.026   1.596
 4791TIP3    H214380   0.907   4.152   1.633
 4792TIP3   OH214381   4.528   2.965   1.867
 4792TIP3    H114382   4.582   2.903   1.916
 4792TIP3    H214383   4.500   3.029   1.932
 4793TIP3   OH214384   5.399   1.417   4.274
 4793TIP3    H114385   5.377   1.397   4.183
 4793TIP3    H214386   5.492   1.440   4.272
 4794TIP3   OH214387   0.276   1.465   1.199
 4794TIP3    H114388   0.195   1.501   1.164
 4794TIP3    H214389   0.286   1.380   1.156
 4795TIP3   OH214390   4.928   4.086   1.577
 4795TIP3    H114391   4.855   4.080   1.515
 4795TIP3    H214392   4.889   4.124   1.656
 4796TIP3   OH214393   1.882   3.167   3.067
 4796TIP3    H114394   1.792   3.170   3.034
 4796TIP3    H214395   1.937   3.166   2.989
 4797TIP3   OH214396   6.020   5.972   4.775
 4797TIP3    H114397   6.044   5.897   4.719
 4797TIP3    H214398   5.937   5.947   4.814
 4798TIP3   OH214399   1.454   1.777   0.091
 4798TIP3    H114400   1.495   1.707   0.142
 4798TIP3    H214401   1.415   1.732   0.016
 4799TIP3   OH214402   4.796   2.598   4.281
 4799TIP3    H114403   4.849   2.642   4.215
 4799TIP3    H214404   4.727   2.555   4.231
 4800TIP3   OH214405   0.958   5.478   3.084
 4800TIP3    H114406   0.866   5.477   3.110
 4800TIP3    H214407   1.006   5.479   3.166
 4801TIP3   OH214408   0.931   0.200   1.701
 4801TIP3    H114409   0.917   0.219   1.794
 4801TIP3    H214410   0.900   0.278   1.655
 4802TIP3   OH214411   1.140   2.764   2.521
 4802TIP3    H114412   1.122   2.671   2.502
 4802TIP3    H214413   1.193   2.762   2.601
 4803TIP3   OH214414   4.228   3.274   0.293
 4803TIP3    H114415   4.287   3.333   0.244
 4803TIP3    H214416   4.143   3.286   0.251
 4804TIP3   OH214417   1.958   5.583   2.353
 4804TIP3    H114418   2.023   5.624   2.296
 4804TIP3    H214419   1.874   5.616   2.319
 4805TIP3   OH214420   2.734   1.873   0.814
 4805TIP3    H114421   2.695   1.914   0.737
 4805TIP3    H214422   2.744   1.944   0.877
 4806TIP3   OH214423   5.172   4.509   3.916
 4806TIP3    H114424   5.112   4.582   3.906
 4806TIP3    H214425   5.122   4.433   3.885
 4807TIP3   OH214426   2.947   4.358   3.901
 4807TIP3    H114427   2.999   4.335   3.824
 4807TIP3    H214428   2.923   4.274   3.940
 4808TIP3   OH214429   2.066   4.907   0.687
 4808TIP3    H114430   2.117   4.871   0.615
 4808TIP3    H214431   2.127   4.964   0.734
 4809TIP3   OH214432   0.037   4.187   0.341
 4809TIP3    H114433   0.104   4.224   0.398
 4809TIP3    H214434   0.054   4.225   0.255
 4810TIP3   OH214435   4.762   5.296   2.239
 4810TIP3    H114436   4.790   5.222   2.184
 4810TIP3    H214437   4.843   5.342   2.260
 4811TIP3   OH214438   4.126   4.095   2.134
 4811TIP3    H114439   4.040   4.074   2.171
 4811TIP3    H214440   4.164   4.011   2.109
 4812TIP3   OH214441   3.244   1.207   1.446
 4812TIP3    H114442   3.308   1.161   1.500
 4812TIP3    H214443   3.171   1.145   1.437
 4813TIP3   OH214444   3.700   3.401   0.755
 4813TIP3    H114445   3.724   3.382   0.664
 4813TIP3    H214446   3.709   3.317   0.800
 4814TIP3   OH214447   5.306   3.010   2.456
 4814TIP3    H114448   5.326   2.926   2.414
 4814TIP3    H214449   5.391   3.054   2.462
 4815TIP3   OH214450   2.381   1.399   1.333
 4815TIP3    H114451   2.325   1.336   1.378
 4815TIP3    H214452   2.406   1.462   1.401
 4816TIP3   OH214453   2.478   3.475   4.662
 4816TIP3    H114454   2.539   3.418   4.709
 4816TIP3    H214455   2.393   3.432   4.671
 4817TIP3   OH214456   1.104   3.809   2.794
 4817TIP3    H114457   1.157   3.795   2.872
 4817TIP3    H214458   1.126   3.737   2.735
 4818TIP3   OH214459   0.976   0.185   1.031
 4818TIP3    H114460   0.957   0.275   1.058
 4818TIP3    H214461   0.919   0.131   1.086
 4819TIP3   OH214462   3.466   1.548   1.501
 4819TIP3    H114463   3.416   1.563   1.421
 4819TIP3    H214464   3.408   1.576   1.571
 4820TIP3   OH214465   2.064   4.536   2.418
 4820TIP3    H114466   2.096   4.605   2.360
 4820TIP3    H214467   1.993   4.495   2.369
 4821TIP3   OH214468   0.383   0.851   4.821
 4821TIP3    H114469   0.386   0.766   4.777
 4821TIP3    H214470   0.391   0.830   4.914
 4822TIP3   OH214471   4.867   3.082   1.734
 4822TIP3    H114472   4.959   3.085   1.709
 4822TIP3    H214473   4.855   2.995   1.773
 4823TIP3   OH214474   5.322   5.257   1.073
 4823TIP3    H114475   5.397   5.291   1.121
 4823TIP3    H214476   5.299   5.176   1.119
 4824TIP3   OH214477   2.402   3.266   4.898
 4824TIP3    H114478   2.346   3.222   4.835
 4824TIP3    H214479   2.425   3.198   4.961
 4825TIP3   OH214480   1.349   5.300   0.380
 4825TIP3    H114481   1.382   5.388   0.401
 4825TIP3    H214482   1.287   5.281   0.450
 4826TIP3   OH214483   4.244   5.968   0.786
 4826TIP3    H114484   4.291   5.888   0.759
 4826TIP3    H214485   4.182   5.984   0.716
 4827TIP3   OH214486   0.038   5.312   2.803
 4827TIP3    H114487   0.002   5.397   2.779
 4827TIP3    H214488   0.003   5.252   2.737
 4828TIP3   OH214489   0.324   1.088   1.591
 4828TIP3    H114490   0.309   1.138   1.511
 4828TIP3    H214491   0.406   1.040   1.575
 4829TIP3   OH214492   0.657   1.726   1.364
 4829TIP3    H114493   0.623   1.814   1.348
 4829TIP3    H214494   0.580   1.675   1.388
 4830TIP3   OH214495   4.151   3.907   2.829
 4830TIP3    H114496   4.115   3.979   2.777
 4830TIP3    H214497   4.105   3.830   2.797
 4831TIP3   OH214498   2.281   3.587   3.976
 4831TIP3    H114499   2.306   3.510   4.027
 4831TIP3    H214500   2.352   3.649   3.990
 4832TIP3   OH214501   4.372   4.284   0.866
 4832TIP3    H114502   4.299   4.226   0.846
 4832TIP3    H214503   4.450   4.231   0.848
 4833TIP3   OH214504   6.309   1.514   3.241
 4833TIP3    H114505   6.391   1.488   3.284
 4833TIP3    H214506   6.242   1.502   3.308
 4834TIP3   OH214507   2.056   1.640   3.126
 4834TIP3    H114508   1.964   1.622   3.106
 4834TIP3    H214509   2.090   1.685   3.049
 4835TIP3   OH214510   3.421   1.648   2.021
 4835TIP3    H114511   3.351   1.693   2.069
 4835TIP3    H214512   3.479   1.718   1.992
 4836TIP3   OH214513   2.133   0.701   2.467
 4836TIP3    H114514   2.071   0.752   2.519
 4836TIP3    H214515   2.086   0.680   2.387
 4837TIP3   OH214516   4.824   2.431   0.448
 4837TIP3    H114517   4.865   2.502   0.398
 4837TIP3    H214518   4.823   2.464   0.538
 4838TIP3   OH214519   4.937   3.134   4.787
 4838TIP3    H114520   4.975   3.066   4.843
 4838TIP3    H214521   4.967   3.217   4.825
 4839TIP3   OH214522   0.638   4.236   0.237
 4839TIP3    H114523   0.546   4.225   0.216
 4839TIP3    H214524   0.638   4.276   0.324
 4840TIP3   OH214525   4.836   3.486   4.221
 4840TIP3    H114526   4.823   3.555   4.156
 4840TIP3    H214527   4.776   3.416   4.194
 4841TIP3   OH214528   5.135   4.401   0.285
 4841TIP3    H114529   5.170   4.429   0.200
 4841TIP3    H214530   5.210   4.362   0.330
 4842TIP3   OH214531   3.072   0.499   1.229
 4842TIP3    H114532   3.034   0.580   1.195
 4842TIP3    H214533   3.033   0.430   1.176
 4843TIP3   OH214534   4.526   5.597   0.494
 4843TIP3    H114535   4.482   5.539   0.431
 4843TIP3    H214536   4.587   5.540   0.540
 4844TIP3   OH214537   2.632   5.885   0.934
 4844TIP3    H114538   2.647   5.791   0.936
 4844TIP3    H214539   2.673   5.918   1.014
 4845TIP3   OH214540   3.767   0.475   1.246
 4845TIP3    H114541   3.682   0.432   1.254
 4845TIP3    H214542   3.823   0.410   1.205
 4846TIP3   OH214543   4.356   5.965   3.402
 4846TIP3    H114544   4.444   5.978   3.366
 4846TIP3    H214545   4.333   5.875   3.376
 4847TIP3   OH214546   3.202   4.483   0.282
 4847TIP3    H114547   3.225   4.553   0.343
 4847TIP3    H214548   3.210   4.523   0.195
 4848TIP3   OH214549   2.997   5.616   4.524
 4848TIP3    H114550   2.930   5.685   4.516
 4848TIP3    H214551   3.056   5.632   4.451
 4849TIP3   OH214552   0.608   5.292   2.725
 4849TIP3    H114553   0.601   5.347   2.647
 4849TIP3    H214554   0.558   5.213   2.703
 4850TIP3   OH214555   3.886   1.062   3.245
 4850TIP3    H114556   3.887   1.002   3.171
 4850TIP3    H214557   3.795   1.092   3.250
 4851TIP3   OH214558   2.351   3.082   1.448
 4851TIP3    H114559   2.356   2.989   1.468
 4851TIP3    H214560   2.264   3.095   1.411
 4852TIP3   OH214561   3.292   2.507   1.713
 4852TIP3    H114562   3.386   2.523   1.717
 4852TIP3    H214563   3.283   2.413   1.696
 4853TIP3   OH214564   3.273   2.636   3.724
 4853TIP3    H114565   3.312   2.639   3.812
 4853TIP3    H214566   3.336   2.684   3.669
 4854TIP3   OH214567   2.989   4.874   2.964
 4854TIP3    H114568   3.006   4.803   3.027
 4854TIP3    H214569   2.903   4.854   2.927
 4855TIP3   OH214570   2.870   4.737   1.301
 4855TIP3    H114571   2.808   4.701   1.239
 4855TIP3    H214572   2.908   4.661   1.345
 4856TIP3   OH214573   3.260   5.362   4.230
 4856TIP3    H114574   3.256   5.313   4.148
 4856TIP3    H214575   3.173   5.350   4.269
 4857TIP3   OH214576   0.359   1.744   2.212
 4857TIP3    H114577   0.340   1.831   2.245
 4857TIP3    H214578   0.439   1.717   2.258
 4858TIP3   OH214579   3.401   3.469   3.852
 4858TIP3    H114580   3.350   3.501   3.926
 4858TIP3    H214581   3.474   3.531   3.845
 4859TIP3   OH214582   4.675   0.664   4.618
 4859TIP3    H114583   4.605   0.645   4.680
 4859TIP3    H214584   4.632   0.711   4.546
 4860TIP3   OH214585   5.878   4.693   2.462
 4860TIP3    H114586   5.862   4.787   2.465
 4860TIP3    H214587   5.833   4.658   2.539
 4861TIP3   OH214588   5.554   0.047   2.387
 4861TIP3    H114589   5.568   0.090   2.471
 4861TIP3    H214590   5.637   0.003   2.368
 4862TIP3   OH214591   3.863   2.318   1.171
 4862TIP3    H114592   3.770   2.339   1.171
 4862TIP3    H214593   3.882   2.290   1.082
 4863TIP3   OH214594   3.687   5.904   2.383
 4863TIP3    H114595   3.767   5.851   2.386
 4863TIP3    H214596   3.718   5.994   2.379
 4864TIP3   OH214597   5.914   1.977   0.182
 4864TIP3    H114598   5.986   2.040   0.187
 4864TIP3    H214599   5.872   1.981   0.268
 4865TIP3   OH214600   2.216   4.594   5.141
 4865TIP3    H114601   2.246   4.524   5.199
 4865TIP3    H214602   2.256   4.575   5.057
 4866TIP3   OH214603   6.370   2.840   2.399
 4866TIP3    H114604   6.319   2.762   2.379
 4866TIP3    H214605   6.321   2.884   2.468
 4867TIP3   OH214606   5.147   1.614   4.624
 4867TIP3    H114607   5.094   1.537   4.647
 4867TIP3    H214608   5.176   1.649   4.708
 4868TIP3   OH214609   5.082   0.745   1.136
 4868TIP3    H114610   5.162   0.721   1.087
 4868TIP3    H214611   5.098   0.712   1.225
 4869TIP3   OH214612   3.899   4.984   4.461
 4869TIP3    H114613   3.876   4.892   4.477
 4869TIP3    H214614   3.919   5.019   4.548
 4870TIP3   OH214615   5.622   4.722   0.228
 4870TIP3    H114616   5.692   4.686   0.284
 4870TIP3    H214617   5.643   4.691   0.140
 4871TIP3   OH214618   0.208   4.997   0.951
 4871TIP3    H114619   0.226   4.904   0.941
 4871TIP3    H214620   0.209   5.013   1.045
 4872TIP3   OH214621   1.204   1.874   2.405
 4872TIP3    H114622   1.223   1.961   2.440
 4872TIP3    H214623   1.143   1.836   2.468
 4873TIP3   OH214624   1.589   3.262   3.045
 4873TIP3    H114625   1.499   3.261   3.078
 4873TIP3    H214626   1.637   3.318   3.107
 4874TIP3   OH214627   2.851   0.142   2.103
 4874TIP3    H114628   2.859   0.223   2.152
 4874TIP3    H214629   2.764   0.147   2.062
 4875TIP3   OH214630   5.535   5.770   2.689
 4875TIP3    H114631   5.545   5.709   2.616
 4875TIP3    H214632   5.441   5.781   2.699
 4876TIP3   OH214633   1.920   2.121   3.401
 4876TIP3    H114634   1.923   2.181   3.476
 4876TIP3    H214635   1.999   2.068   3.409
 4877TIP3   OH214636   2.174   3.248   3.513
 4877TIP3    H114637   2.086   3.251   3.476
 4877TIP3    H214638   2.232   3.245   3.437
 4878TIP3   OH214639   0.188   3.470   2.827
 4878TIP3    H114640   0.132   3.395   2.849
 4878TIP3    H214641   0.162   3.538   2.890
 4879TIP3   OH214642   5.026   0.332   0.625
 4879TIP3    H114643   5.020   0.312   0.718
 4879TIP3    H214644   4.936   0.349   0.598
 4880TIP3   OH214645   5.665   3.828   1.857
 4880TIP3    H114646   5.751   3.833   1.899
 4880TIP3    H214647   5.674   3.761   1.790
 4881TIP3   OH214648   0.156   5.244   2.172
 4881TIP3    H114649   0.061   5.256   2.163
 4881TIP3    H214650   0.191   5.332   2.184
 4882TIP3   OH214651   1.910   4.099   2.587
 4882TIP3    H114652   1.988   4.149   2.568
 4882TIP3    H214653   1.859   4.101   2.506
 4883TIP3   OH214654   0.193   1.780   0.638
 4883TIP3    H114655   0.141   1.845   0.684
 4883TIP3    H214656   0.129   1.731   0.586
 4884TIP3   OH214657   4.327   1.539   2.354
 4884TIP3    H114658   4.244   1.568   2.314
 4884TIP3    H214659   4.318   1.560   2.447
 4885TIP3   OH214660   6.241   0.466   2.867
 4885TIP3    H114661   6.175   0.417   2.917
 4885TIP3    H214662   6.302   0.499   2.934
 4886TIP3   OH214663   0.618   1.729   3.189
 4886TIP3    H114664   0.593   1.718   3.281
 4886TIP3    H214665   0.556   1.676   3.141
 4887TIP3   OH214666   3.535   1.052   1.908
 4887TIP3    H114667   3.477   1.128   1.899
 4887TIP3    H214668   3.552   1.026   1.818
 4888TIP3   OH214669   3.518   3.423   2.278
 4888TIP3    H114670   3.554   3.478   2.347
 4888TIP3    H214671   3.592   3.405   2.220
 4889TIP3   OH214672   2.399   2.663   4.259
 4889TIP3    H114673   2.464   2.624   4.201
 4889TIP3    H214674   2.325   2.683   4.202
 4890TIP3   OH214675   0.508   2.882   2.595
 4890TIP3    H114676   0.466   2.925   2.520
 4890TIP3    H214677   0.590   2.931   2.607
 4891TIP3   OH214678   0.922   2.946   4.599
 4891TIP3    H114679   0.968   2.923   4.518
 4891TIP3    H214680   0.972   3.020   4.634
 4892TIP3   OH214681   1.695   4.885   1.047
 4892TIP3    H114682   1.767   4.822   1.050
 4892TIP3    H214683   1.709   4.934   0.966
 4893TIP3   OH214684   4.445   5.807   0.696
 4893TIP3    H114685   4.441   5.731   0.638
 4893TIP3    H214686   4.539   5.824   0.707
 4894TIP3   OH214687   4.015   1.508   4.149
 4894TIP3    H114688   4.065   1.445   4.097
 4894TIP3    H214689   4.019   1.474   4.238
 4895TIP3   OH214690   3.244   2.255   0.399
 4895TIP3    H114691   3.166   2.271   0.452
 4895TIP3    H214692   3.283   2.341   0.387
 4896TIP3   OH214693   1.529   3.029   2.110
 4896TIP3    H114694   1.482   2.956   2.152
 4896TIP3    H214695   1.579   2.988   2.039
 4897TIP3   OH214696   3.803   2.420   4.655
 4897TIP3    H114697   3.819   2.351   4.720
 4897TIP3    H214698   3.858   2.396   4.581
 4898TIP3   OH214699   3.191   3.025   1.286
 4898TIP3    H114700   3.230   3.105   1.251
 4898TIP3    H214701   3.134   2.992   1.216
 4899TIP3   OH214702   3.960   2.636   2.414
 4899TIP3    H114703   3.941   2.625   2.321
 4899TIP3    H214704   3.875   2.654   2.454
 4900TIP3   OH214705   1.622   5.445   3.154
 4900TIP3    H114706   1.555   5.410   3.212
 4900TIP3    H214707   1.576   5.458   3.070
 4901TIP3   OH214708   3.514   2.514   3.993
 4901TIP3    H114709   3.548   2.457   4.062
 4901TIP3    H214710   3.454   2.458   3.943
 4902TIP3   OH214711   4.569   4.361   0.346
 4902TIP3    H114712   4.537   4.281   0.303
 4902TIP3    H214713   4.555   4.345   0.439
 4903TIP3   OH214714   1.363   1.067   4.118
 4903TIP3    H114715   1.403   1.137   4.066
 4903TIP3    H214716   1.398   1.081   4.207
 4904TIP3   OH214717   5.704   3.112   3.431
 4904TIP3    H114718   5.786   3.160   3.428
 4904TIP3    H214719   5.640   3.169   3.388
 4905TIP3   OH214720   5.496   2.444   3.900
 4905TIP3    H114721   5.523   2.354   3.884
 4905TIP3    H214722   5.458   2.472   3.817
 4906TIP3   OH214723   2.077   2.314   3.873
 4906TIP3    H114724   2.025   2.383   3.833
 4906TIP3    H214725   2.142   2.360   3.926
 4907TIP3   OH214726   3.130   1.479   1.856
 4907TIP3    H114727   3.035   1.472   1.845
 4907TIP3    H214728   3.141   1.533   1.934
 4908TIP3   OH214729   3.583   2.043   4.322
 4908TIP3    H114730   3.562   2.122   4.372
 4908TIP3    H214731   3.611   1.980   4.388
 4909TIP3   OH214732   5.890   5.558   1.081
 4909TIP3    H114733   5.795   5.563   1.088
 4909TIP3    H214734   5.906   5.508   1.001
 4910TIP3   OH214735   4.565   2.516   4.143
 4910TIP3    H114736   4.536   2.605   4.121
 4910TIP3    H214737   4.504   2.488   4.212
 4911TIP3   OH214738   3.429   4.612   0.790
 4911TIP3    H114739   3.452   4.542   0.728
 4911TIP3    H214740   3.427   4.568   0.875
 4912TIP3   OH214741   0.939   4.965   4.240
 4912TIP3    H114742   0.937   4.993   4.148
 4912TIP3    H214743   0.886   4.885   4.241
 4913TIP3   OH214744   2.411   5.534   4.508
 4913TIP3    H114745   2.321   5.530   4.475
 4913TIP3    H214746   2.418   5.460   4.568
 4914TIP3   OH214747   3.303   0.089   2.854
 4914TIP3    H114748   3.262   0.068   2.770
 4914TIP3    H214749   3.384   0.038   2.855
 4915TIP3   OH214750   0.012   0.214   5.081
 4915TIP3    H114751   0.102   0.211   5.050
 4915TIP3    H214752   0.016   0.187   5.173
 4916TIP3   OH214753   5.521   0.753   2.428
 4916TIP3    H114754   5.519   0.662   2.457
 4916TIP3    H214755   5.455   0.797   2.482
 4917TIP3   OH214756   3.565   2.141   3.284
 4917TIP3    H114757   3.643   2.191   3.308
 4917TIP3    H214758   3.493   2.183   3.332
 4918TIP3   OH214759   1.070   5.984   1.806
 4918TIP3    H114760   1.159   6.006   1.837
 4918TIP3    H214761   1.037   5.924   1.872
 4919TIP3   OH214762   4.723   1.790   0.021
 4919TIP3    H114763   4.743   1.721   0.084
 4919TIP3    H214764   4.808   1.817  -0.013
 4920TIP3   OH214765   4.240   3.467   2.703
 4920TIP3    H114766   4.173   3.535   2.706
 4920TIP3    H214767   4.315   3.505   2.749
 4921TIP3   OH214768   1.297   1.512   0.935
 4921TIP3    H114769   1.307   1.607   0.932
 4921TIP3    H214770   1.279   1.487   0.844
 4922TIP3   OH214771   4.546   3.873   1.360
 4922TIP3    H114772   4.535   3.860   1.454
 4922TIP3    H214773   4.631   3.916   1.351
 4923TIP3   OH214774   1.167   1.814   0.145
 4923TIP3    H114775   1.164   1.785   0.054
 4923TIP3    H214776   1.260   1.814   0.167
 4924TIP3   OH214777   3.454   2.503   1.433
 4924TIP3    H114778   3.419   2.430   1.382
 4924TIP3    H214779   3.540   2.520   1.395
 4925TIP3   OH214780   4.559   1.982   1.221
 4925TIP3    H114781   4.545   1.980   1.316
 4925TIP3    H214782   4.474   1.960   1.184
 4926TIP3   OH214783   0.792   5.190   3.221
 4926TIP3    H114784   0.763   5.224   3.136
 4926TIP3    H214785   0.868   5.136   3.200
 4927TIP3   OH214786   5.408   1.390   5.039
 4927TIP3    H114787   5.322   1.423   5.064
 4927TIP3    H214788   5.395   1.350   4.953
 4928TIP3   OH214789   1.930   0.327   0.151
 4928TIP3    H114790   1.978   0.326   0.234
 4928TIP3    H214791   1.890   0.241   0.144
 4929TIP3   OH214792   4.699   1.513   1.773
 4929TIP3    H114793   4.626   1.494   1.831
 4929TIP3    H214794   4.777   1.489   1.823
 4930TIP3   OH214795   1.820   1.125   0.386
 4930TIP3    H114796   1.872   1.196   0.424
 4930TIP3    H214797   1.813   1.061   0.457
 4931TIP3   OH214798   0.280   1.977   1.561
 4931TIP3    H114799   0.219   1.956   1.491
 4931TIP3    H214800   0.365   1.950   1.528
 4932TIP3   OH214801   3.996   3.273   2.323
 4932TIP3    H114802   4.038   3.195   2.284
 4932TIP3    H214803   4.059   3.343   2.309
 4933TIP3   OH214804   6.269   4.125   3.925
 4933TIP3    H114805   6.264   4.109   3.830
 4933TIP3    H214806   6.197   4.074   3.961
 4934TIP3   OH214807   5.668   1.873   3.055
 4934TIP3    H114808   5.613   1.943   3.019
 4934TIP3    H214809   5.715   1.839   2.979
 4935TIP3   OH214810   2.049   5.422   1.398
 4935TIP3    H114811   1.991   5.446   1.325
 4935TIP3    H214812   2.077   5.506   1.434
 4936TIP3   OH214813   6.132   0.080   3.634
 4936TIP3    H114814   6.162   0.143   3.700
 4936TIP3    H214815   6.162   0.117   3.551
 4937TIP3   OH214816   0.459   3.726   3.370
 4937TIP3    H114817   0.388   3.673   3.406
 4937TIP3    H214818   0.449   3.717   3.275
 4938TIP3   OH214819   1.917   1.774   0.545
 4938TIP3    H114820   1.849   1.715   0.512
 4938TIP3    H214821   1.912   1.765   0.640
 4939TIP3   OH214822   5.845   3.387   0.285
 4939TIP3    H114823   5.866   3.340   0.205
 4939TIP3    H214824   5.783   3.454   0.258
 4940TIP3   OH214825   3.332   5.453   1.305
 4940TIP3    H114826   3.332   5.396   1.229
 4940TIP3    H214827   3.372   5.535   1.274
 4941TIP3   OH214828   5.829   2.377   2.887
 4941TIP3    H114829   5.867   2.316   2.949
 4941TIP3    H214830   5.739   2.347   2.875
 4942TIP3   OH214831   5.268   3.176   4.197
 4942TIP3    H114832   5.337   3.148   4.258
 4942TIP3    H214833   5.315   3.205   4.119
 4943TIP3   OH214834   5.517   3.546   1.688
 4943TIP3    H114835   5.542   3.455   1.705
 4943TIP3    H214836   5.448   3.540   1.622
 4944TIP3   OH214837   0.735   3.219   1.096
 4944TIP3    H114838   0.696   3.307   1.090
 4944TIP3    H214839   0.772   3.203   1.009
 4945TIP3   OH214840   1.551   5.837   4.420
 4945TIP3    H114841   1.535   5.850   4.326
 4945TIP3    H214842   1.644   5.857   4.431
 4946TIP3   OH214843   1.883   0.611   4.546
 4946TIP3    H114844   1.891   0.630   4.452
 4946TIP3    H214845   1.941   0.674   4.588
 4947TIP3   OH214846   1.948   2.126   4.353
 4947TIP3    H114847   1.859   2.098   4.328
 4947TIP3    H214848   1.962   2.206   4.302
 4948TIP3   OH214849   3.773   4.457   4.521
 4948TIP3    H114850   3.705   4.406   4.566
 4948TIP3    H214851   3.820   4.392   4.469
 4949TIP3   OH214852   1.355   0.326   1.978
 4949TIP3    H114853   1.441   0.337   2.020
 4949TIP3    H214854   1.319   0.414   1.972
 4950TIP3   OH214855   2.308   0.041   3.916
 4950TIP3    H114856   2.313  -0.019   3.842
 4950TIP3    H214857   2.400   0.057   3.939
 4951TIP3   OH214858   0.672   2.260   4.618
 4951TIP3    H114859   0.631   2.282   4.534
 4951TIP3    H214860   0.706   2.343   4.650
 4952TIP3   OH214861   4.257   2.182   1.986
 4952TIP3    H114862   4.208   2.156   1.907
 4952TIP3    H214863   4.348   2.184   1.958
 4953TIP3   OH214864   2.874   1.817   4.953
 4953TIP3    H114865   2.826   1.889   4.993
 4953TIP3    H214866   2.821   1.791   4.878
 4954TIP3   OH214867   4.798   4.717   2.140
 4954TIP3    H114868   4.777   4.657   2.068
 4954TIP3    H214869   4.723   4.712   2.199
 4955TIP3   OH214870   0.319   3.978   5.097
 4955TIP3    H114871   0.368   3.896   5.083
 4955TIP3    H214872   0.275   3.966   5.181
 4956TIP3   OH214873   2.234   2.941   3.505
 4956TIP3    H114874   2.301   2.879   3.475
 4956TIP3    H214875   2.237   3.012   3.440
 4957TIP3   OH214876   5.360   1.347   3.995
 4957TIP3    H114877   5.407   1.422   3.957
 4957TIP3    H214878   5.430   1.288   4.024
 4958TIP3   OH214879   3.498   5.552   4.121
 4958TIP3    H114880   3.459   5.505   4.195
 4958TIP3    H214881   3.583   5.510   4.107
 4959TIP3   OH214882   4.343   4.627   2.639
 4959TIP3    H114883   4.354   4.712   2.596
 4959TIP3    H214884   4.339   4.648   2.732
 4960TIP3   OH214885   2.899   4.971   2.522
 4960TIP3    H114886   2.891   4.878   2.542
 4960TIP3    H214887   2.977   4.978   2.467
 4961TIP3   OH214888   1.564   2.593   2.611
 4961TIP3    H114889   1.531   2.513   2.570
 4961TIP3    H214890   1.584   2.566   2.701
 4962TIP3   OH214891   1.454   4.987   4.206
 4962TIP3    H114892   1.539   5.026   4.229
 4962TIP3    H214893   1.475   4.898   4.179
 4963TIP3   OH214894   2.128   3.900   3.187
 4963TIP3    H114895   2.155   3.823   3.237
 4963TIP3    H214896   2.126   3.871   3.096
 4964TIP3   OH214897   5.921   4.931   1.044
 4964TIP3    H114898   5.883   4.963   0.962
 4964TIP3    H214899   5.875   4.848   1.060
 4965TIP3   OH214900   4.782   5.497   1.995
 4965TIP3    H114901   4.827   5.581   1.992
 4965TIP3    H214902   4.849   5.433   2.019
 4966TIP3   OH214903   3.348   5.816   2.823
 4966TIP3    H114904   3.321   5.839   2.734
 4966TIP3    H214905   3.411   5.745   2.811
 4967TIP3   OH214906   6.061   0.937   2.308
 4967TIP3    H114907   6.004   0.989   2.365
 4967TIP3    H214908   6.104   1.002   2.252
 4968TIP3   OH214909   5.019   4.014   0.587
 4968TIP3    H114910   5.068   4.091   0.616
 4968TIP3    H214911   4.943   4.010   0.646
 4969TIP3   OH214912   3.225   2.644   1.943
 4969TIP3    H114913   3.260   2.638   1.854
 4969TIP3    H214914   3.204   2.554   1.967
 4970TIP3   OH214915   2.804   4.141   2.170
 4970TIP3    H114916   2.717   4.154   2.210
 4970TIP3    H214917   2.808   4.206   2.100
 4971TIP3   OH214918   3.397   1.332   1.839
 4971TIP3    H114919   3.444   1.413   1.815
 4971TIP3    H214920   3.308   1.346   1.808
 4972TIP3   OH214921   0.064   4.949   1.720
 4972TIP3    H114922   0.036   4.950   1.629
 4972TIP3    H214923   0.046   5.038   1.752
 4973TIP3   OH214924   1.212   1.236   4.478
 4973TIP3    H114925   1.286   1.217   4.535
 4973TIP3    H214926   1.170   1.312   4.517
 4974TIP3   OH214927   5.935   2.763   0.531
 4974TIP3    H114928   5.986   2.698   0.580
 4974TIP3    H214929   5.977   2.846   0.553
 4975TIP3   OH214930   1.765   3.510   1.575
 4975TIP3    H114931   1.833   3.576   1.582
 4975TIP3    H214932   1.804   3.431   1.613
 4976TIP3   OH214933   4.536   3.164   3.194
 4976TIP3    H114934   4.622   3.123   3.183
 4976TIP3    H214935   4.475   3.090   3.203
 4977TIP3   OH214936   0.026   2.459   4.392
 4977TIP3    H114937   0.012   2.451   4.298
 4977TIP3    H214938   0.029   2.369   4.424
 4978TIP3   OH214939   4.323   1.746   2.024
 4978TIP3    H114940   4.241   1.712   2.059
 4978TIP3    H214941   4.359   1.800   2.094
 4979TIP3   OH214942   5.098   5.292   2.331
 4979TIP3    H114943   5.123   5.373   2.374
 4979TIP3    H214944   5.115   5.224   2.396
 4980TIP3   OH214945   5.648   3.553   3.947
 4980TIP3    H114946   5.586   3.594   3.886
 4980TIP3    H214947   5.663   3.620   4.014
 4981TIP3   OH214948   2.659   1.380   4.861
 4981TIP3    H114949   2.608   1.404   4.784
 4981TIP3    H214950   2.630   1.441   4.929
 4982TIP3   OH214951   4.763   0.844   4.256
 4982TIP3    H114952   4.809   0.922   4.289
 4982TIP3    H214953   4.690   0.832   4.317
 4983TIP3   OH214954   2.199   1.993   3.261
 4983TIP3    H114955   2.152   1.911   3.250
 4983TIP3    H214956   2.193   2.013   3.354
 4984TIP3   OH214957   0.870   2.141   3.291
 4984TIP3    H114958   0.931   2.102   3.228
 4984TIP3    H214959   0.797   2.173   3.237
 4985TIP3   OH214960   1.659   0.958   0.618
 4985TIP3    H114961   1.655   0.958   0.713
 4985TIP3    H214962   1.597   1.027   0.592
 4986TIP3   OH214963   5.611   4.294   2.083
 4986TIP3    H114964   5.674   4.223   2.073
 4986TIP3    H214965   5.572   4.304   1.996
 4987TIP3   OH214966   2.557   1.681   0.890
 4987TIP3    H114967   2.616   1.743   0.847
 4987TIP3    H214968   2.519   1.630   0.819
 4988TIP3   OH214969   3.657   1.920   4.773
 4988TIP3    H114970   3.726   1.978   4.742
 4988TIP3    H214971   3.632   1.869   4.696
 4989TIP3   OH214972   3.328   5.515   3.663
 4989TIP3    H114973   3.249   5.543   3.710
 4989TIP3    H214974   3.301   5.438   3.614
 4990TIP3   OH214975   4.573   1.138   0.771
 4990TIP3    H114976   4.548   1.199   0.840
 4990TIP3    H214977   4.584   1.054   0.816
 4991TIP3   OH214978   4.651   2.857   2.428
 4991TIP3    H114979   4.567   2.866   2.472
 4991TIP3    H214980   4.681   2.946   2.413
 4992TIP3   OH214981   4.131   5.758   4.766
 4992TIP3    H114982   4.055   5.720   4.811
 4992TIP3    H214983   4.185   5.792   4.837
 4993TIP3   OH214984   5.763   0.918   0.444
 4993TIP3    H114985   5.669   0.904   0.429
 4993TIP3    H214986   5.771   0.931   0.539
 4994TIP3   OH214987   6.187   2.163   4.316
 4994TIP3    H114988   6.229   2.216   4.249
 4994TIP3    H214989   6.256   2.147   4.381
 4995TIP3   OH214990   2.345   4.117   0.241
 4995TIP3    H114991   2.398   4.196   0.256
 4995TIP3    H214992   2.283   4.142   0.173
 4996TIP3   OH214993   1.000   5.036   3.186
 4996TIP3    H114994   0.995   5.042   3.091
 4996TIP3    H214995   1.083   4.992   3.204
 4997TIP3   OH214996   5.071   1.514   1.194
 4997TIP3    H114997   5.064   1.529   1.288
 4997TIP3    H214998   5.042   1.423   1.182
 4998TIP3   OH214999   0.896   5.952   1.531
 4998TIP3    H115000   0.808   5.918   1.549
 4998TIP3    H215001   0.911   6.016   1.601
 4999TIP3   OH215002   3.869   1.072   2.471
 4999TIP3    H115003   3.874   1.128   2.548
 4999TIP3    H215004   3.806   1.004   2.496
 5000TIP3   OH215005   2.085   0.773   4.679
 5000TIP3    H115006   2.122   0.855   4.644
 5000TIP3    H215007   2.140   0.753   4.754
 5001TIP3   OH215008   0.889   1.623   4.878
 5001TIP3    H115009   0.879   1.540   4.832
 5001TIP3    H215010   0.863   1.603   4.968
 5002TIP3   OH215011   1.419   1.088   4.713
 5002TIP3    H115012   1.504   1.055   4.686
 5002TIP3    H215013   1.433   1.182   4.728
 5003TIP3   OH215014   4.151   1.135   3.193
 5003TIP3    H115015   4.061   1.109   3.215
 5003TIP3    H215016   4.199   1.126   3.275
 5004TIP3   OH215017   0.727   2.871   3.931
 5004TIP3    H115018   0.636   2.870   3.904
 5004TIP3    H215019   0.759   2.958   3.904
 5005TIP3   OH215020   0.246   5.238  -0.006
 5005TIP3    H115021   0.336   5.248   0.027
 5005TIP3    H215022   0.191   5.244   0.071
 5006TIP3   OH215023   0.170   3.121   0.611
 5006TIP3    H115024   0.140   3.201   0.569
 5006TIP3    H215025   0.090   3.072   0.629
 5007TIP3   OH215026   0.320   3.399   1.614
 5007TIP3    H115027   0.299   3.329   1.553
 5007TIP3    H215028   0.251   3.465   1.600
 5008TIP3   OH215029   1.632   2.164   4.228
 5008TIP3    H115030   1.608   2.244   4.275
 5008TIP3    H215031   1.690   2.194   4.158
 5009TIP3   OH215032   4.318   5.040   2.346
 5009TIP3    H115033   4.301   4.957   2.303
 5009TIP3    H215034   4.412   5.056   2.332
 5010TIP3   OH215035   2.640   1.357   1.610
 5010TIP3    H115036   2.729   1.359   1.575
 5010TIP3    H215037   2.600   1.438   1.577
 5011TIP3   OH215038   0.788   4.804   5.073
 5011TIP3    H115039   0.872   4.758   5.071
 5011TIP3    H215040   0.785   4.845   5.160
 5012TIP3   OH215041   2.172   5.260   3.975
 5012TIP3    H115042   2.258   5.282   3.939
 5012TIP3    H215043   2.191   5.197   4.045
 5013TIP3   OH215044   6.301   0.217   3.837
 5013TIP3    H115045   6.296   0.306   3.803
 5013TIP3    H215046   6.276   0.225   3.929
 5014TIP3   OH215047   4.249   4.326   3.987
 5014TIP3    H115048   4.238   4.398   3.925
 5014TIP3    H215049   4.163   4.316   4.028
 5015TIP3   OH215050   4.234   0.797   4.517
 5015TIP3    H115051   4.153   0.846   4.531
 5015TIP3    H215052   4.302   0.851   4.559
 5016TIP3   OH215053   5.691   0.407   1.953
 5016TIP3    H115054   5.651   0.481   1.998
 5016TIP3    H215055   5.620   0.369   1.902
 5017TIP3   OH215056   4.391   1.516   1.440
 5017TIP3    H115057   4.403   1.608   1.414
 5017TIP3    H215058   4.434   1.466   1.370
 5018TIP3   OH215059   0.455   2.936   3.880
 5018TIP3    H115060   0.367   2.936   3.918
 5018TIP3    H215061   0.461   3.020   3.834
 5019TIP3   OH215062   2.948   4.455   0.972
 5019TIP3    H115063   2.892   4.529   0.947
 5019TIP3    H215064   3.003   4.440   0.895
 5020TIP3   OH215065   4.097   3.705   2.611
 5020TIP3    H115066   4.151   3.748   2.544
 5020TIP3    H215067   4.021   3.672   2.563
 5021TIP3   OH215068   1.318   3.227   1.678
 5021TIP3    H115069   1.299   3.172   1.754
 5021TIP3    H215070   1.314   3.316   1.711
 5022TIP3   OH215071   2.567   3.648   4.292
 5022TIP3    H115072   2.504   3.594   4.243
 5022TIP3    H215073   2.640   3.588   4.310
 5023TIP3   OH215074   4.014   4.082   2.663
 5023TIP3    H115075   3.950   4.153   2.676
 5023TIP3    H215076   3.973   4.026   2.597
 5024TIP3   OH215077   6.310   2.571   2.368
 5024TIP3    H115078   6.266   2.563   2.452
 5024TIP3    H215079   6.362   2.490   2.361
 5025TIP3   OH215080   5.107   3.976   1.931
 5025TIP3    H115081   5.035   3.934   1.979
 5025TIP3    H215082   5.174   3.991   1.997
 5026TIP3   OH215083   3.515   4.572   5.089
 5026TIP3    H115084   3.547   4.495   5.043
 5026TIP3    H215085   3.483   4.630   5.020
 5027TIP3   OH215086   2.963   0.288   5.036
 5027TIP3    H115087   2.916   0.332   5.106
 5027TIP3    H215088   2.938   0.336   4.957
 5028TIP3   OH215089   2.343   3.725   2.397
 5028TIP3    H115090   2.332   3.639   2.358
 5028TIP3    H215091   2.437   3.744   2.390
 5029TIP3   OH215092   5.609   2.250   2.392
 5029TIP3    H115093   5.559   2.227   2.471
 5029TIP3    H215094   5.698   2.267   2.424
 5030TIP3   OH215095   5.771   1.724   0.486
 5030TIP3    H115096   5.775   1.819   0.496
 5030TIP3    H215097   5.862   1.698   0.472
 5031TIP3   OH215098   4.593   4.244   3.429
 5031TIP3    H115099   4.504   4.274   3.408
 5031TIP3    H215100   4.636   4.237   3.344
 5032TIP3   OH215101   4.946   5.601   1.349
 5032TIP3    H115102   4.951   5.508   1.372
 5032TIP3    H215103   4.868   5.607   1.293
 5033TIP3   OH215104   6.400   1.904   2.558
 5033TIP3    H115105   6.306   1.891   2.549
 5033TIP3    H215106   6.408   1.982   2.613
 5034TIP3   OH215107   5.669   0.117   2.617
 5034TIP3    H115108   5.755   0.120   2.575
 5034TIP3    H215109   5.678   0.053   2.687
 5035TIP3   OH215110   3.523   3.279   1.273
 5035TIP3    H115111   3.530   3.375   1.271
 5035TIP3    H215112   3.471   3.257   1.196
 5036TIP3   OH215113   3.244   3.901   4.681
 5036TIP3    H115114   3.291   3.984   4.691
 5036TIP3    H215115   3.157   3.927   4.650
 5037TIP3   OH215116   5.519   2.853   4.102
 5037TIP3    H115117   5.464   2.903   4.041
 5037TIP3    H215118   5.604   2.897   4.100
 5038TIP3   OH215119   3.941   1.095   0.997
 5038TIP3    H115120   3.927   1.050   0.914
 5038TIP3    H215121   4.033   1.122   0.995
 5039TIP3   OH215122   3.268   3.518   2.703
 5039TIP3    H115123   3.232   3.570   2.775
 5039TIP3    H215124   3.287   3.433   2.743
 5040TIP3   OH215125   5.654   1.911   3.904
 5040TIP3    H115126   5.608   1.994   3.893
 5040TIP3    H215127   5.631   1.882   3.992
 5041TIP3   OH215128   0.973   0.005   5.082
 5041TIP3    H115129   1.051  -0.050   5.069
 5041TIP3    H215130   1.007   0.095   5.079
 5042TIP3   OH215131   1.627   3.536   0.635
 5042TIP3    H115132   1.581   3.457   0.608
 5042TIP3    H215133   1.710   3.532   0.588
 5043TIP3   OH215134   5.126   3.149   3.259
 5043TIP3    H115135   5.135   3.103   3.175
 5043TIP3    H215136   5.136   3.242   3.236
 5044TIP3   OH215137   1.450   1.146   1.287
 5044TIP3    H115138   1.408   1.220   1.243
 5044TIP3    H215139   1.511   1.186   1.349
 5045TIP3   OH215140   1.829   0.675   2.991
 5045TIP3    H115141   1.756   0.717   2.945
 5045TIP3    H215142   1.871   0.621   2.925
 5046TIP3   OH215143   5.157   5.460   3.593
 5046TIP3    H115144   5.148   5.369   3.565
 5046TIP3    H215145   5.071   5.498   3.577
 5047TIP3   OH215146   4.414   4.896   3.506
 5047TIP3    H115147   4.437   4.803   3.497
 5047TIP3    H215148   4.319   4.897   3.511
 5048TIP3   OH215149   4.780   2.959   0.203
 5048TIP3    H115150   4.827   3.029   0.248
 5048TIP3    H215151   4.749   2.999   0.121
 5049TIP3   OH215152   5.809   1.846   5.140
 5049TIP3    H115153   5.881   1.906   5.158
 5049TIP3    H215154   5.794   1.854   5.046
 5050TIP3   OH215155   2.117   2.458   2.239
 5050TIP3    H115156   2.099   2.451   2.333
 5050TIP3    H215157   2.036   2.431   2.197
 5051TIP3   OH215158   4.350   5.444   1.276
 5051TIP3    H115159   4.261   5.433   1.310
 5051TIP3    H215160   4.339   5.497   1.197
 5052TIP3   OH215161   2.828   2.598   1.438
 5052TIP3    H115162   2.909   2.619   1.485
 5052TIP3    H215163   2.759   2.637   1.492
 5053TIP3   OH215164   3.022   0.810   5.144
 5053TIP3    H115165   3.091   0.764   5.191
 5053TIP3    H215166   3.021   0.898   5.181
 5054TIP3   OH215167   5.450   2.638   1.964
 5054TIP3    H115168   5.448   2.704   1.894
 5054TIP3    H215169   5.392   2.569   1.932
 5055TIP3   OH215170   2.636   0.742   2.629
 5055TIP3    H115171   2.680   0.657   2.640
 5055TIP3    H215172   2.563   0.724   2.569
 5056TIP3   OH215173   0.481   5.701   1.814
 5056TIP3    H115174   0.525   5.762   1.873
 5056TIP3    H215175   0.496   5.615   1.854
 5057TIP3   OH215176   3.441   1.673   4.253
 5057TIP3    H115177   3.405   1.708   4.334
 5057TIP3    H215178   3.471   1.751   4.205
 5058TIP3   OH215179   2.996   4.716   2.438
 5058TIP3    H115180   3.085   4.751   2.428
 5058TIP3    H215181   2.953   4.739   2.355
 5059TIP3   OH215182   5.115   2.170   2.427
 5059TIP3    H115183   5.069   2.115   2.490
 5059TIP3    H215184   5.128   2.253   2.472
 5060TIP3   OH215185   2.190   1.024   4.638
 5060TIP3    H115186   2.205   1.063   4.551
 5060TIP3    H215187   2.257   1.064   4.694
 5061TIP3   OH215188   0.825   2.642   1.159
 5061TIP3    H115189   0.826   2.668   1.251
 5061TIP3    H215190   0.836   2.724   1.110
 5062TIP3   OH215191   1.347   3.324   0.096
 5062TIP3    H115192   1.280   3.316   0.164
 5062TIP3    H215193   1.429   3.330   0.145
 5063TIP3   OH215194   3.688   2.616   4.506
 5063TIP3    H115195   3.701   2.694   4.561
 5063TIP3    H215196   3.737   2.547   4.551
 5064TIP3   OH215197   0.146   2.828   2.990
 5064TIP3    H115198   0.156   2.893   3.059
 5064TIP3    H215199   0.198   2.753   3.021
 5065TIP3   OH215200   4.436   3.656   3.585
 5065TIP3    H115201   4.393   3.661   3.671
 5065TIP3    H215202   4.441   3.747   3.555
 5066TIP3   OH215203   2.109   5.016   4.156
 5066TIP3    H115204   2.158   5.019   4.238
 5066TIP3    H215205   2.170   4.977   4.094
 5067TIP3   OH215206   5.420   1.118   3.475
 5067TIP3    H115207   5.463   1.042   3.517
 5067TIP3    H215208   5.408   1.181   3.546
 5068TIP3   OH215209   0.860   0.696   2.329
 5068TIP3    H115210   0.954   0.708   2.346
 5068TIP3    H215211   0.818   0.771   2.371
 5069TIP3   OH215212   4.894   2.201   3.235
 5069TIP3    H115213   4.835   2.266   3.196
 5069TIP3    H215214   4.845   2.119   3.229
 5070TIP3   OH215215   3.023   3.936   3.595
 5070TIP3    H115216   2.962   3.965   3.528
 5070TIP3    H215217   2.971   3.882   3.654
 5071TIP3   OH215218   3.265   3.719   1.220
 5071TIP3    H115219   3.252   3.649   1.285
 5071TIP3    H215220   3.349   3.758   1.244
 5072TIP3   OH215221   3.142   2.837   1.470
 5072TIP3    H115222   3.166   2.890   1.394
 5072TIP3    H215223   3.089   2.896   1.524
 5073TIP3   OH215224   5.226   3.090   4.974
 5073TIP3    H115225   5.235   3.145   4.896
 5073TIP3    H215226   5.177   3.014   4.943
 5074TIP3   OH215227   3.259   2.242   4.498
 5074TIP3    H115228   3.354   2.240   4.494
 5074TIP3    H215229   3.230   2.177   4.434
 5075TIP3   OH215230   5.374   1.293   4.794
 5075TIP3    H115231   5.391   1.210   4.749
 5075TIP3    H215232   5.364   1.357   4.723
 5076TIP3   OH215233   1.979   1.533   2.859
 5076TIP3    H115234   2.047   1.597   2.838
 5076TIP3    H215235   1.944   1.507   2.774
 5077TIP3   OH215236   0.733   4.819   3.013
 5077TIP3    H115237   0.729   4.855   3.101
 5077TIP3    H215238   0.814   4.854   2.976
 5078TIP3   OH215239   0.446   1.537   3.081
 5078TIP3    H115240   0.399   1.454   3.083
 5078TIP3    H215241   0.381   1.601   3.052
 5079TIP3   OH215242   4.732   2.541   1.552
 5079TIP3    H115243   4.748   2.508   1.640
 5079TIP3    H215244   4.744   2.465   1.496
 5080TIP3   OH215245   4.842   5.082   2.087
 5080TIP3    H115246   4.751   5.061   2.070
 5080TIP3    H215247   4.889   4.999   2.079
 5081TIP3   OH215248   3.633   2.645   1.164
 5081TIP3    H115249   3.711   2.644   1.220
 5081TIP3    H215250   3.628   2.556   1.129
 5082TIP3   OH215251   2.503   0.108   0.598
 5082TIP3    H115252   2.517   0.094   0.691
 5082TIP3    H215253   2.553   0.039   0.555
 5083TIP3   OH215254   4.030   1.088   5.164
 5083TIP3    H115255   4.020   1.179   5.192
 5083TIP3    H215256   4.112   1.087   5.114
 5084TIP3   OH215257   3.555   1.241   3.779
 5084TIP3    H115258   3.473   1.226   3.731
 5084TIP3    H215259   3.557   1.172   3.846
 5085TIP3   OH215260   0.558   5.359   0.502
 5085TIP3    H115261   0.578   5.289   0.564
 5085TIP3    H215262   0.629   5.422   0.514
 5086TIP3   OH215263   1.835   5.000   1.883
 5086TIP3    H115264   1.814   4.946   1.958
 5086TIP3    H215265   1.880   4.941   1.822
 5087TIP3   OH215266   5.465   2.224   2.641
 5087TIP3    H115267   5.373   2.196   2.641
 5087TIP3    H215268   5.461   2.319   2.644
 5088TIP3   OH215269   6.289   2.225   1.362
 5088TIP3    H115270   6.351   2.248   1.432
 5088TIP3    H215271   6.229   2.163   1.403
 5089TIP3   OH215272   0.284   5.263   4.024
 5089TIP3    H115273   0.368   5.254   3.980
 5089TIP3    H215274   0.222   5.218   3.965
 5090TIP3   OH215275   2.525   3.404   2.461
 5090TIP3    H115276   2.536   3.320   2.416
 5090TIP3    H215277   2.485   3.382   2.545
 5091TIP3   OH215278   4.293   0.770   3.639
 5091TIP3    H115279   4.353   0.808   3.575
 5091TIP3    H215280   4.301   0.675   3.626
 5092TIP3   OH215281   3.051   3.077   0.277
 5092TIP3    H115282   3.130   3.101   0.229
 5092TIP3    H215283   3.064   2.985   0.300
 5093TIP3   OH215284   5.785   0.088   3.071
 5093TIP3    H115285   5.748   0.000   3.063
 5093TIP3    H215286   5.857   0.090   3.008
 5094TIP3   OH215287   0.104   4.816   1.253
 5094TIP3    H115288   0.092   4.723   1.232
 5094TIP3    H215289   0.027   4.859   1.216
 5095TIP3   OH215290   2.059   2.734   3.536
 5095TIP3    H115291   2.121   2.805   3.549
 5095TIP3    H215292   2.062   2.716   3.442
 5096TIP3   OH215293   5.340   0.035   2.222
 5096TIP3    H115294   5.424   0.037   2.267
 5096TIP3    H215295   5.306   0.124   2.231
 5097TIP3   OH215296   2.070   2.141   0.982
 5097TIP3    H115297   2.032   2.101   1.060
 5097TIP3    H215298   2.077   2.069   0.920
 5098TIP3   OH215299   5.962   0.694   1.394
 5098TIP3    H115300   6.035   0.653   1.441
 5098TIP3    H215301   5.884   0.658   1.436
 5099TIP3   OH215302   4.671   5.278   1.818
 5099TIP3    H115303   4.725   5.272   1.896
 5099TIP3    H215304   4.652   5.371   1.808
 5100TIP3   OH215305   1.067   4.039   1.208
 5100TIP3    H115306   0.991   4.042   1.150
 5100TIP3    H215307   1.138   4.075   1.157
 5101TIP3   OH215308   5.081   5.038   2.976
 5101TIP3    H115309   5.069   5.086   2.894
 5101TIP3    H215310   5.172   5.008   2.973
 5102TIP3   OH215311   2.996   2.562   1.692
 5102TIP3    H115312   2.959   2.493   1.637
 5102TIP3    H215313   3.091   2.549   1.685
 5103TIP3   OH215314   5.265   5.303   3.804
 5103TIP3    H115315   5.326   5.341   3.740
 5103TIP3    H215316   5.179   5.337   3.779
 5104TIP3   OH215317   4.573   3.736   4.860
 5104TIP3    H115318   4.576   3.689   4.944
 5104TIP3    H215319   4.482   3.766   4.853
 5105TIP3   OH215320   4.640   1.635   4.009
 5105TIP3    H115321   4.561   1.682   4.039
 5105TIP3    H215322   4.638   1.553   4.057
 5106TIP3   OH215323   3.993   0.733   0.853
 5106TIP3    H115324   3.905   0.695   0.844
 5106TIP3    H215325   4.046   0.663   0.891
 5107TIP3   OH215326   4.989   4.885   4.943
 5107TIP3    H115327   5.016   4.887   5.035
 5107TIP3    H215328   5.051   4.941   4.898
 5108TIP3   OH215329   4.359   4.946   3.060
 5108TIP3    H115330   4.436   4.962   3.115
 5108TIP3    H215331   4.305   5.024   3.071
 5109TIP3   OH215332   1.758   4.391   1.196
 5109TIP3    H115333   1.825   4.373   1.262
 5109TIP3    H215334   1.675   4.377   1.241
 5110TIP3   OH215335   6.205   4.037   1.887
 5110TIP3    H115336   6.237   4.094   1.817
 5110TIP3    H215337   6.164   4.097   1.950
 5111TIP3   OH215338   2.201   5.709   1.309
 5111TIP3    H115339   2.253   5.789   1.321
 5111TIP3    H215340   2.171   5.686   1.397
 5112TIP3   OH215341   1.726   5.179   3.344
 5112TIP3    H115342   1.656   5.151   3.286
 5112TIP3    H215343   1.696   5.153   3.432
 5113TIP3   OH215344   6.053   3.638   2.017
 5113TIP3    H115345   6.078   3.636   2.109
 5113TIP3    H215346   6.090   3.558   1.980
 5114TIP3   OH215347   2.933   3.574   0.691
 5114TIP3    H115348   2.991   3.524   0.634
 5114TIP3    H215349   2.856   3.518   0.701
 5115TIP3   OH215350   1.774   0.925   4.378
 5115TIP3    H115351   1.804   0.989   4.314
 5115TIP3    H215352   1.813   0.842   4.349
 5116TIP3   OH215353   3.252   1.430   5.047
 5116TIP3    H115354   3.286   1.519   5.053
 5116TIP3    H215355   3.306   1.379   5.107
 5117TIP3   OH215356   5.205   5.239   1.748
 5117TIP3    H115357   5.260   5.195   1.812
 5117TIP3    H215358   5.195   5.328   1.782
 5118TIP3   OH215359   1.196   0.970   1.050
 5118TIP3    H115360   1.239   0.890   1.080
 5118TIP3    H215361   1.188   1.024   1.129
 5119TIP3   OH215362   4.650   2.597   2.564
 5119TIP3    H115363   4.581   2.530   2.569
 5119TIP3    H215364   4.607   2.672   2.522
 5120TIP3   OH215365   0.859   2.465   0.496
 5120TIP3    H115366   0.847   2.370   0.496
 5120TIP3    H215367   0.858   2.489   0.589
 5121TIP3   OH215368   4.646   3.926   3.006
 5121TIP3    H115369   4.655   3.844   3.055
 5121TIP3    H215370   4.593   3.982   3.063
 5122TIP3   OH215371   0.198   4.009   4.412
 5122TIP3    H115372   0.208   4.093   4.368
 5122TIP3    H215373   0.105   4.006   4.436
 5123TIP3   OH215374   3.011   5.260   3.696
 5123TIP3    H115375   3.071   5.302   3.634
 5123TIP3    H215376   2.933   5.316   3.695
 5124TIP3   OH215377   2.903   3.242   1.120
 5124TIP3    H115378   2.841   3.266   1.052
 5124TIP3    H215379   2.860   3.265   1.202
 5125TIP3   OH215380   0.348   5.823   0.989
 5125TIP3    H115381   0.371   5.887   0.921
 5125TIP3    H215382   0.425   5.767   0.995
 5126TIP3   OH215383   2.215   4.470   1.619
 5126TIP3    H115384   2.224   4.429   1.706
 5126TIP3    H215385   2.121   4.477   1.606
 5127TIP3   OH215386   4.415   1.240   4.760
 5127TIP3    H115387   4.450   1.314   4.710
 5127TIP3    H215388   4.492   1.202   4.803
 5128TIP3   OH215389   5.960   4.893   5.054
 5128TIP3    H115390   5.970   4.860   5.143
 5128TIP3    H215391   5.869   4.873   5.031
 5129TIP3   OH215392   4.669   4.828   5.211
 5129TIP3    H115393   4.679   4.819   5.116
 5129TIP3    H215394   4.582   4.867   5.222
 5130TIP3   OH215395   4.428   4.650   3.370
 5130TIP3    H115396   4.382   4.583   3.421
 5130TIP3    H215397   4.432   4.614   3.281
 5131TIP3   OH215398   2.730   1.887   1.284
 5131TIP3    H115399   2.658   1.825   1.292
 5131TIP3    H215400   2.695   1.958   1.230
 5132TIP3   OH215401   2.688   0.787   3.588
 5132TIP3    H115402   2.777   0.819   3.577
 5132TIP3    H215403   2.695   0.718   3.655
 5133TIP3   OH215404   1.813   1.711   1.372
 5133TIP3    H115405   1.870   1.764   1.429
 5133TIP3    H215406   1.873   1.666   1.313
 5134TIP3   OH215407   0.849   0.856   0.010
 5134TIP3    H115408   0.888   0.902   0.084
 5134TIP3    H215409   0.914   0.789  -0.012
 5135TIP3   OH215410   2.466   5.728   2.625
 5135TIP3    H115411   2.461   5.633   2.633
 5135TIP3    H215412   2.558   5.749   2.642
 5136TIP3   OH215413   1.824   1.869  -0.019
 5136TIP3    H115414   1.912   1.905  -0.026
 5136TIP3    H215415   1.836   1.784   0.023
 5137TIP3   OH215416   6.226   3.427   4.269
 5137TIP3    H115417   6.280   3.462   4.340
 5137TIP3    H215418   6.185   3.349   4.306
 5138TIP3   OH215419   0.495   2.641   0.565
 5138TIP3    H115420   0.573   2.636   0.620
 5138TIP3    H215421   0.423   2.614   0.622
 5139TIP3   OH215422   2.592   0.467   2.479
 5139TIP3    H115423   2.649   0.522   2.426
 5139TIP3    H215424   2.603   0.379   2.442
 5140TIP3   OH215425   3.836   1.771   0.693
 5140TIP3    H115426   3.816   1.726   0.775
 5140TIP3    H215427   3.827   1.704   0.626
 5141TIP3   OH215428   3.333   1.370   0.773
 5141TIP3    H115429   3.359   1.394   0.862
 5141TIP3    H215430   3.316   1.276   0.778
 5142TIP3   OH215431   2.969   2.975   1.129
 5142TIP3    H115432   2.971   2.965   1.033
 5142TIP3    H215433   2.950   3.067   1.143
 5143TIP3   OH215434   0.444   2.202   3.782
 5143TIP3    H115435   0.514   2.168   3.726
 5143TIP3    H215436   0.418   2.284   3.741
 5144TIP3   OH215437   4.158   1.451   1.159
 5144TIP3    H115438   4.135   1.401   1.238
 5144TIP3    H215439   4.080   1.445   1.104
 5145TIP3   OH215440   3.449   3.748   2.008
 5145TIP3    H115441   3.402   3.685   1.952
 5145TIP3    H215442   3.380   3.797   2.051
 5146TIP3   OH215443   5.909   1.398   2.715
 5146TIP3    H115444   5.917   1.494   2.714
 5146TIP3    H215445   5.903   1.376   2.808
 5147TIP3   OH215446   1.016   5.433   1.639
 5147TIP3    H115447   0.992   5.524   1.621
 5147TIP3    H215448   0.996   5.387   1.558
 5148TIP3   OH215449   0.998   4.297   3.179
 5148TIP3    H115450   1.056   4.341   3.241
 5148TIP3    H215451   0.968   4.219   3.226
 5149TIP3   OH215452   1.320   4.836   0.070
 5149TIP3    H115453   1.411   4.848   0.040
 5149TIP3    H215454   1.281   4.923   0.064
 5150TIP3   OH215455   6.231   3.650   1.206
 5150TIP3    H115456   6.207   3.707   1.279
 5150TIP3    H215457   6.210   3.700   1.127
 5151TIP3   OH215458   5.484   5.132   1.941
 5151TIP3    H115459   5.511   5.043   1.918
 5151TIP3    H215460   5.560   5.186   1.922
 5152TIP3   OH215461   4.297   2.798   4.512
 5152TIP3    H115462   4.292   2.760   4.424
 5152TIP3    H215463   4.326   2.888   4.497
 5153TIP3   OH215464   2.937   1.532   4.799
 5153TIP3    H115465   2.890   1.559   4.879
 5153TIP3    H215466   2.867   1.511   4.737
 5154TIP3   OH215467   0.806   0.913   1.722
 5154TIP3    H115468   0.897   0.887   1.713
 5154TIP3    H215469   0.804   1.003   1.690
 5155TIP3   OH215470   3.276   4.244   2.695
 5155TIP3    H115471   3.217   4.205   2.630
 5155TIP3    H215472   3.261   4.338   2.688
 5156TIP3   OH215473   1.954   1.261   1.043
 5156TIP3    H115474   2.016   1.193   1.015
 5156TIP3    H215475   2.009   1.330   1.079
 5157TIP3   OH215476   4.286   1.390   3.716
 5157TIP3    H115477   4.244   1.308   3.744
 5157TIP3    H215478   4.324   1.369   3.631
 5158TIP3   OH215479   3.600   0.942   1.654
 5158TIP3    H115480   3.591   0.846   1.660
 5158TIP3    H215481   3.574   0.963   1.564
 5159TIP3   OH215482   1.486   0.114   2.367
 5159TIP3    H115483   1.423   0.186   2.370
 5159TIP3    H215484   1.488   0.088   2.275
 5160TIP3   OH215485   4.466   5.367   3.227
 5160TIP3    H115486   4.405   5.295   3.214
 5160TIP3    H215487   4.453   5.424   3.152
 5161TIP3   OH215488   5.634   0.964   2.097
 5161TIP3    H115489   5.663   0.923   2.016
 5161TIP3    H215490   5.575   1.034   2.068
 5162TIP3   OH215491   2.768   0.466   2.958
 5162TIP3    H115492   2.731   0.552   2.980
 5162TIP3    H215493   2.750   0.413   3.036
 5163TIP3   OH215494   0.627   4.595   3.221
 5163TIP3    H115495   0.648   4.555   3.136
 5163TIP3    H215496   0.553   4.545   3.254
 5164TIP3   OH215497   2.621   3.586   2.093
 5164TIP3    H115498   2.611   3.635   2.011
 5164TIP3    H215499   2.649   3.499   2.065
 5165TIP3   OH215500   0.975   5.050   3.460
 5165TIP3    H115501   1.061   5.085   3.481
 5165TIP3    H215502   0.964   5.069   3.366
 5166TIP3   OH215503   4.062   1.393   2.415
 5166TIP3    H115504   3.980   1.383   2.365
 5166TIP3    H215505   4.033   1.425   2.501
 5167TIP3   OH215506   3.242   5.180   2.320
 5167TIP3    H115507   3.149   5.188   2.342
 5167TIP3    H215508   3.287   5.233   2.386
 5168TIP3   OH215509   2.127   4.452   3.789
 5168TIP3    H115510   2.222   4.454   3.777
 5168TIP3    H215511   2.093   4.409   3.710
 5169TIP3   OH215512   3.973   5.287   1.980
 5169TIP3    H115513   3.906   5.234   2.022
 5169TIP3    H215514   4.031   5.314   2.051
 5170TIP3   OH215515   6.160   0.150   4.069
 5170TIP3    H115516   6.150   0.189   4.155
 5170TIP3    H215517   6.099   0.076   4.069
 5171TIP3   OH215518   5.165   0.560   3.899
 5171TIP3    H115519   5.137   0.514   3.820
 5171TIP3    H215520   5.239   0.614   3.871
 5172TIP3   OH215521   2.292   1.235   2.488
 5172TIP3    H115522   2.265   1.161   2.544
 5172TIP3    H215523   2.267   1.208   2.400
 5173TIP3   OH215524   0.288   5.399   0.587
 5173TIP3    H115525   0.374   5.366   0.561
 5173TIP3    H215526   0.247   5.327   0.634
 5174TIP3   OH215527   1.031   4.329   1.411
 5174TIP3    H115528   0.983   4.396   1.363
 5174TIP3    H215529   0.977   4.251   1.405
 5175TIP3   OH215530   4.256   0.359   2.706
 5175TIP3    H115531   4.231   0.319   2.622
 5175TIP3    H215532   4.202   0.315   2.771
 5176TIP3   OH215533   2.759   4.792   0.311
 5176TIP3    H115534   2.682   4.744   0.279
 5176TIP3    H215535   2.728   4.882   0.322
 5177TIP3   OH215536   5.550   2.427   1.406
 5177TIP3    H115537   5.472   2.433   1.461
 5177TIP3    H215538   5.520   2.384   1.326
 5178TIP3   OH215539   1.253   3.869   0.984
 5178TIP3    H115540   1.161   3.889   0.968
 5178TIP3    H215541   1.297   3.954   0.980
 5179TIP3   OH215542   2.867   5.353   2.204
 5179TIP3    H115543   2.946   5.394   2.168
 5179TIP3    H215544   2.822   5.317   2.128
 5180TIP3   OH215545   3.396   4.976   3.246
 5180TIP3    H115546   3.447   4.894   3.254
 5180TIP3    H215547   3.435   5.034   3.312
 5181TIP3   OH215548   4.860   2.023   0.871
 5181TIP3    H115549   4.862   2.071   0.954
 5181TIP3    H215550   4.774   1.981   0.870
 5182TIP3   OH215551   2.524   3.552   0.871
 5182TIP3    H115552   2.431   3.574   0.877
 5182TIP3    H215553   2.565   3.633   0.841
 5183TIP3   OH215554   1.280   4.481   0.612
 5183TIP3    H115555   1.245   4.480   0.701
 5183TIP3    H215556   1.370   4.449   0.621
 5184TIP3   OH215557   1.403   2.044   4.947
 5184TIP3    H115558   1.476   2.010   4.998
 5184TIP3    H215559   1.326   2.001   4.984
 5185TIP3   OH215560   1.068   3.865   1.627
 5185TIP3    H115561   1.070   3.783   1.677
 5185TIP3    H215562   1.112   3.843   1.545
 5186TIP3   OH215563   5.324   4.082   5.091
 5186TIP3    H115564   5.376   4.158   5.116
 5186TIP3    H215565   5.254   4.079   5.156
 5187TIP3   OH215566   5.111   3.947   0.932
 5187TIP3    H115567   5.022   3.927   0.960
 5187TIP3    H215568   5.166   3.928   1.008
 5188TIP3   OH215569   2.218   0.372   4.714
 5188TIP3    H115570   2.172   0.335   4.639
 5188TIP3    H215571   2.231   0.298   4.774
 5189TIP3   OH215572   1.435  -0.004   3.061
 5189TIP3    H115573   1.448   0.053   3.137
 5189TIP3    H215574   1.488   0.036   2.992
 5190TIP3   OH215575   2.216   2.101   2.136
 5190TIP3    H115576   2.252   2.190   2.135
 5190TIP3    H215577   2.260   2.056   2.064
 5191TIP3   OH215578   5.688   2.761  -0.023
 5191TIP3    H115579   5.674   2.680   0.027
 5191TIP3    H215580   5.605   2.807  -0.018
 5192TIP3   OH215581   2.339   2.199   3.127
 5192TIP3    H115582   2.407   2.220   3.191
 5192TIP3    H215583   2.291   2.126   3.167
 5193TIP3   OH215584   6.148   1.378   4.690
 5193TIP3    H115585   6.159   1.473   4.685
 5193TIP3    H215586   6.234   1.346   4.719
 5194TIP3   OH215587   5.290   0.333   4.840
 5194TIP3    H115588   5.299   0.383   4.759
 5194TIP3    H215589   5.369   0.352   4.890
 5195TIP3   OH215590   3.344   1.328   4.227
 5195TIP3    H115591   3.411   1.380   4.183
 5195TIP3    H215592   3.291   1.291   4.156
 5196TIP3   OH215593   4.191   2.187   4.013
 5196TIP3    H115594   4.109   2.230   4.039
 5196TIP3    H215595   4.250   2.259   3.991
 5197TIP3   OH215596   4.710   5.545   1.226
 5197TIP3    H115597   4.726   5.464   1.176
 5197TIP3    H215598   4.643   5.520   1.290
 5198TIP3   OH215599   0.689   5.596   0.557
 5198TIP3    H115600   0.699   5.650   0.479
 5198TIP3    H215601   0.778   5.583   0.590
 5199TIP3   OH215602   2.953   4.608   3.060
 5199TIP3    H115603   2.862   4.612   3.031
 5199TIP3    H215604   2.947   4.603   3.156
 5200TIP3   OH215605   5.164   2.625   1.216
 5200TIP3    H115606   5.243   2.678   1.223
 5200TIP3    H215607   5.186   2.542   1.258
 5201TIP3   OH215608   2.459   4.669   2.233
 5201TIP3    H115609   2.399   4.597   2.213
 5201TIP3    H215610   2.428   4.741   2.178
 5202TIP3   OH215611   5.967   5.819   1.527
 5202TIP3    H115612   5.943   5.826   1.434
 5202TIP3    H215613   5.949   5.727   1.549
 5203TIP3   OH215614   4.334   0.180   4.434
 5203TIP3    H115615   4.414   0.144   4.396
 5203TIP3    H215616   4.338   0.156   4.526
 5204TIP3   OH215617   0.226   0.109   4.949
 5204TIP3    H115618   0.313   0.149   4.947
 5204TIP3    H215619   0.224   0.053   4.871
 5205TIP3   OH215620   3.771   1.936   2.204
 5205TIP3    H115621   3.712   1.943   2.280
 5205TIP3    H215622   3.858   1.924   2.242
 5206TIP3   OH215623   4.348   0.175   3.142
 5206TIP3    H115624   4.438   0.206   3.152
 5206TIP3    H215625   4.303   0.246   3.096
 5207TIP3   OH215626   2.202   0.054   0.803
 5207TIP3    H115627   2.171   0.131   0.852
 5207TIP3    H215628   2.145  -0.017   0.833
 5208TIP3   OH215629   1.065   0.971   1.531
 5208TIP3    H115630   1.026   1.054   1.503
 5208TIP3    H215631   1.152   0.971   1.489
 5209TIP3   OH215632   3.091   5.880   1.740
 5209TIP3    H115633   3.091   5.915   1.829
 5209TIP3    H215634   3.042   5.798   1.747
 5210TIP3   OH215635   3.477   5.355   2.480
 5210TIP3    H115636   3.491   5.372   2.573
 5210TIP3    H215637   3.432   5.432   2.447
 5211TIP3   OH215638   1.008   0.868   4.916
 5211TIP3    H115639   0.913   0.866   4.917
 5211TIP3    H215640   1.035   0.782   4.949
 5212TIP3   OH215641   4.881   5.532   0.277
 5212TIP3    H115642   4.859   5.606   0.333
 5212TIP3    H215643   4.870   5.565   0.188
 5213TIP3   OH215644   0.048   3.288   1.296
 5213TIP3    H115645   0.009   3.315   1.212
 5213TIP3    H215646   0.142   3.302   1.284
 5214TIP3   OH215647   5.667   2.795   3.745
 5214TIP3    H115648   5.691   2.880   3.781
 5214TIP3    H215649   5.646   2.812   3.653
 5215TIP3   OH215650   4.840   4.215   4.561
 5215TIP3    H115651   4.814   4.282   4.624
 5215TIP3    H215652   4.775   4.146   4.572
 5216TIP3   OH215653   5.801   5.027   1.876
 5216TIP3    H115654   5.752   4.971   1.816
 5216TIP3    H215655   5.813   4.974   1.955
 5217TIP3   OH215656   6.150   3.641   0.654
 5217TIP3    H115657   6.136   3.579   0.582
 5217TIP3    H215658   6.073   3.698   0.651
 5218TIP3   OH215659   2.877   4.537   1.769
 5218TIP3    H115660   2.827   4.606   1.724
 5218TIP3    H215661   2.839   4.455   1.738
 5219TIP3   OH215662   3.290   0.399   3.052
 5219TIP3    H115663   3.267   0.469   3.112
 5219TIP3    H215664   3.309   0.324   3.109
 5220TIP3   OH215665   0.731   4.971   1.760
 5220TIP3    H115666   0.705   5.057   1.729
 5220TIP3    H215667   0.695   4.965   1.848
 5221TIP3   OH215668   3.501   5.703   1.400
 5221TIP3    H115669   3.533   5.777   1.350
 5221TIP3    H215670   3.415   5.730   1.432
 5222TIP3   OH215671   5.325   4.328   2.565
 5222TIP3    H115672   5.257   4.390   2.591
 5222TIP3    H215673   5.323   4.261   2.634
 5223TIP3   OH215674   3.851   2.729   3.915
 5223TIP3    H115675   3.801   2.650   3.895
 5223TIP3    H215676   3.938   2.696   3.940
 5224TIP3   OH215677   5.938   4.715   4.304
 5224TIP3    H115678   5.951   4.658   4.379
 5224TIP3    H215679   5.969   4.801   4.333
 5225TIP3   OH215680   6.297   2.119   0.908
 5225TIP3    H115681   6.229   2.161   0.961
 5225TIP3    H215682   6.249   2.064   0.847
 5226TIP3   OH215683   3.224   2.528   2.348
 5226TIP3    H115684   3.230   2.501   2.440
 5226TIP3    H215685   3.289   2.599   2.340
 5227TIP3   OH215686   0.360   1.225   3.386
 5227TIP3    H115687   0.333   1.216   3.294
 5227TIP3    H215688   0.437   1.281   3.383
 5228TIP3   OH215689   2.017   3.053   4.078
 5228TIP3    H115690   2.099   3.077   4.120
 5228TIP3    H215691   1.956   3.123   4.103
 5229TIP3   OH215692   0.815   5.692   1.710
 5229TIP3    H115693   0.761   5.613   1.705
 5229TIP3    H215694   0.775   5.743   1.781
 5230TIP3   OH215695   4.414   1.303   2.056
 5230TIP3    H115696   4.402   1.219   2.011
 5230TIP3    H215697   4.356   1.298   2.132
 5231TIP3   OH215698   6.275   4.518   0.615
 5231TIP3    H115699   6.324   4.578   0.560
 5231TIP3    H215700   6.336   4.494   0.685
 5232TIP3   OH215701   3.039   2.519   2.758
 5232TIP3    H115702   2.956   2.563   2.740
 5232TIP3    H215703   3.091   2.582   2.807
 5233TIP3   OH215704   4.478   5.187   1.616
 5233TIP3    H115705   4.564   5.176   1.657
 5233TIP3    H215706   4.482   5.133   1.537
 5234TIP3   OH215707   4.726   4.671   3.516
 5234TIP3    H115708   4.789   4.686   3.445
 5234TIP3    H215709   4.646   4.644   3.472
 5235TIP3   OH215710   2.688   3.467   0.689
 5235TIP3    H115711   2.618   3.487   0.751
 5235TIP3    H215712   2.646   3.470   0.603
 5236TIP3   OH215713   3.281   2.831   2.730
 5236TIP3    H115714   3.233   2.798   2.806
 5236TIP3    H215715   3.227   2.901   2.696
 5237TIP3   OH215716   4.913   5.816   0.246
 5237TIP3    H115717   4.919   5.911   0.233
 5237TIP3    H215718   4.829   5.803   0.289
 5238TIP3   OH215719   0.756   0.281   4.893
 5238TIP3    H115720   0.712   0.301   4.975
 5238TIP3    H215721   0.849   0.279   4.915
 5239TIP3   OH215722   3.578   0.355   3.701
 5239TIP3    H115723   3.534   0.350   3.616
 5239TIP3    H215724   3.668   0.381   3.680
 5240TIP3   OH215725   3.492   0.850   2.367
 5240TIP3    H115726   3.466   0.771   2.320
 5240TIP3    H215727   3.428   0.858   2.438
 5241TIP3   OH215728   5.315   2.447   0.734
 5241TIP3    H115729   5.241   2.443   0.674
 5241TIP3    H215730   5.378   2.505   0.691
 5242TIP3   OH215731   3.885   0.227   4.914
 5242TIP3    H115732   3.808   0.284   4.917
 5242TIP3    H215733   3.936   0.259   4.840
 5243TIP3   OH215734   5.507   1.516   1.078
 5243TIP3    H115735   5.434   1.572   1.103
 5243TIP3    H215736   5.496   1.438   1.132
 5244TIP3   OH215737   1.039   2.281   3.939
 5244TIP3    H115738   1.041   2.222   4.015
 5244TIP3    H215739   1.052   2.368   3.975
 5245TIP3   OH215740   3.743   3.321   3.647
 5245TIP3    H115741   3.804   3.268   3.595
 5245TIP3    H215742   3.666   3.331   3.591
 5246TIP3   OH215743   1.320   4.050   3.602
 5246TIP3    H115744   1.414   4.065   3.610
 5246TIP3    H215745   1.283   4.089   3.682
 5247TIP3   OH215746   0.179   5.491   1.284
 5247TIP3    H115747   0.108   5.531   1.334
 5247TIP3    H215748   0.258   5.538   1.312
 5248TIP3   OH215749   1.361   1.497   4.754
 5248TIP3    H115750   1.354   1.543   4.838
 5248TIP3    H215751   1.271   1.481   4.728
 5249TIP3   OH215752   1.390   5.118   3.400
 5249TIP3    H115753   1.333   5.174   3.452
 5249TIP3    H215754   1.424   5.175   3.331
 5250TIP3   OH215755   2.154   3.960   2.469
 5250TIP3    H115756   2.138   3.938   2.561
 5250TIP3    H215757   2.221   3.897   2.441
 5251TIP3   OH215758   4.716   3.449   0.471
 5251TIP3    H115759   4.750   3.476   0.557
 5251TIP3    H215760   4.632   3.494   0.463
 5252TIP3   OH215761   5.232   3.753   3.344
 5252TIP3    H115762   5.234   3.663   3.377
 5252TIP3    H215763   5.324   3.781   3.346
 5253TIP3   OH215764   0.862   0.119   3.327
 5253TIP3    H115765   0.823   0.125   3.240
 5253TIP3    H215766   0.799   0.069   3.378
 5254TIP3   OH215767   2.425   3.179   4.467
 5254TIP3    H115768   2.357   3.167   4.533
 5254TIP3    H215769   2.474   3.097   4.467
 5255TIP3   OH215770   3.176   3.747   1.745
 5255TIP3    H115771   3.086   3.756   1.714
 5255TIP3    H215772   3.194   3.829   1.790
 5256TIP3   OH215773   1.137   2.755   2.238
 5256TIP3    H115774   1.076   2.685   2.213
 5256TIP3    H215775   1.146   2.745   2.333
 5257TIP3   OH215776   3.289   4.093   0.708
 5257TIP3    H115777   3.383   4.083   0.726
 5257TIP3    H215778   3.285   4.140   0.625
 5258TIP3   OH215779   2.382   5.645   3.049
 5258TIP3    H115780   2.371   5.616   3.139
 5258TIP3    H215781   2.304   5.697   3.030
 5259TIP3   OH215782   2.660   4.815   1.923
 5259TIP3    H115783   2.650   4.735   1.975
 5259TIP3    H215784   2.668   4.784   1.833
 5260TIP3   OH215785   0.492   5.620   2.170
 5260TIP3    H115786   0.483   5.715   2.160
 5260TIP3    H215787   0.404   5.588   2.186
 5261TIP3   OH215788   4.693   4.348   2.405
 5261TIP3    H115789   4.705   4.385   2.317
 5261TIP3    H215790   4.665   4.422   2.458
 5262TIP3   OH215791   3.453   5.351   4.727
 5262TIP3    H115792   3.388   5.354   4.657
 5262TIP3    H215793   3.467   5.442   4.752
 5263TIP3   OH215794   2.596   2.988   3.086
 5263TIP3    H115795   2.602   3.082   3.105
 5263TIP3    H215796   2.664   2.949   3.140
 5264TIP3   OH215797   1.145   0.643   2.320
 5264TIP3    H115798   1.167   0.600   2.402
 5264TIP3    H215799   1.212   0.711   2.310
 5265TIP3   OH215800   0.050   1.011   4.287
 5265TIP3    H115801   0.142   1.019   4.314
 5265TIP3    H215802   0.012   1.096   4.305
 5266TIP3   OH215803   0.280   2.177   1.143
 5266TIP3    H115804   0.254   2.179   1.051
 5266TIP3    H215805   0.256   2.263   1.177
 5267TIP3   OH215806   4.878   1.649   5.062
 5267TIP3    H115807   4.935   1.664   5.137
 5267TIP3    H215808   4.881   1.555   5.047
 5268TIP3   OH215809   3.000   3.814   0.063
 5268TIP3    H115810   2.907   3.837   0.059
 5268TIP3    H215811   3.002   3.719   0.049
 5269TIP3   OH215812   1.118   1.267   5.153
 5269TIP3    H115813   1.084   1.239   5.069
 5269TIP3    H215814   1.051   1.326   5.188
 5270TIP3   OH215815   0.570   0.183   1.110
 5270TIP3    H115816   0.642   0.135   1.151
 5270TIP3    H215817   0.496   0.123   1.116
 5271TIP3   OH215818   0.562   5.852   1.449
 5271TIP3    H115819   0.588   5.886   1.534
 5271TIP3    H215820   0.591   5.918   1.386
 5272TIP3   OH215821   1.332   5.491   4.723
 5272TIP3    H115822   1.308   5.402   4.697
 5272TIP3    H215823   1.340   5.487   4.818
 5273TIP3   OH215824   5.502   3.565   4.391
 5273TIP3    H115825   5.544   3.608   4.466
 5273TIP3    H215826   5.417   3.537   4.425
 5274TIP3   OH215827   1.515   1.048   4.373
 5274TIP3    H115828   1.582   1.002   4.322
 5274TIP3    H215829   1.533   1.023   4.464
 5275TIP3   OH215830   4.779   1.952   3.266
 5275TIP3    H115831   4.795   1.931   3.174
 5275TIP3    H215832   4.684   1.955   3.274
 5276TIP3   OH215833   0.194   2.960   1.269
 5276TIP3    H115834   0.201   3.055   1.265
 5276TIP3    H215835   0.222   2.937   1.357
 5277TIP3   OH215836   5.880   1.578   3.173
 5277TIP3    H115837   5.906   1.567   3.264
 5277TIP3    H215838   5.786   1.595   3.176
 5278TIP3   OH215839   0.333   5.774   3.192
 5278TIP3    H115840   0.379   5.710   3.246
 5278TIP3    H215841   0.368   5.761   3.104
 5279TIP3   OH215842   0.684   1.527   0.617
 5279TIP3    H115843   0.648   1.607   0.580
 5279TIP3    H215844   0.721   1.481   0.542
 5280TIP3   OH215845   2.816   2.413   5.042
 5280TIP3    H115846   2.901   2.382   5.011
 5280TIP3    H215847   2.833   2.502   5.075
 5281TIP3   OH215848   2.847   0.358   0.312
 5281TIP3    H115849   2.850   0.383   0.220
 5281TIP3    H215850   2.880   0.268   0.314
 5282TIP3   OH215851   3.526   6.000   0.590
 5282TIP3    H115852   3.504   6.079   0.541
 5282TIP3    H215853   3.519   5.930   0.526
 5283TIP3   OH215854   5.918   0.415   2.665
 5283TIP3    H115855   5.920   0.507   2.640
 5283TIP3    H215856   5.876   0.415   2.752
 5284TIP3   OH215857   2.303   0.821   0.579
 5284TIP3    H115858   2.236   0.844   0.515
 5284TIP3    H215859   2.254   0.795   0.657
 5285TIP3   OH215860   4.487   0.517   2.611
 5285TIP3    H115861   4.548   0.446   2.591
 5285TIP3    H215862   4.409   0.473   2.644
 5286TIP3   OH215863   2.491   0.235   2.831
 5286TIP3    H115864   2.446   0.239   2.747
 5286TIP3    H215865   2.466   0.316   2.876
 5287TIP3   OH215866   2.137   1.671   1.743
 5287TIP3    H115867   2.098   1.716   1.818
 5287TIP3    H215868   2.206   1.617   1.781
 5288TIP3   OH215869   1.394   1.251   5.143
 5288TIP3    H115870   1.299   1.262   5.137
 5288TIP3    H215871   1.411   1.169   5.097
 5289TIP3   OH215872   5.098   1.851   3.775
 5289TIP3    H115873   5.050   1.794   3.716
 5289TIP3    H215874   5.149   1.791   3.831
 5290TIP3   OH215875   5.911   2.788   3.570
 5290TIP3    H115876   5.838   2.790   3.508
 5290TIP3    H215877   5.870   2.796   3.656
 5291TIP3   OH215878   3.418   0.800   3.315
 5291TIP3    H115879   3.473   0.833   3.244
 5291TIP3    H215880   3.331   0.794   3.277
 5292TIP3   OH215881   0.143   0.883   1.666
 5292TIP3    H115882   0.085   0.829   1.612
 5292TIP3    H215883   0.184   0.944   1.604
 5293TIP3   OH215884   6.038   4.622   3.238
 5293TIP3    H115885   6.125   4.663   3.241
 5293TIP3    H215886   6.051   4.544   3.184
 5294TIP3   OH215887   5.524   4.626   1.679
 5294TIP3    H115888   5.610   4.586   1.694
 5294TIP3    H215889   5.490   4.642   1.767
 5295TIP3   OH215890   0.328   2.303   0.649
 5295TIP3    H115891   0.419   2.282   0.671
 5295TIP3    H215892   0.296   2.225   0.604
 5296TIP3   OH215893   4.227   2.788   2.230
 5296TIP3    H115894   4.229   2.706   2.181
 5296TIP3    H215895   4.298   2.780   2.294
 5297TIP3   OH215896   0.570   5.644   0.900
 5297TIP3    H115897   0.521   5.683   0.828
 5297TIP3    H215898   0.599   5.559   0.865
 5298TIP3   OH215899   1.836   5.714   1.175
 5298TIP3    H115900   1.874   5.796   1.209
 5298TIP3    H215901   1.903   5.681   1.114
 5299TIP3   OH215902   1.203   1.511   3.527
 5299TIP3    H115903   1.238   1.434   3.481
 5299TIP3    H215904   1.248   1.510   3.612
 5300TIP3   OH215905   2.228   3.913   4.631
 5300TIP3    H115906   2.282   3.858   4.574
 5300TIP3    H215907   2.200   3.985   4.574
 5301TIP3   OH215908   4.094   5.370   3.200
 5301TIP3    H115909   4.008   5.354   3.239
 5301TIP3    H215910   4.095   5.464   3.181
 5302TIP3   OH215911   2.407   0.569   4.747
 5302TIP3    H115912   2.343   0.503   4.722
 5302TIP3    H215913   2.356   0.636   4.792
 5303TIP3   OH215914   0.216   5.851   3.707
 5303TIP3    H115915   0.249   5.837   3.618
 5303TIP3    H215916   0.124   5.876   3.694
 5304TIP3   OH215917   4.905   5.013   3.253
 5304TIP3    H115918   4.955   4.932   3.239
 5304TIP3    H215919   4.898   5.021   3.348
 5305TIP3   OH215920   4.677   4.075   0.975
 5305TIP3    H115921   4.636   4.047   0.893
 5305TIP3    H215922   4.727   3.999   1.005
 5306TIP3   OH215923   0.999   4.141   0.501
 5306TIP3    H115924   1.092   4.149   0.482
 5306TIP3    H215925   0.971   4.231   0.521
 5307TIP3   OH215926   4.640   0.047   3.932
 5307TIP3    H115927   4.683  -0.035   3.955
 5307TIP3    H215928   4.627   0.091   4.016
 5308TIP3   OH215929   2.300   2.392   3.387
 5308TIP3    H115930   2.251   2.459   3.340
 5308TIP3    H215931   2.358   2.442   3.445
 5309TIP3   OH215932   0.256   4.026   1.089
 5309TIP3    H115933   0.310   4.104   1.103
 5309TIP3    H215934   0.267   3.974   1.168
 5310TIP3   OH215935   4.651   0.082   2.129
 5310TIP3    H115936   4.636  -0.012   2.139
 5310TIP3    H215937   4.567   0.122   2.152
 5311TIP3   OH215938   0.440   2.425   4.447
 5311TIP3    H115939   0.508   2.401   4.384
 5311TIP3    H215940   0.372   2.466   4.393
 5312TIP3   OH215941   4.863   5.324   2.601
 5312TIP3    H115942   4.912   5.369   2.532
 5312TIP3    H215943   4.773   5.353   2.589
 5313TIP3   OH215944   1.507   5.857   4.686
 5313TIP3    H115945   1.511   5.871   4.591
 5313TIP3    H215946   1.439   5.918   4.716
 5314TIP3   OH215947   4.533   4.142   1.184
 5314TIP3    H115948   4.573   4.061   1.217
 5314TIP3    H215949   4.599   4.178   1.124
 5315TIP3   OH215950   0.527   3.738   5.055
 5315TIP3    H115951   0.524   3.803   4.985
 5315TIP3    H215952   0.537   3.790   5.135
 5316TIP3   OH215953   2.993   3.808   4.925
 5316TIP3    H115954   3.021   3.881   4.869
 5316TIP3    H215955   2.985   3.846   5.012
 5317TIP3   OH215956   5.900   0.011   4.380
 5317TIP3    H115957   5.934   0.023   4.291
 5317TIP3    H215958   5.964   0.054   4.436
 5318TIP3   OH215959   1.932   5.440   1.934
 5318TIP3    H115960   1.889   5.362   1.898
 5318TIP3    H215961   1.864   5.508   1.933
 5319TIP3   OH215962   0.245   1.988   3.126
 5319TIP3    H115963   0.302   2.049   3.079
 5319TIP3    H215964   0.251   1.906   3.077
 5320TIP3   OH215965   1.132   1.381   0.331
 5320TIP3    H115966   1.148   1.464   0.375
 5320TIP3    H215967   1.116   1.405   0.240
 5321TIP3   OH215968   2.694   2.137   1.155
 5321TIP3    H115969   2.760   2.110   1.091
 5321TIP3    H215970   2.683   2.231   1.140
 5322TIP3   OH215971   4.354   3.817   3.075
 5322TIP3    H115972   4.284   3.816   3.009
 5322TIP3    H215973   4.371   3.910   3.091
 5323TIP3   OH215974   2.662   2.818   4.140
 5323TIP3    H115975   2.735   2.815   4.079
 5323TIP3    H215976   2.590   2.855   4.089
 5324TIP3   OH215977   4.036   0.839   1.651
 5324TIP3    H115978   4.017   0.862   1.741
 5324TIP3    H215979   3.950   0.836   1.608
 5325TIP3   OH215980   1.909   2.204   2.814
 5325TIP3    H115981   1.826   2.157   2.819
 5325TIP3    H215982   1.963   2.152   2.754
 5326TIP3   OH215983   1.195   4.415   1.104
 5326TIP3    H115984   1.130   4.466   1.153
 5326TIP3    H215985   1.276   4.465   1.113
 5327TIP3   OH215986   0.115   3.731   3.627
 5327TIP3    H115987   0.152   3.817   3.645
 5327TIP3    H215988   0.039   3.749   3.570
 5328TIP3   OH215989   1.939   2.491   2.526
 5328TIP3    H115990   2.011   2.526   2.578
 5328TIP3    H215991   1.869   2.556   2.535
 5329TIP3   OH215992   3.567   0.288   4.539
 5329TIP3    H115993   3.570   0.360   4.476
 5329TIP3    H215994   3.625   0.316   4.610
 5330TIP3   OH215995   0.594   5.401   1.294
 5330TIP3    H115996   0.602   5.309   1.271
 5330TIP3    H215997   0.515   5.430   1.247
 5331TIP3   OH215998   4.298   4.857   4.419
 5331TIP3    H115999   4.300   4.889   4.509
 5331TIP3    H216000   4.351   4.777   4.422
 5332TIP3   OH216001   1.180   1.399   1.699
 5332TIP3    H116002   1.135   1.473   1.659
 5332TIP3    H216003   1.169   1.412   1.793
 5333TIP3   OH216004   5.392   0.099   4.442
 5333TIP3    H116005   5.477   0.104   4.397
 5333TIP3    H216006   5.382   0.006   4.463
 5334TIP3   OH216007   3.397   2.995   3.801
 5334TIP3    H116008   3.486   3.030   3.794
 5334TIP3    H216009   3.373   3.007   3.893
 5335TIP3   OH216010   2.427   4.493   1.870
 5335TIP3    H116011   2.375   4.557   1.820
 5335TIP3    H216012   2.364   4.426   1.895
 5336TIP3   OH216013   0.379   0.118   2.885
 5336TIP3    H116014   0.463   0.071   2.879
 5336TIP3    H216015   0.379   0.156   2.972
 5337TIP3   OH216016   5.175   4.503   0.897
 5337TIP3    H116017   5.181   4.408   0.898
 5337TIP3    H216018   5.190   4.527   0.806
 5338TIP3   OH216019   5.268   4.829   1.282
 5338TIP3    H116020   5.177   4.846   1.259
 5338TIP3    H216021   5.299   4.767   1.216
 5339TIP3   OH216022   1.562   1.549   3.271
 5339TIP3    H116023   1.627   1.539   3.201
 5339TIP3    H216024   1.576   1.474   3.328
 5340TIP3   OH216025   2.254   0.933   2.352
 5340TIP3    H116026   2.236   0.882   2.431
 5340TIP3    H216027   2.168   0.945   2.312
 5341TIP3   OH216028   3.359   2.991   2.202
 5341TIP3    H116029   3.451   2.975   2.222
 5341TIP3    H216030   3.344   3.082   2.226
 5342TIP3   OH216031   5.951   0.591   0.756
 5342TIP3    H116032   5.932   0.509   0.710
 5342TIP3    H216033   6.043   0.610   0.734
 5343TIP3   OH216034   4.032   4.330   0.281
 5343TIP3    H116035   4.052   4.388   0.355
 5343TIP3    H216036   4.027   4.242   0.320
 5344TIP3   OH216037   4.435   1.795   4.056
 5344TIP3    H116038   4.377   1.867   4.081
 5344TIP3    H216039   4.380   1.739   4.001
 5345TIP3   OH216040   2.306   3.297   1.094
 5345TIP3    H116041   2.243   3.230   1.120
 5345TIP3    H216042   2.391   3.253   1.097
 5346TIP3   OH216043   3.493   1.364   2.713
 5346TIP3    H116044   3.528   1.412   2.639
 5346TIP3    H216045   3.548   1.286   2.720
 5347TIP3   OH216046   2.215   0.725   4.424
 5347TIP3    H116047   2.200   0.770   4.341
 5347TIP3    H216048   2.129   0.720   4.465
 5348TIP3   OH216049   3.666   2.636   3.212
 5348TIP3    H116050   3.604   2.699   3.249
 5348TIP3    H216051   3.623   2.605   3.132
 5349TIP3   OH216052   5.661   1.334   4.625
 5349TIP3    H116053   5.747   1.375   4.613
 5349TIP3    H216054   5.599   1.399   4.592
 5350TIP3   OH216055   0.929   1.795   1.366
 5350TIP3    H116056   0.940   1.745   1.285
 5350TIP3    H216057   0.834   1.807   1.374
 5351TIP3   OH216058   1.923   5.549   2.625
 5351TIP3    H116059   1.934   5.579   2.535
 5351TIP3    H216060   1.931   5.453   2.620
 5352TIP3   OH216061   5.638   2.133   5.189
 5352TIP3    H116062   5.562   2.138   5.247
 5352TIP3    H216063   5.617   2.192   5.117
 5353TIP3   OH216064   5.118   2.394   4.221
 5353TIP3    H116065   5.056   2.415   4.151
 5353TIP3    H216066   5.181   2.466   4.220
 5354TIP3   OH216067   0.975   5.896   3.478
 5354TIP3    H116068   0.980   5.844   3.558
 5354TIP3    H216069   1.044   5.962   3.488
 5355TIP3   OH216070   5.917   2.610   0.940
 5355TIP3    H116071   5.864   2.654   1.006
 5355TIP3    H216072   5.854   2.586   0.872
 5356TIP3   OH216073   2.456   0.230   1.359
 5356TIP3    H116074   2.376   0.283   1.365
 5356TIP3    H216075   2.437   0.153   1.412
 5357TIP3   OH216076   4.146   0.418   3.756
 5357TIP3    H116077   4.224   0.459   3.717
 5357TIP3    H216078   4.097   0.491   3.793
 5358TIP3   OH216079   2.093   0.293   0.962
 5358TIP3    H116080   2.165   0.356   0.950
 5358TIP3    H216081   2.014   0.343   0.944
 5359TIP3   OH216082   5.290   2.101   3.928
 5359TIP3    H116083   5.298   2.021   3.980
 5359TIP3    H216084   5.213   2.145   3.964
 5360TIP3   OH216085   4.571   1.986   0.909
 5360TIP3    H116086   4.521   1.995   0.991
 5360TIP3    H216087   4.504   1.986   0.840
 5361TIP3   OH216088   2.262   3.129   3.054
 5361TIP3    H116089   2.186   3.165   3.009
 5361TIP3    H216090   2.241   3.036   3.065
 5362TIP3   OH216091   2.939   0.923   4.904
 5362TIP3    H116092   2.968   0.882   4.986
 5362TIP3    H216093   3.018   0.930   4.851
 5363TIP3   OH216094   2.133   3.930   4.988
 5363TIP3    H116095   2.219   3.890   4.974
 5363TIP3    H216096   2.148   3.996   5.056
 5364TIP3   OH216097   1.524   3.395   0.974
 5364TIP3    H116098   1.454   3.362   0.918
 5364TIP3    H216099   1.544   3.481   0.938
 5365TIP3   OH216100   4.640   0.874   0.836
 5365TIP3    H116101   4.726   0.864   0.876
 5365TIP3    H216102   4.598   0.788   0.849
 5366TIP3   OH216103   6.162   3.146   0.894
 5366TIP3    H116104   6.134   3.183   0.810
 5366TIP3    H216105   6.131   3.056   0.892
 5367TIP3   OH216106   4.342   3.349   2.286
 5367TIP3    H116107   4.338   3.356   2.190
 5367TIP3    H216108   4.276   3.411   2.317
 5368TIP3   OH216109   4.531   3.466   5.101
 5368TIP3    H116110   4.484   3.400   5.050
 5368TIP3    H216111   4.620   3.465   5.065
 5369TIP3   OH216112   0.945   2.109   4.147
 5369TIP3    H116113   0.951   2.148   4.234
 5369TIP3    H216114   0.916   2.019   4.162
 5370TIP3   OH216115   1.175   5.188   0.600
 5370TIP3    H116116   1.111   5.253   0.632
 5370TIP3    H216117   1.208   5.146   0.679
 5371TIP3   OH216118   3.348   3.829   1.523
 5371TIP3    H116119   3.416   3.883   1.564
 5371TIP3    H216120   3.272   3.838   1.580
 5372TIP3   OH216121   0.359   1.641   5.041
 5372TIP3    H116122   0.268   1.615   5.045
 5372TIP3    H216123   0.357   1.736   5.054
 5373TIP3   OH216124   2.733   1.674   1.692
 5373TIP3    H116125   2.676   1.625   1.631
 5373TIP3    H216126   2.750   1.757   1.647
 5374TIP3   OH216127   0.629   4.587   3.857
 5374TIP3    H116128   0.683   4.654   3.899
 5374TIP3    H216129   0.540   4.623   3.858
 5375TIP3   OH216130   4.736   1.413   4.584
 5375TIP3    H116131   4.660   1.467   4.604
 5375TIP3    H216132   4.812   1.467   4.607
 5376TIP3   OH216133   0.649   4.493   0.109
 5376TIP3    H116134   0.638   4.411   0.157
 5376TIP3    H216135   0.735   4.486   0.069
 5377TIP3   OH216136   3.975   2.334   4.111
 5377TIP3    H116137   3.920   2.339   4.033
 5377TIP3    H216138   3.926   2.277   4.171
 5378TIP3   OH216139   3.644   3.186   4.453
 5378TIP3    H116140   3.653   3.248   4.525
 5378TIP3    H216141   3.634   3.241   4.375
 5379TIP3   OH216142   5.685   5.977   2.649
 5379TIP3    H116143   5.630   5.901   2.665
 5379TIP3    H216144   5.710   5.970   2.557
 5380TIP3   OH216145   1.491   3.125   0.296
 5380TIP3    H116146   1.521   3.206   0.256
 5380TIP3    H216147   1.405   3.147   0.332
 5381TIP3   OH216148   3.612   4.517   2.716
 5381TIP3    H116149   3.546   4.549   2.653
 5381TIP3    H216150   3.594   4.424   2.724
 5382TIP3   OH216151   0.279   1.945   4.819
 5382TIP3    H116152   0.315   2.024   4.860
 5382TIP3    H216153   0.356   1.900   4.783
 5383TIP3   OH216154   4.087   0.211   0.252
 5383TIP3    H116155   4.028   0.151   0.206
 5383TIP3    H216156   4.163   0.157   0.274
 5384TIP3   OH216157   3.907   2.650   2.861
 5384TIP3    H116158   3.814   2.627   2.868
 5384TIP3    H216159   3.926   2.695   2.943
 5385TIP3   OH216160   2.618   5.259   3.212
 5385TIP3    H116161   2.557   5.279   3.283
 5385TIP3    H216162   2.705   5.270   3.250
 5386TIP3   OH216163   3.566   4.361   1.043
 5386TIP3    H116164   3.579   4.400   1.130
 5386TIP3    H216165   3.491   4.408   1.008
 5387TIP3   OH216166   3.154   1.206   4.050
 5387TIP3    H116167   3.156   1.163   3.965
 5387TIP3    H216168   3.062   1.201   4.077
 5388TIP3   OH216169   6.235   4.265   3.226
 5388TIP3    H116170   6.309   4.285   3.170
 5388TIP3    H216171   6.159   4.302   3.180
 5389TIP3   OH216172   6.171   2.220   4.680
 5389TIP3    H116173   6.112   2.226   4.755
 5389TIP3    H216174   6.150   2.297   4.627
 5390TIP3   OH216175   4.058   4.504   0.488
 5390TIP3    H116176   4.009   4.587   0.483
 5390TIP3    H216177   4.073   4.491   0.581
 5391TIP3   OH216178   4.652   4.798   1.202
 5391TIP3    H116179   4.575   4.799   1.259
 5391TIP3    H216180   4.697   4.880   1.220
 5392TIP3   OH216181   2.299   2.845   4.811
 5392TIP3    H116182   2.392   2.825   4.813
 5392TIP3    H216183   2.257   2.759   4.815
 5393TIP3   OH216184   1.635   1.837   1.800
 5393TIP3    H116185   1.696   1.795   1.739
 5393TIP3    H216186   1.631   1.928   1.770
 5394TIP3   OH216187   3.202   1.996   4.373
 5394TIP3    H116188   3.110   2.016   4.391
 5394TIP3    H216189   3.210   2.004   4.278
 5395TIP3   OH216190   0.669   2.541   0.749
 5395TIP3    H116191   0.747   2.597   0.752
 5395TIP3    H216192   0.639   2.538   0.840
 5396TIP3   OH216193   1.711   5.816   0.956
 5396TIP3    H116194   1.637   5.755   0.959
 5396TIP3    H216195   1.760   5.799   1.037
 5397TIP3   OH216196   2.386   2.035   1.927
 5397TIP3    H116197   2.443   2.103   1.964
 5397TIP3    H216198   2.446   1.964   1.903
 5398TIP3   OH216199   4.994   0.639   2.807
 5398TIP3    H116200   4.904   0.667   2.791
 5398TIP3    H216201   5.044   0.674   2.733
 5399TIP3   OH216202   1.733   0.636   0.780
 5399TIP3    H116203   1.661   0.698   0.791
 5399TIP3    H216204   1.692   0.558   0.741
 5400TIP3   OH216205   4.420   3.165   2.015
 5400TIP3    H116206   4.446   3.240   2.068
 5400TIP3    H216207   4.366   3.202   1.945
 5401TIP3   OH216208   0.869   5.439   3.993
 5401TIP3    H116209   0.776   5.426   4.013
 5401TIP3    H216210   0.915   5.409   4.072
 5402TIP3   OH216211   1.497   2.332   0.668
 5402TIP3    H116212   1.467   2.422   0.676
 5402TIP3    H216213   1.530   2.310   0.755
 5403TIP3   OH216214   5.877   4.982   4.507
 5403TIP3    H116215   5.971   4.966   4.499
 5403TIP3    H216216   5.864   5.066   4.463
 5404TIP3   OH216217   5.991   0.325   0.766
 5404TIP3    H116218   6.061   0.284   0.818
 5404TIP3    H216219   6.003   0.288   0.678
 5405TIP3   OH216220   1.516   4.274   0.480
 5405TIP3    H116221   1.542   4.356   0.522
 5405TIP3    H216222   1.584   4.212   0.505
 5406TIP3   OH216223   5.068   1.777   2.113
 5406TIP3    H116224   5.161   1.763   2.099
 5406TIP3    H216225   5.038   1.699   2.159
 5407TIP3   OH216226   5.472   4.954   2.254
 5407TIP3    H116227   5.385   4.969   2.217
 5407TIP3    H216228   5.484   5.023   2.319
 5408TIP3   OH216229   2.349   2.507   2.448
 5408TIP3    H116230   2.325   2.596   2.471
 5408TIP3    H216231   2.395   2.515   2.365
 5409TIP3   OH216232   4.294   1.595   3.914
 5409TIP3    H116233   4.344   1.646   3.851
 5409TIP3    H216234   4.254   1.525   3.863
 5410TIP3   OH216235   4.154   5.603   2.083
 5410TIP3    H116236   4.102   5.590   2.163
 5410TIP3    H216237   4.108   5.673   2.036
 5411TIP3   OH216238   5.217   0.704   0.659
 5411TIP3    H116239   5.183   0.705   0.569
 5411TIP3    H216240   5.222   0.796   0.684
 5412TIP3   OH216241   3.767   1.960   3.130
 5412TIP3    H116242   3.851   1.963   3.176
 5412TIP3    H216243   3.702   1.986   3.196
 5413TIP3   OH216244   3.086   4.167   1.940
 5413TIP3    H116245   3.003   4.200   1.906
 5413TIP3    H216246   3.074   4.166   2.035
 5414TIP3   OH216247   1.731   3.295   1.147
 5414TIP3    H116248   1.767   3.214   1.112
 5414TIP3    H216249   1.653   3.311   1.094
 5415TIP3   OH216250   2.864   0.078   0.310
 5415TIP3    H116251   2.857   0.039   0.223
 5415TIP3    H216252   2.919   0.018   0.359
 5416TIP3   OH216253   0.021   1.835   4.600
 5416TIP3    H116254   0.042   1.926   4.621
 5416TIP3    H216255   0.063   1.820   4.516
 5417TIP3   OH216256   6.320   5.388   0.763
 5417TIP3    H116257   6.298   5.309   0.812
 5417TIP3    H216258   6.349   5.355   0.678
 5418TIP3   OH216259   3.378   4.196   4.571
 5418TIP3    H116260   3.285   4.209   4.590
 5418TIP3    H216261   3.423   4.258   4.629
 5419TIP3   OH216262   4.641   5.117   2.970
 5419TIP3    H116263   4.613   5.119   3.062
 5419TIP3    H216264   4.734   5.139   2.973
 5420TIP3   OH216265   2.901   1.008   4.559
 5420TIP3    H116266   2.986   1.008   4.604
 5420TIP3    H216267   2.847   1.068   4.611
 5421TIP3   OH216268   1.246   2.709   0.013
 5421TIP3    H116269   1.306   2.639  -0.011
 5421TIP3    H216270   1.293   2.789  -0.009
 5422TIP3   OH216271   2.580   5.193   3.610
 5422TIP3    H116272   2.612   5.128   3.547
 5422TIP3    H216273   2.659   5.230   3.648
 5423TIP3   OH216274   3.507   4.688   4.613
 5423TIP3    H116275   3.473   4.761   4.562
 5423TIP3    H216276   3.536   4.624   4.548
 5424TIP3   OH216277   1.496   0.482   3.314
 5424TIP3    H116278   1.505   0.509   3.223
 5424TIP3    H216279   1.477   0.564   3.361
 5425TIP3   OH216280   3.722   0.721   1.166
 5425TIP3    H116281   3.641   0.757   1.201
 5425TIP3    H216282   3.734   0.638   1.213
 5426TIP3   OH216283   5.128   5.660   3.077
 5426TIP3    H116284   5.087   5.683   3.160
 5426TIP3    H216285   5.067   5.598   3.036
 5427TIP3   OH216286   0.786   2.497   4.150
 5427TIP3    H116287   0.739   2.414   4.150
 5427TIP3    H216288   0.789   2.523   4.243
 5428TIP3   OH216289   2.280   2.834   1.570
 5428TIP3    H116290   2.324   2.749   1.574
 5428TIP3    H216291   2.237   2.834   1.484
 5429TIP3   OH216292   1.382   3.339   3.480
 5429TIP3    H116293   1.391   3.286   3.559
 5429TIP3    H216294   1.411   3.282   3.409
 5430TIP3   OH216295   0.702   3.577   3.392
 5430TIP3    H116296   0.617   3.618   3.409
 5430TIP3    H216297   0.743   3.633   3.327
 5431TIP3   OH216298   2.997   5.480   0.076
 5431TIP3    H116299   2.934   5.531   0.026
 5431TIP3    H216300   3.070   5.541   0.092
 5432TIP3   OH216301   5.132   2.101   3.153
 5432TIP3    H116302   5.181   2.169   3.201
 5432TIP3    H216303   5.043   2.108   3.186
 5433TIP3   OH216304   0.216   4.205   0.806
 5433TIP3    H116305   0.121   4.207   0.795
 5433TIP3    H216306   0.232   4.128   0.860
 5434TIP3   OH216307   2.722   5.830   3.944
 5434TIP3    H116308   2.756   5.806   3.858
 5434TIP3    H216309   2.716   5.747   3.992
 5435TIP3   OH216310   0.217   5.254   0.267
 5435TIP3    H116311   0.285   5.319   0.280
 5435TIP3    H216312   0.255   5.172   0.298
 5436TIP3   OH216313   0.725   0.572   4.497
 5436TIP3    H116314   0.640   0.534   4.474
 5436TIP3    H216315   0.776   0.499   4.530
 5437TIP3   OH216316   0.121   4.091   2.003
 5437TIP3    H116317   0.152   4.052   1.921
 5437TIP3    H216318   0.059   4.158   1.975
 5438TIP3   OH216319   4.846   0.250  -0.008
 5438TIP3    H116320   4.833   0.226   0.084
 5438TIP3    H216321   4.800   0.334  -0.017
 5439TIP3   OH216322   4.927   2.138   2.227
 5439TIP3    H116323   4.973   2.088   2.161
 5439TIP3    H216324   4.996   2.180   2.278
 5440TIP3   OH216325   5.128   5.154   0.208
 5440TIP3    H116326   5.070   5.102   0.265
 5440TIP3    H216327   5.125   5.242   0.245
 5441TIP3   OH216328   0.836   3.223   2.312
 5441TIP3    H116329   0.873   3.300   2.356
 5441TIP3    H216330   0.797   3.258   2.232
 5442TIP3   OH216331   4.946   2.152   0.604
 5442TIP3    H116332   4.967   2.065   0.568
 5442TIP3    H216333   4.929   2.136   0.696
 5443TIP3   OH216334   2.066   4.487   0.906
 5443TIP3    H116335   2.155   4.488   0.940
 5443TIP3    H216336   2.032   4.400   0.929
 5444TIP3   OH216337   1.064   1.603   1.556
 5444TIP3    H116338   1.127   1.667   1.588
 5444TIP3    H216339   1.021   1.646   1.482
 5445TIP3   OH216340   2.075   3.694   3.829
 5445TIP3    H116341   2.101   3.736   3.747
 5445TIP3    H216342   2.153   3.646   3.857
 5446TIP3   OH216343   4.742   2.883   5.125
 5446TIP3    H116344   4.666   2.930   5.158
 5446TIP3    H216345   4.733   2.886   5.030
 5447TIP3   OH216346   1.525   3.153   4.204
 5447TIP3    H116347   1.571   3.233   4.230
 5447TIP3    H216348   1.441   3.184   4.170
 5448TIP3   OH216349   2.776   2.483   0.255
 5448TIP3    H116350   2.716   2.514   0.323
 5448TIP3    H216351   2.767   2.388   0.256
 5449TIP3   OH216352   0.067   5.148   3.887
 5449TIP3    H116353   0.031   5.234   3.907
 5449TIP3    H216354   0.005   5.109   3.826
 5450TIP3   OH216355   3.724   1.948   1.565
 5450TIP3    H116356   3.719   1.852   1.557
 5450TIP3    H216357   3.808   1.970   1.525
 5451TIP3   OH216358   6.034   5.349   2.353
 5451TIP3    H116359   6.098   5.307   2.296
 5451TIP3    H216360   5.993   5.277   2.401
 5452TIP3   OH216361   4.742   4.758   4.935
 5452TIP3    H116362   4.836   4.757   4.915
 5452TIP3    H216363   4.701   4.787   4.854
 5453TIP3   OH216364   3.502   4.840   3.624
 5453TIP3    H116365   3.589   4.805   3.604
 5453TIP3    H216366   3.515   4.895   3.701
 5454TIP3   OH216367   1.663   4.162   2.437
 5454TIP3    H116368   1.654   4.256   2.448
 5454TIP3    H216369   1.599   4.124   2.498
 5455TIP3   OH216370   4.803   1.910   4.943
 5455TIP3    H116371   4.813   1.827   4.989
 5455TIP3    H216372   4.845   1.975   4.999
 5456TIP3   OH216373   4.470   1.322   2.645
 5456TIP3    H116374   4.483   1.229   2.624
 5456TIP3    H216375   4.384   1.326   2.687
 5457TIP3   OH216376   1.848   2.836   2.789
 5457TIP3    H116377   1.787   2.901   2.824
 5457TIP3    H216378   1.868   2.779   2.864
 5458TIP3   OH216379   5.824   1.021   3.981
 5458TIP3    H116380   5.802   0.938   3.939
 5458TIP3    H216381   5.912   1.008   4.015
 5459TIP3   OH216382   5.112   5.765   1.209
 5459TIP3    H116383   5.076   5.687   1.252
 5459TIP3    H216384   5.147   5.732   1.126
 5460TIP3   OH216385   0.503   3.095   1.422
 5460TIP3    H116386   0.452   3.019   1.451
 5460TIP3    H216387   0.560   3.115   1.496
 5461TIP3   OH216388   5.299   1.814   1.512
 5461TIP3    H116389   5.347   1.877   1.566
 5461TIP3    H216390   5.233   1.778   1.571
 5462TIP3   OH216391   3.501   4.326   0.346
 5462TIP3    H116392   3.548   4.269   0.285
 5462TIP3    H216393   3.418   4.282   0.361
 5463TIP3   OH216394   5.317   1.139   0.104
 5463TIP3    H116395   5.259   1.154   0.029
 5463TIP3    H216396   5.368   1.220   0.109
 5464TIP3   OH216397   3.567   4.916   2.192
 5464TIP3    H116398   3.563   4.901   2.097
 5464TIP3    H216399   3.622   4.993   2.202
 5465TIP3   OH216400   6.057   4.005   4.048
 5465TIP3    H116401   5.995   4.076   4.062
 5465TIP3    H216402   6.013   3.947   3.985
 5466TIP3   OH216403   1.659   1.826   4.982
 5466TIP3    H116404   1.613   1.743   4.972
 5466TIP3    H216405   1.700   1.821   5.068
 5467TIP3   OH216406   4.977   1.981   0.323
 5467TIP3    H116407   5.003   1.942   0.406
 5467TIP3    H216408   5.044   1.952   0.261
 5468TIP3   OH216409   3.428   0.147   2.524
 5468TIP3    H116410   3.372   0.073   2.502
 5468TIP3    H216411   3.517   0.116   2.509
 5469TIP3   OH216412   2.025   2.244   0.474
 5469TIP3    H116413   1.963   2.264   0.404
 5469TIP3    H216414   2.067   2.327   0.494
 5470TIP3   OH216415   0.133   4.514   2.130
 5470TIP3    H116416   0.176   4.502   2.045
 5470TIP3    H216417   0.041   4.529   2.108
 5471TIP3   OH216418   6.355   3.293   2.930
 5471TIP3    H116419   6.367   3.315   3.023
 5471TIP3    H216420   6.263   3.269   2.923
 5472TIP3   OH216421   6.311   3.352   2.079
 5472TIP3    H116422   6.355   3.377   2.160
 5472TIP3    H216423   6.223   3.325   2.108
 5473TIP3   OH216424   3.325   5.710   0.765
 5473TIP3    H116425   3.359   5.780   0.820
 5473TIP3    H216426   3.234   5.733   0.750
 5474TIP3   OH216427   5.806   3.084   4.406
 5474TIP3    H116428   5.899   3.065   4.392
 5474TIP3    H216429   5.772   3.006   4.449
 5475TIP3   OH216430   4.564   5.659   4.266
 5475TIP3    H116431   4.604   5.705   4.192
 5475TIP3    H216432   4.566   5.567   4.241
 5476TIP3   OH216433   5.616   1.635   2.798
 5476TIP3    H116434   5.536   1.650   2.849
 5476TIP3    H216435   5.598   1.672   2.712
 5477TIP3   OH216436   0.573   0.582   3.792
 5477TIP3    H116437   0.504   0.549   3.735
 5477TIP3    H216438   0.649   0.527   3.772
 5478TIP3   OH216439   0.095   1.359   3.941
 5478TIP3    H116440   0.190   1.373   3.951
 5478TIP3    H216441   0.072   1.413   3.865
 5479TIP3   OH216442   2.786   1.052   3.086
 5479TIP3    H116443   2.754   0.997   3.157
 5479TIP3    H216444   2.727   1.128   3.086
 5480TIP3   OH216445   3.244   5.297   3.925
 5480TIP3    H116446   3.224   5.314   3.833
 5480TIP3    H216447   3.339   5.299   3.929
 5481TIP3   OH216448   6.360   5.703   1.342
 5481TIP3    H116449   6.373   5.754   1.262
 5481TIP3    H216450   6.276   5.660   1.329
 5482TIP3   OH216451   2.642   0.503   3.482
 5482TIP3    H116452   2.662   0.596   3.491
 5482TIP3    H216453   2.549   0.495   3.502
 5483TIP3   OH216454   3.183   0.937   4.246
 5483TIP3    H116455   3.178   0.907   4.155
 5483TIP3    H216456   3.136   1.020   4.248
 5484TIP3   OH216457   4.159   4.445   0.740
 5484TIP3    H116458   4.223   4.495   0.689
 5484TIP3    H216459   4.138   4.501   0.814
 5485TIP3   OH216460   0.893   3.129   1.828
 5485TIP3    H116461   0.935   3.213   1.807
 5485TIP3    H216462   0.915   3.115   1.920
 5486TIP3   OH216463   4.321   2.964   3.062
 5486TIP3    H116464   4.278   3.048   3.047
 5486TIP3    H216465   4.338   2.930   2.974
 5487TIP3   OH216466   0.811   3.002   0.805
 5487TIP3    H116467   0.833   3.089   0.771
 5487TIP3    H216468   0.754   2.964   0.737
 5488TIP3   OH216469   6.046   3.857   0.432
 5488TIP3    H116470   5.999   3.941   0.431
 5488TIP3    H216471   6.138   3.881   0.430
 5489TIP3   OH216472   3.065   2.235   1.095
 5489TIP3    H116473   3.064   2.189   1.179
 5489TIP3    H216474   3.024   2.320   1.114
 5490TIP3   OH216475   4.716   0.669   2.851
 5490TIP3    H116476   4.723   0.575   2.867
 5490TIP3    H216477   4.632   0.694   2.890
 5491TIP3   OH216478   1.254   2.245   2.746
 5491TIP3    H116479   1.222   2.335   2.745
 5491TIP3    H216480   1.315   2.242   2.820
 5492TIP3   OH216481   1.239   0.183   4.567
 5492TIP3    H116482   1.235   0.275   4.592
 5492TIP3    H216483   1.168   0.172   4.504
 5493TIP3   OH216484   4.814   4.842   1.694
 5493TIP3    H116485   4.847   4.818   1.607
 5493TIP3    H216486   4.851   4.929   1.710
 5494TIP3   OH216487   2.832   3.168   0.155
 5494TIP3    H116488   2.837   3.165   0.059
 5494TIP3    H216489   2.921   3.149   0.184
 5495TIP3   OH216490   4.862   0.319   3.699
 5495TIP3    H116491   4.810   0.383   3.652
 5495TIP3    H216492   4.815   0.236   3.688
 5496TIP3   OH216493   4.845   1.999   1.724
 5496TIP3    H116494   4.765   1.950   1.702
 5496TIP3    H216495   4.842   2.007   1.819
 5497TIP3   OH216496   1.770   1.818   4.271
 5497TIP3    H116497   1.822   1.745   4.304
 5497TIP3    H216498   1.681   1.801   4.303
 5498TIP3   OH216499  -0.008   1.360   2.572
 5498TIP3    H116500  -0.035   1.346   2.663
 5498TIP3    H216501   0.087   1.365   2.577
 5499TIP3   OH216502   3.729   0.692   4.861
 5499TIP3    H116503   3.660   0.756   4.846
 5499TIP3    H216504   3.689   0.625   4.916
 5500TIP3   OH216505   6.317   0.575   1.848
 5500TIP3    H116506   6.257   0.505   1.825
 5500TIP3    H216507   6.401   0.531   1.863
 5501TIP3   OH216508   3.412   4.489   3.475
 5501TIP3    H116509   3.401   4.510   3.567
 5501TIP3    H216510   3.470   4.413   3.474
 5502TIP3   OH216511   2.569   4.578   2.463
 5502TIP3    H116512   2.524   4.611   2.385
 5502TIP3    H216513   2.526   4.494   2.481
 5503TIP3   OH216514   5.970   4.719   3.472
 5503TIP3    H116515   5.984   4.703   3.379
 5503TIP3    H216516   5.963   4.632   3.511
 5504TIP3   OH216517   4.185   2.582   4.685
 5504TIP3    H116518   4.237   2.657   4.712
 5504TIP3    H216519   4.208   2.569   4.592
 5505TIP3   OH216520   1.606   2.730   3.100
 5505TIP3    H116521   1.566   2.738   3.187
 5505TIP3    H216522   1.650   2.815   3.087
 5506TIP3   OH216523   4.750   2.500   5.057
 5506TIP3    H116524   4.768   2.572   4.996
 5506TIP3    H216525   4.726   2.427   5.000
 5507TIP3   OH216526   2.994   3.779   1.299
 5507TIP3    H116527   3.089   3.776   1.289
 5507TIP3    H216528   2.978   3.737   1.384
 5508TIP3   OH216529   0.049   2.973   0.218
 5508TIP3    H116530   0.089   2.921   0.288
 5508TIP3    H216531  -0.035   2.931   0.202
 5509TIP3   OH216532   0.237   5.052   5.063
 5509TIP3    H116533   0.182   5.122   5.029
 5509TIP3    H216534   0.181   4.975   5.064
 5510TIP3   OH216535   1.824   4.668   1.814
 5510TIP3    H116536   1.800   4.591   1.866
 5510TIP3    H216537   1.742   4.696   1.774
 5511TIP3   OH216538   1.235   0.182   1.219
 5511TIP3    H116539   1.149   0.211   1.188
 5511TIP3    H216540   1.279   0.261   1.248
 5512TIP3   OH216541   0.855   4.242   5.093
 5512TIP3    H116542   0.899   4.297   5.158
 5512TIP3    H216543   0.784   4.298   5.059
 5513TIP3   OH216544   2.759   2.624   2.677
 5513TIP3    H116545   2.736   2.702   2.728
 5513TIP3    H216546   2.759   2.655   2.586
 5514TIP3   OH216547   4.142   4.015   0.060
 5514TIP3    H116548   4.117   4.105   0.038
 5514TIP3    H216549   4.148   4.015   0.156
 5515TIP3   OH216550   0.157   1.169   1.790
 5515TIP3    H116551   0.236   1.154   1.738
 5515TIP3    H216552   0.127   1.081   1.814
 5516TIP3   OH216553   0.420   0.300   0.679
 5516TIP3    H116554   0.357   0.231   0.698
 5516TIP3    H216555   0.447   0.284   0.588
 5517TIP3   OH216556   4.393   1.342   0.335
 5517TIP3    H116557   4.438   1.265   0.369
 5517TIP3    H216558   4.365   1.390   0.413
 5518TIP3   OH216559   5.266   4.157   0.390
 5518TIP3    H116560   5.339   4.097   0.381
 5518TIP3    H216561   5.190   4.107   0.362
 5519TIP3   OH216562   5.607   2.091   4.416
 5519TIP3    H116563   5.668   2.070   4.487
 5519TIP3    H216564   5.525   2.113   4.460
 5520TIP3   OH216565   5.521   2.236   3.567
 5520TIP3    H116566   5.563   2.174   3.507
 5520TIP3    H216567   5.441   2.191   3.597
 5521TIP3   OH216568   3.032   1.243   2.687
 5521TIP3    H116569   3.061   1.325   2.727
 5521TIP3    H216570   2.977   1.271   2.613
 5522TIP3   OH216571   1.971   3.898   2.237
 5522TIP3    H116572   1.975   3.803   2.223
 5522TIP3    H216573   2.008   3.910   2.324
 5523TIP3   OH216574   0.687   5.459   3.122
 5523TIP3    H116575   0.640   5.436   3.203
 5523TIP3    H216576   0.622   5.449   3.053
 5524TIP3   OH216577   1.842   3.767   1.414
 5524TIP3    H116578   1.913   3.705   1.398
 5524TIP3    H216579   1.870   3.848   1.372
 5525TIP3   OH216580   0.594   0.259   3.576
 5525TIP3    H116581   0.623   0.184   3.524
 5525TIP3    H216582   0.553   0.317   3.513
 5526TIP3   OH216583   5.771   3.060   0.722
 5526TIP3    H116584   5.682   3.093   0.733
 5526TIP3    H216585   5.808   3.113   0.651
 5527TIP3   OH216586   5.073   2.894   0.063
 5527TIP3    H116587   4.997   2.875   0.008
 5527TIP3    H216588   5.117   2.810   0.074
 5528TIP3   OH216589   0.676   1.786   4.938
 5528TIP3    H116590   0.755   1.737   4.916
 5528TIP3    H216591   0.677   1.792   5.033
 5529TIP3   OH216592   5.498   1.143   1.944
 5529TIP3    H116593   5.406   1.156   1.963
 5529TIP3    H216594   5.521   1.214   1.883
 5530TIP3   OH216595   1.484   5.529   2.523
 5530TIP3    H116596   1.559   5.494   2.475
 5530TIP3    H216597   1.516   5.610   2.561
 5531TIP3   OH216598   0.234   5.989   0.338
 5531TIP3    H116599   0.254   6.066   0.391
 5531TIP3    H216600   0.185   5.932   0.397
 5532TIP3   OH216601   2.278   5.709   4.688
 5532TIP3    H116602   2.298   5.681   4.778
 5532TIP3    H216603   2.349   5.673   4.636
 5533TIP3   OH216604   0.568   1.482   4.934
 5533TIP3    H116605   0.524   1.397   4.936
 5533TIP3    H216606   0.499   1.546   4.953
 5534TIP3   OH216607   4.208   3.790   2.336
 5534TIP3    H116608   4.125   3.836   2.326
 5534TIP3    H216609   4.252   3.801   2.252
 5535TIP3   OH216610   1.996   5.964   1.154
 5535TIP3    H116611   2.078   5.974   1.203
 5535TIP3    H216612   2.009   6.017   1.075
 5536TIP3   OH216613   3.536   3.019   1.337
 5536TIP3    H116614   3.624   3.012   1.301
 5536TIP3    H216615   3.511   3.110   1.323
 5537TIP3   OH216616   0.219   3.319   4.582
 5537TIP3    H116617   0.216   3.223   4.585
 5537TIP3    H216618   0.294   3.339   4.527
 5538TIP3   OH216619   4.830   2.363   2.455
 5538TIP3    H116620   4.773   2.316   2.394
 5538TIP3    H216621   4.787   2.448   2.467
 5539TIP3   OH216622   1.430   0.194   4.781
 5539TIP3    H116623   1.489   0.123   4.756
 5539TIP3    H216624   1.364   0.195   4.711
 5540TIP3   OH216625   3.673   2.009   0.516
 5540TIP3    H116626   3.579   1.991   0.519
 5540TIP3    H216627   3.687   2.049   0.430
 5541TIP3   OH216628   1.246   0.077   1.957
 5541TIP3    H116629   1.272   0.165   1.986
 5541TIP3    H216630   1.204   0.091   1.873
 5542TIP3   OH216631   4.907   2.637   1.314
 5542TIP3    H116632   4.854   2.577   1.261
 5542TIP3    H216633   4.987   2.650   1.262
 5543TIP3   OH216634   5.511   4.103   0.868
 5543TIP3    H116635   5.562   4.146   0.799
 5543TIP3    H216636   5.420   4.127   0.850
 5544TIP3   OH216637   3.681   0.614   2.408
 5544TIP3    H116638   3.611   0.629   2.343
 5544TIP3    H216639   3.647   0.543   2.462
 5545TIP3   OH216640   0.388   4.404   4.680
 5545TIP3    H116641   0.399   4.398   4.585
 5545TIP3    H216642   0.463   4.354   4.716
 5546TIP3   OH216643   5.993   1.164   4.637
 5546TIP3    H116644   5.995   1.175   4.542
 5546TIP3    H216645   6.046   1.236   4.671
 5547TIP3   OH216646   5.461   2.668   4.817
 5547TIP3    H116647   5.473   2.589   4.870
 5547TIP3    H216648   5.419   2.730   4.877
 5548TIP3   OH216649   1.045   3.335   1.640
 5548TIP3    H116650   1.050   3.429   1.623
 5548TIP3    H216651   1.077   3.325   1.730
 5549TIP3   OH216652   1.029   0.368   4.749
 5549TIP3    H116653   1.123   0.357   4.764
 5549TIP3    H216654   1.006   0.297   4.689
 5550TIP3   OH216655   1.496   2.252   1.470
 5550TIP3    H116656   1.530   2.180   1.417
 5550TIP3    H216657   1.529   2.331   1.427
 5551TIP3   OH216658   1.031   3.564   3.169
 5551TIP3    H116659   0.987   3.643   3.198
 5551TIP3    H216660   1.106   3.595   3.118
 5552TIP3   OH216661   4.617   2.086   4.750
 5552TIP3    H116662   4.643   2.121   4.664
 5552TIP3    H216663   4.621   1.991   4.739
 5553TIP3   OH216664   5.634   4.906   1.671
 5553TIP3    H116665   5.596   4.971   1.613
 5553TIP3    H216666   5.560   4.867   1.717
 5554TIP3   OH216667   5.296   5.459   4.032
 5554TIP3    H116668   5.213   5.504   4.014
 5554TIP3    H216669   5.307   5.399   3.958
 5555TIP3   OH216670   2.441   5.040   0.981
 5555TIP3    H116671   2.432   5.125   1.024
 5555TIP3    H216672   2.439   4.977   1.053
 5556TIP3   OH216673   5.389   3.427   3.718
 5556TIP3    H116674   5.332   3.357   3.687
 5556TIP3    H216675   5.329   3.500   3.737
 5557TIP3   OH216676   2.717   1.712   2.631
 5557TIP3    H116677   2.674   1.715   2.546
 5557TIP3    H216678   2.670   1.645   2.680
 5558TIP3   OH216679   4.638   4.441   2.150
 5558TIP3    H116680   4.575   4.376   2.118
 5558TIP3    H216681   4.593   4.525   2.141
 5559TIP3   OH216682   4.372   3.264   0.551
 5559TIP3    H116683   4.334   3.263   0.464
 5559TIP3    H216684   4.390   3.172   0.570
 5560TIP3   OH216685   5.209   1.218   0.990
 5560TIP3    H116686   5.132   1.202   0.936
 5560TIP3    H216687   5.216   1.314   0.994
 5561TIP3   OH216688   3.142   0.208   1.141
 5561TIP3    H116689   3.219   0.250   1.101
 5561TIP3    H216690   3.127   0.130   1.089
 5562TIP3   OH216691   3.487   5.054   4.777
 5562TIP3    H116692   3.469   5.142   4.810
 5562TIP3    H216693   3.536   5.012   4.847
 5563TIP3   OH216694   3.064   2.982   4.221
 5563TIP3    H116695   3.147   2.983   4.269
 5563TIP3    H216696   3.009   3.045   4.267
 5564TIP3   OH216697   2.771   4.428   1.277
 5564TIP3    H116698   2.800   4.346   1.238
 5564TIP3    H216699   2.727   4.474   1.206
 5565TIP3   OH216700   0.439   0.940   3.151
 5565TIP3    H116701   0.413   0.874   3.216
 5565TIP3    H216702   0.357   0.985   3.129
 5566TIP3   OH216703   3.549   5.911   4.431
 5566TIP3    H116704   3.500   5.866   4.362
 5566TIP3    H216705   3.639   5.914   4.399
 5567TIP3   OH216706   2.886   0.263   4.008
 5567TIP3    H116707   2.838   0.247   4.089
 5567TIP3    H216708   2.902   0.358   4.007
 5568TIP3   OH216709   5.345   5.669   3.528
 5568TIP3    H116710   5.275   5.609   3.555
 5568TIP3    H216711   5.300   5.748   3.499
 5569TIP3   OH216712   5.649   3.085   0.300
 5569TIP3    H116713   5.689   3.015   0.248
 5569TIP3    H216714   5.627   3.152   0.235
 5570TIP3   OH216715   4.607   3.379   2.401
 5570TIP3    H116716   4.627   3.468   2.373
 5570TIP3    H216717   4.512   3.372   2.392
 5571TIP3   OH216718   2.561   1.892   4.037
 5571TIP3    H116719   2.615   1.869   3.962
 5571TIP3    H216720   2.511   1.812   4.056
 5572TIP3   OH216721   0.791   2.214   1.105
 5572TIP3    H116722   0.778   2.156   1.180
 5572TIP3    H216723   0.763   2.300   1.137
 5573TIP3   OH216724   0.211   2.486   1.126
 5573TIP3    H116725   0.217   2.441   1.042
 5573TIP3    H216726   0.117   2.491   1.145
 5574TIP3   OH216727   1.919   3.707   2.481
 5574TIP3    H116728   2.003   3.682   2.520
 5574TIP3    H216729   1.928   3.686   2.388
 5575TIP3   OH216730   0.774   1.136   4.978
 5575TIP3    H116731   0.752   1.043   4.979
 5575TIP3    H216732   0.800   1.155   5.068
 5576TIP3   OH216733   1.278   2.443   3.733
 5576TIP3    H116734   1.287   2.368   3.792
 5576TIP3    H216735   1.335   2.510   3.770
 5577TIP3   OH216736   5.966   1.286   3.869
 5577TIP3    H116737   5.959   1.219   3.800
 5577TIP3    H216738   6.059   1.290   3.889
 5578TIP3   OH216739   3.268   4.298   0.492
 5578TIP3    H116740   3.194   4.306   0.552
 5578TIP3    H216741   3.244   4.354   0.417
 5579TIP3   OH216742   4.904   1.910   4.032
 5579TIP3    H116743   4.964   1.978   4.001
 5579TIP3    H216744   4.955   1.829   4.028
 5580TIP3   OH216745   1.129   3.265   2.662
 5580TIP3    H116746   1.138   3.229   2.574
 5580TIP3    H216747   1.141   3.190   2.720
 5581TIP3   OH216748   0.226   2.199   2.735
 5581TIP3    H116749   0.314   2.226   2.761
 5581TIP3    H216750   0.180   2.281   2.716
 5582TIP3   OH216751   2.717   0.773   2.332
 5582TIP3    H116752   2.764   0.853   2.353
 5582TIP3    H216753   2.625   0.800   2.327
 5583TIP3   OH216754   6.183   3.889   4.264
 5583TIP3    H116755   6.148   3.957   4.205
 5583TIP3    H216756   6.259   3.855   4.218
 5584TIP3   OH216757   2.516   0.494   1.691
 5584TIP3    H116758   2.591   0.438   1.670
 5584TIP3    H216759   2.518   0.562   1.624
 5585TIP3   OH216760   2.619   3.105   3.808
 5585TIP3    H116761   2.627   3.031   3.869
 5585TIP3    H216762   2.615   3.064   3.722
 5586TIP3   OH216763   2.507   3.888   4.734
 5586TIP3    H116764   2.482   3.820   4.671
 5586TIP3    H216765   2.478   3.854   4.818
 5587TIP3   OH216766   0.066   2.955   1.705
 5587TIP3    H116767   0.150   2.990   1.734
 5587TIP3    H216768   0.085   2.864   1.681
 5588TIP3   OH216769   0.017   1.283   3.098
 5588TIP3    H116770   0.036   1.231   3.176
 5588TIP3    H216771   0.017   1.374   3.128
 5589TIP3   OH216772   3.467   3.704   3.581
 5589TIP3    H116773   3.502   3.697   3.669
 5589TIP3    H216774   3.439   3.795   3.573
 5590TIP3   OH216775   0.627   5.802   5.121
 5590TIP3    H116776   0.570   5.875   5.097
 5590TIP3    H216777   0.579   5.756   5.191
 5591TIP3   OH216778   6.176   4.841   4.882
 5591TIP3    H116779   6.175   4.770   4.817
 5591TIP3    H216780   6.097   4.827   4.934
 5592TIP3   OH216781   1.898   4.288   3.375
 5592TIP3    H116782   1.902   4.193   3.381
 5592TIP3    H216783   1.806   4.307   3.359
 5593TIP3   OH216784   5.159   0.969   3.488
 5593TIP3    H116785   5.201   1.055   3.495
 5593TIP3    H216786   5.185   0.938   3.401
 5594TIP3   OH216787   5.761   1.713   0.133
 5594TIP3    H116788   5.796   1.799   0.154
 5594TIP3    H216789   5.822   1.677   0.069
 5595TIP3   OH216790   5.204   4.891   3.734
 5595TIP3    H116791   5.256   4.968   3.714
 5595TIP3    H216792   5.268   4.823   3.754
 5596TIP3   OH216793   4.519   2.146   3.901
 5596TIP3    H116794   4.516   2.209   3.829
 5596TIP3    H216795   4.577   2.076   3.870
 5597TIP3   OH216796   3.791   1.892   1.064
 5597TIP3    H116797   3.755   1.881   0.976
 5597TIP3    H216798   3.747   1.825   1.116
 5598TIP3   OH216799   3.603   4.651   3.916
 5598TIP3    H116800   3.672   4.599   3.874
 5598TIP3    H216801   3.523   4.599   3.906
 5599TIP3   OH216802   3.788   4.311   3.952
 5599TIP3    H116803   3.792   4.248   3.880
 5599TIP3    H216804   3.709   4.288   4.001
 5600TIP3   OH216805   1.436   2.061   0.081
 5600TIP3    H116806   1.446   2.106   0.166
 5600TIP3    H216807   1.451   1.969   0.101
 5601TIP3   OH216808   3.918   3.693   1.002
 5601TIP3    H116809   3.955   3.758   0.942
 5601TIP3    H216810   3.926   3.610   0.955
 5602TIP3   OH216811   3.852   3.711   3.689
 5602TIP3    H116812   3.867   3.755   3.606
 5602TIP3    H216813   3.868   3.778   3.756
 5603TIP3   OH216814   3.021   5.264   4.347
 5603TIP3    H116815   3.023   5.180   4.392
 5603TIP3    H216816   2.958   5.317   4.397
 5604TIP3   OH216817   1.900   5.789   3.473
 5604TIP3    H116818   1.826   5.730   3.456
 5604TIP3    H216819   1.883   5.866   3.419
 5605TIP3   OH216820   3.538   4.922   1.533
 5605TIP3    H116821   3.503   4.991   1.477
 5605TIP3    H216822   3.586   4.968   1.602
 5606TIP3   OH216823   5.220   0.214   3.587
 5606TIP3    H116824   5.158   0.285   3.604
 5606TIP3    H216825   5.303   0.258   3.568
 5607TIP3   OH216826   5.430   2.900   4.408
 5607TIP3    H116827   5.512   2.903   4.458
 5607TIP3    H216828   5.457   2.885   4.318
 5608TIP3   OH216829   5.288   3.493   3.388
 5608TIP3    H116830   5.279   3.424   3.454
 5608TIP3    H216831   5.239   3.460   3.312
 5609TIP3   OH216832   0.219   4.723   4.751
 5609TIP3    H116833   0.162   4.796   4.771
 5609TIP3    H216834   0.283   4.723   4.822
 5610TIP3   OH216835   3.633   5.895   2.766
 5610TIP3    H116836   3.660   5.822   2.710
 5610TIP3    H216837   3.709   5.913   2.821
 5611TIP3   OH216838   3.391   2.684   0.161
 5611TIP3    H116839   3.335   2.686   0.083
 5611TIP3    H216840   3.480   2.689   0.127
 5612TIP3   OH216841   1.421   5.426   1.635
 5612TIP3    H116842   1.348   5.446   1.694
 5612TIP3    H216843   1.492   5.482   1.664
 5613TIP3   OH216844   5.566   2.865   0.749
 5613TIP3    H116845   5.631   2.935   0.742
 5613TIP3    H216846   5.548   2.840   0.658
 5614TIP3   OH216847   2.461   4.168   3.009
 5614TIP3    H116848   2.458   4.150   2.915
 5614TIP3    H216849   2.435   4.086   3.050
 5615TIP3   OH216850   2.114   3.435   4.325
 5615TIP3    H116851   2.064   3.515   4.312
 5615TIP3    H216852   2.079   3.399   4.407
 5616TIP3   OH216853   4.506   0.437   5.171
 5616TIP3    H116854   4.466   0.420   5.086
 5616TIP3    H216855   4.593   0.399   5.165
 5617TIP3   OH216856   5.835   1.663   1.886
 5617TIP3    H116857   5.884   1.739   1.856
 5617TIP3    H216858   5.885   1.588   1.855
 5618TIP3   OH216859   5.400   0.942   1.723
 5618TIP3    H116860   5.481   0.891   1.727
 5618TIP3    H216861   5.423   1.027   1.760
 5619TIP3   OH216862   0.093   3.105   0.983
 5619TIP3    H116863  -0.002   3.118   0.981
 5619TIP3    H216864   0.104   3.010   0.986
 5620TIP3   OH216865   4.449   5.834   1.291
 5620TIP3    H116866   4.425   5.807   1.202
 5620TIP3    H216867   4.420   5.763   1.347
 5621TIP3   OH216868   5.859   2.779   2.343
 5621TIP3    H116869   5.943   2.773   2.298
 5621TIP3    H216870   5.794   2.779   2.273
 5622TIP3   OH216871   6.004   2.440   3.881
 5622TIP3    H116872   5.994   2.432   3.975
 5622TIP3    H216873   5.927   2.489   3.852
 5623TIP3   OH216874   0.049   5.894   4.974
 5623TIP3    H116875   0.105   5.828   5.017
 5623TIP3    H216876  -0.013   5.919   5.042
 5624TIP3   OH216877   2.878   5.121   4.939
 5624TIP3    H116878   2.831   5.198   4.907
 5624TIP3    H216879   2.970   5.148   4.939
 5625TIP3   OH216880   4.713   2.344   1.362
 5625TIP3    H116881   4.764   2.369   1.285
 5625TIP3    H216882   4.622   2.357   1.336
 5626TIP3   OH216883   6.174   1.611   5.111
 5626TIP3    H116884   6.214   1.526   5.092
 5626TIP3    H216885   6.088   1.589   5.148
 5627TIP3   OH216886   4.920   5.745   2.296
 5627TIP3    H116887   4.934   5.837   2.318
 5627TIP3    H216888   4.838   5.743   2.248
 5628TIP3   OH216889   3.124   2.121   1.610
 5628TIP3    H116890   3.064   2.174   1.662
 5628TIP3    H216891   3.192   2.182   1.582
 5629TIP3   OH216892   4.542   2.902   0.321
 5629TIP3    H116893   4.482   2.932   0.253
 5629TIP3    H216894   4.629   2.924   0.287
 5630TIP3   OH216895   5.365   2.131   1.373
 5630TIP3    H116896   5.386   2.104   1.283
 5630TIP3    H216897   5.443   2.107   1.423
 5631TIP3   OH216898   3.502   1.920   4.064
 5631TIP3    H116899   3.529   1.979   3.993
 5631TIP3    H216900   3.544   1.956   4.142
 5632TIP3   OH216901   4.739   2.780   3.456
 5632TIP3    H116902   4.658   2.829   3.444
 5632TIP3    H216903   4.750   2.733   3.374
 5633TIP3   OH216904   6.181   0.553   1.518
 5633TIP3    H116905   6.210   0.501   1.594
 5633TIP3    H216906   6.257   0.554   1.460
 5634TIP3   OH216907   2.051   5.885   2.090
 5634TIP3    H116908   1.956   5.894   2.099
 5634TIP3    H216909   2.066   5.790   2.091
 5635TIP3   OH216910   0.841   0.029   2.562
 5635TIP3    H116911   0.883  -0.045   2.606
 5635TIP3    H216912   0.876   0.106   2.606
 5636TIP3   OH216913   0.840   4.839   1.094
 5636TIP3    H116914   0.836   4.932   1.070
 5636TIP3    H216915   0.766   4.826   1.153
 5637TIP3   OH216916   5.927   4.091   4.872
 5637TIP3    H116917   5.850   4.147   4.863
 5637TIP3    H216918   5.975   4.128   4.946
 5638TIP3   OH216919   6.387   5.941   1.479
 5638TIP3    H116920   6.384   5.877   1.408
 5638TIP3    H216921   6.370   5.889   1.558
 5639TIP3   OH216922   5.372   5.792   2.403
 5639TIP3    H116923   5.382   5.697   2.393
 5639TIP3    H216924   5.337   5.803   2.492
 5640TIP3   OH216925   4.777   3.752   2.598
 5640TIP3    H116926   4.702   3.787   2.646
 5640TIP3    H216927   4.795   3.668   2.641
 5641TIP3   OH216928   4.600   0.190   4.777
 5641TIP3    H116929   4.681   0.226   4.741
 5641TIP3    H216930   4.574   0.122   4.714
 5642TIP3   OH216931   4.663   3.063   4.353
 5642TIP3    H116932   4.578   3.022   4.370
 5642TIP3    H216933   4.722   3.024   4.418
 5643TIP3   OH216934   3.050   0.158   2.375
 5643TIP3    H116935   3.090   0.105   2.306
 5643TIP3    H216936   2.956   0.146   2.363
 5644TIP3   OH216937   5.755   4.932   3.371
 5644TIP3    H116938   5.670   4.888   3.368
 5644TIP3    H216939   5.817   4.861   3.390
 5645TIP3   OH216940   1.034   2.985   2.375
 5645TIP3    H116941   1.066   2.912   2.428
 5645TIP3    H216942   0.939   2.980   2.382
 5646TIP3   OH216943   2.539   5.403   2.956
 5646TIP3    H116944   2.618   5.457   2.944
 5646TIP3    H216945   2.470   5.467   2.974
 5647TIP3   OH216946   6.185   0.231   0.339
 5647TIP3    H116947   6.187   0.326   0.355
 5647TIP3    H216948   6.277   0.205   0.339
 5648TIP3   OH216949   5.970   1.863   1.791
 5648TIP3    H116950   5.959   1.958   1.796
 5648TIP3    H216951   6.053   1.846   1.836
 5649TIP3   OH216952   0.027   4.259   1.319
 5649TIP3    H116953   0.025   4.195   1.390
 5649TIP3    H216954   0.119   4.262   1.292
 5650TIP3   OH216955   1.823   1.419   4.425
 5650TIP3    H116956   1.809   1.485   4.493
 5650TIP3    H216957   1.799   1.336   4.467
 5651TIP3   OH216958   1.846   1.653   0.175
 5651TIP3    H116959   1.820   1.618   0.260
 5651TIP3    H216960   1.927   1.702   0.193
 5652TIP3   OH216961   4.322   4.649   0.633
 5652TIP3    H116962   4.384   4.605   0.574
 5652TIP3    H216963   4.340   4.742   0.622
 5653TIP3   OH216964   5.603   5.228   3.798
 5653TIP3    H116965   5.632   5.314   3.829
 5653TIP3    H216966   5.537   5.248   3.732
 5654TIP3   OH216967   2.807   2.107   1.445
 5654TIP3    H116968   2.825   2.079   1.355
 5654TIP3    H216969   2.731   2.164   1.438
 5655TIP3   OH216970   2.060   4.869   3.803
 5655TIP3    H116971   2.092   4.836   3.887
 5655TIP3    H216972   2.136   4.867   3.745
 5656TIP3   OH216973   1.020   3.376   4.276
 5656TIP3    H116974   0.970   3.404   4.199
 5656TIP3    H216975   0.976   3.418   4.350
 5657TIP3   OH216976   5.565   2.327   4.624
 5657TIP3    H116977   5.636   2.361   4.679
 5657TIP3    H216978   5.590   2.351   4.535
 5658TIP3   OH216979   2.296   4.993   3.965
 5658TIP3    H116980   2.318   4.975   3.874
 5658TIP3    H216981   2.381   5.012   4.006
 5659TIP3   OH216982   2.416   3.725   4.512
 5659TIP3    H116983   2.431   3.644   4.562
 5659TIP3    H216984   2.467   3.713   4.432
 5660TIP3   OH216985   0.512   2.220   1.609
 5660TIP3    H116986   0.486   2.276   1.536
 5660TIP3    H216987   0.483   2.268   1.687
 5661TIP3   OH216988   1.657   1.025   1.139
 5661TIP3    H116989   1.659   0.931   1.154
 5661TIP3    H216990   1.585   1.057   1.194
 5662TIP3   OH216991   2.110   4.167   3.113
 5662TIP3    H116992   2.020   4.200   3.111
 5662TIP3    H216993   2.104   4.082   3.154
 5663TIP3   OH216994   1.516   5.419   5.019
 5663TIP3    H116995   1.564   5.493   5.057
 5663TIP3    H216996   1.443   5.404   5.079
 5664TIP3   OH216997   3.790   4.300   1.679
 5664TIP3    H116998   3.792   4.291   1.584
 5664TIP3    H216999   3.698   4.289   1.702
 5665TIP3   OH217000   5.280   2.824   3.183
 5665TIP3    H117001   5.211   2.764   3.210
 5665TIP3    H217002   5.268   2.902   3.235
 5666TIP3   OH217003   3.087   2.624   3.194
 5666TIP3    H117004   3.099   2.682   3.269
 5666TIP3    H217005   3.048   2.545   3.231
 5667TIP3   OH217006   3.978   5.501   2.308
 5667TIP3    H117007   4.057   5.447   2.313
 5667TIP3    H217008   3.908   5.438   2.292
 5668TIP3   OH217009   1.377   3.978   0.140
 5668TIP3    H117010   1.386   3.957   0.047
 5668TIP3    H217011   1.319   4.054   0.143
 5669TIP3   OH217012   4.276   3.473   3.060
 5669TIP3    H117013   4.328   3.453   3.138
 5669TIP3    H217014   4.337   3.517   3.001
 5670TIP3   OH217015   5.254   0.597   2.200
 5670TIP3    H117016   5.182   0.634   2.150
 5670TIP3    H217017   5.332   0.641   2.166
 5671TIP3   OH217018   3.930   4.855   1.437
 5671TIP3    H117019   4.010   4.804   1.447
 5671TIP3    H217020   3.886   4.847   1.522
 5672TIP3   OH217021   0.084   0.338   2.371
 5672TIP3    H117022   0.014   0.384   2.323
 5672TIP3    H217023   0.061   0.350   2.463
 5673TIP3   OH217024   2.788   1.547   3.389
 5673TIP3    H117025   2.837   1.507   3.317
 5673TIP3    H217026   2.705   1.500   3.390
 5674TIP3   OH217027   1.546   4.198   1.729
 5674TIP3    H117028   1.615   4.258   1.701
 5674TIP3    H217029   1.593   4.124   1.769
 5675TIP3   OH217030   4.928   2.404   1.173
 5675TIP3    H117031   4.957   2.407   1.082
 5675TIP3    H217032   4.999   2.362   1.220
 5676TIP3   OH217033   2.917   1.177   1.763
 5676TIP3    H117034   2.867   1.163   1.843
 5676TIP3    H217035   2.983   1.107   1.763
 5677TIP3   OH217036   3.534   5.340   0.548
 5677TIP3    H117037   3.508   5.431   0.557
 5677TIP3    H217038   3.620   5.343   0.505
 5678TIP3   OH217039   3.690   0.355   4.764
 5678TIP3    H117040   3.743   0.432   4.745
 5678TIP3    H217041   3.613   0.389   4.810
 5679TIP3   OH217042   5.340   2.477   2.544
 5679TIP3    H117043   5.374   2.538   2.610
 5679TIP3    H217044   5.250   2.460   2.571
 5680TIP3   OH217045   4.932   2.258   1.546
 5680TIP3    H117046   4.868   2.293   1.484
 5680TIP3    H217047   4.923   2.163   1.539
 5681TIP3   OH217048   2.660   4.833   3.893
 5681TIP3    H117049   2.608   4.840   3.813
 5681TIP3    H217050   2.751   4.833   3.862
 5682TIP3   OH217051   2.045   3.626   1.725
 5682TIP3    H117052   2.043   3.707   1.673
 5682TIP3    H217053   2.050   3.656   1.816
 5683TIP3   OH217054   5.040   0.564   0.830
 5683TIP3    H117055   5.063   0.481   0.873
 5683TIP3    H217056   5.122   0.598   0.796
 5684TIP3   OH217057   6.325   2.371   4.134
 5684TIP3    H117058   6.393   2.380   4.067
 5684TIP3    H217059   6.249   2.338   4.086
 5685TIP3   OH217060   5.214   1.847   3.114
 5685TIP3    H117061   5.247   1.849   3.204
 5685TIP3    H217062   5.164   1.927   3.105
 5686TIP3   OH217063   0.903   0.233   1.994
 5686TIP3    H117064   0.833   0.296   2.011
 5686TIP3    H217065   0.965   0.246   2.066
 5687TIP3   OH217066   2.545   5.882   2.945
 5687TIP3    H117067   2.505   5.811   2.995
 5687TIP3    H217068   2.612   5.838   2.891
 5688TIP3   OH217069   4.599   5.237   4.707
 5688TIP3    H117070   4.537   5.304   4.738
 5688TIP3    H217071   4.657   5.284   4.647
 5689TIP3   OH217072   4.799   3.240  -0.003
 5689TIP3    H117073   4.872   3.239   0.060
 5689TIP3    H217074   4.766   3.329   0.001
 5690TIP3   OH217075   1.891   0.575   0.376
 5690TIP3    H117076   1.806   0.619   0.382
 5690TIP3    H217077   1.871   0.488   0.341
 5691TIP3   OH217078   1.709   5.449   3.991
 5691TIP3    H117079   1.651   5.381   3.956
 5691TIP3    H217080   1.652   5.506   4.041
 5692TIP3   OH217081   5.097   4.274   4.893
 5692TIP3    H117082   5.112   4.225   4.975
 5692TIP3    H217083   5.159   4.235   4.831
 5693TIP3   OH217084   3.100   1.930   3.912
 5693TIP3    H117085   3.031   1.879   3.955
 5693TIP3    H217086   3.128   1.877   3.838
 5694TIP3   OH217087   2.210   1.213   2.194
 5694TIP3    H117088   2.117   1.227   2.216
 5694TIP3    H217089   2.211   1.128   2.150
 5695TIP3   OH217090   0.532   0.820   0.519
 5695TIP3    H117091   0.547   0.821   0.614
 5695TIP3    H217092   0.459   0.759   0.508
 5696TIP3   OH217093   3.174   1.313   3.280
 5696TIP3    H117094   3.228   1.235   3.279
 5696TIP3    H217095   3.141   1.320   3.191
 5697TIP3   OH217096   4.310   0.224   4.104
 5697TIP3    H117097   4.353   0.298   4.063
 5697TIP3    H217098   4.346   0.222   4.193
 5698TIP3   OH217099   5.786   4.303   2.886
 5698TIP3    H117100   5.774   4.260   2.971
 5698TIP3    H217101   5.751   4.240   2.823
 5699TIP3   OH217102   1.844   0.538   3.247
 5699TIP3    H117103   1.830   0.577   3.161
 5699TIP3    H217104   1.808   0.449   3.239
 5700TIP3   OH217105   3.464   5.069   4.249
 5700TIP3    H117106   3.540   5.043   4.198
 5700TIP3    H217107   3.491   5.059   4.340
 5701TIP3   OH217108   3.259   4.619   4.211
 5701TIP3    H117109   3.318   4.584   4.145
 5701TIP3    H217110   3.247   4.547   4.273
 5702TIP3   OH217111   0.756   5.066   3.857
 5702TIP3    H117112   0.765   4.998   3.791
 5702TIP3    H217113   0.842   5.069   3.899
 5703TIP3   OH217114   3.900   4.734   0.509
 5703TIP3    H117115   3.851   4.815   0.493
 5703TIP3    H217116   3.957   4.756   0.583
 5704TIP3   OH217117   1.501   4.270   1.181
 5704TIP3    H117118   1.520   4.194   1.236
 5704TIP3    H217119   1.406   4.272   1.173
 5705TIP3   OH217120   0.644   3.400   4.265
 5705TIP3    H117121   0.664   3.343   4.191
 5705TIP3    H217122   0.714   3.465   4.265
 5706TIP3   OH217123   6.199   4.391   1.176
 5706TIP3    H117124   6.127   4.330   1.161
 5706TIP3    H217125   6.264   4.341   1.225
 5707TIP3   OH217126   4.533   2.350   2.352
 5707TIP3    H117127   4.476   2.277   2.327
 5707TIP3    H217128   4.515   2.364   2.445
 5708TIP3   OH217129   4.547   5.149   0.575
 5708TIP3    H117130   4.558   5.194   0.491
 5708TIP3    H217131   4.556   5.056   0.553
 5709TIP3   OH217132   1.952   4.761   4.580
 5709TIP3    H117133   1.895   4.826   4.539
 5709TIP3    H217134   2.028   4.756   4.522
 5710TIP3   OH217135   1.823   5.900   4.379
 5710TIP3    H117136   1.862   5.986   4.397
 5710TIP3    H217137   1.881   5.838   4.421
 5711TIP3   OH217138   3.754   1.541   3.520
 5711TIP3    H117139   3.820   1.485   3.562
 5711TIP3    H217140   3.760   1.624   3.567
 5712TIP3   OH217141   2.287   2.716   2.171
 5712TIP3    H117142   2.196   2.740   2.187
 5712TIP3    H217143   2.283   2.653   2.100
 5713TIP3   OH217144   2.333   2.099   4.914
 5713TIP3    H117145   2.253   2.101   4.862
 5713TIP3    H217146   2.353   2.006   4.923
 5714TIP3   OH217147   2.709   4.057   0.997
 5714TIP3    H117148   2.714   3.976   1.047
 5714TIP3    H217149   2.618   4.086   1.008
 5715TIP3   OH217150   1.001   2.038   3.764
 5715TIP3    H117151   1.093   2.014   3.753
 5715TIP3    H217152   1.002   2.110   3.828
 5716TIP3   OH217153   2.784   2.232   3.534
 5716TIP3    H117154   2.796   2.166   3.602
 5716TIP3    H217155   2.709   2.201   3.483
 5717TIP3   OH217156   2.002   3.527   0.147
 5717TIP3    H117157   1.962   3.449   0.185
 5717TIP3    H217158   1.931   3.570   0.100
 5718TIP3   OH217159   1.181   2.253   0.983
 5718TIP3    H117160   1.163   2.221   0.895
 5718TIP3    H217161   1.101   2.298   1.010
 5719TIP3   OH217162   3.810   1.381   2.285
 5719TIP3    H117163   3.851   1.321   2.223
 5719TIP3    H217164   3.812   1.466   2.242
 5720TIP3   OH217165   3.061   3.238   4.457
 5720TIP3    H117166   3.144   3.192   4.444
 5720TIP3    H217167   3.077   3.295   4.533
 5721TIP3   OH217168   0.915   3.989   3.090
 5721TIP3    H117169   0.848   4.041   3.134
 5721TIP3    H217170   0.918   4.023   3.001
 5722TIP3   OH217171   0.042   4.712   0.916
 5722TIP3    H117172   0.129   4.691   0.948
 5722TIP3    H217173   0.011   4.631   0.877
 5723TIP3   OH217174   0.828   1.639   0.326
 5723TIP3    H117175   0.791   1.552   0.338
 5723TIP3    H217176   0.921   1.629   0.346
 5724TIP3   OH217177   1.187   0.341   3.172
 5724TIP3    H117178   1.228   0.377   3.093
 5724TIP3    H217179   1.208   0.248   3.170
 5725TIP3   OH217180   4.656   3.664   2.324
 5725TIP3    H117181   4.591   3.694   2.388
 5725TIP3    H217182   4.706   3.743   2.301
 5726TIP3   OH217183   0.619   2.920   5.132
 5726TIP3    H117184   0.565   2.860   5.080
 5726TIP3    H217185   0.570   3.002   5.132
 5727TIP3   OH217186   3.083   2.927   3.088
 5727TIP3    H117187   3.152   2.992   3.074
 5727TIP3    H217188   3.051   2.944   3.176
 5728TIP3   OH217189   2.255   3.521   0.936
 5728TIP3    H117190   2.302   3.451   0.981
 5728TIP3    H217191   2.193   3.554   1.001
 5729TIP3   OH217192   6.306   3.238   1.542
 5729TIP3    H117193   6.357   3.272   1.468
 5729TIP3    H217194   6.346   3.153   1.562
 5730TIP3   OH217195   4.284   4.082   1.365
 5730TIP3    H117196   4.235   4.097   1.284
 5730TIP3    H217197   4.375   4.071   1.336
 5731TIP3   OH217198   0.616   2.567   0.325
 5731TIP3    H117199   0.707   2.553   0.350
 5731TIP3    H217200   0.577   2.612   0.400
 5732TIP3   OH217201   4.483   0.517   4.787
 5732TIP3    H117202   4.416   0.450   4.774
 5732TIP3    H217203   4.562   0.468   4.807
 5733TIP3   OH217204   5.083   3.373   4.311
 5733TIP3    H117205   5.013   3.361   4.247
 5733TIP3    H217206   5.162   3.345   4.265
 5734TIP3   OH217207   3.077   2.363   4.963
 5734TIP3    H117208   3.101   2.300   4.896
 5734TIP3    H217209   3.154   2.420   4.971
 5735TIP3   OH217210   5.526   0.322   3.981
 5735TIP3    H117211   5.458   0.270   3.937
 5735TIP3    H217212   5.501   0.413   3.964
 5736TIP3   OH217213   6.257   4.932   1.102
 5736TIP3    H117214   6.250   4.908   1.010
 5736TIP3    H217215   6.193   4.876   1.147
 5737TIP3   OH217216   1.188   3.611   4.306
 5737TIP3    H117217   1.179   3.675   4.236
 5737TIP3    H217218   1.134   3.537   4.278
 5738TIP3   OH217219   5.232   3.579   4.445
 5738TIP3    H117220   5.164   3.588   4.378
 5738TIP3    H217221   5.238   3.485   4.461
 5739TIP3   OH217222   5.419   5.065   4.389
 5739TIP3    H117223   5.430   5.107   4.474
 5739TIP3    H217224   5.405   5.137   4.328
 5740TIP3   OH217225   1.061   0.293   3.432
 5740TIP3    H117226   0.996   0.223   3.428
 5740TIP3    H217227   1.079   0.314   3.340
 5741TIP3   OH217228   4.664   3.990   3.532
 5741TIP3    H117229   4.594   3.941   3.489
 5741TIP3    H217230   4.659   4.078   3.494
 5742TIP3   OH217231   0.405   5.082   2.103
 5742TIP3    H117232   0.478   5.144   2.097
 5742TIP3    H217233   0.329   5.136   2.124
 5743TIP3   OH217234   4.079   3.630   4.442
 5743TIP3    H117235   4.098   3.675   4.360
 5743TIP3    H217236   4.035   3.695   4.496
 5744TIP3   OH217237   5.894   5.803   0.234
 5744TIP3    H117238   5.882   5.709   0.218
 5744TIP3    H217239   5.988   5.812   0.250
 5745TIP3   OH217240   6.207   5.756   1.658
 5745TIP3    H117241   6.121   5.786   1.632
 5745TIP3    H217242   6.219   5.673   1.610
 5746TIP3   OH217243   5.714   4.697   4.140
 5746TIP3    H117244   5.635   4.665   4.184
 5746TIP3    H217245   5.776   4.714   4.211
 5747TIP3   OH217246   5.762   0.544   1.555
 5747TIP3    H117247   5.716   0.466   1.525
 5747TIP3    H217248   5.813   0.515   1.630
 5748TIP3   OH217249   5.357   0.986   5.145
 5748TIP3    H117250   5.401   1.069   5.129
 5748TIP3    H217251   5.267   1.000   5.116
 5749TIP3   OH217252   0.709   2.145   3.067
 5749TIP3    H117253   0.635   2.204   3.079
 5749TIP3    H217254   0.761   2.187   2.998
 5750TIP3   OH217255   5.570   4.115   3.620
 5750TIP3    H117256   5.502   4.181   3.602
 5750TIP3    H217257   5.652   4.164   3.618
 5751TIP3   OH217258   2.204   3.228   0.713
 5751TIP3    H117259   2.267   3.298   0.731
 5751TIP3    H217260   2.120   3.274   0.702
 5752TIP3   OH217261   0.675   4.606   3.522
 5752TIP3    H117262   0.582   4.586   3.536
 5752TIP3    H217263   0.675   4.666   3.447
 5753TIP3   OH217264   0.097   1.069   0.696
 5753TIP3    H117265   0.027   1.131   0.673
 5753TIP3    H217266   0.161   1.122   0.743
 5754TIP3   OH217267   3.721   5.304   2.674
 5754TIP3    H117268   3.797   5.335   2.624
 5754TIP3    H217269   3.742   5.323   2.765
 5755TIP3   OH217270   5.045   2.745   0.775
 5755TIP3    H117271   5.116   2.729   0.838
 5755TIP3    H217272   4.989   2.668   0.783
 5756TIP3   OH217273   1.867   2.881   3.112
 5756TIP3    H117274   1.848   2.975   3.117
 5756TIP3    H217275   1.956   2.873   3.147
 5757TIP3   OH217276   5.906   0.739   3.751
 5757TIP3    H117277   5.879   0.823   3.714
 5757TIP3    H217278   5.864   0.736   3.836
 5758TIP3   OH217279   2.864   5.285   3.350
 5758TIP3    H117280   2.918   5.308   3.426
 5758TIP3    H217281   2.911   5.212   3.309
 5759TIP3   OH217282   2.318   4.097   2.011
 5759TIP3    H117283   2.288   4.183   1.981
 5759TIP3    H217284   2.296   4.095   2.104
 5760TIP3   OH217285   3.423   2.077   1.866
 5760TIP3    H117286   3.467   2.135   1.805
 5760TIP3    H217287   3.377   2.136   1.927
 5761TIP3   OH217288   0.116   4.353   3.019
 5761TIP3    H117289   0.193   4.335   2.966
 5761TIP3    H217290   0.147   4.416   3.085
 5762TIP3   OH217291   1.528   4.652   1.993
 5762TIP3    H117292   1.525   4.606   1.909
 5762TIP3    H217293   1.452   4.620   2.041
 5763TIP3   OH217294   0.702   4.031   0.563
 5763TIP3    H117295   0.782   4.067   0.524
 5763TIP3    H217296   0.639   4.031   0.492
 5764TIP3   OH217297   3.803   5.506   1.261
 5764TIP3    H117298   3.767   5.477   1.345
 5764TIP3    H217299   3.824   5.425   1.215
 5765TIP3   OH217300   0.712   5.497   0.129
 5765TIP3    H117301   0.723   5.500   0.034
 5765TIP3    H217302   0.620   5.474   0.142
 5766TIP3   OH217303   5.382   4.045   3.931
 5766TIP3    H117304   5.303   4.082   3.892
 5766TIP3    H217305   5.378   3.952   3.911
 5767TIP3   OH217306   5.060   2.918   2.609
 5767TIP3    H117307   5.023   2.922   2.520
 5767TIP3    H217308   5.136   2.976   2.606
 5768TIP3   OH217309   0.618   5.969   1.701
 5768TIP3    H117310   0.591   6.061   1.709
 5768TIP3    H217311   0.617   5.936   1.791
 5769TIP3   OH217312   4.426   1.016   3.361
 5769TIP3    H117313   4.475   1.088   3.321
 5769TIP3    H217314   4.395   1.052   3.444
 5770TIP3   OH217315   6.012   2.413   2.673
 5770TIP3    H117316   6.084   2.351   2.686
 5770TIP3    H217317   5.956   2.403   2.750
 5771TIP3   OH217318   3.547   5.280   3.312
 5771TIP3    H117319   3.537   5.231   3.393
 5771TIP3    H217320   3.465   5.267   3.265
 5772TIP3   OH217321   4.911   4.696   4.360
 5772TIP3    H117322   4.909   4.601   4.349
 5772TIP3    H217323   4.819   4.722   4.369
 5773TIP3   OH217324   0.886   5.186   4.918
 5773TIP3    H117325   0.916   5.257   4.861
 5773TIP3    H217326   0.861   5.116   4.858
 5774TIP3   OH217327   1.960   2.629   0.552
 5774TIP3    H117328   2.019   2.586   0.614
 5774TIP3    H217329   1.884   2.571   0.546
 5775TIP3   OH217330   4.866   3.502   3.349
 5775TIP3    H117331   4.842   3.421   3.395
 5775TIP3    H217332   4.795   3.563   3.369
 5776TIP3   OH217333   2.496   4.290   3.998
 5776TIP3    H117334   2.556   4.342   3.943
 5776TIP3    H217335   2.422   4.348   4.014
 5777TIP3   OH217336   2.479   5.435   0.674
 5777TIP3    H117337   2.546   5.368   0.691
 5777TIP3    H217338   2.403   5.385   0.644
 5778TIP3   OH217339   3.008   4.605   2.686
 5778TIP3    H117340   2.929   4.622   2.736
 5778TIP3    H217341   3.002   4.664   2.611
 5779TIP3   OH217342   3.913   5.741   2.396
 5779TIP3    H117343   3.951   5.780   2.475
 5779TIP3    H217344   3.973   5.670   2.374
 5780TIP3   OH217345   6.360   5.085   4.275
 5780TIP3    H117346   6.334   5.177   4.276
 5780TIP3    H217347   6.278   5.038   4.258
 5781TIP3   OH217348   2.394   3.810   4.979
 5781TIP3    H117349   2.475   3.822   5.028
 5781TIP3    H217350   2.370   3.719   4.993
 5782TIP3   OH217351   6.183   1.880   4.035
 5782TIP3    H117352   6.100   1.897   3.990
 5782TIP3    H217353   6.167   1.909   4.125
 5783TIP3   OH217354   4.381   0.204   2.197
 5783TIP3    H117355   4.307   0.176   2.144
 5783TIP3    H217356   4.405   0.290   2.161
 5784TIP3   OH217357   3.656   4.758   2.437
 5784TIP3    H117358   3.716   4.826   2.467
 5784TIP3    H217359   3.622   4.792   2.354
 5785TIP3   OH217360   2.779   1.040   3.707
 5785TIP3    H117361   2.733   1.021   3.625
 5785TIP3    H217362   2.765   0.962   3.761
 5786TIP3   OH217363   5.514   1.591   0.359
 5786TIP3    H117364   5.606   1.613   0.348
 5786TIP3    H217365   5.514   1.512   0.413
 5787TIP3   OH217366   1.505   2.967   3.677
 5787TIP3    H117367   1.483   2.885   3.634
 5787TIP3    H217368   1.577   2.945   3.736
 5788TIP3   OH217369   1.245   4.134   1.896
 5788TIP3    H117370   1.243   4.047   1.936
 5788TIP3    H217371   1.276   4.118   1.806
 5789TIP3   OH217372   5.737   1.523   3.833
 5789TIP3    H117373   5.777   1.459   3.773
 5789TIP3    H217374   5.804   1.590   3.845
 5790TIP3   OH217375   1.161   5.138   0.100
 5790TIP3    H117376   1.076   5.142   0.055
 5790TIP3    H217377   1.141   5.104   0.187
 5791TIP3   OH217378   1.413   4.613   3.569
 5791TIP3    H117379   1.384   4.521   3.571
 5791TIP3    H217380   1.506   4.608   3.548
 5792TIP3   OH217381   3.635   2.543   3.723
 5792TIP3    H117382   3.603   2.553   3.812
 5792TIP3    H217383   3.591   2.464   3.690
 5793TIP3   OH217384   4.596   4.979   2.046
 5793TIP3    H117385   4.566   5.019   1.965
 5793TIP3    H217386   4.536   4.905   2.061
 5794TIP3   OH217387   5.896   5.542   1.630
 5794TIP3    H117388   5.850   5.462   1.604
 5794TIP3    H217389   5.852   5.570   1.710
 5795TIP3   OH217390   3.292   1.884   0.737
 5795TIP3    H117391   3.246   1.882   0.821
 5795TIP3    H217392   3.385   1.879   0.761
 5796TIP3   OH217393   4.160   5.592   2.599
 5796TIP3    H117394   4.228   5.611   2.535
 5796TIP3    H217395   4.196   5.620   2.683
 5797TIP3   OH217396   3.328   1.103   3.318
 5797TIP3    H117397   3.409   1.081   3.364
 5797TIP3    H217398   3.274   1.025   3.326
 5798TIP3   OH217399   0.199   4.597   2.771
 5798TIP3    H117400   0.177   4.524   2.829
 5798TIP3    H217401   0.213   4.671   2.829
 5799TIP3   OH217402   4.598   4.904   4.675
 5799TIP3    H117403   4.503   4.896   4.666
 5799TIP3    H217404   4.610   4.963   4.749
 5800TIP3   OH217405   2.845   0.684   3.266
 5800TIP3    H117406   2.827   0.699   3.173
 5800TIP3    H217407   2.832   0.590   3.277
 5801TIP3   OH217408   3.771   3.327   2.474
 5801TIP3    H117409   3.727   3.244   2.494
 5801TIP3    H217410   3.825   3.307   2.398
 5802TIP3   OH217411   4.003   1.959   3.412
 5802TIP3    H117412   3.926   1.996   3.455
 5802TIP3    H217413   4.009   1.869   3.446
 5803TIP3   OH217414   2.938   2.438   4.360
 5803TIP3    H117415   3.005   2.497   4.325
 5803TIP3    H217416   2.890   2.490   4.424
 5804TIP3   OH217417   1.979   3.424   4.972
 5804TIP3    H117418   2.008   3.475   5.047
 5804TIP3    H217419   2.053   3.424   4.912
 5805TIP3   OH217420   6.283   5.360   2.047
 5805TIP3    H117421   6.273   5.408   1.965
 5805TIP3    H217422   6.263   5.425   2.115
 5806TIP3   OH217423   4.800   3.670   1.720
 5806TIP3    H117424   4.823   3.704   1.807
 5806TIP3    H217425   4.878   3.688   1.666
 5807TIP3   OH217426   5.205   5.354   4.939
 5807TIP3    H117427   5.181   5.267   4.971
 5807TIP3    H217428   5.161   5.415   4.998
 5808TIP3   OH217429   4.806   0.266   2.421
 5808TIP3    H117430   4.871   0.244   2.488
 5808TIP3    H217431   4.723   0.241   2.460
 5809TIP3   OH217432   3.088   3.608   5.218
 5809TIP3    H117433   3.156   3.576   5.159
 5809TIP3    H217434   3.132   3.617   5.302
 5810TIP3   OH217435   5.014   4.703   0.974
 5810TIP3    H117436   5.057   4.618   0.961
 5810TIP3    H217437   5.027   4.749   0.892
 5811TIP3   OH217438   1.606   1.690   2.034
 5811TIP3    H117439   1.615   1.753   1.962
 5811TIP3    H217440   1.682   1.633   2.026
 5812TIP3   OH217441   0.347   4.421   5.090
 5812TIP3    H117442   0.364   4.396   5.181
 5812TIP3    H217443   0.369   4.343   5.039
 5813TIP3   OH217444   2.601   1.880   0.276
 5813TIP3    H117445   2.605   1.861   0.182
 5813TIP3    H217446   2.556   1.804   0.313
 5814TIP3   OH217447   1.008   0.155   2.777
 5814TIP3    H117448   1.020   0.075   2.828
 5814TIP3    H217449   0.972   0.218   2.840
 5815TIP3   OH217450   1.408   5.011   2.814
 5815TIP3    H117451   1.359   5.056   2.882
 5815TIP3    H217452   1.398   4.918   2.835
 5816TIP3   OH217453   5.779  -0.021   0.216
 5816TIP3    H117454   5.718   0.053   0.210
 5816TIP3    H217455   5.864   0.015   0.190
 5817TIP3   OH217456   4.278   4.343   4.634
 5817TIP3    H117457   4.367   4.310   4.644
 5817TIP3    H217458   4.267   4.403   4.708
 5818TIP3   OH217459   0.270   0.275   1.092
 5818TIP3    H117460   0.232   0.354   1.055
 5818TIP3    H217461   0.222   0.203   1.051
 5819TIP3   OH217462   2.282   5.487   0.239
 5819TIP3    H117463   2.355   5.437   0.275
 5819TIP3    H217464   2.244   5.430   0.173
 5820TIP3   OH217465   3.032   0.596   3.702
 5820TIP3    H117466   3.119   0.563   3.677
 5820TIP3    H217467   3.010   0.660   3.635
 5821TIP3   OH217468   0.656   4.804   2.426
 5821TIP3    H117469   0.568   4.825   2.395
 5821TIP3    H217470   0.658   4.837   2.516
 5822TIP3   OH217471   1.935   5.217   1.607
 5822TIP3    H117472   1.848   5.230   1.643
 5822TIP3    H217473   1.937   5.273   1.529
 5823TIP3   OH217474   4.783   2.763   3.733
 5823TIP3    H117475   4.765   2.773   3.640
 5823TIP3    H217476   4.703   2.724   3.769
 5824TIP3   OH217477   4.638   2.133   2.196
 5824TIP3    H117478   4.728   2.104   2.212
 5824TIP3    H217479   4.647   2.213   2.145
 5825TIP3   OH217480   6.373   0.109   1.491
 5825TIP3    H117481   6.352   0.018   1.513
 5825TIP3    H217482   6.373   0.111   1.396
 5826TIP3   OH217483   3.052   5.461   3.509
 5826TIP3    H117484   3.057   5.556   3.516
 5826TIP3    H217485   3.111   5.438   3.437
 5827TIP3   OH217486   4.538   2.725   1.464
 5827TIP3    H117487   4.605   2.658   1.475
 5827TIP3    H217488   4.575   2.802   1.508
 5828TIP3   OH217489   1.262   3.523   4.555
 5828TIP3    H117490   1.292   3.602   4.599
 5828TIP3    H217491   1.207   3.555   4.483
 5829TIP3   OH217492   3.417   4.888   0.417
 5829TIP3    H117493   3.493   4.912   0.363
 5829TIP3    H217494   3.413   4.955   0.485
 5830TIP3   OH217495   6.290   5.389   3.185
 5830TIP3    H117496   6.318   5.478   3.166
 5830TIP3    H217497   6.201   5.400   3.220
 5831TIP3   OH217498   2.117   1.140   4.186
 5831TIP3    H117499   2.121   1.202   4.259
 5831TIP3    H217500   2.027   1.144   4.155
 5832TIP3   OH217501   3.293   0.787   2.578
 5832TIP3    H117502   3.299   0.756   2.668
 5832TIP3    H217503   3.203   0.819   2.569
 5833TIP3   OH217504   2.988   3.533   0.013
 5833TIP3    H117505   2.904   3.515  -0.030
 5833TIP3    H217506   2.970   3.522   0.106
 5834TIP3   OH217507   1.854   1.123   4.105
 5834TIP3    H117508   1.807   1.076   4.036
 5834TIP3    H217509   1.789   1.184   4.140
 5835TIP3   OH217510   4.703   0.038   5.103
 5835TIP3    H117511   4.750   0.121   5.099
 5835TIP3    H217512   4.770  -0.028   5.116
 5836TIP3   OH217513   1.312   4.626   4.354
 5836TIP3    H117514   1.236   4.646   4.298
 5836TIP3    H217515   1.322   4.531   4.347
 5837TIP3   OH217516   2.230   1.895   1.255
 5837TIP3    H117517   2.224   1.990   1.265
 5837TIP3    H217518   2.300   1.881   1.192
 5838TIP3   OH217519   0.374   2.238   3.019
 5838TIP3    H117520   0.399   2.308   3.078
 5838TIP3    H217521   0.435   2.245   2.945
 5839TIP3   OH217522   2.402   2.153   0.231
 5839TIP3    H117523   2.471   2.111   0.282
 5839TIP3    H217524   2.324   2.099   0.249
 5840TIP3   OH217525   3.961   3.424   1.254
 5840TIP3    H117526   4.025   3.463   1.194
 5840TIP3    H217527   3.997   3.441   1.341
 5841TIP3   OH217528   2.461   2.157   1.315
 5841TIP3    H117529   2.483   2.113   1.397
 5841TIP3    H217530   2.516   2.113   1.249
 5842TIP3   OH217531   4.841   5.793   4.719
 5842TIP3    H117532   4.836   5.759   4.629
 5842TIP3    H217533   4.802   5.880   4.714
 5843TIP3   OH217534   4.665   4.998   4.132
 5843TIP3    H117535   4.645   4.957   4.048
 5843TIP3    H217536   4.760   5.007   4.132
 5844TIP3   OH217537   0.432   3.036   4.281
 5844TIP3    H117538   0.350   2.990   4.300
 5844TIP3    H217539   0.441   3.099   4.353
 5845TIP3   OH217540   6.169   5.231   1.590
 5845TIP3    H117541   6.135   5.145   1.612
 5845TIP3    H217542   6.092   5.282   1.565
 5846TIP3   OH217543   2.554   1.578   2.093
 5846TIP3    H117544   2.646   1.560   2.112
 5846TIP3    H217545   2.507   1.503   2.130
 5847TIP3   OH217546   1.165   0.039   0.880
 5847TIP3    H117547   1.116   0.092   0.944
 5847TIP3    H217548   1.098  -0.016   0.839
 5848TIP3   OH217549   1.938   0.204   5.166
 5848TIP3    H117550   1.932   0.216   5.071
 5848TIP3    H217551   1.907   0.286   5.203
 5849TIP3   OH217552   4.300   0.189   3.672
 5849TIP3    H117553   4.293   0.098   3.700
 5849TIP3    H217554   4.233   0.235   3.723
 5850TIP3   OH217555   1.447   2.456   4.628
 5850TIP3    H117556   1.506   2.386   4.656
 5850TIP3    H217557   1.467   2.529   4.686
 5851TIP3   OH217558   0.308   3.639   4.885
 5851TIP3    H117559   0.276   3.557   4.925
 5851TIP3    H217560   0.393   3.654   4.927
 5852TIP3   OH217561   1.425   0.743   2.531
 5852TIP3    H117562   1.416   0.779   2.619
 5852TIP3    H217563   1.392   0.811   2.473
 5853TIP3   OH217564   5.645   5.900   3.722
 5853TIP3    H117565   5.607   5.961   3.658
 5853TIP3    H217566   5.687   5.832   3.668
 5854TIP3   OH217567   4.461   1.524   1.910
 5854TIP3    H117568   4.452   1.451   1.971
 5854TIP3    H217569   4.421   1.598   1.955
 5855TIP3   OH217570   3.985   3.268   3.236
 5855TIP3    H117571   4.055   3.297   3.295
 5855TIP3    H217572   3.942   3.197   3.284
 5856TIP3   OH217573   3.187   2.716   0.623
 5856TIP3    H117574   3.210   2.777   0.553
 5856TIP3    H217575   3.244   2.741   0.696
 5857TIP3   OH217576   6.298   2.441   1.202
 5857TIP3    H117577   6.260   2.361   1.240
 5857TIP3    H217578   6.297   2.504   1.275
 5858TIP3   OH217579   1.240   3.062   1.481
 5858TIP3    H117580   1.283   3.133   1.528
 5858TIP3    H217581   1.191   3.015   1.548
 5859TIP3   OH217582   4.247   3.480   4.602
 5859TIP3    H117583   4.240   3.509   4.692
 5859TIP3    H217584   4.185   3.534   4.554
 5860TIP3   OH217585   2.905   2.295   4.035
 5860TIP3    H117586   2.831   2.241   4.064
 5860TIP3    H217587   2.870   2.384   4.035
 5861TIP3   OH217588   4.587   0.953   4.470
 5861TIP3    H117589   4.661   1.007   4.499
 5861TIP3    H217590   4.516   0.976   4.530
 5862TIP3   OH217591   0.155   0.851   0.560
 5862TIP3    H117592   0.175   0.816   0.648
 5862TIP3    H217593   0.160   0.946   0.570
 5863TIP3   OH217594   4.811   2.104   1.146
 5863TIP3    H117595   4.718   2.085   1.155
 5863TIP3    H217596   4.851   2.071   1.227
 5864TIP3   OH217597   4.634   5.621   4.820
 5864TIP3    H117598   4.721   5.653   4.798
 5864TIP3    H217599   4.640   5.526   4.813
 5865TIP3   OH217600   5.308   3.900   0.697
 5865TIP3    H117601   5.312   3.996   0.707
 5865TIP3    H217602   5.367   3.867   0.764
 5866TIP3   OH217603   4.382   2.391   3.972
 5866TIP3    H117604   4.414   2.393   3.881
 5866TIP3    H217605   4.455   2.427   4.023
 5867TIP3   OH217606   4.192   5.579   1.502
 5867TIP3    H117607   4.210   5.658   1.552
 5867TIP3    H217608   4.211   5.507   1.563
 5868TIP3   OH217609   4.986   5.310   2.064
 5868TIP3    H117610   5.050   5.310   2.136
 5868TIP3    H217611   4.941   5.226   2.072
 5869TIP3   OH217612   3.258   2.356   2.927
 5869TIP3    H117613   3.184   2.308   2.965
 5869TIP3    H217614   3.217   2.424   2.873
 5870TIP3   OH217615   2.263   2.254   4.423
 5870TIP3    H117616   2.322   2.179   4.423
 5870TIP3    H217617   2.176   2.216   4.419
 5871TIP3   OH217618   1.582   1.314   3.422
 5871TIP3    H117619   1.622   1.248   3.478
 5871TIP3    H217620   1.520   1.265   3.368
 5872TIP3   OH217621   5.484   4.765   0.690
 5872TIP3    H117622   5.450   4.745   0.602
 5872TIP3    H217623   5.420   4.826   0.726
 5873TIP3   OH217624   4.579   5.050   4.912
 5873TIP3    H117625   4.595   5.117   4.846
 5873TIP3    H217626   4.543   5.098   4.987
 5874TIP3   OH217627   4.425   3.398   3.275
 5874TIP3    H117628   4.472   3.323   3.238
 5874TIP3    H217629   4.489   3.440   3.333
 5875TIP3   OH217630   1.453   5.675   1.951
 5875TIP3    H117631   1.426   5.759   1.987
 5875TIP3    H217632   1.413   5.672   1.864
 5876TIP3   OH217633   4.641   0.430   1.058
 5876TIP3    H117634   4.663   0.338   1.074
 5876TIP3    H217635   4.725   0.474   1.053
 5877TIP3   OH217636   5.117   3.348   2.538
 5877TIP3    H117637   5.204   3.383   2.557
 5877TIP3    H217638   5.076   3.339   2.624
 5878TIP3   OH217639   1.290   2.722   0.298
 5878TIP3    H117640   1.261   2.722   0.206
 5878TIP3    H217641   1.222   2.769   0.345
 5879TIP3   OH217642   0.321   5.004   0.412
 5879TIP3    H117643   0.239   4.983   0.457
 5879TIP3    H217644   0.369   5.060   0.474
 5880TIP3   OH217645   5.036   5.605   4.342
 5880TIP3    H117646   5.050   5.511   4.335
 5880TIP3    H217647   4.942   5.614   4.358
 5881TIP3   OH217648   4.982   4.980   1.379
 5881TIP3    H117649   5.040   5.045   1.340
 5881TIP3    H217650   4.895   5.004   1.347
 5882TIP3   OH217651   0.892   5.886   0.427
 5882TIP3    H117652   0.841   5.819   0.380
 5882TIP3    H217653   0.982   5.868   0.402
 5883TIP3   OH217654   1.653   2.295   3.785
 5883TIP3    H117655   1.592   2.254   3.846
 5883TIP3    H217656   1.679   2.377   3.827
 5884TIP3   OH217657   2.584   2.163   4.748
 5884TIP3    H117658   2.591   2.245   4.700
 5884TIP3    H217659   2.528   2.108   4.695
 5885TIP3   OH217660   3.858   2.962   5.079
 5885TIP3    H117661   3.942   2.974   5.122
 5885TIP3    H217662   3.867   3.006   4.995
 5886TIP3   OH217663   4.412   4.782   2.058
 5886TIP3    H117664   4.362   4.758   1.980
 5886TIP3    H217665   4.347   4.785   2.128
 5887TIP3   OH217666   6.167   3.713   4.716
 5887TIP3    H117667   6.078   3.694   4.687
 5887TIP3    H217668   6.184   3.801   4.684
 5888TIP3   OH217669   1.348   5.937   4.211
 5888TIP3    H117670   1.340   5.988   4.292
 5888TIP3    H217671   1.258   5.923   4.183
 5889TIP3   OH217672   3.035   4.384   2.262
 5889TIP3    H117673   2.967   4.353   2.202
 5889TIP3    H217674   2.988   4.416   2.338
 5890TIP3   OH217675   6.291   0.893   2.993
 5890TIP3    H117676   6.325   0.966   2.942
 5890TIP3    H217677   6.263   0.829   2.928
 5891TIP3   OH217678   3.985   5.635   3.222
 5891TIP3    H117679   3.962   5.638   3.130
 5891TIP3    H217680   3.933   5.562   3.258
 5892TIP3   OH217681   0.095   2.082   2.182
 5892TIP3    H117682   0.153   2.120   2.116
 5892TIP3    H217683   0.154   2.035   2.242
 5893TIP3   OH217684   1.101   0.642   4.621
 5893TIP3    H117685   1.026   0.692   4.588
 5893TIP3    H217686   1.062   0.562   4.657
 5894TIP3   OH217687   5.479   2.883   1.810
 5894TIP3    H117688   5.574   2.894   1.818
 5894TIP3    H217689   5.466   2.864   1.717
 5895TIP3   OH217690   4.294   5.971   2.017
 5895TIP3    H117691   4.369   6.001   2.068
 5895TIP3    H217692   4.333   5.920   1.945
 5896TIP3   OH217693   2.279   5.255   4.296
 5896TIP3    H117694   2.231   5.334   4.322
 5896TIP3    H217695   2.352   5.288   4.244
 5897TIP3   OH217696   2.730   0.671   0.318
 5897TIP3    H117697   2.722   0.679   0.223
 5897TIP3    H217698   2.821   0.645   0.333
 5898TIP3   OH217699   4.313   3.551   0.560
 5898TIP3    H117700   4.390   3.564   0.615
 5898TIP3    H217701   4.292   3.458   0.570
 5899TIP3   OH217702   6.353   3.369   1.774
 5899TIP3    H117703   6.355   3.458   1.737
 5899TIP3    H217704   6.330   3.313   1.700
 5900TIP3   OH217705   5.112   2.897   1.744
 5900TIP3    H117706   5.189   2.940   1.707
 5900TIP3    H217707   5.042   2.914   1.680
 5901TIP3   OH217708   1.665   0.722   0.437
 5901TIP3    H117709   1.599   0.653   0.437
 5901TIP3    H217710   1.635   0.784   0.504
 5902TIP3   OH217711   6.318   1.459   4.395
 5902TIP3    H117712   6.290   1.508   4.317
 5902TIP3    H217713   6.374   1.520   4.443
 5903TIP3   OH217714   1.656   1.325   4.252
 5903TIP3    H117715   1.569   1.337   4.290
 5903TIP3    H217716   1.715   1.371   4.311
 5904TIP3   OH217717   2.994   4.610   4.900
 5904TIP3    H117718   2.935   4.682   4.922
 5904TIP3    H217719   3.037   4.637   4.819
 5905TIP3   OH217720   3.248   5.890   2.569
 5905TIP3    H117721   3.321   5.881   2.508
 5905TIP3    H217722   3.181   5.937   2.520
 5906TIP3   OH217723   4.800   5.958   4.300
 5906TIP3    H117724   4.881   6.000   4.271
 5906TIP3    H217725   4.766   5.915   4.221
 5907TIP3   OH217726   2.456   4.311   2.514
 5907TIP3    H117727   2.474   4.268   2.597
 5907TIP3    H217728   2.363   4.334   2.518
 5908TIP3   OH217729   3.207   0.276   4.261
 5908TIP3    H117730   3.155   0.353   4.282
 5908TIP3    H217731   3.254   0.299   4.181
 5909TIP3   OH217732   4.081   5.551   0.340
 5909TIP3    H117733   4.166   5.569   0.300
 5909TIP3    H217734   4.036   5.495   0.277
 5910TIP3   OH217735   2.773   5.892   4.831
 5910TIP3    H117736   2.846   5.945   4.800
 5910TIP3    H217737   2.705   5.902   4.764
 5911TIP3   OH217738   5.068   0.933   4.786
 5911TIP3    H117739   5.083   0.982   4.705
 5911TIP3    H217740   5.010   0.861   4.760
 5912TIP3   OH217741   5.570   1.358   1.775
 5912TIP3    H117742   5.515   1.408   1.836
 5912TIP3    H217743   5.566   1.408   1.693
 5913TIP3   OH217744   0.489   0.444   4.388
 5913TIP3    H117745   0.546   0.371   4.364
 5913TIP3    H217746   0.439   0.412   4.463
 5914TIP3   OH217747   1.864   2.501   0.901
 5914TIP3    H117748   1.773   2.474   0.912
 5914TIP3    H217749   1.879   2.563   0.973
 5915TIP3   OH217750   1.723   1.899   4.714
 5915TIP3    H117751   1.809   1.939   4.701
 5915TIP3    H217752   1.717   1.887   4.809
 5916TIP3   OH217753   4.877   0.743   0.976
 5916TIP3    H117754   4.923   0.723   1.057
 5916TIP3    H217755   4.923   0.692   0.909
 5917TIP3   OH217756   1.824   4.348   3.795
 5917TIP3    H117757   1.881   4.424   3.780
 5917TIP3    H217758   1.843   4.289   3.723
 5918TIP3   OH217759   3.003   1.634   4.360
 5918TIP3    H117760   2.997   1.727   4.381
 5918TIP3    H217761   3.065   1.630   4.287
 5919TIP3   OH217762   5.243   1.179   1.933
 5919TIP3    H117763   5.173   1.175   1.868
 5919TIP3    H217764   5.210   1.129   2.007
 5920TIP3   OH217765   6.305   3.829   4.931
 5920TIP3    H117766   6.234   3.800   4.874
 5920TIP3    H217767   6.384   3.820   4.876
 5921TIP3   OH217768   2.391   3.141   0.263
 5921TIP3    H117769   2.401   3.071   0.198
 5921TIP3    H217770   2.457   3.206   0.239
 5922TIP3   OH217771   6.347   1.893   1.536
 5922TIP3    H117772   6.431   1.861   1.570
 5922TIP3    H217773   6.305   1.935   1.611
 5923TIP3   OH217774   6.295   1.095   4.773
 5923TIP3    H117775   6.318   1.051   4.855
 5923TIP3    H217776   6.236   1.033   4.729
 5924TIP3   OH217777   1.335   0.915   0.090
 5924TIP3    H117778   1.317   0.890   0.181
 5924TIP3    H217779   1.253   0.899   0.044
 5925TIP3   OH217780   1.536   3.542   1.238
 5925TIP3    H117781   1.468   3.610   1.241
 5925TIP3    H217782   1.525   3.501   1.153
 5926TIP3   OH217783   0.342   2.493   3.308
 5926TIP3    H117784   0.252   2.473   3.333
 5926TIP3    H217785   0.390   2.499   3.391
 5927TIP3   OH217786   1.497   2.683   0.904
 5927TIP3    H117787   1.558   2.757   0.906
 5927TIP3    H217788   1.542   2.614   0.952
 5928TIP3   OH217789   4.163   1.114   4.381
 5928TIP3    H117790   4.237   1.107   4.319
 5928TIP3    H217791   4.096   1.057   4.344
 5929TIP3   OH217792   6.207   4.391   2.168
 5929TIP3    H117793   6.269   4.368   2.237
 5929TIP3    H217794   6.133   4.332   2.181
 5930TIP3   OH217795   5.962   4.038   1.706
 5930TIP3    H117796   5.889   3.977   1.720
 5930TIP3    H217797   6.033   4.004   1.760
 5931TIP3   OH217798   4.431   3.341   1.132
 5931TIP3    H117799   4.525   3.349   1.147
 5931TIP3    H217800   4.397   3.301   1.212
 5932TIP3   OH217801   4.989   3.207   5.045
 5932TIP3    H117802   5.077   3.178   5.020
 5932TIP3    H217803   5.002   3.295   5.081
 5933TIP3   OH217804   2.069   5.821   2.921
 5933TIP3    H117805   1.981   5.786   2.907
 5933TIP3    H217806   2.115   5.802   2.840
 5934TIP3   OH217807   4.500   1.329   1.257
 5934TIP3    H117808   4.433   1.275   1.215
 5934TIP3    H217809   4.573   1.329   1.196
 5935TIP3   OH217810   0.846   1.995   4.785
 5935TIP3    H117811   0.768   1.961   4.741
 5935TIP3    H217812   0.818   2.010   4.875
 5936TIP3   OH217813   1.019   2.279   4.340
 5936TIP3    H117814   0.949   2.344   4.352
 5936TIP3    H217815   1.042   2.252   4.429
 5937TIP3   OH217816   2.263   5.304   1.524
 5937TIP3    H117817   2.184   5.350   1.496
 5937TIP3    H217818   2.330   5.372   1.530
 5938TIP3   OH217819   0.253   2.234   4.068
 5938TIP3    H117820   0.194   2.175   4.022
 5938TIP3    H217821   0.204   2.264   4.144
 5939TIP3   OH217822   3.649   3.837   0.592
 5939TIP3    H117823   3.586   3.787   0.540
 5939TIP3    H217824   3.685   3.901   0.531
 5940TIP3   OH217825   0.276   3.798   4.271
 5940TIP3    H117826   0.280   3.873   4.331
 5940TIP3    H217827   0.296   3.835   4.185
 5941TIP3   OH217828   0.157   3.124   1.992
 5941TIP3    H117829   0.137   3.102   2.083
 5941TIP3    H217830   0.236   3.073   1.972
 5942TIP3   OH217831   2.143   2.590   4.705
 5942TIP3    H117832   2.081   2.661   4.691
 5942TIP3    H217833   2.181   2.573   4.619
 5943TIP3   OH217834   5.917   4.301   1.755
 5943TIP3    H117835   5.990   4.335   1.807
 5943TIP3    H217836   5.941   4.210   1.736
 5944TIP3   OH217837   1.459   5.021   2.561
 5944TIP3    H117838   1.446   5.011   2.655
 5944TIP3    H217839   1.449   5.115   2.545
 5945TIP3   OH217840   0.579   2.849   1.988
 5945TIP3    H117841   0.574   2.835   1.893
 5945TIP3    H217842   0.503   2.802   2.022
 5946TIP3   OH217843   2.537   1.277   1.100
 5946TIP3    H117844   2.629   1.301   1.108
 5946TIP3    H217845   2.500   1.292   1.187
 5947TIP3   OH217846   3.993   5.377   1.707
 5947TIP3    H117847   3.980   5.332   1.791
 5947TIP3    H217848   4.086   5.401   1.708
 5948TIP3   OH217849   4.137   1.974   1.674
 5948TIP3    H117850   4.075   1.999   1.743
 5948TIP3    H217851   4.173   1.890   1.704
 5949TIP3   OH217852   3.622   1.210   0.723
 5949TIP3    H117853   3.590   1.249   0.642
 5949TIP3    H217854   3.664   1.129   0.695
 5950TIP3   OH217855   5.478   4.657   2.335
 5950TIP3    H117856   5.495   4.751   2.324
 5950TIP3    H217857   5.456   4.648   2.428
 5951TIP3   OH217858   0.993   5.773   3.715
 5951TIP3    H117859   0.921   5.783   3.777
 5951TIP3    H217860   1.065   5.737   3.767
 5952TIP3   OH217861   0.732   5.873   3.910
 5952TIP3    H117862   0.664   5.897   3.847
 5952TIP3    H217863   0.791   5.949   3.912
 5953TIP3   OH217864   0.417   2.789   3.376
 5953TIP3    H117865   0.492   2.743   3.339
 5953TIP3    H217866   0.345   2.768   3.316
 5954TIP3   OH217867   5.267   4.693   5.017
 5954TIP3    H117868   5.172   4.697   5.023
 5954TIP3    H217869   5.293   4.632   5.086
 5955TIP3   OH217870   1.776   1.476   1.713
 5955TIP3    H117871   1.812   1.517   1.791
 5955TIP3    H217872   1.764   1.548   1.651
 5956TIP3   OH217873   4.789   3.336   0.941
 5956TIP3    H117874   4.865   3.278   0.947
 5956TIP3    H217875   4.771   3.361   1.032
 5957TIP3   OH217876   2.487   3.816   3.463
 5957TIP3    H117877   2.541   3.806   3.541
 5957TIP3    H217878   2.472   3.727   3.432
 5958TIP3   OH217879   3.243   4.933   0.202
 5958TIP3    H117880   3.152   4.962   0.213
 5958TIP3    H217881   3.278   4.930   0.291
 5959TIP3   OH217882   3.110   5.188   1.514
 5959TIP3    H117883   3.205   5.195   1.506
 5959TIP3    H217884   3.095   5.167   1.606
 5960TIP3   OH217885   0.279   1.471   2.559
 5960TIP3    H117886   0.260   1.437   2.472
 5960TIP3    H217887   0.367   1.441   2.579
 5961TIP3   OH217888   1.614   3.595   2.166
 5961TIP3    H117889   1.696   3.565   2.205
 5961TIP3    H217890   1.594   3.530   2.099
 5962TIP3   OH217891   4.988   3.148   4.134
 5962TIP3    H117892   5.012   3.087   4.064
 5962TIP3    H217893   5.066   3.151   4.190
 5963TIP3   OH217894   0.427   3.837   0.682
 5963TIP3    H117895   0.363   3.820   0.752
 5963TIP3    H217896   0.512   3.822   0.724
 5964TIP3   OH217897   5.744   2.906   1.933
 5964TIP3    H117898   5.829   2.918   1.891
 5964TIP3    H217899   5.749   2.957   2.014
 5965TIP3   OH217900   4.379   2.761   2.495
 5965TIP3    H117901   4.346   2.682   2.452
 5965TIP3    H217902   4.300   2.811   2.516
 5966TIP3   OH217903   3.448   1.808   1.088
 5966TIP3    H117904   3.507   1.782   1.159
 5966TIP3    H217905   3.456   1.903   1.084
 5967TIP3   OH217906   0.191   4.938   3.551
 5967TIP3    H117907   0.154   5.020   3.519
 5967TIP3    H217908   0.115   4.882   3.568
 5968TIP3   OH217909   6.249   2.948   4.749
 5968TIP3    H117910   6.315   2.999   4.796
 5968TIP3    H217911   6.189   2.918   4.817
 5969TIP3   OH217912   5.892   3.675   3.797
 5969TIP3    H117913   5.912   3.586   3.825
 5969TIP3    H217914   5.820   3.703   3.854
 5970TIP3   OH217915   0.547   0.299   2.695
 5970TIP3    H117916   0.475   0.322   2.753
 5970TIP3    H217917   0.621   0.350   2.727
 5971TIP3   OH217918   5.235   1.410   0.091
 5971TIP3    H117919   5.175   1.446   0.157
 5971TIP3    H217920   5.308   1.471   0.089
 5972TIP3   OH217921   0.063   4.580   2.529
 5972TIP3    H117922  -0.024   4.612   2.553
 5972TIP3    H217923   0.108   4.569   2.613
 5973TIP3   OH217924   0.434   4.276   4.003
 5973TIP3    H117925   0.362   4.213   4.008
 5973TIP3    H217926   0.406   4.349   4.058
 5974TIP3   OH217927   4.038   2.825   4.605
 5974TIP3    H117928   4.034   2.740   4.647
 5974TIP3    H217929   4.131   2.838   4.585
 5975TIP3   OH217930   1.373   2.298   3.940
 5975TIP3    H117931   1.317   2.326   4.012
 5975TIP3    H217932   1.377   2.203   3.949
 5976TIP3   OH217933   4.077   0.642   1.406
 5976TIP3    H117934   4.049   0.733   1.420
 5976TIP3    H217935   4.054   0.623   1.315
 5977TIP3   OH217936   0.526   1.907   3.853
 5977TIP3    H117937   0.568   1.983   3.894
 5977TIP3    H217938   0.436   1.935   3.838
 5978TIP3   OH217939   6.292   0.405   0.087
 5978TIP3    H117940   6.228   0.461   0.043
 5978TIP3    H217941   6.305   0.445   0.173
 5979TIP3   OH217942   2.831   4.039   5.058
 5979TIP3    H117943   2.906   4.097   5.065
 5979TIP3    H217944   2.854   3.963   5.112
 5980TIP3   OH217945   0.621   4.807   2.009
 5980TIP3    H117946   0.627   4.730   2.066
 5980TIP3    H217947   0.671   4.875   2.054
 5981TIP3   OH217948   0.407   4.749   3.814
 5981TIP3    H117949   0.324   4.764   3.859
 5981TIP3    H217950   0.419   4.828   3.761
 5982TIP3   OH217951   5.923   0.161   3.299
 5982TIP3    H117952   5.863   0.162   3.225
 5982TIP3    H217953   6.010   0.154   3.260
 5983TIP3   OH217954   5.676   1.830   4.615
 5983TIP3    H117955   5.724   1.901   4.657
 5983TIP3    H217956   5.585   1.858   4.617
 5984TIP3   OH217957   5.289   2.612   4.215
 5984TIP3    H117958   5.384   2.597   4.223
 5984TIP3    H217959   5.281   2.691   4.163
 5985TIP3   OH217960   0.473   3.190   3.767
 5985TIP3    H117961   0.457   3.277   3.804
 5985TIP3    H217962   0.506   3.207   3.679
 5986TIP3   OH217963   4.209   4.954   5.104
 5986TIP3    H117964   4.283   4.948   5.165
 5986TIP3    H217965   4.243   5.007   5.032
 5987TIP3   OH217966   1.936   5.256   2.632
 5987TIP3    H117967   1.992   5.262   2.709
 5987TIP3    H217968   1.926   5.162   2.616
 5988TIP3   OH217969   0.708   4.493   5.112
 5988TIP3    H117970   0.728   4.575   5.158
 5988TIP3    H217971   0.757   4.499   5.030
 5989TIP3   OH217972   4.734   5.044   1.275
 5989TIP3    H117973   4.649   5.074   1.308
 5989TIP3    H217974   4.764   5.115   1.218
 5990TIP3   OH217975   1.930   4.422   4.829
 5990TIP3    H117976   1.917   4.348   4.888
 5990TIP3    H217977   2.004   4.396   4.774
 5991TIP3   OH217978   2.060   1.615   1.255
 5991TIP3    H117979   2.108   1.697   1.246
 5991TIP3    H217980   2.105   1.554   1.197
 5992TIP3   OH217981   5.272   2.732   0.287
 5992TIP3    H117982   5.283   2.827   0.284
 5992TIP3    H217983   5.223   2.716   0.368
 5993TIP3   OH217984   0.538   5.099   1.174
 5993TIP3    H117985   0.447   5.107   1.200
 5993TIP3    H217986   0.585   5.074   1.254
 5994TIP3   OH217987   0.769   4.659   1.793
 5994TIP3    H117988   0.726   4.576   1.811
 5994TIP3    H217989   0.705   4.725   1.819
 5995TIP3   OH217990   1.414   0.618   1.799
 5995TIP3    H117991   1.410   0.712   1.814
 5995TIP3    H217992   1.505   0.594   1.819
 5996TIP3   OH217993   0.703   3.840   2.288
 5996TIP3    H117994   0.690   3.921   2.239
 5996TIP3    H217995   0.796   3.842   2.312
 5997TIP3   OH217996   2.046   0.692   3.655
 5997TIP3    H117997   2.029   0.717   3.564
 5997TIP3    H217998   2.054   0.597   3.653
 5998TIP3   OH217999   1.970   3.377   4.546
 5998TIP3    H118000   1.921   3.427   4.612
 5998TIP3    H218001   1.906   3.354   4.480
 5999TIP3   OH218002   5.879   1.403   0.240
 5999TIP3    H118003   5.853   1.311   0.250
 5999TIP3    H218004   5.858   1.424   0.149
 6000TIP3   OH218005   6.246   5.647   0.785
 6000TIP3    H118006   6.239   5.556   0.814
 6000TIP3    H218007   6.324   5.649   0.730
 6001TIP3   OH218008   2.381   1.600   2.362
 6001TIP3    H118009   2.388   1.539   2.288
 6001TIP3    H218010   2.316   1.664   2.333
 6002TIP3   OH218011   2.719   4.422   3.376
 6002TIP3    H118012   2.635   4.459   3.348
 6002TIP3    H218013   2.702   4.328   3.385
 6003TIP3   OH218014   1.242   3.562   3.493
 6003TIP3    H118015   1.162   3.509   3.489
 6003TIP3    H218016   1.313   3.501   3.472
 6004TIP3   OH218017   0.890   1.002   4.195
 6004TIP3    H118018   0.804   1.032   4.225
 6004TIP3    H218019   0.877   0.982   4.102
 6005TIP3   OH218020   0.101   0.817   4.863
 6005TIP3    H118021   0.061   0.792   4.780
 6005TIP3    H218022   0.195   0.819   4.845
 6006TIP3   OH218023   0.635   5.052   0.804
 6006TIP3    H118024   0.576   5.095   0.865
 6006TIP3    H218025   0.715   5.036   0.855
 6007TIP3   OH218026   4.888   0.979   3.438
 6007TIP3    H118027   4.858   1.069   3.451
 6007TIP3    H218028   4.983   0.986   3.433
 6008TIP3   OH218029   5.649   2.719   2.159
 6008TIP3    H118030   5.598   2.730   2.078
 6008TIP3    H218031   5.607   2.645   2.203
 6009TIP3   OH218032   1.603   2.845   4.009
 6009TIP3    H118033   1.605   2.871   4.101
 6009TIP3    H218034   1.526   2.789   4.002
 6010TIP3   OH218035   2.954   3.212   1.850
 6010TIP3    H118036   3.033   3.217   1.904
 6010TIP3    H218037   2.928   3.120   1.855
 6011TIP3   OH218038   5.521   0.379   5.041
 6011TIP3    H118039   5.500   0.472   5.048
 6011TIP3    H218040   5.554   0.356   5.127
 6012TIP3   OH218041   3.809   3.407   4.595
 6012TIP3    H118042   3.731   3.458   4.617
 6012TIP3    H218043   3.881   3.453   4.637
 6013TIP3   OH218044   5.929   5.920   1.000
 6013TIP3    H118045   5.947   5.996   0.944
 6013TIP3    H218046   5.836   5.927   1.020
 6014TIP3   OH218047   3.058   3.302   3.067
 6014TIP3    H118048   3.126   3.311   3.000
 6014TIP3    H218049   3.099   3.250   3.136
 6015TIP3   OH218050   4.166   4.563   4.775
 6015TIP3    H118051   4.228   4.612   4.828
 6015TIP3    H218052   4.109   4.630   4.736
 6016TIP3   OH218053   4.464   5.737   1.883
 6016TIP3    H118054   4.540   5.795   1.889
 6016TIP3    H218055   4.448   5.709   1.973
 6017TIP3   OH218056   0.042   2.167   3.800
 6017TIP3    H118057  -0.044   2.210   3.804
 6017TIP3    H218058   0.050   2.137   3.709
 6018TIP3   OH218059   4.955   3.771   5.065
 6018TIP3    H118060   4.907   3.707   5.013
 6018TIP3    H218061   4.909   3.773   5.149
 6019TIP3   OH218062   1.133   4.509   3.457
 6019TIP3    H118063   1.174   4.496   3.372
 6019TIP3    H218064   1.061   4.570   3.440
 6020TIP3   OH218065   2.904   2.899   4.004
 6020TIP3    H118066   2.955   2.948   4.069
 6020TIP3    H218067   2.968   2.843   3.960
 6021TIP3   OH218068   4.669   4.696   0.828
 6021TIP3    H118069   4.641   4.755   0.898
 6021TIP3    H218070   4.697   4.616   0.873
 6022TIP3   OH218071   0.180   2.684   4.055
 6022TIP3    H118072   0.095   2.685   4.098
 6022TIP3    H218073   0.192   2.773   4.023
 6023TIP3   OH218074   4.748   1.143   4.591
 6023TIP3    H118075   4.740   1.238   4.598
 6023TIP3    H218076   4.730   1.111   4.680
 6024TIP3   OH218077   2.827   0.097   3.540
 6024TIP3    H118078   2.885   0.021   3.537
 6024TIP3    H218079   2.757   0.077   3.478
 6025TIP3   OH218080   5.401   4.247   3.358
 6025TIP3    H118081   5.356   4.166   3.334
 6025TIP3    H218082   5.369   4.267   3.445
 6026TIP3   OH218083   2.621   1.037   0.173
 6026TIP3    H118084   2.552   1.065   0.112
 6026TIP3    H218085   2.673   1.115   0.188
 6027TIP3   OH218086   2.771   5.398   3.702
 6027TIP3    H118087   2.741   5.450   3.627
 6027TIP3    H218088   2.725   5.436   3.777
 6028TIP3   OH218089   2.418   2.343   4.926
 6028TIP3    H118090   2.445   2.372   4.839
 6028TIP3    H218091   2.382   2.256   4.912
 6029TIP3   OH218092   4.890   5.509   2.980
 6029TIP3    H118093   4.807   5.519   3.028
 6029TIP3    H218094   4.916   5.418   2.995
 6030TIP3   OH218095   5.044   3.001   0.853
 6030TIP3    H118096   5.133   3.003   0.818
 6030TIP3    H218097   4.989   2.984   0.777
 6031TIP3   OH218098   0.695   5.383   5.081
 6031TIP3    H118099   0.702   5.292   5.053
 6031TIP3    H218100   0.769   5.427   5.039
 6032TIP3   OH218101   2.531   1.530   3.823
 6032TIP3    H118102   2.465   1.564   3.883
 6032TIP3    H218103   2.614   1.547   3.867
 6033TIP3   OH218104   6.285   1.046   2.070
 6033TIP3    H118105   6.233   1.105   2.015
 6033TIP3    H218106   6.273   0.960   2.030
 6034TIP3   OH218107   2.713   2.962   0.275
 6034TIP3    H118108   2.742   2.887   0.223
 6034TIP3    H218109   2.747   3.038   0.228
 6035TIP3   OH218110   0.057   2.191   1.615
 6035TIP3    H118111   0.129   2.132   1.638
 6035TIP3    H218112  -0.010   2.173   1.681
 6036TIP3   OH218113   4.487   1.950   1.489
 6036TIP3    H118114   4.407   1.904   1.463
 6036TIP3    H218115   4.535   1.886   1.543
 6037TIP3   OH218116   2.972   2.294   3.070
 6037TIP3    H118117   3.009   2.332   3.150
 6037TIP3    H218118   2.941   2.208   3.097
 6038TIP3   OH218119   6.015   2.167   1.747
 6038TIP3    H118120   6.019   2.161   1.651
 6038TIP3    H218121   5.998   2.260   1.764
 6039TIP3   OH218122   2.623   4.326   1.717
 6039TIP3    H118123   2.592   4.325   1.626
 6039TIP3    H218124   2.573   4.395   1.759
 6040TIP3   OH218125   3.537   1.738   0.442
 6040TIP3    H118126   3.590   1.663   0.416
 6040TIP3    H218127   3.532   1.793   0.363
 6041TIP3   OH218128   3.114   4.004   4.183
 6041TIP3    H118129   3.176   3.946   4.227
 6041TIP3    H218130   3.052   3.945   4.140
 6042TIP3   OH218131   3.772   0.830   4.473
 6042TIP3    H118132   3.730   0.916   4.475
 6042TIP3    H218133   3.703   0.768   4.498
 6043TIP3   OH218134   0.632   2.035   0.796
 6043TIP3    H118135   0.619   1.945   0.766
 6043TIP3    H218136   0.710   2.030   0.852
 6044TIP3   OH218137   0.490   5.111   2.991
 6044TIP3    H118138   0.458   5.150   3.073
 6044TIP3    H218139   0.419   5.126   2.928
 6045TIP3   OH218140   1.140   5.467   1.318
 6045TIP3    H118141   1.188   5.498   1.241
 6045TIP3    H218142   1.101   5.546   1.355
 6046TIP3   OH218143   5.364   3.693   0.092
 6046TIP3    H118144   5.443   3.677   0.039
 6046TIP3    H218145   5.347   3.609   0.135
 6047TIP3   OH218146   2.678   2.650   1.657
 6047TIP3    H118147   2.770   2.631   1.670
 6047TIP3    H218148   2.648   2.688   1.739
 6048TIP3   OH218149   3.741   2.674   2.579
 6048TIP3    H118150   3.677   2.609   2.551
 6048TIP3    H218151   3.693   2.756   2.580
 6049TIP3   OH218152   0.642   2.472   3.709
 6049TIP3    H118153   0.603   2.514   3.786
 6049TIP3    H218154   0.695   2.401   3.745
 6050TIP3   OH218155   6.033   0.881   0.306
 6050TIP3    H118156   6.099   0.815   0.331
 6050TIP3    H218157   5.982   0.895   0.386
 6051TIP3   OH218158   4.546   2.387   0.376
 6051TIP3    H118159   4.491   2.387   0.454
 6051TIP3    H218160   4.625   2.341   0.402
 6052TIP3   OH218161   2.436   0.783   4.175
 6052TIP3    H118162   2.406   0.788   4.084
 6052TIP3    H218163   2.434   0.874   4.206
 6053TIP3   OH218164   3.364   2.897   4.331
 6053TIP3    H118165   3.423   2.838   4.285
 6053TIP3    H218166   3.352   2.857   4.417
 6054TIP3   OH218167   1.329   3.984   2.276
 6054TIP3    H118168   1.318   4.032   2.357
 6054TIP3    H218169   1.395   3.918   2.296
 6055TIP3   OH218170   0.753   2.842   4.793
 6055TIP3    H118171   0.792   2.877   4.873
 6055TIP3    H218172   0.809   2.876   4.722
 6056TIP3   OH218173   2.552   5.010   4.077
 6056TIP3    H118174   2.579   4.922   4.050
 6056TIP3    H218175   2.635   5.057   4.089
 6057TIP3   OH218176   0.346   2.313   4.687
 6057TIP3    H118177   0.270   2.363   4.716
 6057TIP3    H218178   0.391   2.371   4.625
 6058TIP3   OH218179   3.093   0.988   2.533
 6058TIP3    H118180   3.047   1.064   2.570
 6058TIP3    H218181   3.029   0.918   2.533
 6059TIP3   OH218182   5.100   4.807   1.572
 6059TIP3    H118183   5.054   4.863   1.510
 6059TIP3    H218184   5.078   4.718   1.545
 6060TIP3   OH218185   4.689   4.150   3.798
 6060TIP3    H118186   4.719   4.133   3.708
 6060TIP3    H218187   4.597   4.123   3.797
 6061TIP3   OH218188   2.258   4.535   0.673
 6061TIP3    H118189   2.170   4.560   0.646
 6061TIP3    H218190   2.247   4.449   0.714
 6062TIP3   OH218191   1.199   1.003   2.468
 6062TIP3    H118192   1.289   1.014   2.499
 6062TIP3    H218193   1.195   1.055   2.388
 6063TIP3   OH218194   3.863   2.595   2.153
 6063TIP3    H118195   3.771   2.623   2.145
 6063TIP3    H218196   3.911   2.653   2.094
 6064TIP3   OH218197   5.012   4.278   4.213
 6064TIP3    H118198   5.092   4.281   4.266
 6064TIP3    H218199   5.003   4.186   4.190
 6065TIP3   OH218200   2.034   2.527   0.219
 6065TIP3    H118201   1.968   2.461   0.240
 6065TIP3    H218202   2.117   2.485   0.241
 6066TIP3   OH218203   5.607   1.883   3.632
 6066TIP3    H118204   5.522   1.848   3.657
 6066TIP3    H218205   5.656   1.888   3.714
 6067TIP3   OH218206   0.482   5.222   0.097
 6067TIP3    H118207   0.478   5.290   0.165
 6067TIP3    H218208   0.516   5.145   0.143
 6068TIP3   OH218209   0.219   1.856   4.391
 6068TIP3    H118210   0.276   1.920   4.434
 6068TIP3    H218211   0.251   1.852   4.301
 6069TIP3   OH218212   5.981   2.957   1.744
 6069TIP3    H118213   6.051   2.932   1.684
 6069TIP3    H218214   5.972   3.052   1.733
 6070TIP3   OH218215   3.524   4.714   3.258
 6070TIP3    H118216   3.552   4.627   3.230
 6070TIP3    H218217   3.454   4.699   3.320
 6071TIP3   OH218218   1.975   2.841   4.252
 6071TIP3    H118219   1.965   2.915   4.192
 6071TIP3    H218220   1.887   2.808   4.264
 6072TIP3   OH218221   2.574   2.291   5.157
 6072TIP3    H118222   2.530   2.298   5.072
 6072TIP3    H218223   2.639   2.361   5.156
 6073TIP3   OH218224   6.162   3.652   5.127
 6073TIP3    H118225   6.217   3.712   5.075
 6073TIP3    H218226   6.076   3.693   5.127
 6074TIP3   OH218227   4.579   3.610   1.263
 6074TIP3    H118228   4.522   3.667   1.211
 6074TIP3    H218229   4.639   3.670   1.308
 6075TIP3   OH218230   2.550   2.944   4.430
 6075TIP3    H118231   2.580   2.889   4.502
 6075TIP3    H218232   2.606   2.919   4.356
 6076TIP3   OH218233   5.160   1.138   2.907
 6076TIP3    H118234   5.096   1.077   2.870
 6076TIP3    H218235   5.237   1.085   2.926
 6077TIP3   OH218236   3.054   3.240   1.383
 6077TIP3    H118237   3.068   3.150   1.353
 6077TIP3    H218238   2.959   3.251   1.381
 6078TIP3   OH218239   4.797   3.139   0.407
 6078TIP3    H118240   4.869   3.188   0.368
 6078TIP3    H218241   4.718   3.176   0.368
 6079TIP3   OH218242   3.570   1.310   0.998
 6079TIP3    H118243   3.600   1.297   0.908
 6079TIP3    H218244   3.567   1.406   1.008
 6080TIP3   OH218245   4.835   2.222   0.271
 6080TIP3    H118246   4.837   2.292   0.335
 6080TIP3    H218247   4.888   2.152   0.309
 6081TIP3   OH218248   0.676   3.483   2.970
 6081TIP3    H118249   0.724   3.403   2.989
 6081TIP3    H218250   0.686   3.495   2.875
 6082TIP3   OH218251   4.988   1.952   1.364
 6082TIP3    H118252   4.916   1.908   1.410
 6082TIP3    H218253   5.056   1.963   1.431
 6083TIP3   OH218254   1.008   3.714  -0.015
 6083TIP3    H118255   0.925   3.734   0.027
 6083TIP3    H218256   1.061   3.793  -0.001
 6084TIP3   OH218257   5.977   5.746   0.669
 6084TIP3    H118258   6.041   5.699   0.724
 6084TIP3    H218259   5.892   5.711   0.696
 6085TIP3   OH218260   1.307   0.771   4.497
 6085TIP3    H118261   1.268   0.844   4.449
 6085TIP3    H218262   1.234   0.735   4.547
 6086TIP3   OH218263   4.241   5.556   2.927
 6086TIP3    H118264   4.320   5.557   2.873
 6086TIP3    H218265   4.268   5.598   3.009
 6087TIP3   OH218266   2.062   3.304   1.393
 6087TIP3    H118267   2.000   3.370   1.363
 6087TIP3    H218268   2.085   3.330   1.482
 6088TIP3   OH218269   3.539   4.029   0.781
 6088TIP3    H118270   3.610   3.990   0.730
 6088TIP3    H218271   3.578   4.051   0.865
 6089TIP3   OH218272   1.788   2.180   0.042
 6089TIP3    H118273   1.845   2.121  -0.008
 6089TIP3    H218274   1.721   2.122   0.079
 6090TIP3   OH218275   3.556   2.288   0.582
 6090TIP3    H118276   3.531   2.203   0.546
 6090TIP3    H218277   3.625   2.320   0.524
 6091TIP3   OH218278   3.993   4.197   4.097
 6091TIP3    H118279   3.982   4.257   4.171
 6091TIP3    H218280   3.926   4.224   4.034
 6092TIP3   OH218281   1.376   5.684   2.844
 6092TIP3    H118282   1.427   5.755   2.803
 6092TIP3    H218283   1.293   5.684   2.796
 6093TIP3   OH218284   3.986   1.469   3.322
 6093TIP3    H118285   4.078   1.497   3.314
 6093TIP3    H218286   3.984   1.417   3.402
 6094TIP3   OH218287   6.057   2.706   3.222
 6094TIP3    H118288   5.981   2.718   3.165
 6094TIP3    H218289   6.033   2.634   3.279
 6095TIP3   OH218290   2.302   5.834   3.419
 6095TIP3    H118291   2.365   5.905   3.423
 6095TIP3    H218292   2.239   5.861   3.352
 6096TIP3   OH218293   5.000   1.278   1.501
 6096TIP3    H118294   5.049   1.315   1.574
 6096TIP3    H218295   4.910   1.273   1.532
 6097TIP3   OH218296   0.891   3.743   4.653
 6097TIP3    H118297   0.948   3.733   4.577
 6097TIP3    H218298   0.949   3.733   4.728
 6098TIP3   OH218299   2.388   0.226   2.589
 6098TIP3    H118300   2.435   0.263   2.514
 6098TIP3    H218301   2.297   0.253   2.576
 6099TIP3   OH218302   4.949   2.839   3.127
 6099TIP3    H118303   4.887   2.809   3.061
 6099TIP3    H218304   4.996   2.760   3.153
 6100TIP3   OH218305   1.817   1.493   2.031
 6100TIP3    H118306   1.804   1.399   2.038
 6100TIP3    H218307   1.910   1.506   2.052
 6101TIP3   OH218308   2.763   5.565   2.991
 6101TIP3    H118309   2.803   5.559   3.078
 6101TIP3    H218310   2.835   5.545   2.930
 6102TIP3   OH218311   1.002   1.849   2.209
 6102TIP3    H118312   0.967   1.936   2.229
 6102TIP3    H218313   1.062   1.831   2.281
 6103TIP3   OH218314   3.137   1.179   4.585
 6103TIP3    H118315   3.230   1.178   4.606
 6103TIP3    H218316   3.125   1.260   4.535
 6104TIP3   OH218317   2.818   0.498   2.684
 6104TIP3    H118318   2.792   0.446   2.759
 6104TIP3    H218319   2.792   0.445   2.608
 6105TIP3   OH218320   3.053   1.445   2.343
 6105TIP3    H118321   3.042   1.362   2.391
 6105TIP3    H218322   3.076   1.418   2.254
 6106TIP3   OH218323   0.866   4.498   1.274
 6106TIP3    H118324   0.935   4.531   1.216
 6106TIP3    H218325   0.842   4.573   1.328
 6107TIP3   OH218326   5.125   2.880   3.673
 6107TIP3    H118327   5.200   2.825   3.648
 6107TIP3    H218328   5.084   2.904   3.590
 6108TIP3   OH218329   1.284   1.044   3.236
 6108TIP3    H118330   1.335   1.080   3.163
 6108TIP3    H218331   1.315   0.954   3.245
 6109TIP3   OH218332   5.645   5.325   0.766
 6109TIP3    H118333   5.726   5.280   0.742
 6109TIP3    H218334   5.673   5.411   0.796
 6110TIP3   OH218335   3.273   4.537   3.727
 6110TIP3    H118336   3.312   4.503   3.807
 6110TIP3    H218337   3.199   4.589   3.756
 6111TIP3   OH218338   4.390   0.512   3.618
 6111TIP3    H118339   4.485   0.520   3.606
 6111TIP3    H218340   4.364   0.439   3.562
 6112TIP3   OH218341   4.710   3.169   5.022
 6112TIP3    H118342   4.804   3.166   5.003
 6112TIP3    H218343   4.704   3.220   5.102
 6113TIP3   OH218344   3.676   4.019   4.513
 6113TIP3    H118345   3.631   4.003   4.596
 6113TIP3    H218346   3.606   4.019   4.448
 6114TIP3   OH218347   0.805   1.676   2.119
 6114TIP3    H118348   0.776   1.729   2.045
 6114TIP3    H218349   0.877   1.726   2.158
 6115TIP3   OH218350   2.382   0.834   0.305
 6115TIP3    H118351   2.366   0.788   0.388
 6115TIP3    H218352   2.473   0.862   0.311
 6116TIP3   OH218353   3.920   4.519   1.145
 6116TIP3    H118354   3.988   4.454   1.166
 6116TIP3    H218355   3.850   4.501   1.208
 6117TIP3   OH218356   5.649   1.263   4.894
 6117TIP3    H118357   5.572   1.271   4.837
 6117TIP3    H218358   5.719   1.306   4.847
 6118TIP3   OH218359   3.120   5.429   0.578
 6118TIP3    H118360   3.180   5.436   0.653
 6118TIP3    H218361   3.122   5.516   0.538
 6119TIP3   OH218362   1.531   3.610   4.329
 6119TIP3    H118363   1.493   3.685   4.284
 6119TIP3    H218364   1.557   3.644   4.415
 6120TIP3   OH218365   5.031   3.856   2.663
 6120TIP3    H118366   5.040   3.779   2.719
 6120TIP3    H218367   4.937   3.862   2.646
 6121TIP3   OH218368   1.944   4.024   3.394
 6121TIP3    H118369   1.954   4.007   3.300
 6121TIP3    H218370   1.898   3.947   3.428
 6122TIP3   OH218371   5.536   0.333   3.326
 6122TIP3    H118372   5.594   0.262   3.299
 6122TIP3    H218373   5.562   0.407   3.272
 6123TIP3   OH218374   4.239   4.653   1.506
 6123TIP3    H118375   4.179   4.641   1.580
 6123TIP3    H218376   4.218   4.581   1.446
 6124TIP3   OH218377   6.012   2.957   4.299
 6124TIP3    H118378   6.032   2.924   4.212
 6124TIP3    H218379   6.016   2.880   4.356
 6125TIP3   OH218380   2.882   1.251   3.950
 6125TIP3    H118381   2.861   1.316   3.883
 6125TIP3    H218382   2.916   1.177   3.901
 6126TIP3   OH218383   5.115   4.903   2.641
 6126TIP3    H118384   5.098   4.893   2.547
 6126TIP3    H218385   5.028   4.900   2.681
 6127TIP3   OH218386   5.109   1.181   0.534
 6127TIP3    H118387   5.035   1.233   0.503
 6127TIP3    H218388   5.174   1.247   0.561
 6128TIP3   OH218389   5.421   2.039   1.108
 6128TIP3    H118390   5.342   1.986   1.116
 6128TIP3    H218391   5.397   2.109   1.047
 6129TIP3   OH218392   3.073   4.725   4.657
 6129TIP3    H118393   2.981   4.744   4.638
 6129TIP3    H218394   3.120   4.803   4.628
 6130TIP3   OH218395   4.640   4.425   1.795
 6130TIP3    H118396   4.627   4.416   1.700
 6130TIP3    H218397   4.551   4.437   1.829
 6131TIP3   OH218398   0.478   3.258   3.510
 6131TIP3    H118399   0.438   3.340   3.480
 6131TIP3    H218400   0.564   3.257   3.467
 6132TIP3   OH218401   1.481   5.643   0.970
 6132TIP3    H118402   1.430   5.594   0.905
 6132TIP3    H218403   1.417   5.668   1.036
 6133TIP3   OH218404   2.125   1.111   1.661
 6133TIP3    H118405   2.047   1.055   1.670
 6133TIP3    H218406   2.103   1.191   1.709
 6134TIP3   OH218407   6.187   2.050   2.197
 6134TIP3    H118408   6.124   2.071   2.267
 6134TIP3    H218409   6.272   2.049   2.241
 6135TIP3   OH218410   0.610   2.474   1.156
 6135TIP3    H118411   0.682   2.537   1.158
 6135TIP3    H218412   0.555   2.503   1.083
 6136TIP3   OH218413   0.105  -0.013   4.194
 6136TIP3    H118414   0.121   0.060   4.255
 6136TIP3    H218415   0.187  -0.020   4.144
 6137TIP3   OH218416   2.325   1.745   1.551
 6137TIP3    H118417   2.283   1.704   1.626
 6137TIP3    H218418   2.257   1.749   1.484
 6138TIP3   OH218419   1.807   5.983   0.191
 6138TIP3    H118420   1.872   5.929   0.236
 6138TIP3    H218421   1.723   5.944   0.215
 6139TIP3   OH218422   3.563   2.254   4.521
 6139TIP3    H118423   3.639   2.312   4.533
 6139TIP3    H218424   3.532   2.237   4.610
 6140TIP3   OH218425   2.328  -0.026   2.721
 6140TIP3    H118426   2.286  -0.063   2.643
 6140TIP3    H218427   2.365   0.057   2.692
 6141TIP3   OH218428   2.002   3.517   3.445
 6141TIP3    H118429   2.077   3.501   3.503
 6141TIP3    H218430   1.948   3.439   3.454
 6142TIP3   OH218431   4.187   0.056   0.781
 6142TIP3    H118432   4.281   0.062   0.765
 6142TIP3    H218433   4.174  -0.033   0.814
 6143TIP3   OH218434   3.412   3.960   2.453
 6143TIP3    H118435   3.481   3.981   2.516
 6143TIP3    H218436   3.333   4.001   2.488
 6144TIP3   OH218437   2.931   5.846   1.416
 6144TIP3    H118438   2.905   5.790   1.489
 6144TIP3    H218439   2.913   5.793   1.338
 6145TIP3   OH218440   4.167   1.116   2.492
 6145TIP3    H118441   4.103   1.055   2.455
 6145TIP3    H218442   4.114   1.178   2.542
 6146TIP3   OH218443   5.203   4.513   1.297
 6146TIP3    H118444   5.228   4.550   1.382
 6146TIP3    H218445   5.181   4.422   1.316
 6147TIP3   OH218446   3.694   3.918   2.946
 6147TIP3    H118447   3.638   3.844   2.924
 6147TIP3    H218448   3.732   3.945   2.862
 6148TIP3   OH218449   6.180   4.703   5.202
 6148TIP3    H118450   6.255   4.691   5.143
 6148TIP3    H218451   6.175   4.798   5.215
 6149TIP3   OH218452   1.910   5.356   3.403
 6149TIP3    H118453   1.828   5.312   3.382
 6149TIP3    H218454   1.885   5.445   3.426
 6150TIP3   OH218455   5.418   1.904   4.684
 6150TIP3    H118456   5.342   1.898   4.626
 6150TIP3    H218457   5.387   1.871   4.768
 6151TIP3   OH218458   5.387   0.614   1.527
 6151TIP3    H118459   5.456   0.560   1.489
 6151TIP3    H218460   5.433   0.676   1.583
 6152TIP3   OH218461   2.152   1.266   5.053
 6152TIP3    H118462   2.126   1.300   4.968
 6152TIP3    H218463   2.086   1.300   5.114
 6153TIP3   OH218464   1.479   1.742   2.514
 6153TIP3    H118465   1.482   1.708   2.603
 6153TIP3    H218466   1.391   1.722   2.483
 6154TIP3   OH218467   5.998   2.503   1.357
 6154TIP3    H118468   5.940   2.529   1.427
 6154TIP3    H218469   5.989   2.408   1.352
 6155TIP3   OH218470   3.992   1.994   1.416
 6155TIP3    H118471   4.000   1.915   1.363
 6155TIP3    H218472   4.062   1.987   1.480
 6156TIP3   OH218473   5.067   2.909   1.161
 6156TIP3    H118474   5.124   2.835   1.140
 6156TIP3    H218475   5.029   2.934   1.077
 6157TIP3   OH218476   4.207   1.422   1.620
 6157TIP3    H118477   4.272   1.457   1.558
 6157TIP3    H218478   4.246   1.341   1.653
 6158TIP3   OH218479   5.850   3.793   5.145
 6158TIP3    H118480   5.871   3.886   5.139
 6158TIP3    H218481   5.832   3.766   5.055
 6159TIP3   OH218482   0.569   4.282   1.685
 6159TIP3    H118483   0.550   4.193   1.656
 6159TIP3    H218484   0.493   4.333   1.656
 6160TIP3   OH218485   2.269   2.649   0.768
 6160TIP3    H118486   2.323   2.717   0.728
 6160TIP3    H218487   2.326   2.609   0.834
 6161TIP3   OH218488   4.224   5.918   3.886
 6161TIP3    H118489   4.258   5.962   3.964
 6161TIP3    H218490   4.144   5.965   3.864
 6162TIP3   OH218491   0.852  -0.034   2.292
 6162TIP3    H118492   0.803   0.034   2.246
 6162TIP3    H218493   0.821  -0.030   2.382
 6163TIP3   OH218494   4.552   1.274   4.358
 6163TIP3    H118495   4.500   1.353   4.347
 6163TIP3    H218496   4.592   1.283   4.444
 6164TIP3   OH218497   3.021   0.071   3.907
 6164TIP3    H118498   2.958   0.133   3.943
 6164TIP3    H218499   3.096   0.126   3.883
 6165TIP3   OH218500   0.128   2.357   2.326
 6165TIP3    H118501   0.081   2.284   2.286
 6165TIP3    H218502   0.207   2.318   2.363
 6166TIP3   OH218503   3.347   5.761   1.673
 6166TIP3    H118504   3.277   5.822   1.696
 6166TIP3    H218505   3.313   5.712   1.599
 6167TIP3   OH218506   4.740   4.448   3.102
 6167TIP3    H118507   4.749   4.540   3.128
 6167TIP3    H218508   4.741   4.451   3.006
 6168TIP3   OH218509   2.781   3.301   1.369
 6168TIP3    H118510   2.736   3.242   1.429
 6168TIP3    H218511   2.725   3.378   1.364
 6169TIP3   OH218512   1.584   0.551   4.302
 6169TIP3    H118513   1.676   0.561   4.279
 6169TIP3    H218514   1.538   0.618   4.251
 6170TIP3   OH218515   3.511   5.596   2.721
 6170TIP3    H118516   3.599   5.623   2.746
 6170TIP3    H218517   3.497   5.637   2.636
 6171TIP3   OH218518   4.655   5.616   3.247
 6171TIP3    H118519   4.668   5.711   3.247
 6171TIP3    H218520   4.628   5.596   3.157
 6172TIP3   OH218521   2.974   5.419   2.775
 6172TIP3    H118522   2.973   5.333   2.733
 6172TIP3    H218523   3.019   5.476   2.713
 6173TIP3   OH218524   4.984   2.421   2.185
 6173TIP3    H118525   4.955   2.330   2.186
 6173TIP3    H218526   4.904   2.472   2.176
 6174TIP3   OH218527   1.248   4.975   4.038
 6174TIP3    H118528   1.332   5.011   4.067
 6174TIP3    H218529   1.261   4.956   3.945
 6175TIP3   OH218530   1.832   3.824   2.736
 6175TIP3    H118531   1.839   3.762   2.663
 6175TIP3    H218532   1.839   3.910   2.694
 6176TIP3   OH218533   3.919   0.012   2.558
 6176TIP3    H118534   3.927   0.031   2.651
 6176TIP3    H218535   3.982   0.070   2.516
 6177TIP3   OH218536   2.359   1.403   4.794
 6177TIP3    H118537   2.392   1.477   4.744
 6177TIP3    H218538   2.264   1.412   4.793
 6178TIP3   OH218539   5.496   1.118   3.114
 6178TIP3    H118540   5.505   1.213   3.123
 6178TIP3    H218541   5.582   1.083   3.139
 6179TIP3   OH218542   0.364   1.275   3.103
 6179TIP3    H118543   0.318   1.203   3.060
 6179TIP3    H218544   0.456   1.260   3.084
 6180TIP3   OH218545   5.323   3.929   4.529
 6180TIP3    H118546   5.288   4.000   4.583
 6180TIP3    H218547   5.394   3.971   4.480
 6181TIP3   OH218548   2.101   2.848   2.674
 6181TIP3    H118549   2.021   2.844   2.727
 6181TIP3    H218550   2.157   2.780   2.711
 6182TIP3   OH218551   1.086   3.185   1.070
 6182TIP3    H118552   1.044   3.155   1.151
 6182TIP3    H218553   1.178   3.165   1.082
 6183TIP3   OH218554   2.821   4.172   4.787
 6183TIP3    H118555   2.795   4.129   4.706
 6183TIP3    H218556   2.794   4.111   4.856
 6184TIP3   OH218557   2.687   1.663   4.738
 6184TIP3    H118558   2.594   1.667   4.712
 6184TIP3    H218559   2.734   1.698   4.663
 6185TIP3   OH218560   3.891   1.353   1.043
 6185TIP3    H118561   3.842   1.369   1.124
 6185TIP3    H218562   3.899   1.257   1.038
 6186TIP3   OH218563   2.935   0.204   2.681
 6186TIP3    H118564   3.008   0.234   2.627
 6186TIP3    H218565   2.964   0.216   2.771
 6187TIP3   OH218566   6.159   1.048   1.640
 6187TIP3    H118567   6.193   0.959   1.653
 6187TIP3    H218568   6.069   1.035   1.610
 6188TIP3   OH218569   0.916   5.709   4.025
 6188TIP3    H118570   0.831   5.754   4.018
 6188TIP3    H218571   0.893   5.616   4.027
 6189TIP3   OH218572   2.612   0.579   2.039
 6189TIP3    H118573   2.632   0.536   1.956
 6189TIP3    H218574   2.634   0.671   2.024
 6190TIP3   OH218575   3.517   0.982   4.547
 6190TIP3    H118576   3.502   0.936   4.465
 6190TIP3    H218577   3.495   1.073   4.528
 6191TIP3   OH218578   0.785   0.347   3.761
 6191TIP3    H118579   0.850   0.401   3.716
 6191TIP3    H218580   0.736   0.305   3.690
 6192TIP3   OH218581   3.985   0.773   4.976
 6192TIP3    H118582   3.897   0.770   4.937
 6192TIP3    H218583   3.971   0.813   5.062
 6193TIP3   OH218584   6.009   2.318   4.890
 6193TIP3    H118585   6.064   2.384   4.931
 6193TIP3    H218586   6.025   2.238   4.940
 6194TIP3   OH218587   4.444   5.576   4.517
 6194TIP3    H118588   4.399   5.661   4.525
 6194TIP3    H218589   4.507   5.590   4.447
 6195TIP3   OH218590   2.027   4.389   0.521
 6195TIP3    H118591   2.005   4.296   0.517
 6195TIP3    H218592   1.950   4.430   0.559
 6196TIP3   OH218593   1.725   0.059   2.843
 6196TIP3    H118594   1.717   0.153   2.862
 6196TIP3    H218595   1.815   0.048   2.814
 6197TIP3   OH218596   3.625   2.454   0.182
 6197TIP3    H118597   3.533   2.434   0.163
 6197TIP3    H218598   3.625   2.484   0.273
 6198TIP3   OH218599   5.890   1.926   2.117
 6198TIP3    H118600   5.941   1.891   2.044
 6198TIP3    H218601   5.914   1.870   2.191
 6199TIP3   OH218602   3.610   4.273   3.512
 6199TIP3    H118603   3.663   4.261   3.433
 6199TIP3    H218604   3.594   4.185   3.544
 6200TIP3   OH218605   3.908   5.617   4.895
 6200TIP3    H118606   3.883   5.696   4.941
 6200TIP3    H218607   3.903   5.547   4.960
 6201TIP3   OH218608   2.156   5.411   5.076
 6201TIP3    H118609   2.113   5.326   5.068
 6201TIP3    H218610   2.249   5.392   5.061
 6202TIP3   OH218611   5.155   4.230   0.889
 6202TIP3    H118612   5.062   4.250   0.884
 6202TIP3    H218613   5.161   4.136   0.878
 6203TIP3   OH218614   1.430   1.455   0.648
 6203TIP3    H118615   1.487   1.446   0.725
 6203TIP3    H218616   1.417   1.365   0.619
 6204TIP3   OH218617   0.558   1.069   0.096
 6204TIP3    H118618   0.622   1.082   0.026
 6204TIP3    H218619   0.520   0.983   0.078
 6205TIP3   OH218620   4.080   0.318   4.744
 6205TIP3    H118621   4.166   0.281   4.765
 6205TIP3    H218622   4.099   0.403   4.704
 6206TIP3   OH218623   1.679   1.984   1.050
 6206TIP3    H118624   1.753   2.027   1.093
 6206TIP3    H218625   1.602   2.022   1.092
 6207TIP3   OH218626   4.800   4.137   2.937
 6207TIP3    H118627   4.753   4.054   2.948
 6207TIP3    H218628   4.863   4.119   2.867
 6208TIP3   OH218629   6.266   2.350   0.736
 6208TIP3    H118630   6.229   2.395   0.812
 6208TIP3    H218631   6.264   2.257   0.761
 6209TIP3   OH218632   3.126   1.697   1.016
 6209TIP3    H118633   3.167   1.783   1.020
 6209TIP3    H218634   3.141   1.668   0.926
 6210TIP3   OH218635   2.679   5.239   0.729
 6210TIP3    H118636   2.765   5.272   0.701
 6210TIP3    H218637   2.691   5.215   0.820
 6211TIP3   OH218638   2.428   0.162   1.793
 6211TIP3    H118639   2.431   0.121   1.707
 6211TIP3    H218640   2.502   0.224   1.792
 6212TIP3   OH218641   3.485   3.398   0.393
 6212TIP3    H118642   3.453   3.352   0.471
 6212TIP3    H218643   3.431   3.366   0.322
 6213TIP3   OH218644   2.926   3.812   0.851
 6213TIP3    H118645   2.931   3.724   0.813
 6213TIP3    H218646   2.977   3.867   0.792
 6214TIP3   OH218647   3.834   3.981   4.184
 6214TIP3    H118648   3.914   4.024   4.154
 6214TIP3    H218649   3.786   4.049   4.231
 6215TIP3   OH218650   3.561   1.368   3.034
 6215TIP3    H118651   3.568   1.400   3.124
 6215TIP3    H218652   3.533   1.445   2.984
 6216TIP3   OH218653   6.346   5.428   3.654
 6216TIP3    H118654   6.413   5.468   3.599
 6216TIP3    H218655   6.269   5.484   3.642
 6217TIP3   OH218656   1.472   2.672   1.229
 6217TIP3    H118657   1.437   2.740   1.288
 6217TIP3    H218658   1.443   2.700   1.142
 6218TIP3   OH218659   5.160   2.565   5.127
 6218TIP3    H118660   5.143   2.555   5.033
 6218TIP3    H218661   5.243   2.519   5.141
 6219TIP3   OH218662   4.300   2.993   4.151
 6219TIP3    H118663   4.236   2.929   4.119
 6219TIP3    H218664   4.341   3.029   4.072
 6220TIP3   OH218665   0.357   4.365   1.992
 6220TIP3    H118666   0.445   4.401   2.002
 6220TIP3    H218667   0.354   4.290   2.051
 6221TIP3   OH218668   0.499   2.278   2.789
 6221TIP3    H118669   0.491   2.316   2.702
 6221TIP3    H218670   0.591   2.294   2.813
 6222TIP3   OH218671   1.017   5.524   3.540
 6222TIP3    H118672   0.944   5.464   3.553
 6222TIP3    H218673   1.045   5.547   3.628
 6223TIP3   OH218674   3.728   4.571   0.699
 6223TIP3    H118675   3.803   4.598   0.644
 6223TIP3    H218676   3.652   4.583   0.642
 6224TIP3   OH218677   3.045   4.161   4.387
 6224TIP3    H118678   3.048   4.107   4.307
 6224TIP3    H218679   3.005   4.243   4.358
 6225TIP3   OH218680   2.323   2.754   5.164
 6225TIP3    H118681   2.282   2.810   5.098
 6225TIP3    H218682   2.399   2.804   5.193
 6226TIP3   OH218683   5.945   0.398   4.166
 6226TIP3    H118684   6.015   0.461   4.148
 6226TIP3    H218685   5.884   0.446   4.222
 6227TIP3   OH218686   3.109   5.595   3.798
 6227TIP3    H118687   3.093   5.680   3.840
 6227TIP3    H218688   3.023   5.567   3.767
 6228TIP3   OH218689   4.167   4.960   2.724
 6228TIP3    H118690   4.100   5.000   2.779
 6228TIP3    H218691   4.157   4.866   2.739
 6229TIP3   OH218692   4.268   1.816   1.419
 6229TIP3    H118693   4.222   1.808   1.503
 6229TIP3    H218694   4.199   1.808   1.353
 6230TIP3   OH218695   5.840   3.398   3.107
 6230TIP3    H118696   5.765   3.388   3.166
 6230TIP3    H218697   5.844   3.316   3.059
 6231TIP3   OH218698   1.032   1.744   1.086
 6231TIP3    H118699   0.999   1.680   1.023
 6231TIP3    H218700   1.086   1.804   1.033
 6232TIP3   OH218701   3.153   3.980   2.576
 6232TIP3    H118702   3.087   3.941   2.519
 6232TIP3    H218703   3.130   3.949   2.664
 6233TIP3   OH218704   6.168   0.965   1.060
 6233TIP3    H118705   6.094   1.025   1.053
 6233TIP3    H218706   6.128   0.882   1.087
 6234TIP3   OH218707   0.264   3.261   3.282
 6234TIP3    H118708   0.318   3.190   3.318
 6234TIP3    H218709   0.175   3.240   3.312
 6235TIP3   OH218710   6.121   5.052   3.198
 6235TIP3    H118711   6.037   5.081   3.162
 6235TIP3    H218712   6.186   5.080   3.134
 6236TIP3   OH218713   2.144   4.729   0.095
 6236TIP3    H118714   2.083   4.706   0.025
 6236TIP3    H218715   2.147   4.651   0.150
 6237TIP3   OH218716   3.739   3.099   0.575
 6237TIP3    H118717   3.659   3.079   0.622
 6237TIP3    H218718   3.733   3.193   0.556
 6238TIP3   OH218719   1.521   0.035   0.159
 6238TIP3    H118720   1.561  -0.041   0.200
 6238TIP3    H218721   1.591   0.075   0.107
 6239TIP3   OH218722   2.147   3.638   2.648
 6239TIP3    H118723   2.146   3.723   2.693
 6239TIP3    H218724   2.232   3.634   2.606
 6240TIP3   OH218725   4.430   3.467   0.157
 6240TIP3    H118726   4.520   3.488   0.182
 6240TIP3    H218727   4.392   3.551   0.128
 6241TIP3   OH218728   4.971   0.191   4.449
 6241TIP3    H118729   5.058   0.227   4.469
 6241TIP3    H218730   4.931   0.254   4.390
 6242TIP3   OH218731   6.162   1.673   4.648
 6242TIP3    H118732   6.123   1.749   4.691
 6242TIP3    H218733   6.246   1.704   4.615
 6243TIP3   OH218734   3.586   0.667   1.828
 6243TIP3    H118735   3.530   0.669   1.750
 6243TIP3    H218736   3.670   0.635   1.796
 6244TIP3   OH218737   4.245   5.770   1.721
 6244TIP3    H118738   4.301   5.707   1.765
 6244TIP3    H218739   4.184   5.799   1.789
 6245TIP3   OH218740   4.600   0.420   0.617
 6245TIP3    H118741   4.682   0.459   0.646
 6245TIP3    H218742   4.580   0.463   0.535
 6246TIP3   OH218743   1.506   4.072   3.919
 6246TIP3    H118744   1.550   4.001   3.872
 6246TIP3    H218745   1.531   4.060   4.010
 6247TIP3   OH218746   3.607   3.570   0.953
 6247TIP3    H118747   3.557   3.635   0.904
 6247TIP3    H218748   3.659   3.524   0.887
 6248TIP3   OH218749   2.893   1.397   1.527
 6248TIP3    H118750   2.930   1.472   1.481
 6248TIP3    H218751   2.927   1.404   1.616
 6249TIP3   OH218752   2.159   2.515   2.687
 6249TIP3    H118753   2.131   2.430   2.721
 6249TIP3    H218754   2.252   2.520   2.709
 6250TIP3   OH218755   1.368   3.112   4.876
 6250TIP3    H118756   1.417   3.150   4.949
 6250TIP3    H218757   1.310   3.049   4.916
 6251TIP3   OH218758   0.270   0.195   2.538
 6251TIP3    H118759   0.243   0.257   2.470
 6251TIP3    H218760   0.262   0.244   2.619
 6252TIP3   OH218761   5.757   0.717   2.318
 6252TIP3    H118762   5.725   0.628   2.305
 6252TIP3    H218763   5.680   0.766   2.348
 6253TIP3   OH218764   4.838   0.455   0.334
 6253TIP3    H118765   4.892   0.452   0.413
 6253TIP3    H218766   4.899   0.433   0.263
 6254TIP3   OH218767   3.946   5.575   3.845
 6254TIP3    H118768   3.981   5.656   3.807
 6254TIP3    H218769   4.016   5.511   3.834
 6255TIP3   OH218770   6.196   5.035   3.779
 6255TIP3    H118771   6.206   5.018   3.685
 6255TIP3    H218772   6.154   4.956   3.814
 6256TIP3   OH218773   3.854   0.619   3.413
 6256TIP3    H118774   3.923   0.668   3.368
 6256TIP3    H218775   3.780   0.621   3.353
 6257TIP3   OH218776   4.727   0.930   2.631
 6257TIP3    H118777   4.766   0.859   2.579
 6257TIP3    H218778   4.748   1.010   2.583
 6258TIP3   OH218779   0.532   2.137   3.481
 6258TIP3    H118780   0.540   2.094   3.396
 6258TIP3    H218781   0.604   2.101   3.534
 6259TIP3   OH218782   2.946   3.653   4.437
 6259TIP3    H118783   2.924   3.735   4.482
 6259TIP3    H218784   2.892   3.587   4.480
 6260TIP3   OH218785   1.491   0.323   1.365
 6260TIP3    H118786   1.551   0.259   1.327
 6260TIP3    H218787   1.534   0.349   1.447
 6261TIP3   OH218788   4.945   4.321   2.710
 6261TIP3    H118789   4.983   4.244   2.753
 6261TIP3    H218790   4.861   4.334   2.754
 6262TIP3   OH218791   1.108   2.213   1.594
 6262TIP3    H118792   1.021   2.254   1.600
 6262TIP3    H218793   1.119   2.194   1.501
 6263TIP3   OH218794   1.304   2.844   4.708
 6263TIP3    H118795   1.359   2.841   4.786
 6263TIP3    H218796   1.358   2.889   4.643
 6264TIP3   OH218797   4.381   4.052   4.735
 6264TIP3    H118798   4.468   4.076   4.702
 6264TIP3    H218799   4.373   3.959   4.716
 6265TIP3   OH218800   3.029   3.068   1.596
 6265TIP3    H118801   3.066   3.145   1.553
 6265TIP3    H218802   2.941   3.096   1.623
 6266TIP3   OH218803   2.789   3.814   1.102
 6266TIP3    H118804   2.838   3.834   1.023
 6266TIP3    H218805   2.849   3.761   1.155
 6267TIP3   OH218806   0.512   4.032   1.607
 6267TIP3    H118807   0.584   4.005   1.550
 6267TIP3    H218808   0.501   3.960   1.669
 6268TIP3   OH218809   4.747   5.820   3.606
 6268TIP3    H118810   4.741   5.725   3.612
 6268TIP3    H218811   4.679   5.852   3.666
 6269TIP3   OH218812   2.316   3.458   0.288
 6269TIP3    H118813   2.407   3.466   0.260
 6269TIP3    H218814   2.293   3.368   0.266
 6270TIP3   OH218815   4.977   1.440   4.744
 6270TIP3    H118816   5.019   1.396   4.819
 6270TIP3    H218817   4.886   1.450   4.770
 6271TIP3   OH218818   2.976   4.619   3.640
 6271TIP3    H118819   3.053   4.596   3.589
 6271TIP3    H218820   3.007   4.623   3.731
 6272TIP3   OH218821   4.452   2.409   1.274
 6272TIP3    H118822   4.418   2.498   1.273
 6272TIP3    H218823   4.374   2.354   1.271
 6273TIP3   OH218824   1.877   4.747   1.201
 6273TIP3    H118825   1.911   4.834   1.223
 6273TIP3    H218826   1.783   4.752   1.217
 6274TIP3   OH218827   0.742   3.396   2.677
 6274TIP3    H118828   0.684   3.358   2.612
 6274TIP3    H218829   0.768   3.322   2.732
 6275TIP3   OH218830   5.264   5.554   1.064
 6275TIP3    H118831   5.271   5.459   1.060
 6275TIP3    H218832   5.354   5.585   1.059
 6276TIP3   OH218833   5.418   4.743   4.813
 6276TIP3    H118834   5.407   4.652   4.787
 6276TIP3    H218835   5.363   4.754   4.890
 6277TIP3   OH218836   0.581   4.906   4.050
 6277TIP3    H118837   0.534   4.896   3.968
 6277TIP3    H218838   0.668   4.870   4.034
 6278TIP3   OH218839   4.618   5.444   2.500
 6278TIP3    H118840   4.599   5.537   2.510
 6278TIP3    H218841   4.646   5.435   2.409
 6279TIP3   OH218842   6.024   4.849   0.761
 6279TIP3    H118843   6.025   4.754   0.752
 6279TIP3    H218844   5.945   4.868   0.813
 6280TIP3   OH218845   4.182   5.913   2.741
 6280TIP3    H118846   4.236   5.834   2.748
 6280TIP3    H218847   4.238   5.983   2.776
 6281TIP3   OH218848   4.223   3.365   5.120
 6281TIP3    H118849   4.176   3.351   5.203
 6281TIP3    H218850   4.275   3.286   5.109
 6282TIP3   OH218851   2.776   0.543   1.361
 6282TIP3    H118852   2.743   0.456   1.382
 6282TIP3    H218853   2.868   0.529   1.337
 6283TIP3   OH218854   5.019   0.703   0.443
 6283TIP3    H118855   5.045   0.713   0.351
 6283TIP3    H218856   4.995   0.791   0.471
 6284TIP3   OH218857   4.377   5.418   0.306
 6284TIP3    H118858   4.457   5.374   0.277
 6284TIP3    H218859   4.318   5.347   0.332
 6285TIP3   OH218860   3.458   2.990   1.013
 6285TIP3    H118861   3.489   3.021   1.098
 6285TIP3    H218862   3.438   2.898   1.026
 6286TIP3   OH218863   4.244   2.938   1.095
 6286TIP3    H118864   4.232   3.001   1.023
 6286TIP3    H218865   4.332   2.956   1.128
 6287TIP3   OH218866   0.374   5.259   1.531
 6287TIP3    H118867   0.285   5.236   1.502
 6287TIP3    H218868   0.375   5.354   1.532
 6288TIP3   OH218869   5.014   1.284   2.707
 6288TIP3    H118870   5.055   1.365   2.676
 6288TIP3    H218871   5.086   1.235   2.746
 6289TIP3   OH218872   4.379   1.885   2.888
 6289TIP3    H118873   4.419   1.840   2.962
 6289TIP3    H218874   4.414   1.974   2.893
 6290TIP3   OH218875   2.247   4.266   1.108
 6290TIP3    H118876   2.154   4.250   1.094
 6290TIP3    H218877   2.251   4.350   1.152
 6291TIP3   OH218878   5.068   2.437   2.532
 6291TIP3    H118879   5.072   2.529   2.509
 6291TIP3    H218880   4.985   2.406   2.495
 6292TIP3   OH218881   5.077   1.281   4.969
 6292TIP3    H118882   5.108   1.190   4.972
 6292TIP3    H218883   5.052   1.301   5.059
 6293TIP3   OH218884   4.594   4.695   2.837
 6293TIP3    H118885   4.611   4.735   2.922
 6293TIP3    H218886   4.519   4.743   2.802
 6294TIP3   OH218887   2.619   5.713   2.354
 6294TIP3    H118888   2.695   5.668   2.389
 6294TIP3    H218889   2.615   5.795   2.403
 6295TIP3   OH218890   0.379   1.715   0.153
 6295TIP3    H118891   0.284   1.713   0.163
 6295TIP3    H218892   0.399   1.805   0.129
 6296TIP3   OH218893   4.717   2.211   4.508
 6296TIP3    H118894   4.736   2.174   4.422
 6296TIP3    H218895   4.804   2.224   4.548
 6297TIP3   OH218896   5.904   2.784   1.323
 6297TIP3    H118897   5.925   2.692   1.335
 6297TIP3    H218898   5.812   2.792   1.349
 6298TIP3   OH218899   1.915   2.098   1.821
 6298TIP3    H118900   1.973   2.167   1.788
 6298TIP3    H218901   1.851   2.085   1.752
 6299TIP3   OH218902   2.937   1.109   1.492
 6299TIP3    H118903   2.892   1.180   1.445
 6299TIP3    H218904   2.918   1.127   1.585
 6300TIP3   OH218905   2.093   0.104   4.077
 6300TIP3    H118906   2.133   0.112   4.164
 6300TIP3    H218907   2.164   0.073   4.021
 6301TIP3   OH218908   2.338   2.210   2.405
 6301TIP3    H118909   2.414   2.244   2.452
 6301TIP3    H218910   2.297   2.287   2.367
 6302TIP3   OH218911   3.924   3.707   0.544
 6302TIP3    H118912   3.932   3.611   0.540
 6302TIP3    H218913   3.831   3.724   0.526
 6303TIP3   OH218914   1.944   1.577   4.238
 6303TIP3    H118915   1.959   1.533   4.154
 6303TIP3    H218916   1.900   1.511   4.292
 6304TIP3   OH218917   3.778   2.396   0.445
 6304TIP3    H118918   3.778   2.469   0.507
 6304TIP3    H218919   3.823   2.430   0.368
 6305TIP3   OH218920   5.657   5.933   1.781
 6305TIP3    H118921   5.698   5.976   1.706
 6305TIP3    H218922   5.620   6.005   1.832
 6306TIP3   OH218923   3.729   5.322   0.354
 6306TIP3    H118924   3.786   5.388   0.314
 6306TIP3    H218925   3.783   5.244   0.361
 6307TIP3   OH218926   1.659   4.187   1.402
 6307TIP3    H118927   1.728   4.178   1.468
 6307TIP3    H218928   1.609   4.105   1.409
 6308TIP3   OH218929   0.819   1.871   4.119
 6308TIP3    H118930   0.810   1.834   4.032
 6308TIP3    H218931   0.807   1.796   4.178
 6309TIP3   OH218932   4.678   5.806   2.181
 6309TIP3    H118933   4.666   5.869   2.252
 6309TIP3    H218934   4.592   5.766   2.169
 6310TIP3   OH218935   3.163   3.452   0.560
 6310TIP3    H118936   3.238   3.464   0.619
 6310TIP3    H218937   3.176   3.365   0.522
 6311TIP3   OH218938   2.766   0.832   0.777
 6311TIP3    H118939   2.824   0.810   0.705
 6311TIP3    H218940   2.683   0.855   0.735
 6312TIP3   OH218941   3.501   5.956   2.059
 6312TIP3    H118942   3.465   5.905   1.986
 6312TIP3    H218943   3.596   5.950   2.048
 6313TIP3   OH218944   3.162   5.679   4.319
 6313TIP3    H118945   3.247   5.689   4.277
 6313TIP3    H218946   3.102   5.728   4.263
 6314TIP3   OH218947   4.470   0.749   1.560
 6314TIP3    H118948   4.412   0.819   1.592
 6314TIP3    H218949   4.416   0.670   1.564
 6315TIP3   OH218950   3.251   3.863   3.724
 6315TIP3    H118951   3.263   3.771   3.702
 6315TIP3    H218952   3.163   3.885   3.694
 6316TIP3   OH218953   0.039   2.673   0.282
 6316TIP3    H118954   0.134   2.683   0.282
 6316TIP3    H218955   0.023   2.586   0.319
 6317TIP3   OH218956   4.247   5.495   3.728
 6317TIP3    H118957   4.182   5.459   3.668
 6317TIP3    H218958   4.271   5.580   3.689
 6318TIP3   OH218959   6.317   5.166   3.056
 6318TIP3    H118960   6.381   5.198   2.992
 6318TIP3    H218961   6.296   5.243   3.109
 6319TIP3   OH218962   2.081   5.796   3.696
 6319TIP3    H118963   2.023   5.796   3.620
 6319TIP3    H218964   2.135   5.718   3.686
 6320TIP3   OH218965   0.603   3.194   1.855
 6320TIP3    H118966   0.687   3.147   1.857
 6320TIP3    H218967   0.600   3.234   1.769
 6321TIP3   OH218968   4.878   0.304   3.305
 6321TIP3    H118969   4.914   0.368   3.243
 6321TIP3    H218970   4.786   0.328   3.314
 6322TIP3   OH218971   4.662   5.828   2.804
 6322TIP3    H118972   4.755   5.803   2.804
 6322TIP3    H218973   4.657   5.901   2.742
 6323TIP3   OH218974   1.580   4.452   2.435
 6323TIP3    H118975   1.573   4.487   2.524
 6323TIP3    H218976   1.491   4.457   2.400
 6324TIP3   OH218977   5.216   2.149   4.309
 6324TIP3    H118978   5.211   2.172   4.401
 6324TIP3    H218979   5.191   2.228   4.262
 6325TIP3   OH218980   4.615   0.592   3.839
 6325TIP3    H118981   4.654   0.564   3.756
 6325TIP3    H218982   4.659   0.675   3.858
 6326TIP3   OH218983   0.244   1.516   3.358
 6326TIP3    H118984   0.325   1.467   3.377
 6326TIP3    H218985   0.268   1.607   3.372
 6327TIP3   OH218986   1.900   1.185   2.774
 6327TIP3    H118987   1.945   1.244   2.835
 6327TIP3    H218988   1.925   1.098   2.802
 6328TIP3   OH218989   5.032   3.244   0.966
 6328TIP3    H118990   5.028   3.149   0.961
 6328TIP3    H218991   5.100   3.269   0.903
 6329TIP3   OH218992   0.682   0.257   3.111
 6329TIP3    H118993   0.670   0.164   3.093
 6329TIP3    H218994   0.751   0.284   3.050
 6330TIP3   OH218995   1.878   0.974   1.725
 6330TIP3    H118996   1.822   0.963   1.648
 6330TIP3    H218997   1.841   1.049   1.772
 6331TIP3   OH218998   2.668   4.640   1.132
 6331TIP3    H118999   2.689   4.624   1.041
 6331TIP3    H219000   2.573   4.633   1.136
 6332TIP3   OH219001   3.703   4.197   4.258
 6332TIP3    H119002   3.665   4.145   4.329
 6332TIP3    H219003   3.776   4.244   4.298
 6333TIP3   OH219004   0.546   3.796   1.381
 6333TIP3    H119005   0.633   3.820   1.349
 6333TIP3    H219006   0.551   3.809   1.476
 6334TIP3   OH219007   1.320   2.110   2.541
 6334TIP3    H119008   1.274   2.148   2.616
 6334TIP3    H219009   1.408   2.091   2.573
 6335TIP3   OH219010   0.476   3.115   1.137
 6335TIP3    H119011   0.501   3.075   1.220
 6335TIP3    H219012   0.558   3.152   1.103
 6336TIP3   OH219013   0.390   3.927   4.598
 6336TIP3    H119014   0.317   3.954   4.542
 6336TIP3    H219015   0.461   3.985   4.573
 6337TIP3   OH219016   1.512   2.337   2.500
 6337TIP3    H119017   1.507   2.283   2.579
 6337TIP3    H219018   1.566   2.286   2.440
 6338TIP3   OH219019   5.629   0.191   1.242
 6338TIP3    H119020   5.629   0.098   1.261
 6338TIP3    H219021   5.597   0.197   1.152
 6339TIP3   OH219022   0.281   1.919   4.137
 6339TIP3    H119023   0.334   1.998   4.123
 6339TIP3    H219024   0.194   1.942   4.103
 6340TIP3   OH219025   5.551   5.492   1.873
 6340TIP3    H119026   5.571   5.429   1.803
 6340TIP3    H219027   5.609   5.566   1.855
 6341TIP3   OH219028   1.099   1.416   4.653
 6341TIP3    H119029   1.030   1.442   4.592
 6341TIP3    H219030   1.053   1.395   4.734
 6342TIP3   OH219031   1.674   3.041   2.862
 6342TIP3    H119032   1.619   3.105   2.908
 6342TIP3    H219033   1.623   3.017   2.785
 6343TIP3   OH219034   4.507   2.203   4.287
 6343TIP3    H119035   4.596   2.172   4.272
 6343TIP3    H219036   4.451   2.136   4.248
 6344TIP3   OH219037   1.105   4.346   3.653
 6344TIP3    H119038   1.016   4.313   3.639
 6344TIP3    H219039   1.121   4.404   3.578
 6345TIP3   OH219040   4.711   5.859   1.910
 6345TIP3    H119041   4.790   5.820   1.872
 6345TIP3    H219042   4.713   5.832   2.002
 6346TIP3   OH219043   5.389   5.523   1.472
 6346TIP3    H119044   5.415   5.540   1.562
 6346TIP3    H219045   5.326   5.592   1.451
 6347TIP3   OH219046   2.289   3.531   0.651
 6347TIP3    H119047   2.235   3.517   0.574
 6347TIP3    H219048   2.231   3.511   0.725
 6348TIP3   OH219049   0.097   5.373   1.033
 6348TIP3    H119050   0.116   5.433   0.961
 6348TIP3    H219051   0.120   5.423   1.112
 6349TIP3   OH219052   5.984   3.195   4.013
 6349TIP3    H119053   5.901   3.235   4.040
 6349TIP3    H219054   6.034   3.267   3.975
 6350TIP3   OH219055   0.657   0.856   3.759
 6350TIP3    H119056   0.585   0.872   3.698
 6350TIP3    H219057   0.653   0.763   3.779
 6351TIP3   OH219058   4.964   5.204   5.015
 6351TIP3    H119059   4.956   5.131   4.954
 6351TIP3    H219060   4.918   5.176   5.094
 6352TIP3   OH219061   0.102   0.848   0.866
 6352TIP3    H119062   0.100   0.939   0.838
 6352TIP3    H219063   0.079   0.850   0.959
 6353TIP3   OH219064   1.463   3.753   2.328
 6353TIP3    H119065   1.412   3.673   2.343
 6353TIP3    H219066   1.522   3.729   2.256
 6354TIP3   OH219067   3.366   0.349   4.042
 6354TIP3    H119068   3.406   0.422   3.995
 6354TIP3    H219069   3.348   0.284   3.974
 6355TIP3   OH219070   5.407   3.266   1.054
 6355TIP3    H119071   5.436   3.208   1.125
 6355TIP3    H219072   5.313   3.275   1.069
 6356TIP3   OH219073   0.789   0.375   0.042
 6356TIP3    H119074   0.836   0.327   0.109
 6356TIP3    H219075   0.842   0.366  -0.037
 6357TIP3   OH219076   6.126   5.133   5.005
 6357TIP3    H119077   6.121   5.173   5.092
 6357TIP3    H219078   6.062   5.062   5.008
 6358TIP3   OH219079   0.867   2.484   3.190
 6358TIP3    H119080   0.803   2.419   3.160
 6358TIP3    H219081   0.893   2.454   3.277
 6359TIP3   OH219082   0.045   0.881   5.146
 6359TIP3    H119083   0.068   0.800   5.193
 6359TIP3    H219084   0.095   0.875   5.065
 6360TIP3   OH219085   5.613   5.444   2.724
 6360TIP3    H119086   5.544   5.420   2.663
 6360TIP3    H219087   5.675   5.496   2.672
 6361TIP3   OH219088   3.824   5.632   1.678
 6361TIP3    H119089   3.907   5.588   1.663
 6361TIP3    H219090   3.821   5.647   1.773
 6362TIP3   OH219091   5.250   0.040   0.536
 6362TIP3    H119092   5.255   0.118   0.480
 6362TIP3    H219093   5.265   0.073   0.624
 6363TIP3   OH219094   5.462   4.886   3.171
 6363TIP3    H119095   5.514   4.808   3.152
 6363TIP3    H219096   5.415   4.865   3.252
 6364TIP3   OH219097   5.355   0.879   1.187
 6364TIP3    H119098   5.356   0.814   1.116
 6364TIP3    H219099   5.266   0.914   1.185
 6365TIP3   OH219100   4.625   4.007   1.625
 6365TIP3    H119101   4.574   4.046   1.554
 6365TIP3    H219102   4.667   4.082   1.668
 6366TIP3   OH219103   5.086   1.014   5.042
 6366TIP3    H119104   4.995   0.989   5.059
 6366TIP3    H219105   5.106   0.974   4.958
 6367TIP3   OH219106   3.824   2.202   2.030
 6367TIP3    H119107   3.804   2.112   2.056
 6367TIP3    H219108   3.775   2.256   2.091
 6368TIP3   OH219109   4.712   3.914   4.190
 6368TIP3    H119110   4.647   3.852   4.224
 6368TIP3    H219111   4.707   3.903   4.095
 6369TIP3   OH219112   2.235   3.938   1.337
 6369TIP3    H119113   2.291   3.868   1.369
 6369TIP3    H219114   2.276   4.019   1.369
 6370TIP3   OH219115   4.559   4.774   1.666
 6370TIP3    H119116   4.513   4.802   1.745
 6370TIP3    H219117   4.651   4.794   1.682
 6371TIP3   OH219118   4.103   2.780   0.780
 6371TIP3    H119119   4.148   2.718   0.723
 6371TIP3    H219120   4.053   2.836   0.721
 6372TIP3   OH219121   0.058   1.330   2.152
 6372TIP3    H119122   0.085   1.248   2.194
 6372TIP3    H219123   0.103   1.398   2.203
 6373TIP3   OH219124   6.242   4.114   5.191
 6373TIP3    H119125   6.253   4.042   5.129
 6373TIP3    H219126   6.322   4.166   5.183
 6374TIP3   OH219127   1.349   3.346   5.166
 6374TIP3    H119128   1.418   3.413   5.162
 6374TIP3    H219129   1.316   3.340   5.076
 6375TIP3   OH219130   4.470   0.356   1.428
 6375TIP3    H119131   4.455   0.333   1.520
 6375TIP3    H219132   4.563   0.379   1.423
 6376TIP3   OH219133   1.836   3.240   0.524
 6376TIP3    H119134   1.748   3.238   0.562
 6376TIP3    H219135   1.893   3.266   0.596
 6377TIP3   OH219136   3.269   0.650   0.951
 6377TIP3    H119137   3.335   0.719   0.952
 6377TIP3    H219138   3.186   0.696   0.956
 6378TIP3   OH219139   3.807   5.816   3.905
 6378TIP3    H119140   3.715   5.792   3.893
 6378TIP3    H219141   3.853   5.732   3.908
 6379TIP3   OH219142   2.275   3.529   4.905
 6379TIP3    H119143   2.245   3.469   4.837
 6379TIP3    H219144   2.352   3.487   4.943
 6380TIP3   OH219145   6.230   5.926   4.449
 6380TIP3    H119146   6.230   5.962   4.360
 6380TIP3    H219147   6.248   6.001   4.506
 6381TIP3   OH219148   5.717   3.737   3.512
 6381TIP3    H119149   5.712   3.655   3.560
 6381TIP3    H219150   5.677   3.802   3.571
 6382TIP3   OH219151   0.044   5.592   5.105
 6382TIP3    H119152   0.087   5.536   5.040
 6382TIP3    H219153   0.115   5.642   5.145
 6383TIP3   OH219154   1.720   3.599   0.087
 6383TIP3    H119155   1.678   3.614   0.002
 6383TIP3    H219156   1.706   3.680   0.136
 6384TIP3   OH219157   3.875   5.975   2.912
 6384TIP3    H119158   3.904   5.958   2.823
 6384TIP3    H219159   3.943   5.937   2.968
 6385TIP3   OH219160   3.316   2.057   3.179
 6385TIP3    H119161   3.377   2.006   3.125
 6385TIP3    H219162   3.346   2.043   3.268
 6386TIP3   OH219163   4.712   5.309   3.351
 6386TIP3    H119164   4.649   5.267   3.409
 6386TIP3    H219165   4.660   5.344   3.279
 6387TIP3   OH219166   3.459   3.035   1.932
 6387TIP3    H119167   3.468   2.954   1.982
 6387TIP3    H219168   3.407   3.011   1.855
 6388TIP3   OH219169   4.460   3.578   2.837
 6388TIP3    H119170   4.539   3.524   2.845
 6388TIP3    H219171   4.491   3.661   2.802
 6389TIP3   OH219172   4.343   4.748   1.043
 6389TIP3    H119173   4.268   4.732   0.986
 6389TIP3    H219174   4.383   4.662   1.055
 6390TIP3   OH219175   2.769   3.178   2.166
 6390TIP3    H119176   2.858   3.148   2.183
 6390TIP3    H219177   2.778   3.249   2.103
 6391TIP3   OH219178   3.352   2.459   0.699
 6391TIP3    H119179   3.376   2.366   0.702
 6391TIP3    H219180   3.342   2.478   0.606
 6392TIP3   OH219181   2.875   0.818   1.838
 6392TIP3    H119182   2.832   0.783   1.761
 6392TIP3    H219183   2.804   0.835   1.900
 6393TIP3   OH219184   5.197   0.739   1.818
 6393TIP3    H119185   5.264   0.799   1.786
 6393TIP3    H219186   5.114   0.779   1.792
 6394TIP3   OH219187   3.546   3.354   2.768
 6394TIP3    H119188   3.575   3.266   2.789
 6394TIP3    H219189   3.569   3.367   2.676
 6395TIP3   OH219190   3.446   0.622   2.212
 6395TIP3    H119191   3.413   0.571   2.138
 6395TIP3    H219192   3.398   0.587   2.288
 6396TIP3   OH219193   5.027   0.638   3.425
 6396TIP3    H119194   5.068   0.725   3.425
 6396TIP3    H219195   4.934   0.656   3.435
 6397TIP3   OH219196   5.950   5.284   0.152
 6397TIP3    H119197   5.919   5.274   0.062
 6397TIP3    H219198   6.045   5.272   0.146
 6398TIP3   OH219199   4.887   5.441   5.146
 6398TIP3    H119200   4.942   5.434   5.224
 6398TIP3    H219201   4.926   5.379   5.084
 6399TIP3   OH219202   4.326   0.242   1.732
 6399TIP3    H119203   4.282   0.320   1.698
 6399TIP3    H219204   4.281   0.224   1.815
 6400TIP3   OH219205   0.760   5.161   2.941
 6400TIP3    H119206   0.677   5.128   2.977
 6400TIP3    H219207   0.733   5.213   2.865
 6401TIP3   OH219208   2.177   3.128   0.427
 6401TIP3    H119209   2.200   3.167   0.511
 6401TIP3    H219210   2.250   3.153   0.369
 6402TIP3   OH219211   1.630   4.365   3.345
 6402TIP3    H119212   1.667   4.432   3.403
 6402TIP3    H219213   1.540   4.354   3.377
 6403TIP3   OH219214   1.447   3.017   2.671
 6403TIP3    H119215   1.456   3.010   2.576
 6403TIP3    H219216   1.356   3.045   2.684
 6404TIP3   OH219217   3.948   4.062   1.733
 6404TIP3    H119218   3.972   4.019   1.651
 6404TIP3    H219219   3.910   4.146   1.707
 6405TIP3   OH219220   3.453   3.587   2.518
 6405TIP3    H119221   3.395   3.628   2.454
 6405TIP3    H219222   3.394   3.552   2.584
 6406TIP3   OH219223   1.228   2.800   1.919
 6406TIP3    H119224   1.172   2.811   1.995
 6406TIP3    H219225   1.269   2.714   1.932
 6407TIP3   OH219226   3.541   3.277   4.038
 6407TIP3    H119227   3.492   3.342   3.987
 6407TIP3    H219228   3.590   3.227   3.973
 6408TIP3   OH219229   2.946   3.208   0.483
 6408TIP3    H119230   3.005   3.181   0.554
 6408TIP3    H219231   2.970   3.152   0.409
 6409TIP3   OH219232   5.434   5.201   4.628
 6409TIP3    H119233   5.380   5.274   4.659
 6409TIP3    H219234   5.451   5.149   4.706
 6410TIP3   OH219235   4.762   5.319   1.092
 6410TIP3    H119236   4.858   5.312   1.090
 6410TIP3    H219237   4.735   5.294   1.003
 6411TIP3   OH219238   1.851   1.270   3.829
 6411TIP3    H119239   1.798   1.253   3.751
 6411TIP3    H219240   1.919   1.203   3.827
 6412TIP3   OH219241   4.879   4.900   0.078
 6412TIP3    H119242   4.858   4.977   0.132
 6412TIP3    H219243   4.837   4.917  -0.006
 6413TIP3   OH219244   0.981   4.344   4.380
 6413TIP3    H119245   1.038   4.368   4.307
 6413TIP3    H219246   0.915   4.287   4.342
 6414TIP3   OH219247   0.399   1.651   0.956
 6414TIP3    H119248   0.462   1.700   0.902
 6414TIP3    H219249   0.436   1.563   0.962
 6415TIP3   OH219250   0.838   3.276   5.032
 6415TIP3    H119251   0.762   3.282   5.089
 6415TIP3    H219252   0.837   3.357   4.981
 6416TIP3   OH219253   3.162   2.651   1.132
 6416TIP3    H119254   3.198   2.605   1.208
 6416TIP3    H219255   3.238   2.695   1.092
 6417TIP3   OH219256   6.143   5.753   2.708
 6417TIP3    H119257   6.049   5.767   2.698
 6417TIP3    H219258   6.180   5.840   2.725
 6418TIP3   OH219259   6.109   4.559   2.851
 6418TIP3    H119260   6.077   4.528   2.766
 6418TIP3    H219261   6.146   4.480   2.892
 6419TIP3   OH219262   1.246   5.135   0.891
 6419TIP3    H119263   1.251   5.040   0.895
 6419TIP3    H219264   1.334   5.165   0.915
 6420TIP3   OH219265   3.279   0.490   2.797
 6420TIP3    H119266   3.300   0.444   2.878
 6420TIP3    H219267   3.262   0.421   2.733
 6421TIP3   OH219268   1.131   2.734   3.939
 6421TIP3    H119269   1.078   2.728   3.859
 6421TIP3    H219270   1.097   2.664   3.995
 6422TIP3   OH219271   2.792   3.412   3.054
 6422TIP3    H119272   2.786   3.445   2.964
 6422TIP3    H219273   2.885   3.396   3.068
 6423TIP3   OH219274   4.487   0.799   2.643
 6423TIP3    H119275   4.579   0.823   2.658
 6423TIP3    H219276   4.488   0.704   2.633
 6424TIP3   OH219277   5.625   1.742   3.311
 6424TIP3    H119278   5.615   1.767   3.403
 6424TIP3    H219279   5.611   1.824   3.263
 6425TIP3   OH219280   3.351   3.151   5.067
 6425TIP3    H119281   3.360   3.058   5.048
 6425TIP3    H219282   3.350   3.156   5.163
 6426TIP3   OH219283   0.536   5.335   2.165
 6426TIP3    H119284   0.602   5.325   2.234
 6426TIP3    H219285   0.517   5.429   2.164
 6427TIP3   OH219286   3.737   3.356   0.478
 6427TIP3    H119287   3.814   3.403   0.449
 6427TIP3    H219288   3.667   3.384   0.419
 6428TIP3   OH219289   6.323   3.456   4.028
 6428TIP3    H119290   6.405   3.501   4.006
 6428TIP3    H219291   6.304   3.483   4.118
 6429TIP3   OH219292   3.222   1.424   1.055
 6429TIP3    H119293   3.187   1.513   1.043
 6429TIP3    H219294   3.223   1.413   1.150
 6430TIP3   OH219295   1.581   3.381   0.214
 6430TIP3    H119296   1.582   3.477   0.216
 6430TIP3    H219297   1.671   3.355   0.236
 6431TIP3   OH219298   5.555   3.233   2.512
 6431TIP3    H119299   5.575   3.284   2.433
 6431TIP3    H219300   5.499   3.291   2.564
 6432TIP3   OH219301   4.088   4.627   0.129
 6432TIP3    H119302   4.038   4.554   0.094
 6432TIP3    H219303   4.142   4.589   0.198
 6433TIP3   OH219304   3.681   1.516   4.259
 6433TIP3    H119305   3.603   1.565   4.283
 6433TIP3    H219306   3.698   1.540   4.168
 6434TIP3   OH219307   4.354   4.094   2.898
 6434TIP3    H119308   4.378   4.081   2.989
 6434TIP3    H219309   4.303   4.017   2.875
 6435TIP3   OH219310   0.243   2.854   5.089
 6435TIP3    H119311   0.290   2.776   5.117
 6435TIP3    H219312   0.197   2.884   5.168
 6436TIP3   OH219313   5.771   5.378   4.541
 6436TIP3    H119314   5.688   5.339   4.568
 6436TIP3    H219315   5.801   5.427   4.618
 6437TIP3   OH219316   5.384   5.044   2.961
 6437TIP3    H119317   5.382   5.137   2.983
 6437TIP3    H219318   5.421   5.002   3.039
 6438TIP3   OH219319   1.746   0.335   0.445
 6438TIP3    H119320   1.659   0.364   0.418
 6438TIP3    H219321   1.744   0.335   0.540
 6439TIP3   OH219322   5.233   4.765   2.996
 6439TIP3    H119323   5.304   4.825   2.974
 6439TIP3    H219324   5.276   4.684   3.022
 6440TIP3   OH219325   4.096   0.832   1.970
 6440TIP3    H119326   4.153   0.857   2.043
 6440TIP3    H219327   4.007   0.848   2.002
 6441TIP3   OH219328   4.148   3.032   4.791
 6441TIP3    H119329   4.111   2.980   4.720
 6441TIP3    H219330   4.073   3.077   4.830
 6442TIP3   OH219331   2.186   5.930   0.527
 6442TIP3    H119332   2.135   5.876   0.588
 6442TIP3    H219333   2.269   5.884   0.517
 6443TIP3   OH219334   2.272   3.109   2.030
 6443TIP3    H119335   2.284   3.193   1.985
 6443TIP3    H219336   2.279   3.044   1.961
 6444TIP3   OH219337   3.652   4.452   3.137
 6444TIP3    H119338   3.705   4.420   3.064
 6444TIP3    H219339   3.716   4.484   3.201
 6445TIP3   OH219340   3.744   5.447   4.059
 6445TIP3    H119341   3.795   5.476   4.135
 6445TIP3    H219342   3.792   5.481   3.984
 6446TIP3   OH219343   2.290   4.761   1.826
 6446TIP3    H119344   2.247   4.817   1.761
 6446TIP3    H219345   2.221   4.739   1.888
 6447TIP3   OH219346   1.346   0.727   2.796
 6447TIP3    H119347   1.441   0.735   2.809
 6447TIP3    H219348   1.311   0.707   2.882
 6448TIP3   OH219349   4.550   0.491   0.352
 6448TIP3    H119350   4.491   0.453   0.286
 6448TIP3    H219351   4.637   0.463   0.325
 6449TIP3   OH219352   0.727   2.056   1.305
 6449TIP3    H119353   0.707   2.048   1.399
 6449TIP3    H219354   0.653   2.014   1.262
 6450TIP3   OH219355   2.990   1.904   2.189
 6450TIP3    H119356   3.080   1.938   2.188
 6450TIP3    H219357   2.949   1.944   2.113
 6451TIP3   OH219358   2.732   3.686   2.519
 6451TIP3    H119359   2.733   3.591   2.513
 6451TIP3    H219360   2.730   3.705   2.613
 6452TIP3   OH219361   3.018   4.343   3.488
 6452TIP3    H119362   2.976   4.407   3.430
 6452TIP3    H219363   2.947   4.307   3.540
 6453TIP3   OH219364   5.571   4.454   4.907
 6453TIP3    H119365   5.649   4.491   4.866
 6453TIP3    H219366   5.498   4.491   4.858
 6454TIP3   OH219367   5.327   1.376   3.001
 6454TIP3    H119368   5.294   1.294   3.037
 6454TIP3    H219369   5.375   1.350   2.922
 6455TIP3   OH219370   0.612   4.457   2.010
 6455TIP3    H119371   0.654   4.500   2.084
 6455TIP3    H219372   0.684   4.418   1.960
 6456TIP3   OH219373   3.925   3.140   4.891
 6456TIP3    H119374   3.856   3.135   4.825
 6456TIP3    H219375   3.916   3.226   4.930
 6457TIP3   OH219376   5.869   1.123   3.119
 6457TIP3    H119377   5.830   1.114   3.032
 6457TIP3    H219378   5.953   1.166   3.103
 6458TIP3   OH219379   2.933   0.638   2.241
 6458TIP3    H119380   2.870   0.696   2.283
 6458TIP3    H219381   3.001   0.697   2.207
 6459TIP3   OH219382   2.397   1.495   4.419
 6459TIP3    H119383   2.376   1.453   4.336
 6459TIP3    H219384   2.441   1.427   4.470
 6460TIP3   OH219385   2.484   5.426   2.533
 6460TIP3    H119386   2.442   5.378   2.604
 6460TIP3    H219387   2.457   5.380   2.453
 6461TIP3   OH219388   3.460   3.803   3.294
 6461TIP3    H119389   3.390   3.855   3.332
 6461TIP3    H219390   3.538   3.828   3.343
 6462TIP3   OH219391   0.581   0.754   2.755
 6462TIP3    H119392   0.568   0.679   2.813
 6462TIP3    H219393   0.644   0.810   2.802
 6463TIP3   OH219394   4.386   4.886   2.588
 6463TIP3    H119395   4.380   4.951   2.517
 6463TIP3    H219396   4.320   4.914   2.652
 6464TIP3   OH219397   2.401   0.534   4.318
 6464TIP3    H119398   2.318   0.564   4.355
 6464TIP3    H219399   2.425   0.602   4.255
 6465TIP3   OH219400   3.027   0.267   2.927
 6465TIP3    H119401   3.109   0.292   2.969
 6465TIP3    H219402   2.960   0.317   2.975
 6466TIP3   OH219403   0.243   3.831   3.962
 6466TIP3    H119404   0.312   3.836   3.895
 6466TIP3    H219405   0.247   3.741   3.993
 6467TIP3   OH219406   0.459   4.659   1.726
 6467TIP3    H119407   0.440   4.748   1.756
 6467TIP3    H219408   0.527   4.670   1.660
 6468TIP3   OH219409   4.286   0.963   0.601
 6468TIP3    H119410   4.281   0.953   0.696
 6468TIP3    H219411   4.314   0.876   0.570
 6469TIP3   OH219412   2.788   2.411   2.302
 6469TIP3    H119413   2.826   2.423   2.215
 6469TIP3    H219414   2.863   2.389   2.357
 6470TIP3   OH219415   1.850   3.295   3.332
 6470TIP3    H119416   1.847   3.223   3.269
 6470TIP3    H219417   1.834   3.373   3.279
 6471TIP3   OH219418   4.729   4.212   0.543
 6471TIP3    H119419   4.757   4.294   0.583
 6471TIP3    H219420   4.778   4.208   0.461
 6472TIP3   OH219421   4.922   0.956   0.462
 6472TIP3    H119422   4.841   0.987   0.502
 6472TIP3    H219423   4.985   1.026   0.479
 6473TIP3   OH219424   5.649   4.128   3.893
 6473TIP3    H119425   5.554   4.131   3.905
 6473TIP3    H219426   5.671   4.211   3.850
 6474TIP3   OH219427   3.933   5.162   3.862
 6474TIP3    H119428   3.967   5.226   3.925
 6474TIP3    H219429   4.001   5.094   3.857
 6475TIP3   OH219430   0.465   1.333   3.731
 6475TIP3    H119431   0.419   1.415   3.712
 6475TIP3    H219432   0.510   1.350   3.813
 6476TIP3   OH219433   6.023   1.459   1.728
 6476TIP3    H119434   6.053   1.393   1.791
 6476TIP3    H219435   6.054   1.427   1.643
 6477TIP3   OH219436   1.516   0.570   3.048
 6477TIP3    H119437   1.545   0.638   2.988
 6477TIP3    H219438   1.435   0.536   3.009
 6478TIP3   OH219439   1.630   3.827   1.132
 6478TIP3    H119440   1.597   3.743   1.101
 6478TIP3    H219441   1.725   3.818   1.132
 6479TIP3   OH219442   1.703   5.094   2.312
 6479TIP3    H119443   1.774   5.030   2.318
 6479TIP3    H219444   1.634   5.049   2.263
 6480TIP3   OH219445   4.481   3.785   4.243
 6480TIP3    H119446   4.445   3.697   4.252
 6480TIP3    H219447   4.448   3.832   4.319
 6481TIP3   OH219448   1.237   4.640   4.863
 6481TIP3    H119449   1.263   4.578   4.795
 6481TIP3    H219450   1.300   4.712   4.856
 6482TIP3   OH219451   1.141   3.962   4.882
 6482TIP3    H119452   1.125   3.930   4.971
 6482TIP3    H219453   1.053   3.980   4.848
 6483TIP3   OH219454   3.609   5.884   1.678
 6483TIP3    H119455   3.570   5.937   1.608
 6483TIP3    H219456   3.554   5.807   1.683
 6484TIP3   OH219457   5.864   0.338   0.441
 6484TIP3    H119458   5.785   0.284   0.433
 6484TIP3    H219459   5.836   0.415   0.490
 6485TIP3   OH219460   5.629   3.559  -0.019
 6485TIP3    H119461   5.690   3.490  -0.044
 6485TIP3    H219462   5.648   3.576   0.073
 6486TIP3   OH219463   3.620   0.116   0.533
 6486TIP3    H119464   3.576   0.118   0.618
 6486TIP3    H219465   3.548   0.123   0.469
 6487TIP3   OH219466   4.722   3.166   2.473
 6487TIP3    H119467   4.720   3.194   2.564
 6487TIP3    H219468   4.687   3.240   2.424
 6488TIP3   OH219469   0.576   0.189   0.435
 6488TIP3    H119470   0.571   0.160   0.344
 6488TIP3    H219471   0.668   0.176   0.460
 6489TIP3   OH219472   3.974   2.935   3.191
 6489TIP3    H119473   4.068   2.941   3.204
 6489TIP3    H219474   3.963   2.944   3.096
 6490TIP3   OH219475   3.298   4.605   2.192
 6490TIP3    H119476   3.269   4.696   2.194
 6490TIP3    H219477   3.218   4.554   2.200
 6491TIP3   OH219478   4.949   1.686   3.628
 6491TIP3    H119479   4.865   1.697   3.671
 6491TIP3    H219480   4.945   1.743   3.551
 6492TIP3   OH219481   2.375   3.471   4.231
 6492TIP3    H119482   2.295   3.473   4.284
 6492TIP3    H219483   2.426   3.398   4.267
 6493TIP3   OH219484   2.274   4.166   2.322
 6493TIP3    H119485   2.234   4.092   2.368
 6493TIP3    H219486   2.277   4.236   2.387
 6494TIP3   OH219487   3.274   5.776   2.321
 6494TIP3    H119488   3.305   5.846   2.264
 6494TIP3    H219489   3.185   5.758   2.292
 6495TIP3   OH219490   5.864   1.985   0.474
 6495TIP3    H119491   5.904   2.072   0.471
 6495TIP3    H219492   5.827   1.978   0.562
 6496TIP3   OH219493   3.235   0.439   5.120
 6496TIP3    H119494   3.164   0.474   5.066
 6496TIP3    H219495   3.196   0.432   5.207
 6497TIP3   OH219496   0.244   1.724   2.650
 6497TIP3    H119497   0.245   1.630   2.631
 6497TIP3    H219498   0.184   1.762   2.586
 6498TIP3   OH219499   4.902   5.549   3.459
 6498TIP3    H119500   4.835   5.538   3.527
 6498TIP3    H219501   4.855   5.531   3.377
 6499TIP3   OH219502   0.379   3.352   0.502
 6499TIP3    H119503   0.356   3.359   0.595
 6499TIP3    H219504   0.311   3.401   0.457
 6500TIP3   OH219505   5.274   4.031   3.263
 6500TIP3    H119506   5.275   4.010   3.170
 6500TIP3    H219507   5.244   3.950   3.305
 6501TIP3   OH219508   3.965   5.140   2.785
 6501TIP3    H119509   3.919   5.177   2.710
 6501TIP3    H219510   4.022   5.211   2.815
 6502TIP3   OH219511   0.392   4.315   3.735
 6502TIP3    H119512   0.418   4.225   3.715
 6502TIP3    H219513   0.434   4.333   3.819
 6503TIP3   OH219514   2.076   2.440   0.735
 6503TIP3    H119515   2.128   2.517   0.759
 6503TIP3    H219516   2.002   2.441   0.796
 6504TIP3   OH219517   0.726   4.306   1.159
 6504TIP3    H119518   0.682   4.247   1.221
 6504TIP3    H219519   0.777   4.365   1.215
 6505TIP3   OH219520   5.471   1.682   0.110
 6505TIP3    H119521   5.426   1.635   0.180
 6505TIP3    H219522   5.558   1.698   0.144
 6506TIP3   OH219523   4.845   2.728   0.349
 6506TIP3    H119524   4.827   2.809   0.301
 6506TIP3    H219525   4.940   2.718   0.343
 6507TIP3   OH219526   5.681   4.776   4.534
 6507TIP3    H119527   5.606   4.793   4.476
 6507TIP3    H219528   5.744   4.845   4.512
 6508TIP3   OH219529   3.150   1.732   4.776
 6508TIP3    H119530   3.094   1.654   4.775
 6508TIP3    H219531   3.180   1.738   4.867
 6509TIP3   OH219532   0.944   1.492   4.466
 6509TIP3    H119533   0.873   1.429   4.458
 6509TIP3    H219534   0.900   1.577   4.464
 6510TIP3   OH219535   5.945   0.396   0.170
 6510TIP3    H119536   5.974   0.306   0.153
 6510TIP3    H219537   5.893   0.389   0.250
 6511TIP3   OH219538   2.664   2.008   1.778
 6511TIP3    H119539   2.738   1.977   1.727
 6511TIP3    H219540   2.649   1.939   1.843
 6512TIP3   OH219541   1.987   3.371   0.716
 6512TIP3    H119542   1.929   3.430   0.668
 6512TIP3    H219543   2.000   3.414   0.801
 6513TIP3   OH219544   2.756   4.865   2.861
 6513TIP3    H119545   2.709   4.817   2.792
 6513TIP3    H219546   2.763   4.955   2.827
 6514TIP3   OH219547   1.649   5.574   1.663
 6514TIP3    H119548   1.714   5.615   1.720
 6514TIP3    H219549   1.647   5.630   1.585
 6515TIP3   OH219550   3.402   5.083   2.613
 6515TIP3    H119551   3.472   5.138   2.579
 6515TIP3    H219552   3.443   5.029   2.680
 6516TIP3   OH219553   2.792   4.920   4.333
 6516TIP3    H119554   2.805   4.885   4.421
 6516TIP3    H219555   2.756   5.007   4.347
 6517TIP3   OH219556   3.489   4.244   1.691
 6517TIP3    H119557   3.425   4.310   1.719
 6517TIP3    H219558   3.495   4.183   1.765
 6518TIP3   OH219559   5.107   4.724   1.857
 6518TIP3    H119560   5.077   4.758   1.772
 6518TIP3    H219561   5.033   4.675   1.891
 6519TIP3   OH219562   5.965   2.222   1.390
 6519TIP3    H119563   6.012   2.140   1.374
 6519TIP3    H219564   5.902   2.227   1.318
 6520TIP3   OH219565   3.159   2.484   4.585
 6520TIP3    H119566   3.069   2.513   4.570
 6520TIP3    H219567   3.161   2.395   4.550
 6521TIP3   OH219568   0.073   4.631   5.084
 6521TIP3    H119569   0.071   4.603   5.175
 6521TIP3    H219570   0.130   4.567   5.041
 6522TIP3   OH219571   4.413   2.587   0.229
 6522TIP3    H119572   4.438   2.514   0.286
 6522TIP3    H219573   4.490   2.644   0.229
 6523TIP3   OH219574   2.596   5.494   3.918
 6523TIP3    H119575   2.658   5.509   3.990
 6523TIP3    H219576   2.534   5.566   3.926
 6524TIP3   OH219577   2.818   1.293   1.202
 6524TIP3    H119578   2.848   1.366   1.255
 6524TIP3    H219579   2.872   1.297   1.123
 6525TIP3   OH219580   1.477   4.891   1.285
 6525TIP3    H119581   1.529   4.963   1.250
 6525TIP3    H219582   1.525   4.812   1.258
 6526TIP3   OH219583   3.671   0.600   3.014
 6526TIP3    H119584   3.631   0.687   3.019
 6526TIP3    H219585   3.674   0.581   2.920
 6527TIP3   OH219586   1.963   3.456   3.959
 6527TIP3    H119587   1.961   3.545   3.924
 6527TIP3    H219588   2.055   3.429   3.951
 6528TIP3   OH219589   0.903   3.597   0.634
 6528TIP3    H119590   0.956   3.519   0.616
 6528TIP3    H219591   0.963   3.670   0.620
 6529TIP3   OH219592   5.665   2.620   0.840
 6529TIP3    H119593   5.643   2.574   0.759
 6529TIP3    H219594   5.635   2.710   0.826
 6530TIP3   OH219595   5.818   3.298   5.037
 6530TIP3    H119596   5.800   3.244   4.959
 6530TIP3    H219597   5.913   3.312   5.034
 6531TIP3   OH219598   2.877   1.446   3.135
 6531TIP3    H119599   2.847   1.516   3.076
 6531TIP3    H219600   2.916   1.381   3.077
 6532TIP3   OH219601   4.099   0.349   5.188
 6532TIP3    H119602   4.172   0.289   5.205
 6532TIP3    H219603   4.135   0.414   5.127
 6533TIP3   OH219604   1.023   4.347   0.247
 6533TIP3    H119605   1.104   4.336   0.198
 6533TIP3    H219606   1.050   4.347   0.339
 6534TIP3   OH219607   0.644   2.017   2.617
 6534TIP3    H119608   0.679   1.980   2.698
 6534TIP3    H219609   0.615   2.105   2.642
 6535TIP3   OH219610   5.889   4.883   3.664
 6535TIP3    H119611   5.910   4.941   3.591
 6535TIP3    H219612   5.903   4.795   3.629
 6536TIP3   OH219613   0.230   4.266   4.272
 6536TIP3    H119614   0.169   4.338   4.258
 6536TIP3    H219615   0.224   4.212   4.193
 6537TIP3   OH219616   0.888   2.773   3.043
 6537TIP3    H119617   0.914   2.769   2.951
 6537TIP3    H219618   0.898   2.684   3.075
 6538TIP3   OH219619   5.096   0.943   1.447
 6538TIP3    H119620   5.134   0.993   1.520
 6538TIP3    H219621   5.135   0.981   1.369
 6539TIP3   OH219622   2.537   3.185   1.824
 6539TIP3    H119623   2.445   3.210   1.824
 6539TIP3    H219624   2.583   3.259   1.862
 6540TIP3   OH219625   5.704   0.940   2.613
 6540TIP3    H119626   5.614   0.910   2.630
 6540TIP3    H219627   5.712   0.936   2.518
 6541TIP3   OH219628   2.956   2.732   2.438
 6541TIP3    H119629   3.002   2.688   2.366
 6541TIP3    H219630   3.019   2.795   2.472
 6542TIP3   OH219631   5.906   5.151   3.505
 6542TIP3    H119632   5.865   5.238   3.507
 6542TIP3    H219633   5.846   5.099   3.451
 6543TIP3   OH219634   6.211   1.400   2.018
 6543TIP3    H119635   6.178   1.329   1.963
 6543TIP3    H219636   6.289   1.363   2.060
 6544TIP3   OH219637   1.929   0.854   2.607
 6544TIP3    H119638   1.864   0.845   2.677
 6544TIP3    H219639   1.878   0.869   2.528
 6545TIP3   OH219640   4.980   4.330   3.847
 6545TIP3    H119641   4.934   4.381   3.780
 6545TIP3    H219642   4.915   4.319   3.917
 6546TIP3   OH219643   5.252   4.489   3.113
 6546TIP3    H119644   5.272   4.441   3.032
 6546TIP3    H219645   5.166   4.457   3.139
 6547TIP3   OH219646   0.070   2.041   0.487
 6547TIP3    H119647   0.133   2.107   0.459
 6547TIP3    H219648   0.084   2.034   0.581
 6548TIP3   OH219649   1.019   2.873   0.343
 6548TIP3    H119650   1.014   2.948   0.284
 6548TIP3    H219651   1.076   2.902   0.414
 6549TIP3   OH219652   3.776   5.658   2.729
 6549TIP3    H119653   3.871   5.664   2.732
 6549TIP3    H219654   3.758   5.564   2.727
 6550TIP3   OH219655   0.814   3.808   2.724
 6550TIP3    H119656   0.909   3.810   2.737
 6550TIP3    H219657   0.797   3.876   2.659
 6551TIP3   OH219658   0.553   2.923   0.694
 6551TIP3    H119659   0.536   2.847   0.639
 6551TIP3    H219660   0.509   2.995   0.649
 6552TIP3   OH219661   2.754   5.113   0.972
 6552TIP3    H119662   2.796   5.186   1.017
 6552TIP3    H219663   2.710   5.064   1.041
 6553TIP3   OH219664   6.027   0.676   2.216
 6553TIP3    H119665   6.036   0.770   2.232
 6553TIP3    H219666   5.947   0.651   2.261
 6554TIP3   OH219667   3.255   2.600   5.205
 6554TIP3    H119668   3.192   2.534   5.234
 6554TIP3    H219669   3.268   2.582   5.112
 6555TIP3   OH219670   1.032   3.520   2.693
 6555TIP3    H119671   1.086   3.441   2.692
 6555TIP3    H219672   0.944   3.488   2.716
 6556TIP3   OH219673   4.600   2.955   1.606
 6556TIP3    H119674   4.589   2.946   1.700
 6556TIP3    H219675   4.693   2.977   1.595
 6557TIP3   OH219676   5.997   2.138   2.399
 6557TIP3    H119677   5.979   2.232   2.399
 6557TIP3    H219678   5.911   2.097   2.404
 6558TIP3   OH219679   4.865   5.341   4.370
 6558TIP3    H119680   4.955   5.312   4.357
 6558TIP3    H219681   4.826   5.274   4.426
 6559TIP3   OH219682   6.185   0.288   2.112
 6559TIP3    H119683   6.196   0.260   2.203
 6559TIP3    H219684   6.120   0.228   2.076
 6560TIP3   OH219685   4.635   1.986   2.681
 6560TIP3    H119686   4.630   2.078   2.707
 6560TIP3    H219687   4.624   1.986   2.586
 6561TIP3   OH219688   5.667   2.342   1.028
 6561TIP3    H119689   5.621   2.418   1.066
 6561TIP3    H219690   5.686   2.286   1.103
 6562TIP3   OH219691   3.018   2.693   3.616
 6562TIP3    H119692   3.109   2.680   3.643
 6562TIP3    H219693   2.976   2.608   3.631
 6563TIP3   OH219694   2.121   0.088   3.389
 6563TIP3    H119695   2.104   0.178   3.416
 6563TIP3    H219696   2.048   0.066   3.331
 6564TIP3   OH219697   0.982   5.070   3.997
 6564TIP3    H119698   1.005   5.149   4.045
 6564TIP3    H219699   1.066   5.025   3.985
 6565TIP3   OH219700   5.689   0.644   3.571
 6565TIP3    H119701   5.672   0.551   3.558
 6565TIP3    H219702   5.741   0.649   3.651
 6566TIP3   OH219703   6.045   4.335   3.807
 6566TIP3    H119704   6.052   4.279   3.884
 6566TIP3    H219705   6.112   4.403   3.820
 6567TIP3   OH219706   3.016   1.694   2.653
 6567TIP3    H119707   2.925   1.720   2.637
 6567TIP3    H219708   3.058   1.700   2.567
 6568TIP3   OH219709   0.968   0.701   1.540
 6568TIP3    H119710   0.904   0.728   1.474
 6568TIP3    H219711   1.023   0.777   1.552
 6569TIP3   OH219712   0.125   2.303   0.337
 6569TIP3    H119713   0.190   2.237   0.310
 6569TIP3    H219714   0.177   2.371   0.380
 6570TIP3   OH219715   2.996   0.016   3.250
 6570TIP3    H119716   3.028  -0.009   3.337
 6570TIP3    H219717   2.919  -0.039   3.236
 6571TIP3   OH219718   4.200   4.450   1.322
 6571TIP3    H119719   4.170   4.362   1.343
 6571TIP3    H219720   4.262   4.438   1.250
 6572TIP3   OH219721   0.674   1.913   2.878
 6572TIP3    H119722   0.607   1.861   2.920
 6572TIP3    H219723   0.702   1.976   2.945
 6573TIP3   OH219724   5.209   0.736   2.662
 6573TIP3    H119725   5.190   0.690   2.580
 6573TIP3    H219726   5.221   0.667   2.727
 6574TIP3   OH219727   2.338   2.574   2.986
 6574TIP3    H119728   2.392   2.612   2.917
 6574TIP3    H219729   2.319   2.485   2.955
 6575TIP3   OH219730   1.460   1.909   4.305
 6575TIP3    H119731   1.507   1.989   4.287
 6575TIP3    H219732   1.462   1.860   4.223
 6576TIP3   OH219733   3.459   0.754   1.248
 6576TIP3    H119734   3.400   0.808   1.196
 6576TIP3    H219735   3.418   0.667   1.248
 6577TIP3   OH219736   1.533   4.385   0.770
 6577TIP3    H119737   1.496   4.307   0.809
 6577TIP3    H219738   1.604   4.410   0.829
 6578TIP3   OH219739   2.061   4.856   1.453
 6578TIP3    H119740   2.085   4.928   1.395
 6578TIP3    H219741   2.145   4.820   1.483
 6579TIP3   OH219742   4.665   1.320   0.526
 6579TIP3    H119743   4.591   1.380   0.535
 6579TIP3    H219744   4.636   1.241   0.571
 6580TIP3   OH219745   2.251   0.386   2.342
 6580TIP3    H119746   2.277   0.471   2.308
 6580TIP3    H219747   2.201   0.346   2.270
 6581TIP3   OH219748   4.745   4.865   0.620
 6581TIP3    H119749   4.732   4.797   0.687
 6581TIP3    H219750   4.656   4.884   0.589
 6582TIP3   OH219751   5.100   0.928   0.097
 6582TIP3    H119752   5.113   0.874   0.019
 6582TIP3    H219753   5.188   0.947   0.128
 6583TIP3   OH219754   0.663   0.541   4.808
 6583TIP3    H119755   0.624   0.528   4.894
 6583TIP3    H219756   0.726   0.470   4.799
 6584TIP3   OH219757   5.957   2.192   3.079
 6584TIP3    H119758   5.986   2.104   3.056
 6584TIP3    H219759   6.038   2.242   3.088
 6585TIP3   OH219760   4.496   5.025   4.353
 6585TIP3    H119761   4.436   4.950   4.358
 6585TIP3    H219762   4.547   5.010   4.274
 6586TIP3   OH219763   3.765   3.745   4.387
 6586TIP3    H119764   3.756   3.721   4.480
 6586TIP3    H219765   3.758   3.840   4.387
 6587TIP3   OH219766   2.829   4.207   3.618
 6587TIP3    H119767   2.810   4.127   3.569
 6587TIP3    H219768   2.798   4.188   3.707
 6588TIP3   OH219769   2.365   4.044   0.550
 6588TIP3    H119770   2.379   4.121   0.495
 6588TIP3    H219771   2.383   4.074   0.638
 6589TIP3   OH219772   1.190   4.098   2.808
 6589TIP3    H119773   1.174   4.004   2.816
 6589TIP3    H219774   1.113   4.139   2.848
 6590TIP3   OH219775   0.770   2.530   2.867
 6590TIP3    H119776   0.817   2.446   2.873
 6590TIP3    H219777   0.754   2.541   2.774
 6591TIP3   OH219778   0.764   2.938   4.205
 6591TIP3    H119779   0.761   2.904   4.115
 6591TIP3    H219780   0.678   2.978   4.217
 6592TIP3   OH219781   3.817   0.486   3.662
 6592TIP3    H119782   3.868   0.554   3.705
 6592TIP3    H219783   3.824   0.505   3.569
 6593TIP3   OH219784   2.706   5.013   3.436
 6593TIP3    H119785   2.742   5.023   3.348
 6593TIP3    H219786   2.771   4.961   3.484
 6594TIP3   OH219787   3.753   0.496   2.061
 6594TIP3    H119788   3.744   0.403   2.040
 6594TIP3    H219789   3.667   0.522   2.094
 6595TIP3   OH219790   3.099   1.324   3.013
 6595TIP3    H119791   3.167   1.265   2.982
 6595TIP3    H219792   3.117   1.407   2.968
 6596TIP3   OH219793   2.586   3.338   0.227
 6596TIP3    H119794   2.673   3.299   0.231
 6596TIP3    H219795   2.584   3.382   0.142
 6597TIP3   OH219796   0.876   2.545   4.895
 6597TIP3    H119797   0.961   2.585   4.875
 6597TIP3    H219798   0.822   2.619   4.923
 6598TIP3   OH219799   0.947   1.497   3.550
 6598TIP3    H119800   0.896   1.538   3.480
 6598TIP3    H219801   1.037   1.499   3.518
 6599TIP3   OH219802   2.498   4.523   3.272
 6599TIP3    H119803   2.436   4.460   3.235
 6599TIP3    H219804   2.444   4.584   3.321
 6600TIP3   OH219805   5.999   4.448   3.529
 6600TIP3    H119806   6.033   4.415   3.612
 6600TIP3    H219807   6.039   4.391   3.463
 6601TIP3   OH219808   2.240   5.052   3.033
 6601TIP3    H119809   2.164   5.000   3.005
 6601TIP3    H219810   2.202   5.133   3.068
 6602TIP3   OH219811   4.502   2.437   4.718
 6602TIP3    H119812   4.438   2.492   4.763
 6602TIP3    H219813   4.542   2.385   4.787
 6603TIP3   OH219814   0.283   4.370   1.479
 6603TIP3    H119815   0.272   4.426   1.557
 6603TIP3    H219816   0.252   4.284   1.507
 6604TIP3   OH219817   3.633   3.777   1.162
 6604TIP3    H119818   3.721   3.809   1.141
 6604TIP3    H219819   3.615   3.711   1.096
 6605TIP3   OH219820   0.201   5.645   1.755
 6605TIP3    H119821   0.130   5.674   1.812
 6605TIP3    H219822   0.280   5.656   1.807
 6606TIP3   OH219823   0.149   0.067   0.983
 6606TIP3    H119824   0.088   0.039   0.914
 6606TIP3    H219825   0.226   0.012   0.970
 6607TIP3   OH219826   6.203   5.893   0.933
 6607TIP3    H119827   6.209   5.805   0.895
 6607TIP3    H219828   6.118   5.896   0.976
 6608TIP3   OH219829   5.132   4.621   3.502
 6608TIP3    H119830   5.058   4.559   3.500
 6608TIP3    H219831   5.207   4.570   3.471
 6609TIP3   OH219832   5.387   5.035   3.589
 6609TIP3    H119833   5.427   5.110   3.545
 6609TIP3    H219834   5.455   5.004   3.648
 6610TIP3   OH219835   4.887   3.651   4.426
 6610TIP3    H119836   4.865   3.579   4.366
 6610TIP3    H219837   4.827   3.639   4.499
 6611TIP3   OH219838   1.595   0.905   3.148
 6611TIP3    H119839   1.577   0.868   3.061
 6611TIP3    H219840   1.680   0.947   3.139
 6612TIP3   OH219841   2.458   5.941   2.434
 6612TIP3    H119842   2.367   5.955   2.406
 6612TIP3    H219843   2.452   5.917   2.526
 6613TIP3   OH219844   5.092   2.403   0.900
 6613TIP3    H119845   5.114   2.323   0.948
 6613TIP3    H219846   5.172   2.424   0.851
 6614TIP3   OH219847   3.672   5.167   2.150
 6614TIP3    H119848   3.602   5.187   2.089
 6614TIP3    H219849   3.680   5.246   2.204
 6615TIP3   OH219850   4.925   5.748   2.831
 6615TIP3    H119851   4.937   5.657   2.858
 6615TIP3    H219852   4.998   5.765   2.772
 6616TIP3   OH219853   1.378   5.853   3.700
 6616TIP3    H119854   1.394   5.943   3.729
 6616TIP3    H219855   1.330   5.812   3.773
 6617TIP3   OH219856   5.007   3.982   4.212
 6617TIP3    H119857   5.033   3.937   4.292
 6617TIP3    H219858   4.913   3.969   4.206
 6618TIP3   OH219859   0.222   0.391   3.401
 6618TIP3    H119860   0.159   0.320   3.418
 6618TIP3    H219861   0.174   0.471   3.420
 6619TIP3   OH219862   0.862   5.602   4.691
 6619TIP3    H119863   0.829   5.663   4.626
 6619TIP3    H219864   0.945   5.640   4.720
 6620TIP3   OH219865   0.123   5.029   2.374
 6620TIP3    H119866   0.122   4.961   2.308
 6620TIP3    H219867   0.170   5.102   2.333
 6621TIP3   OH219868   5.352   1.628   3.401
 6621TIP3    H119869   5.430   1.579   3.428
 6621TIP3    H219870   5.302   1.565   3.348
 6622TIP3   OH219871   3.485   0.480   4.879
 6622TIP3    H119872   3.400   0.469   4.836
 6622TIP3    H219873   3.464   0.475   4.973
 6623TIP3   OH219874   3.640   3.109   3.803
 6623TIP3    H119875   3.700   3.039   3.776
 6623TIP3    H219876   3.682   3.189   3.773
 6624TIP3   OH219877   3.535   0.638   4.452
 6624TIP3    H119878   3.520   0.708   4.389
 6624TIP3    H219879   3.553   0.560   4.399
 6625TIP3   OH219880  -0.026   2.927   0.617
 6625TIP3    H119881   0.044   2.872   0.582
 6625TIP3    H219882  -0.077   2.868   0.673
 6626TIP3   OH219883   1.554   3.171   1.353
 6626TIP3    H119884   1.519   3.238   1.411
 6626TIP3    H219885   1.610   3.219   1.292
 6627TIP3   OH219886   1.552   5.233   3.934
 6627TIP3    H119887   1.601   5.155   3.908
 6627TIP3    H219888   1.468   5.225   3.888
 6628TIP3   OH219889   6.005   1.583   0.406
 6628TIP3    H119890   5.955   1.522   0.352
 6628TIP3    H219891   6.035   1.650   0.345
 6629TIP3   OH219892   4.012   6.034   4.787
 6629TIP3    H119893   3.923   6.011   4.815
 6629TIP3    H219894   4.054   5.951   4.769
 6630TIP3   OH219895   0.666   0.412   1.775
 6630TIP3    H119896   0.653   0.506   1.785
 6630TIP3    H219897   0.724   0.404   1.699
 6631TIP3   OH219898   6.131   3.201   4.350
 6631TIP3    H119899   6.098   3.144   4.281
 6631TIP3    H219900   6.178   3.143   4.409
 6632TIP3   OH219901   5.593   1.975   2.620
 6632TIP3    H119902   5.530   1.905   2.640
 6632TIP3    H219903   5.548   2.056   2.644
 6633TIP3   OH219904   2.512   2.576   0.894
 6633TIP3    H119905   2.521   2.488   0.855
 6633TIP3    H219906   2.602   2.609   0.896
 6634TIP3   OH219907   5.727   5.937   3.994
 6634TIP3    H119908   5.651   5.908   4.045
 6634TIP3    H219909   5.707   5.910   3.904
 6635TIP3   OH219910   5.481   3.497   2.108
 6635TIP3    H119911   5.444   3.428   2.053
 6635TIP3    H219912   5.405   3.550   2.135
 6636TIP3   OH219913   3.613   0.109   5.033
 6636TIP3    H119914   3.541   0.132   4.974
 6636TIP3    H219915   3.643   0.023   5.002
 6637TIP3   OH219916   0.287   1.215   5.123
 6637TIP3    H119917   0.263   1.254   5.207
 6637TIP3    H219918   0.214   1.236   5.065
 6638TIP3   OH219919   3.325   0.209   4.972
 6638TIP3    H119920   3.317   0.300   5.000
 6638TIP3    H219921   3.253   0.164   5.016
 6639TIP3   OH219922   5.965   1.172   2.512
 6639TIP3    H119923   6.046   1.201   2.471
 6639TIP3    H219924   5.938   1.245   2.568
 6640TIP3   OH219925   4.995   3.797   1.261
 6640TIP3    H119926   5.046   3.741   1.202
 6640TIP3    H219927   4.994   3.750   1.344
 6641TIP3   OH219928   1.979   0.340   4.561
 6641TIP3    H119929   1.897   0.295   4.582
 6641TIP3    H219930   1.955   0.432   4.552
 6642TIP3   OH219931   0.208   5.549   2.282
 6642TIP3    H119932   0.169   5.488   2.345
 6642TIP3    H219933   0.136   5.569   2.221
 6643TIP3   OH219934   4.218   0.885   2.763
 6643TIP3    H119935   4.203   0.978   2.784
 6643TIP3    H219936   4.313   0.880   2.746
 6644TIP3   OH219937   2.441   3.221   4.048
 6644TIP3    H119938   2.500   3.164   4.097
 6644TIP3    H219939   2.360   3.221   4.099
 6645TIP3   OH219940   0.672   6.006   1.235
 6645TIP3    H119941   0.627   6.006   1.151
 6645TIP3    H219942   0.761   6.034   1.215
   6.35711   5.99354   5.19056   0.00000   0.00000  -2.11904   0.00000  -2.11904  -2.99677
