Title
19927
    1ASP      N    1   0.354   5.068   2.152  0.1679  0.0895 -0.0236
    1ASP    HT1    2   0.376   5.020   2.242  0.6344  1.9246  0.8861
    1ASP    HT2    3   0.296   5.006   2.093  1.1610 -0.0474 -0.8969
    1ASP    HT3    4   0.292   5.151   2.157  0.0530  0.4959 -4.3232
    1ASP     CA    5   0.479   5.125   2.077 -0.2077 -0.1997  0.2306
    1ASP     HA    6   0.534   5.173   2.156  1.1793  0.6419 -1.1836
    1ASP     CB    7   0.555   5.013   2.001  0.0496  0.5289 -0.3018
    1ASP    HB1    8   0.633   5.052   1.933 -2.0608  1.5444 -2.2915
    1ASP    HB2    9   0.478   4.964   1.938  2.1596 -0.7171 -2.0116
    1ASP     CG   10   0.613   4.911   2.099 -0.0758 -0.0708 -0.0803
    1ASP    OD1   11   0.681   4.822   2.050 -0.2756 -0.2521  0.4471
    1ASP    OD2   12   0.590   4.921   2.219 -0.5651  0.0781 -0.2346
    1ASP      C   13   0.425   5.230   1.983  0.4550 -0.4493  0.1508
    1ASP      O   14   0.306   5.240   1.967  0.1575  0.0018  0.0988
    2ALA      N   15   0.514   5.309   1.916  0.3762 -0.0541 -0.4144
    2ALA     HN   16   0.612   5.311   1.937  0.3070 -0.7971  0.0205
    2ALA     CA   17   0.477   5.391   1.804 -0.3336 -0.3046  0.0954
    2ALA     HA   18   0.418   5.467   1.854 -1.3345 -2.7997  2.9969
    2ALA     CB   19   0.610   5.454   1.741  0.0115  0.2840 -0.5500
    2ALA    HB1   20   0.587   5.546   1.683 -1.7578  0.0602 -0.2858
    2ALA    HB2   21   0.660   5.390   1.666 -2.6346 -0.3226 -1.9196
    2ALA    HB3   22   0.676   5.490   1.822  1.4658 -1.5014 -0.8742
    2ALA      C   23   0.376   5.341   1.692 -0.4258  0.6216  0.4087
    2ALA      O   24   0.370   5.232   1.648  0.1726  0.2944  0.2938
    3ASP      N   25   0.300   5.433   1.643  0.2952 -0.1605 -0.0689
    3ASP     HN   26   0.324   5.526   1.670 -2.7728  0.6420  0.3093
    3ASP     CA   27   0.188   5.419   1.553 -0.1192 -0.1209 -0.2739
    3ASP     HA   28   0.131   5.332   1.583  1.8114 -1.3282  0.0782
    3ASP     CB   29   0.101   5.554   1.558  0.2430 -0.4461  0.8038
    3ASP    HB1   30   0.006   5.543   1.502  1.2878 -0.2002 -1.1057
    3ASP    HB2   31   0.158   5.636   1.510 -1.4279 -0.5668 -1.5941
    3ASP     CG   32   0.068   5.596   1.698 -1.0125  0.2534 -0.0100
    3ASP    OD1   33   0.035   5.715   1.720  0.3096 -0.0317  0.1346
    3ASP    OD2   34   0.067   5.505   1.785 -0.2195 -0.1039 -0.3053
    3ASP      C   35   0.235   5.393   1.411  0.4006  0.8994  0.6784
    3ASP      O   36   0.327   5.466   1.362 -0.2929  0.3572  0.1564
    4GLY      N   37   0.177   5.286   1.340 -0.0136 -0.3061 -0.0416
    4GLY     HN   38   0.120   5.224   1.394 -0.3145  0.4400  0.5174
    4GLY     CA   39   0.224   5.243   1.203  0.7236 -0.6264 -0.6106
    4GLY    HA1   40   0.158   5.160   1.183 -0.0787  0.0885 -1.0523
    4GLY    HA2   41   0.329   5.222   1.209  1.0394  1.2001  1.5021
    4GLY      C   42   0.200   5.333   1.086  0.2778  0.1101  0.1914
    4GLY      O   43   0.150   5.443   1.108 -0.0959 -0.4916 -0.2572
    5PRO      N   44   0.239   5.300   0.960  0.4808 -0.4954  0.0582
    5PRO     CD   45   0.291   5.165   0.943 -0.3711  0.3698  0.0803
    5PRO    HD1   46   0.206   5.096   0.958  1.2264 -1.4127  1.4846
    5PRO    HD2   47   0.372   5.143   1.016 -1.0949  0.6874  0.9904
    5PRO     CA   48   0.210   5.365   0.831  0.3339  0.1314 -0.2767
    5PRO     HA   49   0.283   5.444   0.827  1.6206 -1.0523 -1.7856
    5PRO     CB   50   0.247   5.260   0.724 -0.1550  0.2973  0.1676
    5PRO    HB1   51   0.292   5.308   0.634 -0.3515  1.9590  0.9082
    5PRO    HB2   52   0.156   5.205   0.691  1.4194 -3.5781  1.7203
    5PRO     CG   53   0.341   5.165   0.795 -0.8175 -0.1811 -0.2577
    5PRO    HG1   54   0.344   5.064   0.749  1.6934  0.4422 -1.6625
    5PRO    HG2   55   0.441   5.212   0.798 -0.9918  0.2034 -0.5114
    5PRO      C   56   0.075   5.435   0.812 -0.3439 -0.2109  0.6691
    5PRO      O   57  -0.032   5.377   0.822 -0.2179  0.0646  0.1235
    6GLY      N   58   0.074   5.571   0.785 -0.3456 -0.3064 -0.0722
    6GLY     HN   59   0.158   5.625   0.788 -0.6523  0.2065 -0.6657
    6GLY     CA   60  -0.050   5.651   0.767  0.0253 -0.0069  0.3184
    6GLY    HA1   61  -0.023   5.753   0.791 -0.2304 -0.0783  0.9045
    6GLY    HA2   62  -0.132   5.610   0.824 -0.6714 -0.2406 -0.8096
    6GLY      C   63  -0.094   5.646   0.623  0.0217 -0.3232  0.4739
    6GLY      O   64  -0.209   5.681   0.596 -0.0230  0.4147  0.1159
    7ASP      N   65  -0.009   5.609   0.523  0.5515 -0.0210  0.3776
    7ASP     HN   66   0.078   5.583   0.562  0.1598 -2.9100 -0.4539
    7ASP     CA   67  -0.040   5.612   0.381  0.4820  0.2033  0.0240
    7ASP     HA   68  -0.068   5.713   0.355 -1.6948 -0.7932 -1.9318
    7ASP     CB   69   0.086   5.582   0.306 -0.1407  0.0504  0.6155
    7ASP    HB1   70   0.070   5.589   0.197  0.2574 -1.1189  0.4691
    7ASP    HB2   71   0.118   5.479   0.329 -1.4989 -0.4617  0.2949
    7ASP     CG   72   0.207   5.671   0.338  0.6883 -0.0404  0.3738
    7ASP    OD1   73   0.314   5.652   0.274  0.4404  0.4048  0.3918
    7ASP    OD2   74   0.185   5.774   0.409 -0.3653  0.2513 -0.0556
    7ASP      C   75  -0.166   5.522   0.339 -0.0078  1.0537 -0.1045
    7ASP      O   76  -0.189   5.418   0.401 -0.5837 -0.0898  0.0061
    8PRO      N   77  -0.241   5.569   0.242  0.8250 -0.2691  0.3909
    8PRO     CD   78  -0.223   5.694   0.171 -0.1173 -0.1117 -0.3748
    8PRO    HD1   79  -0.131   5.697   0.109 -0.2652  1.6517 -0.5853
    8PRO    HD2   80  -0.234   5.787   0.232  0.1204  1.6028 -2.7951
    8PRO     CA   81  -0.336   5.479   0.174 -1.1671  0.5274  0.0269
    8PRO     HA   82  -0.419   5.479   0.243 -0.5817  3.1366  0.8528
    8PRO     CB   83  -0.375   5.554   0.046  0.4117  0.9347 -0.4808
    8PRO    HB1   84  -0.465   5.512  -0.004  0.3354  0.4275  0.0691
    8PRO    HB2   85  -0.289   5.534  -0.021 -0.0559  0.6144 -0.9916
    8PRO     CG   86  -0.355   5.697   0.082 -0.6547 -0.3096  0.1541
    8PRO    HG1   87  -0.334   5.771   0.002  1.2738  0.5855  1.4278
    8PRO    HG2   88  -0.436   5.734   0.150  1.4922  0.0027  2.7307
    8PRO      C   89  -0.292   5.332   0.152 -0.3703 -0.0414  1.1852
    8PRO      O   90  -0.184   5.306   0.100 -0.6584  0.2854 -0.4957
    9ASP      N   91  -0.385   5.240   0.179 -0.3973  0.7745 -0.8513
    9ASP     HN   92  -0.466   5.278   0.222  2.0687  2.5103  2.8281
    9ASP     CA   93  -0.342   5.101   0.197 -0.0976 -0.0780  0.2224
    9ASP     HA   94  -0.280   5.067   0.115 -1.1214 -3.8116  0.8072
    9ASP     CB   95  -0.250   5.083   0.324  0.3732 -0.5071  0.4363
    9ASP    HB1   96  -0.309   5.133   0.403  0.1589 -0.5738  0.3208
    9ASP    HB2   97  -0.149   5.127   0.311  1.0124 -2.1616 -0.4874
    9ASP     CG   98  -0.227   4.934   0.377  0.5748 -0.7524  0.5667
    9ASP    OD1   99  -0.288   4.901   0.481 -0.3272  0.1467  0.5627
    9ASP    OD2  100  -0.150   4.857   0.315 -0.4323 -0.0656 -0.5651
    9ASP      C  101  -0.463   5.005   0.196  0.0205  0.1094  0.1086
    9ASP      O  102  -0.451   4.888   0.173  0.1375  0.0571 -0.3534
   10ALA      N  103  -0.588   5.057   0.207 -0.5584 -0.1625  0.5151
   10ALA     HN  104  -0.602   5.154   0.224  2.0176  0.7020 -1.5831
   10ALA     CA  105  -0.706   4.977   0.183 -0.2809  0.3177 -0.3619
   10ALA     HA  106  -0.676   4.883   0.226 -0.3499  2.0873  4.0863
   10ALA     CB  107  -0.831   5.017   0.271 -0.4565  1.0779  0.1542
   10ALA    HB1  108  -0.905   4.934   0.269  1.6889 -0.9378  0.0399
   10ALA    HB2  109  -0.869   5.113   0.229  2.6953  2.2383 -0.3767
   10ALA    HB3  110  -0.817   5.037   0.379  1.1537  1.2172 -0.0513
   10ALA      C  111  -0.734   4.950   0.037  0.1766  0.8475  0.8210
   10ALA      O  112  -0.688   5.022  -0.053 -0.2410  0.3245  0.4426
   11GLY      N  113  -0.814   4.848   0.009 -0.0934  0.2014 -0.3540
   11GLY     HN  114  -0.848   4.799   0.089 -1.1375  1.1193 -0.2116
   11GLY     CA  115  -0.834   4.804  -0.131  0.1215  0.5777 -0.0908
   11GLY    HA1  116  -0.741   4.772  -0.175 -0.7805  0.3784 -1.9157
   11GLY    HA2  117  -0.885   4.886  -0.179 -0.8488 -1.3328 -2.4942
   11GLY      C  118  -0.935   4.689  -0.150 -0.1324  0.6450 -0.0119
   11GLY    OT1  119  -1.030   4.706  -0.235  0.4536 -0.1061  0.6054
   11GLY    OT2  120  -0.929   4.600  -0.071 -0.7874 -0.3094 -0.1835
   12SOD    SOD  121   5.351   3.210   0.376  0.8884  0.1092  0.2083
   13SOD    SOD  122   5.129   3.502   4.273  0.5545  0.0991  0.1239
   14SOD    SOD  123   2.173   0.151   0.131 -0.3450 -0.5938  0.1569
   15SOD    SOD  124   4.245   3.171   4.474  0.2563 -0.2681 -0.2436
   16SOD    SOD  125   3.561   0.462   1.053 -0.1547 -0.5060 -0.4523
   17SOD    SOD  126   4.365   0.047   2.944 -0.1704  0.0193 -0.6711
   18SOD    SOD  127   2.453   4.312   0.112  0.2352 -0.1116  0.3557
   19SOD    SOD  128   6.265   2.399   2.588  0.5119  0.2173  0.5703
   20SOD    SOD  129   6.276   4.291   1.161  0.3346  0.0146 -0.5980
   21SOD    SOD  130   3.050   4.333   2.471 -0.2583 -0.1041 -0.0073
   22SOD    SOD  131   0.075   2.531   1.742 -0.0609  0.6141 -0.1712
   23SOD    SOD  132   5.931   0.634   0.983 -0.0814  0.0746 -0.2366
   24SOD    SOD  133   3.511   1.292   5.032  0.2850 -0.2796  0.0838
   25SOD    SOD  134   1.564   0.791   4.618  0.0228 -0.3714  0.1288
   26SOD    SOD  135   5.554   2.711   3.048 -0.3354  0.2716 -0.2202
   27SOD    SOD  136   1.279   4.141   2.249 -0.2005  0.1235 -0.2008
   28SOD    SOD  137   1.171   2.332   4.956  0.5156 -0.2316 -0.1266
   29SOD    SOD  138   2.901   0.858   2.131  0.3944  0.0851 -0.0950
   30SOD    SOD  139   4.199   0.584   0.039 -0.2828  0.0089 -0.2754
   31SOD    SOD  140   1.456   4.207   4.057  0.3310 -0.3574  0.3601
   32SOD    SOD  141   6.143   0.060   0.231  0.3028 -0.1799 -0.4628
   33SOD    SOD  142   1.545   5.565   0.002 -0.1358 -0.5822 -0.0512
   34CLA    CLA  143   5.051   4.410   0.072 -0.1180 -0.0994 -0.2709
   35CLA    CLA  144   4.507   5.833   1.826 -0.1226  0.0440  0.2475
   36CLA    CLA  145   1.830   2.885   4.598 -0.0015  0.1176 -0.2463
   37CLA    CLA  146   3.988   1.925   3.917 -0.0795 -0.2381  0.1155
   38CLA    CLA  147   5.591   0.340   0.921 -0.0430 -0.0702  0.6167
   39CLA    CLA  148   1.063   2.110   2.217 -0.0480 -0.2246  0.2086
   40CLA    CLA  149   0.775   3.351   2.962  0.1113 -0.4026  0.3265
   41CLA    CLA  150   5.818   3.225   0.631  0.0818 -0.6225 -0.0442
   42CLA    CLA  151   1.001   2.503   4.487 -0.1467  0.0446  0.1603
   43CLA    CLA  152   4.127   1.032   1.247 -0.1613 -0.1816  0.2135
   44CLA    CLA  153   6.094   2.371   3.428 -0.0391 -0.0436 -0.8829
   45CLA    CLA  154   2.293   1.170   2.484  0.2020  0.8543 -0.2933
   46CLA    CLA  155   1.780   5.491   0.965  0.1533 -0.2751 -0.4514
   47CLA    CLA  156   1.550   5.941   4.171 -0.2295 -0.2265 -0.0194
   48CLA    CLA  157   3.794   4.740   2.852  0.1066  0.0964  0.4434
   49CLA    CLA  158   4.772   0.094   0.294  0.0150  0.3734  0.1557
   50CLA    CLA  159   4.640   3.700   4.961  0.1881 -0.1603 -0.1258
   51CLA    CLA  160   5.292   4.200   5.105 -0.0095  0.3484 -0.1115
   52TIP3   OH2  161   2.048   5.374   0.461 -0.3642  0.5844  0.0812
   52TIP3    H1  162   2.071   5.296   0.411 -0.0734  1.1883 -0.7547
   52TIP3    H2  163   2.093   5.363   0.544 -0.6931 -0.3478  0.1545
   53TIP3   OH2  164   0.233   2.332   3.228 -0.0222 -0.3819  0.0430
   53TIP3    H1  165   0.177   2.407   3.248  0.2818  0.1396 -0.9954
   53TIP3    H2  166   0.199   2.262   3.283  0.6998  0.9026  2.2299
   54TIP3   OH2  167   0.692   2.528   4.565  0.2780  0.0203  0.2099
   54TIP3    H1  168   0.788   2.519   4.566  0.3224  0.4450 -0.1691
   54TIP3    H2  169   0.675   2.610   4.612  0.1789  0.5911 -0.7951
   55TIP3   OH2  170   1.622   2.188   5.080 -0.2736  0.3117 -0.7137
   55TIP3    H1  171   1.589   2.143   5.003  0.8882  0.1561 -1.1299
   55TIP3    H2  172   1.636   2.278   5.052  0.2631  0.2284 -0.7194
   56TIP3   OH2  173   3.664   0.547   1.890  0.0289  0.0209 -0.5344
   56TIP3    H1  174   3.740   0.501   1.927 -0.3902 -0.2418  0.0089
   56TIP3    H2  175   3.652   0.508   1.804  2.3967  2.1437 -2.0135
   57TIP3   OH2  176   1.106   2.699   1.792  0.6782 -0.4053  0.1069
   57TIP3    H1  177   1.164   2.630   1.825  1.4868  0.3495  0.3198
   57TIP3    H2  178   1.027   2.653   1.764  0.9435 -1.3378  0.8379
   58TIP3   OH2  179   2.656   4.762   0.607  0.1741  0.2274 -0.1865
   58TIP3    H1  180   2.699   4.676   0.608 -1.0550 -0.4686 -1.7895
   58TIP3    H2  181   2.594   4.759   0.680  0.1103 -0.2714 -0.2570
   59TIP3   OH2  182   4.618   2.210   3.595  0.3045 -0.1140 -0.0741
   59TIP3    H1  183   4.564   2.145   3.640  1.5506 -0.9103  0.3034
   59TIP3    H2  184   4.582   2.214   3.506 -0.3206 -0.6773  0.1428
   60TIP3   OH2  185   2.464   0.038   2.267 -0.0539 -0.0744 -0.5647
   60TIP3    H1  186   2.427   0.052   2.180  0.7256 -2.3754 -1.3364
   60TIP3    H2  187   2.550  -0.001   2.250  0.3707 -0.0113  1.2535
   61TIP3   OH2  188   2.988   2.094   4.987 -1.1504  0.6416 -0.2655
   61TIP3    H1  189   2.975   2.098   4.893  0.6816  2.6980 -0.5296
   61TIP3    H2  190   3.083   2.096   4.998 -1.2083 -1.6399  1.6257
   62TIP3   OH2  191   3.489   1.788   4.685  0.1772 -0.5552  0.5558
   62TIP3    H1  192   3.405   1.800   4.729 -0.1128 -0.5178  0.0118
   62TIP3    H2  193   3.532   1.718   4.734 -0.4395 -1.0094  0.4721
   63TIP3   OH2  194   1.930   0.142   4.651 -0.7142 -0.6055 -0.0124
   63TIP3    H1  195   1.892   0.056   4.634 -0.2386 -0.9935  0.8328
   63TIP3    H2  196   1.958   0.138   4.742  2.4949 -0.8104 -0.8862
   64TIP3   OH2  197   3.381   5.808   1.276 -0.4749  0.4270  0.5673
   64TIP3    H1  198   3.356   5.830   1.366 -1.4963 -0.1809  0.4503
   64TIP3    H2  199   3.440   5.879   1.250 -0.7452  1.0067  1.4616
   65TIP3   OH2  200   5.391   0.723   1.728 -0.0557 -0.4131  0.2635
   65TIP3    H1  201   5.439   0.745   1.648 -0.2124 -0.3479  0.1866
   65TIP3    H2  202   5.447   0.756   1.799 -0.9620  1.6319  0.1103
   66TIP3   OH2  203   6.197   1.793   0.384 -0.1841  0.4413  0.4744
   66TIP3    H1  204   6.261   1.860   0.407 -1.2283  1.1762  1.3096
   66TIP3    H2  205   6.138   1.788   0.459 -1.6864  0.4788 -0.6499
   67TIP3   OH2  206   4.688   1.111   1.659 -0.3101 -0.0920  0.5864
   67TIP3    H1  207   4.671   1.148   1.572  1.1387  1.0690  0.7554
   67TIP3    H2  208   4.728   1.025   1.641  2.8100  1.3571 -0.0702
   68TIP3   OH2  209   4.905   4.755   4.091  0.1855 -0.0263  0.2110
   68TIP3    H1  210   4.871   4.693   4.027 -2.3882 -1.0600  2.4045
   68TIP3    H2  211   4.921   4.703   4.169 -0.0767  1.7168  1.4791
   69TIP3   OH2  212   3.641   3.609   4.729 -0.2746 -0.1531 -0.4692
   69TIP3    H1  213   3.582   3.547   4.687  0.0472  0.2854 -1.6134
   69TIP3    H2  214   3.689   3.557   4.793 -1.2051 -0.7159 -0.2103
   70TIP3   OH2  215   2.451   3.351   2.211  0.2692 -0.1479  0.0681
   70TIP3    H1  216   2.515   3.281   2.199  1.2148  0.5082  1.0429
   70TIP3    H2  217   2.401   3.324   2.288 -1.2967 -1.1184 -1.2474
   71TIP3   OH2  218   3.588   1.684   0.228 -0.2012  0.0870 -0.4425
   71TIP3    H1  219   3.654   1.736   0.183 -0.4833  0.1447 -0.7925
   71TIP3    H2  220   3.612   1.593   0.209  1.0285  0.0183  1.1994
   72TIP3   OH2  221   2.661   0.763   2.611 -0.1080  0.1358 -0.3940
   72TIP3    H1  222   2.674   0.724   2.698  0.3729 -0.3959 -0.6955
   72TIP3    H2  223   2.566   0.770   2.602 -0.1475  1.0820  0.5522
   73TIP3   OH2  224   0.855   0.357   3.995 -0.5497 -0.3332 -0.1501
   73TIP3    H1  225   0.841   0.264   4.014 -0.4654 -0.6700 -1.6480
   73TIP3    H2  226   0.767   0.392   3.982 -0.4936 -0.7039 -1.7191
   74TIP3   OH2  227   3.574   1.730   2.205 -0.4839  0.1885  0.1355
   74TIP3    H1  228   3.541   1.722   2.115  2.6128  0.2776 -1.1373
   74TIP3    H2  229   3.618   1.647   2.222  0.1009  0.6593  1.0417
   75TIP3   OH2  230   5.070   1.863   1.250 -0.0477  0.0148 -0.2117
   75TIP3    H1  231   5.046   1.771   1.246  0.0060 -0.0060 -0.0547
   75TIP3    H2  232   4.990   1.910   1.225 -1.4212  0.1054  3.7225
   76TIP3   OH2  233   4.142   4.016   0.468 -0.2263 -0.2244  0.3103
   76TIP3    H1  234   4.117   4.017   0.561 -1.5093  0.9584 -0.0087
   76TIP3    H2  235   4.064   4.049   0.422  1.3641  2.1086 -0.9179
   77TIP3   OH2  236   4.737   1.781   0.216  0.4044  0.1458  0.5800
   77TIP3    H1  237   4.739   1.869   0.254 -1.2976  1.4856 -2.1648
   77TIP3    H2  238   4.816   1.776   0.162  0.5192 -0.0777  0.7607
   78TIP3   OH2  239   3.556   5.276   2.836  0.7796 -0.1746  0.0829
   78TIP3    H1  240   3.602   5.192   2.832  2.1366  0.5834 -0.6439
   78TIP3    H2  241   3.589   5.318   2.916  1.2796  0.3281 -0.3850
   79TIP3   OH2  242   0.425   2.804   2.185 -0.0968 -0.3905 -0.3365
   79TIP3    H1  243   0.482   2.870   2.145 -2.9352  2.1646 -0.5217
   79TIP3    H2  244   0.467   2.784   2.269  0.3229  2.6117  0.2811
   80TIP3   OH2  245   0.399   0.217   3.881  0.0526 -0.2182 -0.8090
   80TIP3    H1  246   0.329   0.155   3.862 -1.2372  0.0594  2.4913
   80TIP3    H2  247   0.468   0.164   3.921  0.5743 -0.0567 -1.4725
   81TIP3   OH2  248   1.283   3.042   1.071  0.0246  0.0282  0.1609
   81TIP3    H1  249   1.267   3.091   1.151 -0.9246  1.6938 -0.9863
   81TIP3    H2  250   1.198   3.005   1.048  0.1949 -0.0729 -0.3122
   82TIP3   OH2  251   1.310   5.387   4.909  0.3507 -0.2455  0.5247
   82TIP3    H1  252   1.274   5.401   4.822  0.2815  0.4866  0.6627
   82TIP3    H2  253   1.321   5.292   4.916 -1.1576 -0.4541  0.3313
   83TIP3   OH2  254   4.744   5.224   4.936  0.4677  0.8360  0.0619
   83TIP3    H1  255   4.677   5.259   4.994  0.0715 -1.0453  0.8284
   83TIP3    H2  256   4.766   5.296   4.877 -0.8177  2.0757  1.0445
   84TIP3   OH2  257   0.832   4.427   4.202 -0.0192 -0.7128 -0.0351
   84TIP3    H1  258   0.852   4.519   4.188  0.6810 -0.7684  0.5027
   84TIP3    H2  259   0.743   4.416   4.170 -0.1334  0.1662 -0.0401
   85TIP3   OH2  260   5.206   5.077   4.885  0.3903  0.1038 -0.2013
   85TIP3    H1  261   5.185   5.058   4.976  1.4485 -1.9367 -0.3438
   85TIP3    H2  262   5.277   5.141   4.890 -0.3703  0.9319  0.3631
   86TIP3   OH2  263   0.980   4.022   4.509 -0.0035  0.7598  0.0732
   86TIP3    H1  264   0.943   4.013   4.421  0.6446  0.7922 -0.2082
   86TIP3    H2  265   0.942   4.103   4.543 -0.4701  0.6035 -0.0682
   87TIP3   OH2  266   3.023   3.281   4.210  0.2796 -0.0225 -0.2199
   87TIP3    H1  267   2.956   3.247   4.151  0.5745  1.5474 -1.5287
   87TIP3    H2  268   3.087   3.209   4.218 -0.8456 -1.0278 -0.0404
   88TIP3   OH2  269   3.906   4.966   0.771  0.3977 -0.3317  0.2689
   88TIP3    H1  270   3.881   4.889   0.823  1.9918 -0.5022  0.8388
   88TIP3    H2  271   3.852   5.037   0.807 -1.4747 -1.2394 -0.6083
   89TIP3   OH2  272   3.034   5.696   1.533  0.9554 -0.2282  0.0540
   89TIP3    H1  273   3.060   5.687   1.624 -1.2495 -0.6397  0.6977
   89TIP3    H2  274   2.942   5.669   1.531  0.7152  0.5260 -2.1474
   90TIP3   OH2  275   1.182   4.019   0.400  0.5694  0.4528 -0.1349
   90TIP3    H1  276   1.128   3.954   0.354  1.7586 -1.3419  0.8747
   90TIP3    H2  277   1.127   4.097   0.405 -0.8421 -0.3855 -1.6113
   91TIP3   OH2  278   6.047   5.437   5.067 -0.8870 -0.1852 -0.3434
   91TIP3    H1  279   6.116   5.447   5.134 -0.8071  0.2239 -0.4790
   91TIP3    H2  280   5.966   5.452   5.115 -0.9013 -0.9669 -0.1238
   92TIP3   OH2  281   1.512   4.077   3.608  0.1404 -0.2401  0.1424
   92TIP3    H1  282   1.454   4.024   3.554  0.3864 -0.3676  0.0057
   92TIP3    H2  283   1.494   4.048   3.697 -0.9567  0.6252  0.2295
   93TIP3   OH2  284   1.992   1.819   2.830  0.0636 -0.0208  0.7062
   93TIP3    H1  285   1.996   1.779   2.917  2.0051 -0.4615  0.4745
   93TIP3    H2  286   1.905   1.797   2.798 -0.6644  0.0610  2.4836
   94TIP3   OH2  287   5.463   3.815   0.302  0.0967  0.1192  0.3326
   94TIP3    H1  288   5.477   3.874   0.228  1.0945 -0.5984 -0.0713
   94TIP3    H2  289   5.375   3.781   0.289 -0.0680  0.6649 -0.0344
   95TIP3   OH2  290   0.791   3.937   2.620 -0.4977  0.0131 -0.2350
   95TIP3    H1  291   0.880   3.973   2.619 -0.6518  0.4075  0.1377
   95TIP3    H2  292   0.803   3.845   2.593 -0.0147  0.1371 -0.4668
   96TIP3   OH2  293   3.370   3.591   0.650 -0.4428 -0.3927  0.2344
   96TIP3    H1  294   3.360   3.668   0.593 -2.5272 -1.5071 -1.0079
   96TIP3    H2  295   3.395   3.521   0.590 -0.5638 -1.1399  1.0450
   97TIP3   OH2  296   2.376   0.207   2.495  0.0039 -0.0557  0.2719
   97TIP3    H1  297   2.374   0.160   2.412 -0.6307 -0.4451  0.5005
   97TIP3    H2  298   2.392   0.140   2.562 -0.5970  0.0774  0.5666
   98TIP3   OH2  299   4.100   4.644   2.035  0.0545  0.0936  0.0928
   98TIP3    H1  300   4.017   4.597   2.037 -0.5864  1.2039  0.7114
   98TIP3    H2  301   4.076   4.736   2.046  1.3416  0.4799 -0.0942
   99TIP3   OH2  302   0.803   3.814   3.600  1.1930 -0.0717  0.1532
   99TIP3    H1  303   0.869   3.840   3.535  1.2334 -0.7907 -0.1070
   99TIP3    H2  304   0.755   3.895   3.619 -1.2276 -0.4395 -3.4910
  100TIP3   OH2  305   5.531   2.857   3.620  0.6407  0.3570  0.3261
  100TIP3    H1  306   5.500   2.878   3.532 -1.1470  1.8426  1.2472
  100TIP3    H2  307   5.585   2.933   3.644  4.1995 -1.6124 -0.7610
  101TIP3   OH2  308   2.906   4.537   5.182 -0.3961 -0.3205 -0.4091
  101TIP3    H1  309   2.937   4.627   5.170 -0.1266 -0.2855  0.4520
  101TIP3    H2  310   2.826   4.531   5.131  0.6625 -0.2068 -2.1459
  102TIP3   OH2  311   0.970   4.499   4.423 -0.2337  0.3438  0.1373
  102TIP3    H1  312   0.961   4.416   4.469 -0.4924  0.4577  0.2942
  102TIP3    H2  313   0.921   4.487   4.341  0.9576 -0.1597 -0.5230
  103TIP3   OH2  314   5.712   1.223   4.876  0.2629 -0.0880  0.2724
  103TIP3    H1  315   5.797   1.242   4.835  0.0325 -0.5633 -0.4449
  103TIP3    H2  316   5.723   1.137   4.916 -0.0564 -0.4155 -0.3339
  104TIP3   OH2  317   4.656   2.437   2.203  0.0523  0.0313  0.2814
  104TIP3    H1  318   4.629   2.384   2.278  1.1223 -1.1363 -0.1219
  104TIP3    H2  319   4.579   2.438   2.146 -0.4769  0.1925  0.9826
  105TIP3   OH2  320   1.850   2.411   3.492  0.2199  0.5453 -0.1848
  105TIP3    H1  321   1.799   2.410   3.573 -1.0168 -1.7694 -0.8838
  105TIP3    H2  322   1.853   2.320   3.464  0.9140  1.2064 -2.5656
  106TIP3   OH2  323   2.364   5.746   0.629  0.7254  0.2195  0.3081
  106TIP3    H1  324   2.386   5.839   0.619  1.3926  0.0875  0.4374
  106TIP3    H2  325   2.291   5.745   0.691  2.3451  0.5492  2.3416
  107TIP3   OH2  326   3.812   0.876   1.899  0.0255 -0.0002  0.3211
  107TIP3    H1  327   3.876   0.809   1.924 -0.7134 -1.0333 -0.4235
  107TIP3    H2  328   3.808   0.870   1.803  0.6827  1.8409  0.1523
  108TIP3   OH2  329   5.115   2.443   3.098 -0.2375 -0.0630 -0.3435
  108TIP3    H1  330   5.106   2.472   3.189  0.0147  0.8034 -0.5887
  108TIP3    H2  331   5.151   2.354   3.104 -3.1692 -1.3389  0.5062
  109TIP3   OH2  332   1.669   0.796   4.051  0.6874  0.3354 -0.9539
  109TIP3    H1  333   1.578   0.770   4.039 -0.0652  2.3956 -0.2040
  109TIP3    H2  334   1.718   0.740   3.991 -0.9928 -1.1606 -1.0325
  110TIP3   OH2  335   4.699   1.898   0.951 -0.4040 -0.3384  0.4679
  110TIP3    H1  336   4.617   1.943   0.970 -0.4227 -0.8050  1.5582
  110TIP3    H2  337   4.764   1.943   1.004  0.6864  1.9533 -2.5384
  111TIP3   OH2  338   5.388   1.542   2.681 -0.4284 -0.5869  0.3087
  111TIP3    H1  339   5.311   1.494   2.652  1.3741 -2.9639 -0.9162
  111TIP3    H2  340   5.437   1.559   2.600  0.5328  0.5432  1.0924
  112TIP3   OH2  341   1.873   0.423   1.905  0.6570 -0.2517 -0.0226
  112TIP3    H1  342   1.820   0.420   1.984  0.0365 -2.1259 -0.4573
  112TIP3    H2  343   1.853   0.508   1.865 -0.4953 -0.1056  0.8409
  113TIP3   OH2  344   2.979   0.609   4.924  0.3325 -0.3956 -0.1670
  113TIP3    H1  345   3.053   0.603   4.864 -0.6758 -0.1529 -1.4996
  113TIP3    H2  346   2.902   0.608   4.867 -0.9029 -3.9035  1.2353
  114TIP3   OH2  347   4.986   0.775   3.096 -0.0121 -0.3106 -0.7446
  114TIP3    H1  348   4.978   0.840   3.026 -1.8594  1.5439  1.0911
  114TIP3    H2  349   5.072   0.792   3.135 -0.4081  0.9344 -0.3907
  115TIP3   OH2  350   1.589   2.483   4.086  0.2250 -0.1548 -0.9847
  115TIP3    H1  351   1.562   2.538   4.012 -0.0548 -0.9030 -1.4479
  115TIP3    H2  352   1.679   2.456   4.063  0.3798  0.1434 -0.7348
  116TIP3   OH2  353   3.348   4.957   1.696  0.2663 -0.1682  0.5884
  116TIP3    H1  354   3.347   4.898   1.771 -2.0349 -0.1234  0.6590
  116TIP3    H2  355   3.416   5.022   1.717  0.2870 -0.6802  2.1856
  117TIP3   OH2  356   5.525   4.969   4.438 -0.3075 -0.7632 -0.4776
  117TIP3    H1  357   5.589   5.039   4.453 -0.2225 -0.7887 -0.7148
  117TIP3    H2  358   5.447   5.014   4.407 -0.9710 -0.5622  1.3650
  118TIP3   OH2  359   4.127   4.954   4.452 -0.2399 -0.2385 -0.5634
  118TIP3    H1  360   4.134   4.906   4.369  1.1373  1.4305 -1.4843
  118TIP3    H2  361   4.214   4.991   4.465 -0.8418  0.7214  0.8993
  119TIP3   OH2  362   1.590   4.709   1.235 -1.0741 -0.2147  0.1715
  119TIP3    H1  363   1.674   4.677   1.268 -0.6319  1.4296  0.7291
  119TIP3    H2  364   1.538   4.630   1.223  1.0740 -1.4575 -1.8142
  120TIP3   OH2  365   4.932   2.920   4.168  0.4147  0.1783  0.4318
  120TIP3    H1  366   4.851   2.871   4.182 -0.2929  1.0130 -0.6213
  120TIP3    H2  367   4.951   2.960   4.252  0.0772 -0.5206  0.8501
  121TIP3   OH2  368   3.678   2.797   0.916  0.0734 -0.3215  0.3384
  121TIP3    H1  369   3.709   2.742   0.845 -2.2497  1.0790 -1.9450
  121TIP3    H2  370   3.652   2.736   0.985 -2.2735 -2.1998 -2.0217
  122TIP3   OH2  371   6.228   2.626   4.712  0.7758 -0.0557 -0.4679
  122TIP3    H1  372   6.192   2.705   4.672  2.0628  1.1940  0.7445
  122TIP3    H2  373   6.318   2.622   4.680  0.6941 -1.1078 -0.5924
  123TIP3   OH2  374   5.381   4.497   3.888 -0.2886 -0.4454 -0.1621
  123TIP3    H1  375   5.291   4.493   3.854 -0.3674 -2.6722  0.1994
  123TIP3    H2  376   5.436   4.468   3.815 -0.1974 -2.3771  0.6340
  124TIP3   OH2  377   4.875   4.575   2.070  0.2698  0.5578  0.0784
  124TIP3    H1  378   4.963   4.553   2.100  0.6709  1.3476 -0.4962
  124TIP3    H2  379   4.879   4.565   1.975 -0.1686  0.9198  0.0210
  125TIP3   OH2  380   0.130   3.145   3.862 -0.1269  0.1142  0.1794
  125TIP3    H1  381   0.112   3.193   3.781 -0.4792  0.2873  0.3608
  125TIP3    H2  382   0.225   3.153   3.873 -0.2051  0.9487  0.3172
  126TIP3   OH2  383   5.452   1.783   0.794  0.4023 -0.1479  0.2746
  126TIP3    H1  384   5.537   1.780   0.838  0.9055  1.8811 -0.4361
  126TIP3    H2  385   5.398   1.840   0.850  0.5916  1.2606 -0.9140
  127TIP3   OH2  386   4.221   5.244   1.406 -0.0038  0.2600 -0.7496
  127TIP3    H1  387   4.136   5.254   1.449  0.0172 -1.7566 -0.1592
  127TIP3    H2  388   4.216   5.301   1.329 -0.6337  2.7618  0.9962
  128TIP3   OH2  389   5.583   3.999   4.651  0.5139  0.7217  0.2425
  128TIP3    H1  390   5.521   4.052   4.602 -0.3488 -0.1623  0.3296
  128TIP3    H2  391   5.551   4.002   4.741 -1.7731 -2.7994 -0.2579
  129TIP3   OH2  392   3.281   2.840   0.912 -0.4064  0.1138 -0.4783
  129TIP3    H1  393   3.341   2.823   0.838 -0.3774 -1.3378 -0.1585
  129TIP3    H2  394   3.254   2.753   0.941 -0.0856  0.6286  1.5103
  130TIP3   OH2  395   5.465   4.367   4.389  0.4688 -0.2514 -0.0871
  130TIP3    H1  396   5.383   4.414   4.373  0.0823 -0.9970 -0.3490
  130TIP3    H2  397   5.532   4.420   4.346 -0.0962 -0.4632 -1.2468
  131TIP3   OH2  398   4.187   3.680   1.523  0.3227 -0.1077  0.3470
  131TIP3    H1  399   4.131   3.649   1.595  3.4489 -1.6174  2.3193
  131TIP3    H2  400   4.143   3.760   1.492 -2.4497 -0.7365  2.2520
  132TIP3   OH2  401   5.896   2.102   3.962 -0.7026 -0.1955 -0.0983
  132TIP3    H1  402   5.990   2.121   3.960 -0.8459  0.4591 -1.0205
  132TIP3    H2  403   5.887   2.017   3.920 -0.6369  0.3061 -1.1582
  133TIP3   OH2  404   1.836   0.321   4.931 -0.0179  0.1067  0.0745
  133TIP3    H1  405   1.893   0.373   4.874 -0.7816 -0.6353 -1.4266
  133TIP3    H2  406   1.873   0.232   4.928 -0.6024 -0.1406 -0.0198
  134TIP3   OH2  407   4.502   0.489   0.472  0.5301  0.0955 -0.1680
  134TIP3    H1  408   4.597   0.501   0.474  0.3397  1.9037 -0.1622
  134TIP3    H2  409   4.468   0.571   0.436 -1.2041  0.5740  2.2748
  135TIP3   OH2  410   2.825   1.101   2.713 -0.3552  0.6112 -0.5129
  135TIP3    H1  411   2.832   1.196   2.722  0.7355  0.4109  1.1965
  135TIP3    H2  412   2.752   1.088   2.653 -1.8499  2.4927  0.7894
  136TIP3   OH2  413   4.174   3.331   0.552  0.3370  0.3205  0.1093
  136TIP3    H1  414   4.220   3.335   0.468 -0.0024 -2.6191 -0.3029
  136TIP3    H2  415   4.084   3.354   0.531  0.4495  0.5288 -0.1592
  137TIP3   OH2  416   6.218   3.795   5.182 -0.5792  0.3226 -0.0628
  137TIP3    H1  417   6.201   3.864   5.246  0.4191  1.2816 -0.7906
  137TIP3    H2  418   6.162   3.816   5.108 -1.1269 -0.3228  0.1550
  138TIP3   OH2  419   5.953   2.435   0.531 -0.2279 -0.1930  0.1666
  138TIP3    H1  420   6.029   2.476   0.571 -0.0453 -0.6510  0.2911
  138TIP3    H2  421   5.894   2.508   0.512 -0.5127  0.0022  1.6710
  139TIP3   OH2  422   3.110   1.266   1.841  0.6355 -0.0055 -0.6800
  139TIP3    H1  423   3.150   1.348   1.813 -0.1042  0.0443 -1.6713
  139TIP3    H2  424   3.060   1.289   1.919 -0.1732  0.6648 -1.3758
  140TIP3   OH2  425   5.387   0.709   4.979 -0.0898 -0.0972  0.0104
  140TIP3    H1  426   5.478   0.695   5.004  0.4235  1.0817 -1.0968
  140TIP3    H2  427   5.353   0.621   4.961  0.9016 -0.5172  0.1735
  141TIP3   OH2  428   0.580   0.474   4.382  0.6297  0.0553 -0.2653
  141TIP3    H1  429   0.630   0.408   4.334  0.0477  0.2818 -1.2174
  141TIP3    H2  430   0.515   0.505   4.319 -0.6644 -0.1773  0.9160
  142TIP3   OH2  431   3.426   5.182   0.594  0.0983 -0.1995 -0.1587
  142TIP3    H1  432   3.498   5.182   0.658 -1.3464  1.9462  1.6189
  142TIP3    H2  433   3.350   5.153   0.644 -1.2266  2.2517 -0.5921
  143TIP3   OH2  434   6.179   2.342   1.365 -0.1482 -0.0852  0.3779
  143TIP3    H1  435   6.151   2.301   1.448  0.0291  0.9557  0.9619
  143TIP3    H2  436   6.273   2.352   1.374 -0.1795  0.3742  0.2003
  144TIP3   OH2  437   0.220   5.952   4.209 -0.0425  0.1457  0.0996
  144TIP3    H1  438   0.219   5.920   4.299  0.9041  1.2175  0.5154
  144TIP3    H2  439   0.231   6.047   4.217  2.4194  0.0487 -1.1364
  145TIP3   OH2  440   1.117   5.141   4.002  0.2886  0.3369 -0.2140
  145TIP3    H1  441   1.182   5.074   3.981  0.2365  0.4436 -0.7326
  145TIP3    H2  442   1.167   5.211   4.044  0.4207  0.1890 -0.1226
  146TIP3   OH2  443   4.860   2.990   4.881  0.1279 -0.4704 -0.3986
  146TIP3    H1  444   4.910   2.925   4.930 -0.3818 -2.1938 -2.0811
  146TIP3    H2  445   4.774   2.991   4.923  0.5211  0.0713  0.4195
  147TIP3   OH2  446   1.790   4.102   3.652 -0.6213 -0.5954  0.0471
  147TIP3    H1  447   1.807   4.187   3.612 -2.2959 -0.5112 -0.5678
  147TIP3    H2  448   1.696   4.087   3.638 -0.7450 -1.7252  1.7284
  148TIP3   OH2  449   3.020   3.508   3.145  0.2406  0.5981  0.3028
  148TIP3    H1  450   2.981   3.576   3.089  0.1684  0.9826  0.8155
  148TIP3    H2  451   3.106   3.492   3.106 -0.7418 -0.9048 -1.3760
  149TIP3   OH2  452   4.512   4.553   3.858  0.2400 -0.3522  0.7444
  149TIP3    H1  453   4.443   4.487   3.867  0.3111 -0.3714  1.1622
  149TIP3    H2  454   4.468   4.630   3.822  0.4550 -1.1437 -1.3375
  150TIP3   OH2  455   3.041   0.508   0.302  0.3057 -0.1720  0.1915
  150TIP3    H1  456   3.091   0.489   0.223  1.5735  1.4493  0.5645
  150TIP3    H2  457   2.954   0.531   0.269  1.3070  2.3433 -0.9624
  151TIP3   OH2  458   1.718   4.653   4.384 -0.1314 -0.1704  0.3412
  151TIP3    H1  459   1.625   4.650   4.361  0.1132 -0.9652 -0.6289
  151TIP3    H2  460   1.741   4.563   4.406  0.8319 -0.3711 -1.2872
  152TIP3   OH2  461   1.321   5.410   0.875 -0.0755 -0.5840 -0.8052
  152TIP3    H1  462   1.299   5.349   0.805  1.7838 -1.9023 -0.3284
  152TIP3    H2  463   1.388   5.364   0.927 -1.0507  0.5084  1.5712
  153TIP3   OH2  464   0.978   3.301   2.716  0.4735  0.3774  0.4312
  153TIP3    H1  465   0.892   3.322   2.752  0.9964 -0.7134  2.4888
  153TIP3    H2  466   1.040   3.337   2.779  1.5117  0.1331 -0.4184
  154TIP3   OH2  467   5.227   1.318   4.479 -0.4563  0.2632  0.4508
  154TIP3    H1  468   5.224   1.327   4.574 -1.2082 -0.2462  0.4846
  154TIP3    H2  469   5.289   1.385   4.451  1.6219 -1.1156  1.4815
  155TIP3   OH2  470   0.669   3.530   0.174  0.1290 -0.2411  0.0470
  155TIP3    H1  471   0.687   3.621   0.196 -1.3701  0.1582 -0.2981
  155TIP3    H2  472   0.704   3.480   0.248  1.1522  0.5886  0.1336
  156TIP3   OH2  473   1.902   5.843   3.050 -0.6157  0.2650  0.0268
  156TIP3    H1  474   1.914   5.748   3.048  0.6221  0.3926  0.6147
  156TIP3    H2  475   1.990   5.879   3.041 -1.0630  1.3661 -0.1549
  157TIP3   OH2  476   4.886   1.352   1.668  0.0811 -0.1820  0.3984
  157TIP3    H1  477   4.886   1.267   1.623  0.6987  0.0503 -0.0596
  157TIP3    H2  478   4.797   1.361   1.702 -0.5431 -0.1822 -1.1550
  158TIP3   OH2  479   2.441   1.300   1.299  0.1202  0.3658  0.5493
  158TIP3    H1  480   2.504   1.306   1.370  0.9803 -1.8180  0.0607
  158TIP3    H2  481   2.436   1.206   1.279 -1.8210  0.6786 -0.7459
  159TIP3   OH2  482   5.890   1.358   1.716 -0.4921  0.1336  0.3945
  159TIP3    H1  483   5.964   1.309   1.679  0.0739  0.5859  0.8944
  159TIP3    H2  484   5.887   1.439   1.664 -0.5507  0.1748  0.4619
  160TIP3   OH2  485   4.702   5.190   0.702 -0.2468 -0.4326  0.1009
  160TIP3    H1  486   4.671   5.234   0.781 -1.1125 -1.8244  0.5707
  160TIP3    H2  487   4.641   5.219   0.634  0.2593  0.4513  0.0007
  161TIP3   OH2  488   5.485   5.763   1.187 -0.2424  0.2413  0.7264
  161TIP3    H1  489   5.419   5.705   1.225 -1.9178  2.3031  1.1324
  161TIP3    H2  490   5.476   5.750   1.092  0.0702 -0.8348  0.8342
  162TIP3   OH2  491   3.410   3.068   0.980  0.1217  0.5455  0.0589
  162TIP3    H1  492   3.362   2.994   0.943  0.4862  0.9525 -1.2695
  162TIP3    H2  493   3.498   3.060   0.944  0.5128  0.9324  0.9041
  163TIP3   OH2  494   5.487   3.341   2.510  0.6216 -0.6861 -0.1532
  163TIP3    H1  495   5.413   3.294   2.548 -0.3762  0.9516  0.0017
  163TIP3    H2  496   5.550   3.348   2.582 -0.5216  0.8628  0.7379
  164TIP3   OH2  497   2.381   2.414   3.717  0.2143  0.2735 -0.1197
  164TIP3    H1  498   2.291   2.391   3.694  0.2071 -0.9873  1.0600
  164TIP3    H2  499   2.377   2.434   3.811  1.5277 -2.0979  0.5162
  165TIP3   OH2  500   4.577   3.454   0.353 -0.0168  0.2218  0.7432
  165TIP3    H1  501   4.625   3.444   0.270 -0.1757 -0.1680  0.6958
  165TIP3    H2  502   4.488   3.427   0.332 -0.2171  0.7652  0.8780
  166TIP3   OH2  503   0.585   0.828   3.982  0.1307 -0.3827  0.5090
  166TIP3    H1  504   0.627   0.858   4.062  1.0168 -0.0260 -0.0725
  166TIP3    H2  505   0.635   0.870   3.911 -1.2731  0.1392 -0.2132
  167TIP3   OH2  506   0.408   3.244   1.779  0.3077  0.2499 -0.0516
  167TIP3    H1  507   0.464   3.280   1.711  2.1104  0.2259  1.3293
  167TIP3    H2  508   0.392   3.154   1.753  0.4170  0.4323 -0.7566
  168TIP3   OH2  509   5.354   5.041   3.345 -0.3273 -0.5754  0.3917
  168TIP3    H1  510   5.284   5.040   3.411 -1.2393 -3.5073 -0.4580
  168TIP3    H2  511   5.417   4.976   3.376  1.8366  1.5554  0.8070
  169TIP3   OH2  512   5.240   0.072   1.588  0.2080  0.0032 -0.1849
  169TIP3    H1  513   5.295   0.020   1.530 -2.3245 -1.4046 -1.4971
  169TIP3    H2  514   5.187   0.125   1.530  0.8917  2.1936  1.0823
  170TIP3   OH2  515   0.959   4.666   3.801 -0.0942  0.2013  0.3341
  170TIP3    H1  516   0.953   4.756   3.771 -1.9937  0.8968  2.5119
  170TIP3    H2  517   0.869   4.634   3.799  0.3317 -1.1326  1.0421
  171TIP3   OH2  518   2.075   4.795   2.818  0.4039  0.2568  0.3038
  171TIP3    H1  519   2.158   4.764   2.853  0.3202  0.3586  0.5943
  171TIP3    H2  520   2.060   4.741   2.740  0.0066 -0.7740  1.0839
  172TIP3   OH2  521   0.681   2.402   1.796  0.5098  0.0101  0.1543
  172TIP3    H1  522   0.712   2.401   1.886  1.4907  0.9320 -0.1503
  172TIP3    H2  523   0.688   2.311   1.767  0.1573 -0.2938  1.0076
  173TIP3   OH2  524   4.668   4.263   2.058 -0.5090 -0.4259 -0.0202
  173TIP3    H1  525   4.621   4.193   2.103 -0.0751 -0.3039  0.6329
  173TIP3    H2  526   4.612   4.285   1.983 -0.8450 -1.1811  0.0005
  174TIP3   OH2  527   4.263   5.253   4.645  0.7020 -0.0052  0.0600
  174TIP3    H1  528   4.303   5.215   4.567  1.0865 -0.4560  0.4637
  174TIP3    H2  529   4.243   5.177   4.700 -1.0228  0.1832 -0.2627
  175TIP3   OH2  530   5.027   2.535   5.025 -0.4149  0.3900  0.4452
  175TIP3    H1  531   4.936   2.515   5.045 -1.0237  0.9193 -1.5511
  175TIP3    H2  532   5.043   2.494   4.940  0.2327  2.8344 -0.7010
  176TIP3   OH2  533   2.907   0.743   3.438 -0.4089  0.2358 -0.1574
  176TIP3    H1  534   2.847   0.761   3.511  1.6506  2.9426  1.0353
  176TIP3    H2  535   2.893   0.815   3.377  1.0704  0.4732 -0.2320
  177TIP3   OH2  536   4.299   4.529   3.523  0.0612 -0.5452 -1.2195
  177TIP3    H1  537   4.289   4.592   3.595  1.6613 -0.3811 -1.1036
  177TIP3    H2  538   4.220   4.475   3.527  0.6022 -1.2848  1.4081
  178TIP3   OH2  539   0.311   5.706   0.633  0.3203 -0.1792 -0.4282
  178TIP3    H1  540   0.314   5.795   0.670  1.3519  0.0898 -1.1228
  178TIP3    H2  541   0.266   5.717   0.549  1.6800 -0.0385 -1.1730
  179TIP3   OH2  542   1.954   2.686   1.138 -0.1048 -0.0201  0.4109
  179TIP3    H1  543   1.981   2.693   1.046  0.2724 -1.6279  0.3622
  179TIP3    H2  544   1.989   2.601   1.166  0.2669  0.6974  2.2144
  180TIP3   OH2  545   5.518   0.170   4.633  0.5085  0.2446  0.5208
  180TIP3    H1  546   5.607   0.145   4.658 -0.1810 -1.1143  1.7426
  180TIP3    H2  547   5.475   0.190   4.716 -0.9685 -1.3948  0.1935
  181TIP3   OH2  548   4.677   2.944   0.834 -0.8032  0.0994 -0.9660
  181TIP3    H1  549   4.704   2.940   0.926 -1.8536 -3.8554 -0.6478
  181TIP3    H2  550   4.586   2.914   0.835 -0.1001 -2.4860 -3.4391
  182TIP3   OH2  551   5.310   0.467   4.472  0.7486 -0.1255  0.3088
  182TIP3    H1  552   5.294   0.548   4.521  0.2609 -1.1423  1.8972
  182TIP3    H2  553   5.227   0.420   4.475  1.3299 -1.1825  0.4028
  183TIP3   OH2  554   4.664   5.700   5.043  0.2024 -0.1418  0.6006
  183TIP3    H1  555   4.685   5.649   5.122 -2.7661 -0.1034  1.5106
  183TIP3    H2  556   4.635   5.634   4.980  1.9444 -0.0985 -0.3063
  184TIP3   OH2  557   3.364   1.747   3.015 -0.0458  0.0113  0.0875
  184TIP3    H1  558   3.397   1.835   3.032  0.6018 -0.2297  0.0902
  184TIP3    H2  559   3.434   1.704   2.966 -0.8120 -0.1532 -0.8918
  185TIP3   OH2  560   2.247   3.112   2.772 -0.1646  0.0167 -0.1946
  185TIP3    H1  561   2.293   3.035   2.807  0.1079 -0.2375 -1.0695
  185TIP3    H2  562   2.181   3.076   2.713 -1.0301  0.4129  0.5220
  186TIP3   OH2  563   6.122   4.974   3.395 -0.4170  0.2573  0.0998
  186TIP3    H1  564   6.082   5.042   3.449 -3.0606 -0.3960 -0.8602
  186TIP3    H2  565   6.085   4.892   3.428  0.9066 -0.5059 -0.2415
  187TIP3   OH2  566   0.537   5.272   3.966 -0.7870 -0.3702 -0.0332
  187TIP3    H1  567   0.615   5.232   3.927  0.0114  0.1027  1.0304
  187TIP3    H2  568   0.569   5.314   4.046 -1.8290  1.2753 -0.4346
  188TIP3   OH2  569   0.331   4.822  -0.003  0.0375  0.7915  0.2468
  188TIP3    H1  570   0.298   4.756  -0.063 -0.4933  1.3306 -0.0589
  188TIP3    H2  571   0.269   4.822   0.070 -0.3488  1.4169 -0.0705
  189TIP3   OH2  572   3.266   3.417   3.041  0.0596 -0.2074 -0.0312
  189TIP3    H1  573   3.324   3.488   3.068  0.5592 -0.5183 -0.2724
  189TIP3    H2  574   3.242   3.438   2.951  0.4701 -0.5069 -0.2149
  190TIP3   OH2  575   3.300   2.186   3.140  0.4324 -0.0979  0.1994
  190TIP3    H1  576   3.240   2.125   3.097 -0.8301  0.4441  1.1260
  190TIP3    H2  577   3.286   2.173   3.233  2.3317 -0.4744  0.4717
  191TIP3   OH2  578   5.092   0.332   3.943  0.3549  0.2185 -0.4063
  191TIP3    H1  579   5.048   0.340   3.859 -1.1976 -0.6765  0.2649
  191TIP3    H2  580   5.130   0.244   3.942 -0.5693 -0.2146  0.1829
  192TIP3   OH2  581   6.224   2.108   0.938  0.4951  0.1036  0.1698
  192TIP3    H1  582   6.242   2.145   1.024 -0.1964  1.2135 -0.1393
  192TIP3    H2  583   6.274   2.026   0.936  0.1433 -0.1904  1.7963
  193TIP3   OH2  584   3.371   0.636   1.582  0.4354  0.2971  0.8393
  193TIP3    H1  585   3.413   0.557   1.547 -1.6375 -0.4260 -0.1742
  193TIP3    H2  586   3.418   0.654   1.663  2.4403 -0.6325 -0.0459
  194TIP3   OH2  587   4.425   1.628   5.056  0.3075 -0.5043 -0.1236
  194TIP3    H1  588   4.429   1.562   5.125 -0.7531 -1.5521 -1.0401
  194TIP3    H2  589   4.332   1.644   5.043  0.5331  0.6570 -0.4116
  195TIP3   OH2  590   4.932   4.191   1.996  0.1314 -0.4274 -0.3971
  195TIP3    H1  591   4.850   4.240   1.998 -0.6107 -1.6051 -1.0018
  195TIP3    H2  592   4.907   4.100   2.011  1.4732 -0.6697  0.6328
  196TIP3   OH2  593   2.272   3.090   3.319  0.1333  0.3552 -0.1273
  196TIP3    H1  594   2.207   3.020   3.314  0.3782  0.0177  0.9959
  196TIP3    H2  595   2.239   3.147   3.389  0.4940  0.7764 -0.2980
  197TIP3   OH2  596   4.307   3.654   0.580  0.6755  0.3122  0.2331
  197TIP3    H1  597   4.288   3.669   0.488  0.5272 -1.4107 -0.0581
  197TIP3    H2  598   4.243   3.707   0.627  1.4036  2.0149 -0.6090
  198TIP3   OH2  599   0.775   3.272   0.374 -0.4436 -0.1999  0.3124
  198TIP3    H1  600   0.701   3.225   0.412 -0.4323  0.0340  0.6246
  198TIP3    H2  601   0.839   3.203   0.353 -0.7743 -0.4079 -0.0191
  199TIP3   OH2  602   2.449   0.917   3.537 -0.2349  0.2269  0.3738
  199TIP3    H1  603   2.403   0.876   3.464  2.1163 -1.6054 -0.2276
  199TIP3    H2  604   2.451   1.010   3.515 -1.2928 -0.0123 -0.8742
  200TIP3   OH2  605   0.452   4.143   2.533  0.2632 -0.0980  0.3181
  200TIP3    H1  606   0.441   4.048   2.538 -0.7994 -0.0378 -0.6697
  200TIP3    H2  607   0.373   4.179   2.573  0.0047  0.3665 -0.6040
  201TIP3   OH2  608   6.032   4.535   2.309 -0.4166  0.7316 -0.5464
  201TIP3    H1  609   6.102   4.597   2.292 -0.1583  1.2193  1.9344
  201TIP3    H2  610   5.952   4.587   2.305 -0.4837  0.5773 -1.4233
  202TIP3   OH2  611   0.451   0.188   0.990  0.5367 -0.3816 -0.0623
  202TIP3    H1  612   0.500   0.214   0.913  0.5471 -0.6897 -0.1618
  202TIP3    H2  613   0.411   0.269   1.022  0.3853 -0.2833 -0.4935
  203TIP3   OH2  614   5.913   1.022   1.170  0.2539 -0.0209  0.0365
  203TIP3    H1  615   5.921   0.994   1.261  1.2901  1.4324  0.4217
  203TIP3    H2  616   5.993   1.072   1.153 -0.1803  0.2012 -1.5111
  204TIP3   OH2  617   0.596   4.230   4.280  0.5907  0.3388  0.0159
  204TIP3    H1  618   0.541   4.186   4.345  0.3892  1.4668  0.6354
  204TIP3    H2  619   0.541   4.236   4.202  0.0490  0.8807  0.4281
  205TIP3   OH2  620   1.281   1.461   1.529 -0.1654 -0.3214 -0.0410
  205TIP3    H1  621   1.374   1.481   1.535 -0.5962  1.7455  0.8496
  205TIP3    H2  622   1.245   1.531   1.473 -1.1499 -1.2178 -0.5676
  206TIP3   OH2  623   3.378   5.361   4.852  0.5050  0.3572 -0.5291
  206TIP3    H1  624   3.318   5.430   4.824 -0.9536 -0.4487  0.5069
  206TIP3    H2  625   3.327   5.306   4.912  2.2059 -0.4867  0.2463
  207TIP3   OH2  626   4.262   5.814   4.542  0.3087  0.4169  0.2464
  207TIP3    H1  627   4.354   5.825   4.520  0.1865  0.1579 -0.4118
  207TIP3    H2  628   4.248   5.720   4.546  0.3931  0.4418  1.7846
  208TIP3   OH2  629   6.237   5.105   0.909 -0.4698  0.4432  0.1867
  208TIP3    H1  630   6.277   5.181   0.867  1.7569 -0.5203  0.4246
  208TIP3    H2  631   6.206   5.137   0.993  0.4160  1.1065  0.2707
  209TIP3   OH2  632   5.851   2.527   1.258 -0.7150  0.6055 -0.1100
  209TIP3    H1  633   5.905   2.559   1.330 -1.2454 -0.5636  0.8362
  209TIP3    H2  634   5.855   2.597   1.193  1.4321  0.8080  0.1695
  210TIP3   OH2  635   1.664   1.707   1.834 -0.0463 -0.1626  0.4401
  210TIP3    H1  636   1.758   1.700   1.819  0.4017  1.3764  2.1608
  210TIP3    H2  637   1.643   1.634   1.893 -0.3222 -1.5514 -1.2947
  211TIP3   OH2  638   0.132   3.050   2.644 -0.0755  0.4268  0.3986
  211TIP3    H1  639   0.222   3.080   2.661  0.4335 -1.0846  0.5915
  211TIP3    H2  640   0.138   3.004   2.561 -0.5866 -0.0036  0.5988
  212TIP3   OH2  641   1.715   1.640   0.069 -0.1793 -0.0118 -0.4204
  212TIP3    H1  642   1.728   1.697  -0.007  1.7672 -2.1828 -1.8444
  212TIP3    H2  643   1.719   1.699   0.144 -0.4088  1.9777 -1.8954
  213TIP3   OH2  644   2.990   1.480   0.884  0.0138 -0.2902  0.1016
  213TIP3    H1  645   3.082   1.474   0.909  0.2404 -1.7034 -0.9556
  213TIP3    H2  646   2.983   1.425   0.807 -1.2252  1.7376 -1.3331
  214TIP3   OH2  647   3.801   3.156   0.416  0.3624  0.3626 -0.1402
  214TIP3    H1  648   3.714   3.180   0.446 -0.4420 -1.8752 -0.4678
  214TIP3    H2  649   3.844   3.120   0.494 -0.3007 -1.7269 -0.6671
  215TIP3   OH2  650   4.823   2.366   2.776  0.0141 -0.2452 -0.4111
  215TIP3    H1  651   4.749   2.408   2.733 -0.2660  0.1058  0.3945
  215TIP3    H2  652   4.882   2.341   2.704 -1.2104 -1.2013 -1.1056
  216TIP3   OH2  653   5.654   2.130   4.090  0.4670  0.3757  0.2367
  216TIP3    H1  654   5.710   2.101   4.162 -0.2104 -0.2517  0.5323
  216TIP3    H2  655   5.713   2.142   4.016  1.0590  0.2195  0.6785
  217TIP3   OH2  656   4.916   5.799   3.843  0.0994 -0.4271 -0.2182
  217TIP3    H1  657   4.998   5.753   3.858  0.4101  0.1595 -0.0992
  217TIP3    H2  658   4.927   5.842   3.759  0.3661  0.6166  0.3408
  218TIP3   OH2  659   2.962   2.865   4.652  0.5307 -0.3933  0.1613
  218TIP3    H1  660   2.953   2.911   4.569  0.6094  2.7548  1.7650
  218TIP3    H2  661   2.872   2.844   4.679  0.5363 -2.0408 -0.9405
  219TIP3   OH2  662   2.648   4.944   4.896  0.3383 -0.1372  0.4056
  219TIP3    H1  663   2.609   5.030   4.912 -1.3024  0.0141 -3.2082
  219TIP3    H2  664   2.573   4.886   4.882  1.3931 -1.3778 -0.3751
  220TIP3   OH2  665   4.717   2.403   4.920  0.4721 -0.1776  0.0619
  220TIP3    H1  666   4.736   2.497   4.928  0.1387 -0.0432 -0.7122
  220TIP3    H2  667   4.688   2.391   4.830  1.7703 -1.2605 -0.2478
  221TIP3   OH2  668   6.221   1.668   3.627  0.5944  0.1808  0.5231
  221TIP3    H1  669   6.247   1.644   3.538  0.1571  1.3459  0.0742
  221TIP3    H2  670   6.304   1.681   3.673  0.8194 -0.1931  0.2355
  222TIP3   OH2  671   5.450   4.713   4.056  0.5631  0.7083 -0.1474
  222TIP3    H1  672   5.541   4.704   4.028  1.1632 -1.1771  2.0386
  222TIP3    H2  673   5.410   4.628   4.037 -0.7319  1.4552 -0.9155
  223TIP3   OH2  674   4.806   4.011   3.936 -0.1791 -0.1390 -0.0579
  223TIP3    H1  675   4.899   3.995   3.954  0.2574 -0.6337 -2.3464
  223TIP3    H2  676   4.797   3.993   3.842 -2.6094 -0.1443  0.1121
  224TIP3   OH2  677   3.094   4.904   4.017  0.6090 -0.0455 -0.3182
  224TIP3    H1  678   3.102   4.941   4.105  1.6956 -2.1757  0.5520
  224TIP3    H2  679   3.166   4.841   4.011 -0.6145 -1.3714 -2.0141
  225TIP3   OH2  680   5.026   0.491   4.626  0.4231 -0.4798 -0.4655
  225TIP3    H1  681   4.974   0.424   4.583  1.6291 -0.9818 -1.1989
  225TIP3    H2  682   4.962   0.554   4.660 -0.6308 -0.9161 -1.5922
  226TIP3   OH2  683   3.137   2.787   1.541  0.2528 -0.1983 -0.3116
  226TIP3    H1  684   3.138   2.882   1.555  0.4862 -0.1855 -0.4079
  226TIP3    H2  685   3.139   2.777   1.445 -1.5057 -0.2809 -0.3748
  227TIP3   OH2  686   0.239   3.055   1.262  0.2965  0.1799 -0.0438
  227TIP3    H1  687   0.205   3.094   1.343  1.4215 -2.8228  2.0637
  227TIP3    H2  688   0.331   3.082   1.260  0.6580 -0.9374  0.5550
  228TIP3   OH2  689   5.816   4.558   1.998 -0.0331 -0.8135 -0.1313
  228TIP3    H1  690   5.855   4.489   2.050  0.2687  0.0704  0.8385
  228TIP3    H2  691   5.739   4.517   1.958 -1.1481 -1.1412  2.1767
  229TIP3   OH2  692   1.230   0.806   1.523 -0.2070  0.0170  0.5835
  229TIP3    H1  693   1.218   0.835   1.433  2.3181 -1.6172 -0.4139
  229TIP3    H2  694   1.299   0.863   1.557 -0.8433  0.3428  1.3469
  230TIP3   OH2  695   0.027   2.793   1.357  0.6917  0.9933  0.4883
  230TIP3    H1  696   0.121   2.775   1.357  0.5398  0.1403  0.9813
  230TIP3    H2  697  -0.004   2.758   1.274  0.3381 -1.5098  1.5974
  231TIP3   OH2  698   5.036   0.209   4.946 -0.0560 -0.6325  0.0976
  231TIP3    H1  699   5.015   0.299   4.969 -1.4870 -0.8895 -0.1495
  231TIP3    H2  700   5.094   0.180   5.016 -0.5077  0.1175  0.7982
  232TIP3   OH2  701   4.682   0.470   4.599 -0.2954 -0.6999  0.1899
  232TIP3    H1  702   4.714   0.560   4.592 -0.6463 -0.6301 -0.7266
  232TIP3    H2  703   4.659   0.459   4.691  1.9702 -0.6412  0.8230
  233TIP3   OH2  704   0.069   0.604   2.727  0.8656  0.5601 -0.0012
  233TIP3    H1  705  -0.018   0.633   2.699  1.4586  2.3305 -0.1017
  233TIP3    H2  706   0.087   0.527   2.673  0.4939  1.7858 -1.9486
  234TIP3   OH2  707   1.351   3.225   4.746 -0.2408  0.3481  0.1332
  234TIP3    H1  708   1.406   3.251   4.672 -0.0613  2.5280  0.9563
  234TIP3    H2  709   1.264   3.213   4.708  0.4691 -1.8778 -0.9579
  235TIP3   OH2  710   0.656   4.118   0.629  0.2852  0.9938 -0.1960
  235TIP3    H1  711   0.565   4.088   0.626  0.4607  0.3483  0.7900
  235TIP3    H2  712   0.692   4.092   0.544 -0.3469  0.9543 -0.4654
  236TIP3   OH2  713   3.919   2.784   0.465  0.5499  0.0228  0.5309
  236TIP3    H1  714   3.860   2.854   0.490 -2.9704 -1.5175 -2.5358
  236TIP3    H2  715   3.972   2.821   0.395 -1.7323 -0.3578 -1.5238
  237TIP3   OH2  716   6.185   0.040   3.116 -0.5825  0.0704  0.5943
  237TIP3    H1  717   6.229   0.030   3.200  1.7817  1.1741 -0.4412
  237TIP3    H2  718   6.196  -0.045   3.072  0.3560  0.2722  0.4300
  238TIP3   OH2  719   6.161   1.084   3.766 -0.4086 -0.4167 -0.3542
  238TIP3    H1  720   6.088   1.123   3.814 -0.5232  0.6325 -1.3371
  238TIP3    H2  721   6.189   1.011   3.820 -0.6899  0.5692  1.1972
  239TIP3   OH2  722   5.576   2.520   4.758 -0.5500 -0.2202  0.0133
  239TIP3    H1  723   5.518   2.593   4.779  0.0636 -0.1392  1.4823
  239TIP3    H2  724   5.523   2.463   4.702 -2.2342 -0.4021  1.7295
  240TIP3   OH2  725   1.640   1.922   4.260  0.1144 -0.1859 -0.0583
  240TIP3    H1  726   1.608   1.915   4.170 -0.1377  0.0882  0.0084
  240TIP3    H2  727   1.562   1.917   4.314  0.2272  0.0475  0.1271
  241TIP3   OH2  728   2.899   2.570   0.631 -0.4633 -0.2095  0.2760
  241TIP3    H1  729   2.860   2.619   0.559  1.2267  1.6574  0.5681
  241TIP3    H2  730   2.870   2.615   0.710 -0.0859 -0.5841  0.6350
  242TIP3   OH2  731   3.729   5.175   3.800  0.3593  0.4687 -0.3342
  242TIP3    H1  732   3.720   5.230   3.722  1.4147  0.9204 -0.1436
  242TIP3    H2  733   3.686   5.093   3.775  1.1726  0.3941 -1.6118
  243TIP3   OH2  734   4.180   0.196   4.131 -0.1497 -0.0131 -0.2234
  243TIP3    H1  735   4.198   0.116   4.181 -1.0118  0.5276  0.9991
  243TIP3    H2  736   4.126   0.166   4.058  1.0203 -0.7982 -0.7969
  244TIP3   OH2  737   3.929   5.612   0.342  0.1515  0.0731  0.1199
  244TIP3    H1  738   3.840   5.582   0.363 -0.7656  1.8475 -0.9397
  244TIP3    H2  739   3.969   5.537   0.298 -0.7038 -0.8776  0.8967
  245TIP3   OH2  740   0.899   2.581   1.698  0.6653  0.2686 -0.6476
  245TIP3    H1  741   0.922   2.529   1.621  2.6505 -1.9337  1.2574
  245TIP3    H2  742   0.834   2.527   1.744  2.3288 -0.3968  1.0727
  246TIP3   OH2  743   0.176   3.944   1.259 -0.1723 -0.4370  0.1786
  246TIP3    H1  744   0.153   3.893   1.182  0.2957  0.2048 -0.3957
  246TIP3    H2  745   0.247   4.001   1.230  1.5477 -1.7183  1.6648
  247TIP3   OH2  746   1.936   3.995   4.632  0.5201 -0.4675  0.5068
  247TIP3    H1  747   2.000   3.941   4.585 -1.2477 -1.9540 -0.3529
  247TIP3    H2  748   1.901   3.936   4.699  0.5813  0.5591  1.4517
  248TIP3   OH2  749   0.718   5.629   3.401  0.3742 -0.1054 -0.5268
  248TIP3    H1  750   0.786   5.577   3.359  0.8489 -0.3377  0.4988
  248TIP3    H2  751   0.660   5.564   3.442 -0.2121  0.1067 -1.0078
  249TIP3   OH2  752   2.622   2.979   0.711  0.4612 -0.0520 -0.1261
  249TIP3    H1  753   2.707   3.016   0.732 -0.3483  0.6197  2.3066
  249TIP3    H2  754   2.622   2.893   0.753  0.1214 -0.2573 -0.5364
  250TIP3   OH2  755   4.275   4.156   3.367 -0.2383 -0.0970 -0.0884
  250TIP3    H1  756   4.244   4.246   3.361  0.2994 -0.0047 -2.1702
  250TIP3    H2  757   4.370   4.163   3.360 -0.2431 -0.8613 -1.1564
  251TIP3   OH2  758   3.433   3.360   4.799  0.2816 -0.3621  0.0714
  251TIP3    H1  759   3.357   3.343   4.854  0.5611  0.5181  0.7589
  251TIP3    H2  760   3.483   3.279   4.801 -1.1839 -1.3607 -1.3401
  252TIP3   OH2  761   5.710   5.536   0.878 -0.2093 -0.7533  0.5777
  252TIP3    H1  762   5.802   5.560   0.867  0.3909 -2.1211  2.2566
  252TIP3    H2  763   5.662   5.604   0.831  1.7123 -1.8489 -3.3664
  253TIP3   OH2  764   5.935   5.156   1.585 -0.4038  0.2374 -0.5624
  253TIP3    H1  765   5.941   5.146   1.490 -0.2561 -0.6676 -0.4650
  253TIP3    H2  766   6.008   5.214   1.607 -0.8960  1.0699 -1.0830
  254TIP3   OH2  767   1.102   4.892   3.490 -0.3043  0.2277 -0.0846
  254TIP3    H1  768   1.173   4.831   3.472  0.4350  1.7130 -2.6958
  254TIP3    H2  769   1.139   4.954   3.553  0.1227  0.0168 -0.1232
  255TIP3   OH2  770   1.944   2.202   3.694 -0.6315  0.3638  0.3420
  255TIP3    H1  771   1.899   2.163   3.769  0.3717 -0.3459  0.5975
  255TIP3    H2  772   1.931   2.139   3.623 -1.4167  0.9434 -0.0439
  256TIP3   OH2  773   2.981   3.841   2.048 -0.2808  0.7962  0.2061
  256TIP3    H1  774   2.961   3.923   2.093  0.8416  1.2433 -0.0843
  256TIP3    H2  775   2.981   3.864   1.955  2.9983  1.2287  0.1973
  257TIP3   OH2  776   2.366   2.112   2.634  0.3021 -0.2805  0.3120
  257TIP3    H1  777   2.349   2.115   2.729  1.8119  2.2784  0.6091
  257TIP3    H2  778   2.413   2.194   2.616  0.1882 -0.7640 -2.6521
  258TIP3   OH2  779   1.240   5.184   4.653 -0.5847 -0.3236  0.1524
  258TIP3    H1  780   1.293   5.147   4.724 -3.9420  1.2569  3.8712
  258TIP3    H2  781   1.150   5.160   4.675 -2.2508  3.9444 -1.0229
  259TIP3   OH2  782   6.382   5.765   2.358 -0.2239 -0.0558  0.3422
  259TIP3    H1  783   6.319   5.810   2.414  0.8474 -0.4106  1.9007
  259TIP3    H2  784   6.333   5.691   2.322 -1.0002  0.3131  0.6094
  260TIP3   OH2  785   0.447   2.009   2.754 -0.4530 -0.0568  0.0401
  260TIP3    H1  786   0.496   2.024   2.673 -0.6967 -1.1830 -0.3353
  260TIP3    H2  787   0.510   1.966   2.812 -1.1527 -2.2830 -0.7356
  261TIP3   OH2  788   0.878   0.711   4.853 -0.1913  0.6884  0.2778
  261TIP3    H1  789   0.965   0.675   4.870 -0.4174  0.1497  0.3098
  261TIP3    H2  790   0.864   0.699   4.759 -0.1471  0.9724  0.2320
  262TIP3   OH2  791   1.145   5.989   1.842 -0.0088  0.1609 -0.0411
  262TIP3    H1  792   1.127   6.037   1.922  1.8681 -1.5224  1.5066
  262TIP3    H2  793   1.084   5.916   1.843  0.5775 -0.3393  0.3479
  263TIP3   OH2  794   0.889   3.949   1.212  0.4311 -0.3415  0.0187
  263TIP3    H1  795   0.937   3.932   1.131 -1.0119  0.7636 -1.1501
  263TIP3    H2  796   0.956   3.975   1.275  1.5123 -0.2264 -1.1285
  264TIP3   OH2  797   5.761   3.134   2.296  0.3692  0.4793 -0.5486
  264TIP3    H1  798   5.691   3.141   2.231 -0.4544  0.5750  0.3326
  264TIP3    H2  799   5.802   3.220   2.295  0.4009  0.4635 -0.9829
  265TIP3   OH2  800   2.333   0.265   2.101 -0.1225  0.2031  0.7922
  265TIP3    H1  801   2.291   0.214   2.031  1.1434  0.0422  0.1312
  265TIP3    H2  802   2.271   0.336   2.119  0.8366  2.1715 -2.7415
  266TIP3   OH2  803   1.826   4.649   1.363 -0.6693 -0.3593  0.4060
  266TIP3    H1  804   1.843   4.694   1.446 -1.0437  1.7969 -0.6224
  266TIP3    H2  805   1.913   4.634   1.326 -0.5390 -0.5890  0.7927
  267TIP3   OH2  806   5.976   4.183   0.841  0.2103 -0.2860  0.4212
  267TIP3    H1  807   5.929   4.130   0.905  0.9716 -2.0266 -0.3929
  267TIP3    H2  808   5.948   4.149   0.756  2.5171 -1.1306 -0.0961
  268TIP3   OH2  809   1.067   4.217   1.373 -0.1130 -0.2418  0.6035
  268TIP3    H1  810   1.008   4.293   1.371  0.4600  0.2229 -1.8821
  268TIP3    H2  811   1.152   4.254   1.400 -0.0501 -0.1475  0.2863
  269TIP3   OH2  812   2.412   5.856   3.029  1.2060 -0.1989  0.1752
  269TIP3    H1  813   2.358   5.793   3.076  0.4951  0.2353 -0.0373
  269TIP3    H2  814   2.500   5.845   3.066  1.0308 -1.0924  0.3506
  270TIP3   OH2  815   5.379   4.853   3.041 -0.1658 -0.1367 -0.0870
  270TIP3    H1  816   5.435   4.861   3.118  0.7922  1.1098 -0.8812
  270TIP3    H2  817   5.375   4.941   3.004 -1.1994 -0.5609 -1.0698
  271TIP3   OH2  818   1.174   1.192   1.466 -0.0335 -0.4645 -0.0585
  271TIP3    H1  819   1.081   1.216   1.467 -0.3901 -1.7502 -0.8431
  271TIP3    H2  820   1.220   1.276   1.474 -1.2458  0.1063  1.6764
  272TIP3   OH2  821   0.163   4.166   4.163 -0.0519  0.1429 -0.0395
  272TIP3    H1  822   0.217   4.163   4.084  0.4043 -0.6955  0.2931
  272TIP3    H2  823   0.172   4.256   4.194 -0.8968  0.7239 -1.3775
  273TIP3   OH2  824   5.767   3.569   1.913 -0.3056  0.3707 -0.0095
  273TIP3    H1  825   5.741   3.478   1.899 -0.5156  0.1322  1.7730
  273TIP3    H2  826   5.863   3.568   1.905 -0.3235  0.0368 -0.1936
  274TIP3   OH2  827   4.500   4.822   1.426  0.1126  0.2251 -0.4658
  274TIP3    H1  828   4.482   4.811   1.332 -1.2104  2.7006 -0.6071
  274TIP3    H2  829   4.422   4.786   1.469 -0.8396  2.0539 -0.5557
  275TIP3   OH2  830   4.215   1.503   3.475 -0.3418 -0.1089  0.1534
  275TIP3    H1  831   4.146   1.438   3.488 -0.0248 -0.2845  1.1096
  275TIP3    H2  832   4.294   1.451   3.459 -0.9599  0.0747 -4.6845
  276TIP3   OH2  833   1.889   4.349   0.652 -0.5125  0.0774 -0.1745
  276TIP3    H1  834   1.823   4.299   0.700  0.2330 -0.5203  0.2488
  276TIP3    H2  835   1.921   4.414   0.715 -0.9106  0.5695 -0.4744
  277TIP3   OH2  836   5.416   5.259   2.207 -0.1371  0.0227 -0.0831
  277TIP3    H1  837   5.345   5.303   2.254  1.2243 -0.2944  2.4234
  277TIP3    H2  838   5.374   5.183   2.166 -1.3647  0.2540  0.6975
  278TIP3   OH2  839   2.983   5.224   0.093  0.1413  0.4350  0.2027
  278TIP3    H1  840   3.045   5.288   0.058  0.2185 -0.5542 -1.5269
  278TIP3    H2  841   2.913   5.219   0.028  0.5952 -1.9104 -0.1740
  279TIP3   OH2  842   5.155   3.506   3.984 -0.2679  0.3834 -0.4915
  279TIP3    H1  843   5.084   3.558   3.944 -0.3362  1.2889  0.7600
  279TIP3    H2  844   5.110   3.432   4.024 -0.7457  1.6156  1.4232
  280TIP3   OH2  845   4.966   2.628   3.562  0.0915  0.6891 -0.1961
  280TIP3    H1  846   4.892   2.674   3.521 -1.7097 -0.7724  1.2680
  280TIP3    H2  847   4.966   2.658   3.653 -0.9683 -1.8648  0.7337
  281TIP3   OH2  848   3.404   4.114   4.196  0.2576 -0.0941 -0.1420
  281TIP3    H1  849   3.466   4.054   4.155  0.5272  0.3481 -0.3809
  281TIP3    H2  850   3.318   4.081   4.168  0.4228 -0.0103 -0.7720
  282TIP3   OH2  851   2.461   2.442   2.183 -0.7175  0.2061  0.4202
  282TIP3    H1  852   2.442   2.524   2.228  1.2952  0.5715  0.6793
  282TIP3    H2  853   2.522   2.396   2.240 -1.2453 -1.1695 -0.0663
  283TIP3   OH2  854   4.666   1.411   4.451  0.1432 -0.8136 -0.0365
  283TIP3    H1  855   4.761   1.405   4.441  0.2389 -2.4722  1.3063
  283TIP3    H2  856   4.632   1.340   4.397 -0.4218  0.1793 -1.0348
  284TIP3   OH2  857   4.241   3.399   2.894 -0.1076  0.1602 -0.9905
  284TIP3    H1  858   4.183   3.471   2.916  1.4107  0.9398  0.7092
  284TIP3    H2  859   4.225   3.333   2.962  0.3818  0.0241 -0.9995
  285TIP3   OH2  860   0.919   5.701   4.431 -0.5760 -0.7545  0.7016
  285TIP3    H1  861   0.928   5.771   4.367 -0.3163 -0.7882  0.7012
  285TIP3    H2  862   0.911   5.745   4.515  0.0323 -0.7319  0.7529
  286TIP3   OH2  863   1.463   2.752   1.072  0.0060  0.6413  0.2891
  286TIP3    H1  864   1.401   2.824   1.057 -1.1895 -0.5653 -0.8574
  286TIP3    H2  865   1.534   2.791   1.122 -2.4523  1.7188  3.1995
  287TIP3   OH2  866   0.092   1.013   0.882  0.1161 -0.3511  0.4916
  287TIP3    H1  867   0.022   1.078   0.884  0.8821  0.5019  0.5723
  287TIP3    H2  868   0.048   0.931   0.862 -0.7390  0.4096 -0.9848
  288TIP3   OH2  869   4.405   0.111   1.796  0.0217 -0.5339 -0.0619
  288TIP3    H1  870   4.468   0.097   1.725  1.5971 -1.4801  1.4274
  288TIP3    H2  871   4.354   0.031   1.799  1.1443 -1.2462  0.9490
  289TIP3   OH2  872   5.102   1.314   5.064 -0.3170 -0.2341  0.2733
  289TIP3    H1  873   5.117   1.367   5.142 -1.3567 -1.5302  1.4082
  289TIP3    H2  874   5.126   1.225   5.090  0.1268 -0.5709 -1.1614
  290TIP3   OH2  875   5.269   4.493   4.260  0.1718  0.0746 -0.1607
  290TIP3    H1  876   5.195   4.553   4.269  1.3812  1.9373 -1.6909
  290TIP3    H2  877   5.237   4.423   4.203 -0.5322  0.6564 -0.4955
  291TIP3   OH2  878   3.807   5.095   2.926  0.1818  0.2591  0.4015
  291TIP3    H1  879   3.783   5.006   2.897  0.4398 -0.0368  1.0761
  291TIP3    H2  880   3.900   5.102   2.904  0.0614  0.5275 -0.0404
  292TIP3   OH2  881   0.583   3.801   2.960  0.3807 -0.0859  0.4850
  292TIP3    H1  882   0.652   3.787   3.025  1.1499  0.8302 -0.1140
  292TIP3    H2  883   0.594   3.892   2.932  0.1693 -0.5003 -1.0377
  293TIP3   OH2  884   3.869   5.261   2.418  0.8595  0.8249  0.5238
  293TIP3    H1  885   3.943   5.227   2.468  1.2441  2.3990  1.0586
  293TIP3    H2  886   3.832   5.183   2.375  2.6026 -0.0306  0.4988
  294TIP3   OH2  887   1.978   1.165   5.064  0.0888  0.2611  0.3460
  294TIP3    H1  888   1.917   1.235   5.087 -0.0974 -0.2146  1.3305
  294TIP3    H2  889   2.049   1.210   5.017 -1.0558  0.8073 -0.9547
  295TIP3   OH2  890   2.753   3.842   4.485  0.5165 -0.2812  0.2015
  295TIP3    H1  891   2.742   3.933   4.461  2.0793  0.5181  2.2307
  295TIP3    H2  892   2.703   3.831   4.566 -0.7837 -1.6222 -0.7292
  296TIP3   OH2  893   2.741   3.326   3.139 -0.4748 -0.3388 -0.4038
  296TIP3    H1  894   2.657   3.301   3.099 -0.3808 -0.3618 -0.5857
  296TIP3    H2  895   2.719   3.344   3.230 -0.7912  0.2299 -0.5854
  297TIP3   OH2  896   1.359   5.704   0.047 -0.2231  0.1757 -0.1728
  297TIP3    H1  897   1.343   5.674   0.137 -0.1843 -0.0511 -0.2413
  297TIP3    H2  898   1.285   5.762   0.028 -1.1923 -1.1648 -0.6254
  298TIP3   OH2  899   2.929   3.713   1.392 -0.1327  0.9959 -0.0343
  298TIP3    H1  900   3.017   3.729   1.357  0.8191 -3.1971 -0.0312
  298TIP3    H2  901   2.919   3.618   1.391 -4.1451  1.2012  1.4084
  299TIP3   OH2  902   2.286   0.803   0.147  0.1166  0.1830  0.3623
  299TIP3    H1  903   2.306   0.884   0.101 -0.7755  0.3613  0.2659
  299TIP3    H2  904   2.282   0.736   0.078 -2.7793  0.7218 -0.1166
  300TIP3   OH2  905   3.399   3.992   1.746  0.6302  0.0405  0.4156
  300TIP3    H1  906   3.320   3.944   1.721 -0.8432  1.6207  1.7289
  300TIP3    H2  907   3.426   3.952   1.829 -0.3372  1.1051  1.2801
  301TIP3   OH2  908   3.044   5.761   4.544  0.4508 -1.0620 -0.5140
  301TIP3    H1  909   3.082   5.808   4.618  0.9210  0.1454 -1.4725
  301TIP3    H2  910   3.095   5.790   4.468 -1.4253 -0.4948 -1.6499
  302TIP3   OH2  911   3.801   3.851   2.184  0.0000  0.5630 -0.4645
  302TIP3    H1  912   3.723   3.855   2.129 -0.4759  2.1226  0.2434
  302TIP3    H2  913   3.778   3.790   2.254 -0.3809  0.6007 -0.5544
  303TIP3   OH2  914   6.222   2.235   3.159 -0.0740 -0.1955  0.1255
  303TIP3    H1  915   6.135   2.209   3.131 -0.3692  1.7263 -0.9239
  303TIP3    H2  916   6.213   2.253   3.252 -0.9173  0.3672 -0.0548
  304TIP3   OH2  917   3.665   3.557   3.047 -0.0366  0.8587 -0.0301
  304TIP3    H1  918   3.682   3.561   2.953  0.7347  1.5405  0.1219
  304TIP3    H2  919   3.743   3.515   3.083 -1.2284 -1.3567  0.1087
  305TIP3   OH2  920   0.949   0.071   0.127 -0.1623 -0.5359  0.2373
  305TIP3    H1  921   1.002   0.054   0.205  1.4451  0.4359 -0.5850
  305TIP3    H2  922   0.880   0.130   0.158 -0.9959 -2.0431  1.3855
  306TIP3   OH2  923   6.038   4.987   1.120 -0.3612 -0.1489 -0.0272
  306TIP3    H1  924   6.046   4.978   1.025  1.5417  0.2679  0.0643
  306TIP3    H2  925   5.947   4.962   1.138 -0.9840  0.4231 -2.0256
  307TIP3   OH2  926   2.319   4.431   0.257 -0.0339 -0.2506  0.0789
  307TIP3    H1  927   2.240   4.380   0.238  0.2468  0.2062 -2.6891
  307TIP3    H2  928   2.287   4.520   0.273 -0.1649 -0.2975  0.0769
  308TIP3   OH2  929   0.965   1.976   5.055 -0.0992 -0.8966 -0.6453
  308TIP3    H1  930   0.952   2.070   5.052  0.3613 -0.7112  1.4040
  308TIP3    H2  931   1.042   1.960   5.000  1.1947  0.2544  0.7608
  309TIP3   OH2  932   4.207   5.900   2.148 -0.4526  0.4388  0.2467
  309TIP3    H1  933   4.159   5.824   2.180  0.5432 -0.2601  0.1077
  309TIP3    H2  934   4.299   5.874   2.152 -0.1321  1.4466 -0.2938
  310TIP3   OH2  935   5.142   5.829   4.706 -0.3333  0.2050 -0.1219
  310TIP3    H1  936   5.163   5.890   4.777 -0.2527  0.6665 -0.5322
  310TIP3    H2  937   5.158   5.880   4.626 -0.6915 -0.2188 -0.4649
  311TIP3   OH2  938   1.877   4.027   0.308  0.1025 -0.3791  0.6858
  311TIP3    H1  939   1.809   4.009   0.374 -0.2611  0.6544  0.6076
  311TIP3    H2  940   1.834   4.009   0.224  0.6899 -2.0961  0.7111
  312TIP3   OH2  941   5.163   5.394   2.646  0.0085  0.2158 -0.0116
  312TIP3    H1  942   5.172   5.320   2.707 -0.0383 -0.5075 -0.8540
  312TIP3    H2  943   5.173   5.472   2.701 -1.6427 -0.3701  1.1922
  313TIP3   OH2  944   6.346   3.462   1.418 -0.2814  0.0542  0.3624
  313TIP3    H1  945   6.251   3.464   1.428 -0.3692 -1.2234 -0.0239
  313TIP3    H2  946   6.362   3.493   1.329 -0.3849 -0.2033  0.2509
  314TIP3   OH2  947   3.326   0.964   0.829  0.4475  0.3199 -0.1312
  314TIP3    H1  948   3.303   1.040   0.776  0.1538  0.6538  0.4595
  314TIP3    H2  949   3.293   0.986   0.917  1.2547 -0.0593  0.2709
  315TIP3   OH2  950   0.864   4.504   1.873 -0.1419 -0.5068 -0.0575
  315TIP3    H1  951   0.779   4.458   1.874 -0.7649  0.4636 -2.4368
  315TIP3    H2  952   0.928   4.434   1.883 -1.1751 -1.4317  0.3771
  316TIP3   OH2  953   0.233   1.163   3.760 -0.0493  0.4041 -0.4796
  316TIP3    H1  954   0.227   1.079   3.713 -0.8240  0.9516 -1.4089
  316TIP3    H2  955   0.159   1.214   3.726 -0.0151  1.2076  0.6047
  317TIP3   OH2  956   0.421   4.849   2.813  0.1595  0.0515 -0.3566
  317TIP3    H1  957   0.412   4.818   2.903 -1.5305 -0.3286 -0.6222
  317TIP3    H2  958   0.455   4.938   2.822  3.0922 -1.0330  0.4873
  318TIP3   OH2  959   3.391   3.246   2.718 -0.0395 -0.1356 -0.0711
  318TIP3    H1  960   3.448   3.174   2.745 -0.1441 -0.1430  0.1367
  318TIP3    H2  961   3.304   3.207   2.711  0.0004 -0.1459 -0.4911
  319TIP3   OH2  962   0.941   2.725   0.331  0.4689  0.9421 -0.0238
  319TIP3    H1  963   0.972   2.744   0.242  1.3531 -2.5340 -0.5938
  319TIP3    H2  964   0.943   2.810   0.376  2.2738  2.4042 -2.6274
  320TIP3   OH2  965   4.694   5.181   1.904  0.2136  0.1487  0.0370
  320TIP3    H1  966   4.754   5.108   1.892 -2.4395 -2.6960  2.4909
  320TIP3    H2  967   4.619   5.160   1.848 -1.9636 -0.9017  3.0683
  321TIP3   OH2  968   1.724   5.629   0.567 -0.5326 -0.1131 -0.5485
  321TIP3    H1  969   1.747   5.645   0.658  0.8096 -0.3195 -0.8260
  321TIP3    H2  970   1.630   5.609   0.569 -0.8250  1.2144  0.5973
  322TIP3   OH2  971   3.756   3.703   3.752 -0.3337  0.0378  0.2334
  322TIP3    H1  972   3.717   3.657   3.826 -0.9634 -0.7514 -0.5694
  322TIP3    H2  973   3.848   3.679   3.754 -0.8493 -2.3397 -0.8911
  323TIP3   OH2  974   2.128   0.575   1.558 -0.2979  0.1338  0.3082
  323TIP3    H1  975   2.061   0.572   1.489  0.4833 -3.4199 -0.5190
  323TIP3    H2  976   2.211   0.579   1.510  0.2160 -1.2490  1.0166
  324TIP3   OH2  977   5.163   3.363   3.523  0.0350 -0.1888  0.2895
  324TIP3    H1  978   5.178   3.404   3.608  0.2725 -2.3190  1.3424
  324TIP3    H2  979   5.100   3.294   3.540  1.2778 -1.7067 -0.9119
  325TIP3   OH2  980   1.567   3.131   4.235 -0.3707  0.4731 -0.0291
  325TIP3    H1  981   1.578   3.089   4.320  2.0496  2.6850  0.8747
  325TIP3    H2  982   1.652   3.123   4.192 -1.3432 -0.0185 -2.0270
  326TIP3   OH2  983   5.456   0.646   2.202  0.0786  0.8419 -0.3574
  326TIP3    H1  984   5.431   0.602   2.121  0.1982 -0.0708  0.0851
  326TIP3    H2  985   5.540   0.686   2.183  0.3326  0.2292 -0.5556
  327TIP3   OH2  986   3.489   5.785   1.823 -0.1647 -0.3614 -0.7777
  327TIP3    H1  987   3.446   5.870   1.816  0.0837 -0.1864 -0.2751
  327TIP3    H2  988   3.495   5.770   1.918 -1.6354 -1.6728 -0.8693
  328TIP3   OH2  989   0.919   1.596   5.042 -0.1010  0.1513 -0.1752
  328TIP3    H1  990   0.925   1.654   4.966 -0.7230 -1.4674 -1.5233
  328TIP3    H2  991   1.009   1.592   5.076  0.9736 -1.6441 -2.8734
  329TIP3   OH2  992   2.292   1.384   2.714 -0.0116 -0.0213  0.0450
  329TIP3    H1  993   2.284   1.322   2.642  3.6490 -2.2317  1.2621
  329TIP3    H2  994   2.369   1.355   2.762 -0.2443  3.3884  2.8950
  330TIP3   OH2  995   2.648   1.322   1.587 -0.0933 -0.2425  0.1634
  330TIP3    H1  996   2.734   1.340   1.549 -1.5069  1.5026 -2.6110
  330TIP3    H2  997   2.628   1.232   1.561 -0.0009  0.1148 -1.2101
  331TIP3   OH2  998   1.282   1.798   1.130  0.4715 -0.1086  0.3252
  331TIP3    H1  999   1.316   1.752   1.054  0.4262  0.5678 -0.1055
  331TIP3    H2 1000   1.197   1.832   1.102 -0.3395 -1.3093  1.2143
  332TIP3   OH2 1001   5.143   1.660   1.770 -0.6288  0.2520 -0.3858
  332TIP3    H1 1002   5.076   1.661   1.839 -0.3586  1.9905 -0.1235
  332TIP3    H2 1003   5.168   1.751   1.760  0.7749 -0.2290 -1.4089
  333TIP3   OH2 1004   3.637   4.708   0.109 -0.1597  0.1980  0.0038
  333TIP3    H1 1005   3.712   4.698   0.051  0.1808 -1.0849  0.6300
  333TIP3    H2 1006   3.673   4.750   0.188 -0.2981  0.4895 -0.0888
  334TIP3   OH2 1007   4.229   2.760   3.193 -0.2470 -0.3249 -0.4174
  334TIP3    H1 1008   4.230   2.719   3.279  1.7488  0.8517  0.1719
  334TIP3    H2 1009   4.147   2.729   3.153 -0.9417 -1.3363  1.6476
  335TIP3   OH2 1010   5.606   2.291   2.666  0.3031  0.4411 -0.6391
  335TIP3    H1 1011   5.585   2.197   2.666 -0.7321  0.6277  1.6599
  335TIP3    H2 1012   5.544   2.330   2.726  1.8153  2.3825 -0.2308
  336TIP3   OH2 1013   2.600   5.784   4.776  0.1795 -0.2537 -1.2404
  336TIP3    H1 1014   2.541   5.776   4.702 -0.2586 -0.0490 -0.9147
  336TIP3    H2 1015   2.608   5.878   4.792 -2.1237 -0.3146  0.8497
  337TIP3   OH2 1016   1.098   0.155   0.836  0.7437 -0.0472  0.4978
  337TIP3    H1 1017   1.017   0.165   0.887  0.4891 -0.5468  0.2048
  337TIP3    H2 1018   1.118   0.061   0.843  0.5756 -0.1653 -0.5121
  338TIP3   OH2 1019   1.633   3.763   0.303  0.0170 -0.3250 -0.3569
  338TIP3    H1 1020   1.656   3.821   0.230  0.2725 -0.8360 -0.6951
  338TIP3    H2 1021   1.668   3.806   0.380  2.0354 -0.9955 -0.8410
  339TIP3   OH2 1022   1.698   1.471   4.942 -0.3471  0.6267  0.2895
  339TIP3    H1 1023   1.604   1.471   4.959 -0.3669  2.0288  0.2545
  339TIP3    H2 1024   1.722   1.563   4.939  0.9533  0.2923 -0.1535
  340TIP3   OH2 1025   1.859   3.985   4.087 -0.4652 -0.1355 -0.5381
  340TIP3    H1 1026   1.790   3.922   4.067 -0.3377  0.0322 -1.6010
  340TIP3    H2 1027   1.932   3.958   4.031 -0.5548  1.2071 -1.3493
  341TIP3   OH2 1028   1.673   5.505   4.221  0.0821  0.0257  0.2223
  341TIP3    H1 1029   1.656   5.438   4.286  0.1022 -0.2461 -0.0517
  341TIP3    H2 1030   1.757   5.543   4.247  1.1060 -1.4566 -0.7776
  342TIP3   OH2 1031   0.225   1.335   0.476 -0.5169  0.0631 -0.3388
  342TIP3    H1 1032   0.243   1.357   0.385  0.2753 -1.2769 -0.5321
  342TIP3    H2 1033   0.153   1.273   0.472 -1.2828  0.9048  0.0469
  343TIP3   OH2 1034   4.007   3.862   3.257 -0.0163 -0.2943  0.0253
  343TIP3    H1 1035   3.928   3.901   3.222 -1.1092 -2.8559 -0.6122
  343TIP3    H2 1036   4.075   3.883   3.193 -0.6380  0.2031 -0.4859
  344TIP3   OH2 1037   4.760   1.570   4.873 -0.7785 -0.2099  0.0291
  344TIP3    H1 1038   4.847   1.610   4.881 -0.3413 -0.8041 -1.3429
  344TIP3    H2 1039   4.768   1.486   4.918  0.0407 -1.2023 -1.8615
  345TIP3   OH2 1040   2.258   4.197   0.064  0.9190  0.5663  0.2600
  345TIP3    H1 1041   2.195   4.209   0.135  0.6373 -0.4372  0.2004
  345TIP3    H2 1042   2.204   4.185  -0.014  1.1854  0.0353  0.1523
  346TIP3   OH2 1043   4.454   4.425   2.633 -0.0385 -0.0639  0.3582
  346TIP3    H1 1044   4.420   4.433   2.544  0.2521  0.2891  0.2775
  346TIP3    H2 1045   4.494   4.338   2.636  0.2825  0.0710  0.0283
  347TIP3   OH2 1046   4.701   4.899   3.186 -0.2480 -0.5131  0.0740
  347TIP3    H1 1047   4.615   4.937   3.204 -0.0937 -0.1918  0.1346
  347TIP3    H2 1048   4.714   4.912   3.092 -1.5858 -3.2759 -0.5872
  348TIP3   OH2 1049   4.790   2.459   4.107  0.3911  0.3144  0.2427
  348TIP3    H1 1050   4.814   2.491   4.020  2.2076 -0.2717  0.4788
  348TIP3    H2 1051   4.852   2.388   4.124  0.0022  0.3447  1.9590
  349TIP3   OH2 1052   3.264   3.000   0.568 -0.3509 -0.4158 -0.3107
  349TIP3    H1 1053   3.275   3.000   0.473 -1.4431 -0.8986 -0.4575
  349TIP3    H2 1054   3.231   2.912   0.588 -1.7960  0.2195  0.2886
  350TIP3   OH2 1055   0.673   2.036   1.219  0.2417 -0.2644  0.6609
  350TIP3    H1 1056   0.744   2.085   1.177  0.9886 -1.1114  0.8878
  350TIP3    H2 1057   0.598   2.095   1.216  0.2995 -0.2160 -1.6807
  351TIP3   OH2 1058   1.027   2.321   0.939 -0.1660 -0.4269 -0.1408
  351TIP3    H1 1059   1.070   2.381   1.001 -0.5098  0.0028 -0.3127
  351TIP3    H2 1060   1.058   2.349   0.853  0.0577 -0.8177 -0.1904
  352TIP3   OH2 1061   1.304   1.019   3.355 -0.4336  0.1973 -0.0205
  352TIP3    H1 1062   1.230   1.078   3.345  0.3405  1.0722 -0.7382
  352TIP3    H2 1063   1.372   1.072   3.396 -0.6489 -0.9913  2.0313
  353TIP3   OH2 1064   0.786   3.452   4.455 -0.4560 -0.0980  0.6693
  353TIP3    H1 1065   0.829   3.435   4.539  0.7952 -1.6448 -0.2008
  353TIP3    H2 1066   0.843   3.409   4.391 -2.4533 -0.8010 -0.7490
  354TIP3   OH2 1067   0.885   5.745   1.953  0.4047  0.1566  0.2488
  354TIP3    H1 1068   0.887   5.701   1.868 -0.6626 -1.1197  0.8516
  354TIP3    H2 1069   0.843   5.829   1.935 -1.5641 -0.8642 -0.1996
  355TIP3   OH2 1070   4.934   2.195   2.574 -0.0257  0.0563 -0.0468
  355TIP3    H1 1071   4.850   2.153   2.557 -0.5734  1.0943  0.0730
  355TIP3    H2 1072   4.991   2.122   2.600 -0.4506 -0.8700 -1.5999
  356TIP3   OH2 1073   1.622   4.493   1.854 -0.1283  0.7048 -0.0717
  356TIP3    H1 1074   1.659   4.579   1.838 -1.7915  1.9198  2.0981
  356TIP3    H2 1075   1.530   4.500   1.829 -0.3808 -0.3217  0.4802
  357TIP3   OH2 1076   5.934   5.889   1.496  0.0566  0.0230  0.2766
  357TIP3    H1 1077   5.939   5.936   1.413  2.7424 -0.1749  0.2521
  357TIP3    H2 1078   5.854   5.921   1.537 -0.0167  1.9972 -1.2866
  358TIP3   OH2 1079   3.258   0.785   1.088 -0.5399 -0.1703 -0.7358
  358TIP3    H1 1080   3.286   0.758   1.175 -0.6364 -1.3442 -1.0487
  358TIP3    H2 1081   3.190   0.722   1.064 -1.4931  0.9555 -1.1237
  359TIP3   OH2 1082   1.644   5.228   2.846 -0.5129 -0.0736 -0.4887
  359TIP3    H1 1083   1.646   5.137   2.816  1.0663 -0.2494  0.0423
  359TIP3    H2 1084   1.733   5.244   2.877 -1.0222  1.3768  0.2791
  360TIP3   OH2 1085   2.628   4.688   2.957 -0.3337 -0.2734 -0.5097
  360TIP3    H1 1086   2.723   4.685   2.946 -0.1467 -0.2758  0.8954
  360TIP3    H2 1087   2.593   4.682   2.868  0.9990  1.6248 -1.2251
  361TIP3   OH2 1088   1.997   4.151   4.971  0.0474  0.0876 -0.3682
  361TIP3    H1 1089   2.082   4.111   4.989 -0.6976 -1.3936 -0.0202
  361TIP3    H2 1090   2.018   4.230   4.922  1.6614  0.0960  0.2765
  362TIP3   OH2 1091   2.499   3.734   5.048  0.4442 -0.7068 -0.7675
  362TIP3    H1 1092   2.563   3.720   4.978  0.4321 -0.9182 -0.7383
  362TIP3    H2 1093   2.549   3.719   5.129  0.2211 -1.4334 -0.7619
  363TIP3   OH2 1094   5.370   4.838   0.493  0.2105 -0.3235 -0.4585
  363TIP3    H1 1095   5.343   4.837   0.585  1.7211  0.8492  0.0326
  363TIP3    H2 1096   5.297   4.797   0.447 -1.5170  0.9228  1.0100
  364TIP3   OH2 1097   3.770   5.439   1.150  0.2612 -0.5052 -0.1391
  364TIP3    H1 1098   3.695   5.439   1.091  0.6816  1.3785 -0.7394
  364TIP3    H2 1099   3.733   5.446   1.238 -0.2680  0.7500 -0.4532
  365TIP3   OH2 1100   1.232   4.474   3.285 -0.5905 -0.0489  0.0634
  365TIP3    H1 1101   1.139   4.452   3.276 -0.5115  0.0339 -1.1176
  365TIP3    H2 1102   1.253   4.524   3.206  0.3607  0.3098  0.5197
  366TIP3   OH2 1103   4.844   3.510   3.131 -0.0957  0.2547 -0.0573
  366TIP3    H1 1104   4.810   3.455   3.202 -1.2940  0.4011 -0.5008
  366TIP3    H2 1105   4.798   3.593   3.140 -1.6197 -0.3106 -2.0666
  367TIP3   OH2 1106   1.604   3.978   2.956 -0.2843 -0.4953  0.3169
  367TIP3    H1 1107   1.511   3.978   2.977 -0.4005  1.4571 -0.0010
  367TIP3    H2 1108   1.608   3.948   2.866 -1.0196  2.5405 -0.8537
  368TIP3   OH2 1109   5.297   0.356   3.416 -0.6438 -0.6005  0.1936
  368TIP3    H1 1110   5.357   0.430   3.408 -0.7428 -0.5191  0.1912
  368TIP3    H2 1111   5.222   0.381   3.362 -0.6707 -0.7093  0.1826
  369TIP3   OH2 1112   6.171   5.156   2.578  0.3136  0.1589  0.0222
  369TIP3    H1 1113   6.244   5.094   2.573  0.0004 -0.1212 -1.4822
  369TIP3    H2 1114   6.099   5.112   2.532 -0.6058  0.7197  0.8810
  370TIP3   OH2 1115   1.851   1.325   1.026 -0.6391  0.3329  0.4578
  370TIP3    H1 1116   1.909   1.395   1.056 -0.5521  1.0491 -1.2737
  370TIP3    H2 1117   1.859   1.327   0.931 -2.5608 -0.3815  0.2521
  371TIP3   OH2 1118   5.685   5.137   2.705 -0.4340  0.5391  0.0365
  371TIP3    H1 1119   5.591   5.142   2.726 -0.3260 -2.1100  1.5900
  371TIP3    H2 1120   5.688   5.112   2.613 -1.3298 -0.6236  0.2980
  372TIP3   OH2 1121   4.390   2.085   3.725  0.3680  0.1937 -0.1098
  372TIP3    H1 1122   4.301   2.069   3.693  0.0932 -0.0658  0.7569
  372TIP3    H2 1123   4.377   2.133   3.807  1.0153 -0.0505  0.1378
  373TIP3   OH2 1124   1.075   1.960   1.270  0.3148  0.2018 -0.2045
  373TIP3    H1 1125   1.134   1.964   1.344 -1.7543 -1.2486  1.6479
  373TIP3    H2 1126   1.036   1.873   1.275 -0.1669  0.1851 -2.8125
  374TIP3   OH2 1127   6.184   5.347   1.548  0.0572 -0.1594 -0.3944
  374TIP3    H1 1128   6.167   5.294   1.470 -2.3434 -0.3008  0.1390
  374TIP3    H2 1129   6.171   5.437   1.518  2.6086  0.1220 -0.9230
  375TIP3   OH2 1130   2.351   1.093   5.094  0.0790 -0.1970 -0.0347
  375TIP3    H1 1131   2.414   1.152   5.136  2.1154  0.4922 -3.6663
  375TIP3    H2 1132   2.285   1.151   5.057 -0.8220 -0.6676  0.7966
  376TIP3   OH2 1133   0.476   1.637   2.747  0.0844 -0.7030 -0.2379
  376TIP3    H1 1134   0.469   1.583   2.826 -0.8670  0.4168  0.4974
  376TIP3    H2 1135   0.393   1.624   2.701 -0.2527  0.2611  0.0646
  377TIP3   OH2 1136   3.667   4.435   5.106 -0.2097  0.0038 -0.1309
  377TIP3    H1 1137   3.581   4.474   5.127 -0.2649  0.1108 -0.5586
  377TIP3    H2 1138   3.722   4.458   5.181 -0.2053  1.0333 -0.4343
  378TIP3   OH2 1139   6.037   2.499   2.033  0.4630  0.3009  0.3106
  378TIP3    H1 1140   5.986   2.423   2.004 -0.5626  1.0846 -0.0006
  378TIP3    H2 1141   6.005   2.517   2.121  1.1596 -0.0029  0.6343
  379TIP3   OH2 1142   0.223   2.474   4.415 -0.0371 -0.4582 -0.1845
  379TIP3    H1 1143   0.228   2.545   4.479  0.7091  0.3014 -1.0675
  379TIP3    H2 1144   0.166   2.508   4.346  0.5820 -0.5784 -0.7681
  380TIP3   OH2 1145   0.708   0.414   3.311  0.3368  0.5859 -0.1292
  380TIP3    H1 1146   0.753   0.367   3.240  0.8182  1.0751 -0.1557
  380TIP3    H2 1147   0.775   0.425   3.379  0.6323  2.3550 -0.6464
  381TIP3   OH2 1148   4.073   0.044   1.731 -0.0753  0.2386 -0.0152
  381TIP3    H1 1149   4.138   0.075   1.668 -0.6697  0.3728 -0.5732
  381TIP3    H2 1150   3.989   0.076   1.697 -0.5064 -0.4526  0.3674
  382TIP3   OH2 1151   0.020   1.946   2.455  0.1200  0.0692  0.5187
  382TIP3    H1 1152   0.096   1.947   2.513  2.0269 -1.6600 -1.7223
  382TIP3    H2 1153   0.021   1.858   2.416 -0.9333  1.1451 -2.1856
  383TIP3   OH2 1154   4.435   4.930   0.761  0.5445 -0.0641 -0.3063
  383TIP3    H1 1155   4.432   4.960   0.670  0.4949 -0.0463 -0.2986
  383TIP3    H2 1156   4.350   4.954   0.797  1.7346  3.1302  0.7425
  384TIP3   OH2 1157   2.573   3.312   0.148 -0.2577 -0.1479 -0.4553
  384TIP3    H1 1158   2.546   3.327   0.058  0.3757  1.4915 -0.3954
  384TIP3    H2 1159   2.503   3.352   0.201  0.8792  1.7527 -0.2843
  385TIP3   OH2 1160   0.953   1.173   0.532  0.0075 -0.0323 -0.3246
  385TIP3    H1 1161   0.896   1.182   0.455 -1.6816  0.7617  0.9566
  385TIP3    H2 1162   1.036   1.213   0.505 -0.3038 -0.3993 -1.9444
  386TIP3   OH2 1163   5.486   4.671   4.870 -0.3845 -0.0899 -0.0556
  386TIP3    H1 1164   5.402   4.716   4.860 -0.9711 -0.9619  0.8021
  386TIP3    H2 1165   5.485   4.638   4.960  0.7880 -0.2959 -0.1067
  387TIP3   OH2 1166   2.133   2.300   1.023 -0.5449 -0.1447  0.0134
  387TIP3    H1 1167   2.044   2.291   1.056  0.1171 -1.7049  1.5572
  387TIP3    H2 1168   2.188   2.259   1.091  1.3000  0.3128 -1.1206
  388TIP3   OH2 1169   5.358   0.572   2.917  0.3024  0.5071 -0.0161
  388TIP3    H1 1170   5.341   0.511   2.989  0.7805 -1.9738 -1.8645
  388TIP3    H2 1171   5.274   0.581   2.873 -0.2077  2.7509  1.2787
  389TIP3   OH2 1172   3.795   5.174   4.072  0.2036 -0.1632  0.2153
  389TIP3    H1 1173   3.775   5.191   3.980 -1.0234  0.6723  0.6119
  389TIP3    H2 1174   3.746   5.094   4.092  0.3869 -0.2871  0.1697
  390TIP3   OH2 1175   5.475   2.772   1.664 -0.6504  0.3878  0.5901
  390TIP3    H1 1176   5.506   2.843   1.608 -1.7017  0.1107 -0.3827
  390TIP3    H2 1177   5.534   2.699   1.645 -0.2721  0.6533  0.7371
  391TIP3   OH2 1178   1.607   5.251   2.426 -0.1171  0.1049  1.0487
  391TIP3    H1 1179   1.530   5.239   2.371  1.9985  1.5073 -2.5503
  391TIP3    H2 1180   1.604   5.343   2.452  1.8279  1.1995 -1.9996
  392TIP3   OH2 1181   4.499   0.960   2.719 -0.2255 -0.5156 -0.1501
  392TIP3    H1 1182   4.435   0.956   2.790 -1.3332 -0.7239 -1.1513
  392TIP3    H2 1183   4.528   0.869   2.709  0.5851 -0.3540  0.6031
  393TIP3   OH2 1184   3.160   0.043   3.230  0.5755 -0.3652 -0.2447
  393TIP3    H1 1185   3.126  -0.044   3.209 -0.6205 -0.0580  0.3082
  393TIP3    H2 1186   3.117   0.066   3.312  2.4620 -0.0953  0.7215
  394TIP3   OH2 1187   1.292   3.554   2.314  0.3804  0.2871 -0.0589
  394TIP3    H1 1188   1.201   3.527   2.302  0.6052 -1.6209  1.9745
  394TIP3    H2 1189   1.342   3.493   2.259  0.5249  0.7324 -0.4351
  395TIP3   OH2 1190   5.338   0.943   1.878  0.6675  0.0714 -0.4265
  395TIP3    H1 1191   5.352   0.984   1.792  0.5313  0.6074 -0.1935
  395TIP3    H2 1192   5.285   0.865   1.858 -0.0395  0.6223 -0.7392
  396TIP3   OH2 1193   3.584   4.647   0.674 -0.3109 -0.1387 -0.5695
  396TIP3    H1 1194   3.547   4.733   0.656  0.8961  0.5322  0.0146
  396TIP3    H2 1195   3.634   4.625   0.596 -0.3564 -0.1633 -0.5916
  397TIP3   OH2 1196   5.064   2.617   0.207 -0.8595  0.2723  0.0676
  397TIP3    H1 1197   5.144   2.658   0.240 -0.0116 -1.2960  0.0346
  397TIP3    H2 1198   5.014   2.595   0.285 -0.4654 -0.2656  0.1773
  398TIP3   OH2 1199   1.515   5.151   3.189  0.2674 -0.0565  0.3778
  398TIP3    H1 1200   1.602   5.128   3.222 -0.1362 -0.1765  1.4150
  398TIP3    H2 1201   1.456   5.129   3.261 -0.5220  0.9142  0.0517
  399TIP3   OH2 1202   4.064   2.716   4.793 -0.0018 -0.2007  0.0120
  399TIP3    H1 1203   4.048   2.642   4.852 -1.5416  0.2507  0.2190
  399TIP3    H2 1204   4.065   2.792   4.850  1.2553 -0.0190 -0.2386
  400TIP3   OH2 1205   6.326   4.468   3.170 -0.2800  0.1582  0.2258
  400TIP3    H1 1206   6.310   4.376   3.152 -0.2778  0.1437  0.2995
  400TIP3    H2 1207   6.248   4.498   3.217 -0.3999  0.2605 -0.0369
  401TIP3   OH2 1208   0.516   3.237   2.826  0.4683  0.3959  0.2540
  401TIP3    H1 1209   0.445   3.271   2.880  0.1792 -0.5863  0.5103
  401TIP3    H2 1210   0.596   3.264   2.872  0.2322 -0.0465  0.9489
  402TIP3   OH2 1211   4.796   0.714   4.627 -0.6798 -0.2154  0.0213
  402TIP3    H1 1212   4.830   0.756   4.549  0.0341  0.9608  0.9401
  402TIP3    H2 1213   4.712   0.758   4.644  0.6254  1.8276  1.6784
  403TIP3   OH2 1214   6.115   2.405   4.596 -0.1059  0.3053  0.2901
  403TIP3    H1 1215   6.069   2.459   4.532  0.9291  0.7113 -0.1425
  403TIP3    H2 1216   6.135   2.465   4.668  0.8538  0.4627 -0.0945
  404TIP3   OH2 1217   0.012   5.480   4.646  0.1253 -0.1379  0.1155
  404TIP3    H1 1218   0.079   5.543   4.673 -0.5085  1.1616 -1.2163
  404TIP3    H2 1219  -0.047   5.473   4.721  1.8504 -1.5423  1.4375
  405TIP3   OH2 1220   1.091   5.887   4.785 -0.5547  0.3290  0.2335
  405TIP3    H1 1221   1.115   5.903   4.693  0.3112  0.0649  0.4075
  405TIP3    H2 1222   1.034   5.810   4.782 -1.8842  1.2765 -0.2383
  406TIP3   OH2 1223   3.404  -0.002   4.002  0.1843 -0.1403 -0.4145
  406TIP3    H1 1224   3.499   0.006   4.012  0.2462 -0.3584 -0.8222
  406TIP3    H2 1225   3.368   0.060   4.066  0.6096  0.4679 -0.7520
  407TIP3   OH2 1226   4.847   2.445   4.583  0.0207  0.5344  0.3122
  407TIP3    H1 1227   4.828   2.403   4.499 -0.9115 -0.2228  0.8763
  407TIP3    H2 1228   4.765   2.438   4.632  1.5184 -2.4737  2.7319
  408TIP3   OH2 1229   3.471   2.234   0.200  0.0509  0.8550 -0.0311
  408TIP3    H1 1230   3.478   2.152   0.150 -2.3279 -0.1360  1.1198
  408TIP3    H2 1231   3.395   2.222   0.256  1.9092  2.3453  3.0845
  409TIP3   OH2 1232   2.872   2.173   2.337  0.0702  0.0014 -0.1271
  409TIP3    H1 1233   2.929   2.226   2.283  0.6931 -1.0295 -0.5224
  409TIP3    H2 1234   2.927   2.146   2.411  0.0362 -0.7624 -0.3645
  410TIP3   OH2 1235   5.657   3.105   1.777  0.2051 -0.1707  0.6026
  410TIP3    H1 1236   5.686   3.170   1.842  1.2571  0.2735 -0.2795
  410TIP3    H2 1237   5.562   3.103   1.787  0.3044  0.1740  1.8903
  411TIP3   OH2 1238   1.867   5.571   2.665  0.2598  0.0894 -0.3970
  411TIP3    H1 1239   1.810   5.648   2.675  1.4484  0.9227  0.3184
  411TIP3    H2 1240   1.817   5.499   2.704 -0.5153  0.6888 -0.2507
  412TIP3   OH2 1241   0.926   2.406   3.852 -0.4432  0.4925 -0.7983
  412TIP3    H1 1242   0.954   2.339   3.789 -1.0912 -1.5535  0.9541
  412TIP3    H2 1243   0.836   2.382   3.874 -0.5511  1.7167  0.1967
  413TIP3   OH2 1244   2.135   0.431   2.501  0.4707 -0.1393  0.3546
  413TIP3    H1 1245   2.086   0.450   2.421 -0.3599 -0.4117  0.7872
  413TIP3    H2 1246   2.224   0.413   2.471 -0.0279 -1.1138 -0.5977
  414TIP3   OH2 1247   2.136   3.788   1.750 -0.6714  0.4762 -0.0358
  414TIP3    H1 1248   2.164   3.863   1.699  1.0362 -0.9165 -1.2857
  414TIP3    H2 1249   2.184   3.795   1.833 -0.7099  0.8756 -0.0464
  415TIP3   OH2 1250   0.898   1.064   3.944  0.3618  0.0657  0.4619
  415TIP3    H1 1251   0.835   1.087   3.876 -0.7584 -1.9739  0.7439
  415TIP3    H2 1252   0.895   1.138   4.005 -0.0395  1.0409 -0.6969
  416TIP3   OH2 1253   5.153   3.059   3.779 -0.3204  0.0342 -0.3569
  416TIP3    H1 1254   5.209   2.988   3.811  0.3593  0.2222 -1.0845
  416TIP3    H2 1255   5.065   3.023   3.780 -0.1973 -0.2701  0.8221
  417TIP3   OH2 1256   3.794   3.271   2.894 -0.0949  0.2108  0.1915
  417TIP3    H1 1257   3.752   3.275   2.808 -0.6881  1.3989  0.5190
  417TIP3    H2 1258   3.834   3.357   2.905  0.4472 -0.1197  0.8852
  418TIP3   OH2 1259   2.493   4.397   0.481 -0.2890  0.3170 -0.0345
  418TIP3    H1 1260   2.492   4.314   0.528  0.8228  0.6907  0.6683
  418TIP3    H2 1261   2.423   4.388   0.416  0.6765 -1.6947 -0.8824
  419TIP3   OH2 1262   5.980   3.341   0.392  0.1961  0.1804  0.1042
  419TIP3    H1 1263   5.923   3.315   0.465  1.3324 -0.9561  0.6012
  419TIP3    H2 1264   5.928   3.406   0.344 -1.4738 -0.7201  0.6165
  420TIP3   OH2 1265   3.895   0.347   0.584 -0.3563 -0.2281  0.0032
  420TIP3    H1 1266   3.922   0.363   0.675 -3.0284  1.8974  0.5617
  420TIP3    H2 1267   3.846   0.264   0.588 -0.5236 -0.1110  0.5405
  421TIP3   OH2 1268   0.994   1.160   0.805 -0.0829  0.2166 -0.1470
  421TIP3    H1 1269   1.023   1.181   0.716 -0.9603 -0.0996 -0.5192
  421TIP3    H2 1270   0.911   1.114   0.793  0.4659 -1.0577  0.7705
  422TIP3   OH2 1271   4.836   1.329   2.941  0.1254  0.2712  0.7562
  422TIP3    H1 1272   4.764   1.267   2.953  1.8645 -2.1271 -0.3481
  422TIP3    H2 1273   4.831   1.352   2.848  0.3273  0.6911  0.8492
  423TIP3   OH2 1274   2.474   3.886   4.607  0.1979  0.0041  0.5819
  423TIP3    H1 1275   2.463   3.892   4.513  0.1244  1.9364  0.6748
  423TIP3    H2 1276   2.528   3.962   4.630  0.4583 -0.5833  2.0613
  424TIP3   OH2 1277   5.689   0.053   4.164  0.3770  0.3813  0.5951
  424TIP3    H1 1278   5.603   0.010   4.157  0.9608 -0.5273 -1.5641
  424TIP3    H2 1279   5.693   0.112   4.089  2.6340 -1.5434 -0.9513
  425TIP3   OH2 1280   0.218   4.684   0.793  0.2943 -0.3505  0.0583
  425TIP3    H1 1281   0.136   4.734   0.790  0.5985  0.1955  0.5011
  425TIP3    H2 1282   0.276   4.729   0.732 -0.1343 -1.5010 -1.2274
  426TIP3   OH2 1283   5.965   1.436   0.303  0.5213 -0.1251  0.0932
  426TIP3    H1 1284   5.959   1.475   0.216 -3.2180 -0.4000  0.0854
  426TIP3    H2 1285   5.975   1.510   0.362 -0.6141  0.3906 -0.3425
  427TIP3   OH2 1286   5.317   1.129   2.856  0.5155  0.4512 -0.2902
  427TIP3    H1 1287   5.393   1.071   2.859 -0.4067 -0.7737  0.1949
  427TIP3    H2 1288   5.354   1.217   2.859  1.9930 -0.0710 -1.8545
  428TIP3   OH2 1289   2.433   0.613   5.115  0.4152 -0.1244  0.1253
  428TIP3    H1 1290   2.429   0.635   5.022 -1.9598 -0.0948  0.1745
  428TIP3    H2 1291   2.341   0.606   5.142  1.0478 -0.4351  2.4014
  429TIP3   OH2 1292   0.170   5.962   0.592 -0.3271  0.1839  0.7641
  429TIP3    H1 1293   0.187   6.038   0.537  0.8825 -1.2603 -0.9781
  429TIP3    H2 1294   0.166   5.888   0.531 -0.8276 -1.2632  2.4438
  430TIP3   OH2 1295   1.363   0.543   2.784 -0.3335  0.5565  0.2923
  430TIP3    H1 1296   1.370   0.456   2.822 -3.4847 -0.5226 -1.2222
  430TIP3    H2 1297   1.337   0.599   2.857  0.8829  0.0781  1.1101
  431TIP3   OH2 1298   3.643   2.039   4.864  0.2869  0.2780  0.0504
  431TIP3    H1 1299   3.722   1.985   4.867  0.0903  0.0203  0.9319
  431TIP3    H2 1300   3.592   2.012   4.940 -1.8163 -1.2702 -1.7746
  432TIP3   OH2 1301   3.619   2.704   3.755  0.5522  0.2348 -0.0023
  432TIP3    H1 1302   3.680   2.751   3.699  0.9429 -1.3239 -0.9442
  432TIP3    H2 1303   3.630   2.612   3.731 -1.8548 -0.1437  0.1037
  433TIP3   OH2 1304   5.818   2.667   1.661 -0.1066 -0.5115 -0.0021
  433TIP3    H1 1305   5.771   2.675   1.578  1.7604  1.1403 -0.9721
  433TIP3    H2 1306   5.903   2.629   1.638  0.8145  0.8456  0.9705
  434TIP3   OH2 1307   3.414   3.571   0.025 -0.2930 -0.5681 -0.0492
  434TIP3    H1 1308   3.431   3.505   0.093 -0.5863 -1.1775 -0.5523
  434TIP3    H2 1309   3.464   3.540  -0.051 -3.3210 -2.2811 -1.4962
  435TIP3   OH2 1310   5.704   3.837   4.304  0.1008 -0.9749  0.1167
  435TIP3    H1 1311   5.655   3.894   4.244  0.1803 -0.5212  0.4795
  435TIP3    H2 1312   5.741   3.769   4.248  0.4991 -0.3374 -0.4111
  436TIP3   OH2 1313   2.130   3.556   1.515 -0.2197 -0.1936 -0.1679
  436TIP3    H1 1314   2.086   3.471   1.517 -2.4065  0.8970  1.3007
  436TIP3    H2 1315   2.059   3.620   1.506  1.3700  1.5143 -1.4797
  437TIP3   OH2 1316   4.778   5.508   1.421 -0.2812  0.1255 -0.0973
  437TIP3    H1 1317   4.683   5.510   1.426 -0.2511  0.4096  0.4919
  437TIP3    H2 1318   4.799   5.557   1.342 -0.5769  1.4868  0.6364
  438TIP3   OH2 1319   6.221   3.289   2.665  0.2775 -0.4378  0.0423
  438TIP3    H1 1320   6.267   3.239   2.732  0.6901 -0.7929 -0.5001
  438TIP3    H2 1321   6.210   3.376   2.704  0.8706 -0.5240  0.4157
  439TIP3   OH2 1322   3.817   5.756   3.408 -0.1978 -0.0488 -0.2705
  439TIP3    H1 1323   3.748   5.708   3.454  0.0397  1.8766  2.3022
  439TIP3    H2 1324   3.779   5.841   3.388  1.1243  0.7298  0.3919
  440TIP3   OH2 1325   4.450   3.530   2.253 -0.1686 -0.1847 -0.1926
  440TIP3    H1 1326   4.473   3.472   2.326 -0.2012  0.1828  0.1156
  440TIP3    H2 1327   4.518   3.597   2.254  1.7270 -1.9028 -2.5103
  441TIP3   OH2 1328   3.790   1.927   2.350  0.4610 -0.1963  0.1137
  441TIP3    H1 1329   3.818   1.836   2.354  3.1513  0.4868 -0.9916
  441TIP3    H2 1330   3.769   1.950   2.440 -2.0084 -2.3256  0.1872
  442TIP3   OH2 1331   0.024   2.949   0.093  0.6205 -0.5878 -0.3541
  442TIP3    H1 1332   0.025   2.989   0.006  0.4008  0.8828  0.2922
  442TIP3    H2 1333   0.107   2.974   0.132 -1.4621  3.7845  1.9631
  443TIP3   OH2 1334   1.086   4.219   3.484  0.1909  0.1339 -0.1010
  443TIP3    H1 1335   1.052   4.308   3.488 -2.4913 -0.8546  1.2008
  443TIP3    H2 1336   1.157   4.218   3.549 -0.3813  1.0843  0.5628
  444TIP3   OH2 1337   0.873   4.269   4.567  0.0051 -0.2123 -0.0752
  444TIP3    H1 1338   0.918   4.300   4.645 -0.4006 -1.2573  0.5921
  444TIP3    H2 1339   0.781   4.290   4.582 -0.2339 -1.4199  0.2526
  445TIP3   OH2 1340   3.172   5.576   5.140 -0.3121  0.0817 -0.7564
  445TIP3    H1 1341   3.144   5.525   5.063  0.6255 -0.4455 -0.7691
  445TIP3    H2 1342   3.210   5.511   5.199 -1.0583  0.4818  0.1814
  446TIP3   OH2 1343   2.303   0.817   4.749 -0.2504 -0.4475  0.2630
  446TIP3    H1 1344   2.329   0.810   4.657  0.9135 -0.5004  0.5872
  446TIP3    H2 1345   2.260   0.902   4.756 -2.7445 -1.4939 -0.8778
  447TIP3   OH2 1346   2.587   2.822   2.899  0.3688  0.0151  0.5263
  447TIP3    H1 1347   2.547   2.901   2.934 -0.3427 -0.6715  1.3263
  447TIP3    H2 1348   2.609   2.770   2.976 -0.6646 -1.2593  0.0002
  448TIP3   OH2 1349   3.037   4.732   1.013  0.6657  0.3534  0.0008
  448TIP3    H1 1350   2.968   4.764   0.955 -0.2318  0.2867  0.9946
  448TIP3    H2 1351   3.006   4.646   1.042  1.1101  0.3697  0.5410
  449TIP3   OH2 1352   5.784   4.491   5.035  0.4122  0.1997  0.0778
  449TIP3    H1 1353   5.752   4.507   4.947  3.6594 -1.5157 -1.6069
  449TIP3    H2 1354   5.724   4.425   5.071  0.6515 -1.2906 -2.0651
  450TIP3   OH2 1355   5.008   5.495   1.792  0.3453  0.0508 -0.0385
  450TIP3    H1 1356   5.028   5.585   1.768  2.1136  0.0287  1.1889
  450TIP3    H2 1357   4.938   5.469   1.732  0.6971  1.8020 -1.2694
  451TIP3   OH2 1358   1.361   1.699   3.413 -0.7374  0.0045 -0.5876
  451TIP3    H1 1359   1.382   1.696   3.506 -1.5920  2.0522 -0.2996
  451TIP3    H2 1360   1.421   1.635   3.374  0.1206 -0.3886  1.2598
  452TIP3   OH2 1361   4.947   2.644   2.220 -0.2217 -0.7097  0.1448
  452TIP3    H1 1362   4.868   2.675   2.177 -0.2732 -0.4304  0.4361
  452TIP3    H2 1363   4.918   2.572   2.275 -0.4505  0.0218  1.0066
  453TIP3   OH2 1364   4.303   4.038   3.903  0.4299  0.3940  0.2845
  453TIP3    H1 1365   4.371   4.101   3.926 -0.9976  2.5915 -1.0959
  453TIP3    H2 1366   4.302   4.037   3.808 -1.0134 -0.0630  0.2813
  454TIP3   OH2 1367   3.817   3.442   2.175 -0.6141 -0.2988  0.0802
  454TIP3    H1 1368   3.901   3.482   2.152 -0.4269 -0.7272 -0.0038
  454TIP3    H2 1369   3.838   3.380   2.245 -1.0772  0.5155  0.9561
  455TIP3   OH2 1370   2.650   4.264   1.679  0.3624  0.5427 -0.4938
  455TIP3    H1 1371   2.634   4.171   1.663 -1.2308  0.6102  0.4792
  455TIP3    H2 1372   2.643   4.305   1.593 -1.3565  0.0470 -0.6317
  456TIP3   OH2 1373   1.087   1.464   0.703  0.2532  0.1969 -0.0360
  456TIP3    H1 1374   1.047   1.498   0.783  0.1177  2.2504 -0.9075
  456TIP3    H2 1375   1.018   1.413   0.661 -0.5283  1.2497 -0.0669
  457TIP3   OH2 1376   3.148   5.341   3.168 -0.0563 -0.0835 -0.2300
  457TIP3    H1 1377   3.077   5.403   3.149 -0.2413  0.2491  1.3773
  457TIP3    H2 1378   3.103   5.263   3.200  0.2656  0.7193  2.4445
  458TIP3   OH2 1379   5.788   2.912   5.126 -0.2415  0.0415  0.1402
  458TIP3    H1 1380   5.801   2.976   5.196  0.1690  0.2949 -0.1670
  458TIP3    H2 1381   5.720   2.853   5.160  1.2853 -0.9845  1.5406
  459TIP3   OH2 1382   3.548   4.268   2.624  0.3392  0.3800 -0.2568
  459TIP3    H1 1383   3.533   4.318   2.544 -0.7856 -0.8141 -0.8412
  459TIP3    H2 1384   3.464   4.226   2.642  0.5908  0.5874  1.5407
  460TIP3   OH2 1385   2.337   4.867   1.948  0.0903 -0.5791 -0.2499
  460TIP3    H1 1386   2.420   4.910   1.970 -0.0396  0.1384 -1.0690
  460TIP3    H2 1387   2.314   4.904   1.862  0.1544 -2.5599 -1.1789
  461TIP3   OH2 1388   0.047   4.091   1.841  0.7073  0.4930  0.2673
  461TIP3    H1 1389   0.057   3.996   1.834 -0.8758  0.3838 -1.1829
  461TIP3    H2 1390   0.004   4.105   1.926  1.0586 -0.0577  0.5405
  462TIP3   OH2 1391   5.281   0.705   4.573 -0.3977  0.0642 -0.1693
  462TIP3    H1 1392   5.348   0.731   4.510  0.9427  1.4153  1.7147
  462TIP3    H2 1393   5.266   0.783   4.626 -0.0347 -1.5203  2.4324
  463TIP3   OH2 1394   1.041   4.651   0.853  0.0844  0.0614  0.7302
  463TIP3    H1 1395   1.085   4.735   0.847 -0.4555  0.2692 -0.7710
  463TIP3    H2 1396   0.949   4.670   0.834 -0.6758 -0.3949  3.5273
  464TIP3   OH2 1397   1.055   5.822   0.371 -0.2676 -0.1472 -0.0666
  464TIP3    H1 1398   1.132   5.790   0.419 -1.6744 -0.4464  2.1259
  464TIP3    H2 1399   1.011   5.743   0.340 -0.2951 -0.0160 -0.3764
  465TIP3   OH2 1400   2.914   0.553   0.695  0.0186 -0.2732  0.2394
  465TIP3    H1 1401   2.828   0.565   0.656  0.3166  0.3764 -0.2561
  465TIP3    H2 1402   2.963   0.504   0.629  0.4758  0.6865 -0.1624
  466TIP3   OH2 1403   1.484   4.995   4.164  0.5417 -0.1912 -0.1601
  466TIP3    H1 1404   1.512   5.086   4.148  0.0050 -0.0871 -0.5665
  466TIP3    H2 1405   1.506   4.979   4.255 -1.5987  1.2119  0.6937
  467TIP3   OH2 1406   1.849   2.719   3.093  0.0560 -0.2886  0.0297
  467TIP3    H1 1407   1.877   2.805   3.060 -0.5763 -0.5817 -1.3624
  467TIP3    H2 1408   1.888   2.712   3.180  1.1323  0.8911 -0.3345
  468TIP3   OH2 1409   0.535   2.617   2.391  0.8642  0.5339 -0.1846
  468TIP3    H1 1410   0.582   2.629   2.473 -0.0731  0.8173  0.3252
  468TIP3    H2 1411   0.576   2.541   2.350  0.7742 -0.1330  0.9435
  469TIP3   OH2 1412   3.632   3.143   3.892 -0.3208  0.3440  0.6374
  469TIP3    H1 1413   3.553   3.196   3.884 -0.7693 -0.4154 -0.2464
  469TIP3    H2 1414   3.602   3.058   3.924 -0.3950 -0.9596 -2.4400
  470TIP3   OH2 1415   4.622   5.569   4.547  0.4104  0.1285  0.8023
  470TIP3    H1 1416   4.690   5.524   4.496 -0.6332 -0.5899  0.0136
  470TIP3    H2 1417   4.554   5.503   4.559 -0.5650  1.1089  0.7685
  471TIP3   OH2 1418   3.722   4.180   0.159  0.2952  0.1620  0.2137
  471TIP3    H1 1419   3.673   4.239   0.217  0.0628 -1.3510  1.6389
  471TIP3    H2 1420   3.662   4.163   0.087  0.0796  1.0636  0.1669
  472TIP3   OH2 1421   2.150   1.046   4.774 -0.1072 -0.5537  0.6877
  472TIP3    H1 1422   2.180   1.122   4.823 -2.2295  0.8232 -0.0032
  472TIP3    H2 1423   2.125   1.080   4.688  1.4153 -2.5337 -0.6244
  473TIP3   OH2 1424   4.219   3.978   3.105 -0.3409 -0.0435  0.0750
  473TIP3    H1 1425   4.146   4.030   3.072 -0.8007 -0.6668  0.0949
  473TIP3    H2 1426   4.248   4.024   3.183  1.1465  1.7918 -1.4484
  474TIP3   OH2 1427   3.047   0.120   3.495  0.1979  0.1092 -0.1701
  474TIP3    H1 1428   2.975   0.074   3.538  1.1454 -0.8529  0.4404
  474TIP3    H2 1429   3.121   0.110   3.554  0.9796  0.6225 -1.0292
  475TIP3   OH2 1430   4.116   2.308   3.482  0.3707  0.4251 -0.6879
  475TIP3    H1 1431   4.175   2.233   3.479  0.6325  0.6591 -1.7497
  475TIP3    H2 1432   4.030   2.270   3.500  0.7323  0.0288  0.2918
  476TIP3   OH2 1433   4.658   3.433   0.087 -0.5474 -0.0891  0.0965
  476TIP3    H1 1434   4.657   3.484   0.006 -1.2906  0.3738  0.3890
  476TIP3    H2 1435   4.588   3.369   0.076 -0.2994 -0.3768  0.1597
  477TIP3   OH2 1436   1.625   1.574   1.540 -0.2367 -0.3588 -0.4242
  477TIP3    H1 1437   1.659   1.664   1.540 -0.7225 -0.1609  0.8035
  477TIP3    H2 1438   1.609   1.554   1.632  0.1297 -1.8240 -0.6457
  478TIP3   OH2 1439   0.049   1.826   2.113  0.3606  0.0847 -0.0110
  478TIP3    H1 1440  -0.042   1.826   2.082  0.5129 -0.1818 -0.4647
  478TIP3    H2 1441   0.054   1.749   2.170  0.5098 -0.3452 -0.6052
  479TIP3   OH2 1442   1.723   0.285   1.040  0.5759 -0.0782 -0.3197
  479TIP3    H1 1443   1.659   0.356   1.032  3.1314  2.3732 -0.9486
  479TIP3    H2 1444   1.744   0.283   1.134 -0.5773 -1.0671 -0.0737
  480TIP3   OH2 1445   6.254   0.850   2.304  0.5040  0.4814 -0.0272
  480TIP3    H1 1446   6.314   0.785   2.340  1.4591  1.1234 -0.4359
  480TIP3    H2 1447   6.177   0.845   2.361  0.1897 -1.5974 -0.5539
  481TIP3   OH2 1448   4.884   0.133   1.362 -0.0985 -0.3102 -0.1551
  481TIP3    H1 1449   4.825   0.134   1.287  0.7547  0.3469 -0.8481
  481TIP3    H2 1450   4.971   0.142   1.323  0.4886 -1.5396  0.8142
  482TIP3   OH2 1451   5.029   2.486   3.360 -0.2661  0.3121  0.4186
  482TIP3    H1 1452   5.002   2.561   3.411  1.4503  1.3236 -0.0822
  482TIP3    H2 1453   4.994   2.410   3.407 -1.5934  1.3696  1.1983
  483TIP3   OH2 1454   6.059   4.212   1.196 -0.0188  0.3973 -0.1228
  483TIP3    H1 1455   6.006   4.202   1.116  0.9611 -0.5193 -0.6807
  483TIP3    H2 1456   5.998   4.190   1.267 -1.1569  2.0912 -0.5077
  484TIP3   OH2 1457   0.215   1.325   1.125 -0.3139  0.2372 -0.2823
  484TIP3    H1 1458   0.139   1.371   1.091  1.7861  2.4857 -2.3267
  484TIP3    H2 1459   0.237   1.372   1.206 -0.9244 -0.2631  0.1822
  485TIP3   OH2 1460   4.350   2.188   1.754 -0.6211 -0.2973  0.1661
  485TIP3    H1 1461   4.258   2.213   1.747 -0.8041 -0.7090  0.8886
  485TIP3    H2 1462   4.348   2.102   1.797 -0.0325 -1.6515 -2.3360
  486TIP3   OH2 1463   0.608   0.261   1.507 -0.4839  0.1558  0.4355
  486TIP3    H1 1464   0.607   0.204   1.584  0.8086 -1.3758 -0.6261
  486TIP3    H2 1465   0.697   0.295   1.503 -0.3812 -0.1825 -0.6346
  487TIP3   OH2 1466   0.622   5.662   4.081 -0.7186  0.2014 -0.2194
  487TIP3    H1 1467   0.570   5.691   4.156  1.8556  2.8202  0.7359
  487TIP3    H2 1468   0.678   5.592   4.116 -0.7230  0.2341 -0.1473
  488TIP3   OH2 1469   0.281   5.737   2.222  0.0849  0.3035  0.1744
  488TIP3    H1 1470   0.200   5.694   2.248 -0.3896  0.7510 -0.5224
  488TIP3    H2 1471   0.258   5.830   2.214  0.5392  0.3711 -0.4825
  489TIP3   OH2 1472   6.275   5.794   4.535 -0.0429 -0.7822  0.0204
  489TIP3    H1 1473   6.199   5.830   4.582  1.3083  1.5625  0.5830
  489TIP3    H2 1474   6.342   5.782   4.602  1.0035 -0.0866 -0.8591
  490TIP3   OH2 1475   0.236   1.662   3.177  0.0969  1.0006 -0.0324
  490TIP3    H1 1476   0.308   1.716   3.144  1.3592 -1.1118 -0.9123
  490TIP3    H2 1477   0.193   1.629   3.098 -1.0916  1.2572  0.4902
  491TIP3   OH2 1478   0.488   4.688   4.610  0.0510  0.4490 -0.3577
  491TIP3    H1 1479   0.515   4.621   4.547  1.6497 -0.3463  1.0764
  491TIP3    H2 1480   0.547   4.676   4.684 -1.2348  1.8628  0.9746
  492TIP3   OH2 1481   1.885   4.097   4.353  0.2375 -0.2469 -0.7119
  492TIP3    H1 1482   1.976   4.076   4.377  0.6209  1.5127 -0.5298
  492TIP3    H2 1483   1.877   4.066   4.262  0.5064 -1.8334 -0.2312
  493TIP3   OH2 1484   1.881   2.161   4.367 -0.2240  0.7717  0.6740
  493TIP3    H1 1485   1.967   2.186   4.400  1.0418  0.5964 -2.1188
  493TIP3    H2 1486   1.899   2.087   4.308 -2.1446  1.2670 -0.6486
  494TIP3   OH2 1487   2.624   4.066   3.840 -0.3266 -0.7745 -0.2500
  494TIP3    H1 1488   2.671   4.030   3.765 -0.5598  0.0594 -0.8111
  494TIP3    H2 1489   2.532   4.055   3.817 -0.3973 -0.6755 -0.0107
  495TIP3   OH2 1490   0.094   0.959   3.563 -0.0444  0.0412 -0.5399
  495TIP3    H1 1491   0.056   0.909   3.635 -0.5286 -2.3497 -2.3449
  495TIP3    H2 1492   0.024   1.018   3.536 -0.6203 -0.5709 -0.4206
  496TIP3   OH2 1493   2.014   1.347   0.278 -0.0410  0.0219 -0.5012
  496TIP3    H1 1494   2.064   1.426   0.300 -1.7016  0.9653  0.0964
  496TIP3    H2 1495   1.923   1.376   0.278 -0.6758 -1.8466 -0.5356
  497TIP3   OH2 1496   1.861   0.828   2.539  0.0758 -0.2005  0.5339
  497TIP3    H1 1497   1.942   0.872   2.512  0.2084 -0.0160  1.2104
  497TIP3    H2 1498   1.836   0.871   2.620 -0.6249 -0.3636  0.4122
  498TIP3   OH2 1499   1.333   0.146   0.343 -0.2783 -0.2479  0.5674
  498TIP3    H1 1500   1.400   0.156   0.411  0.8543  0.4235 -0.5992
  498TIP3    H2 1501   1.259   0.105   0.388  0.0608  1.0551  2.4392
  499TIP3   OH2 1502   5.411   4.436   4.716 -0.0915  0.4681  0.2988
  499TIP3    H1 1503   5.451   4.502   4.773 -1.8044  1.5636  0.2997
  499TIP3    H2 1504   5.381   4.485   4.640 -0.5175 -0.4765 -0.1552
  500TIP3   OH2 1505   2.258   3.506   4.868  0.1882 -0.0166 -0.2375
  500TIP3    H1 1506   2.311   3.563   4.813 -1.2846  0.0116 -1.7346
  500TIP3    H2 1507   2.268   3.419   4.830  0.9426 -0.4362  0.8801
  501TIP3   OH2 1508   1.862   2.526   1.814  0.3416 -0.5597 -0.3448
  501TIP3    H1 1509   1.776   2.552   1.847  0.0627 -2.2761  0.4114
  501TIP3    H2 1510   1.924   2.584   1.859 -0.3598  0.2380 -0.3823
  502TIP3   OH2 1511   3.278   1.953   1.297 -0.4591 -0.1914 -0.0595
  502TIP3    H1 1512   3.232   1.885   1.345  1.9685 -1.3542  0.7734
  502TIP3    H2 1513   3.263   2.033   1.348 -1.2898 -0.5841  0.3338
  503TIP3   OH2 1514   3.793   1.181   3.817 -0.7033  0.4004 -0.0428
  503TIP3    H1 1515   3.710   1.193   3.863  0.3285  2.3001  1.4591
  503TIP3    H2 1516   3.855   1.159   3.886  0.3856  0.7180 -0.9036
  504TIP3   OH2 1517   6.116   2.866   4.569 -0.1286  0.3009  0.2754
  504TIP3    H1 1518   6.136   2.913   4.488 -0.3430  0.3272  0.2381
  504TIP3    H2 1519   6.175   2.904   4.633  1.5862 -1.1826 -0.3373
  505TIP3   OH2 1520   4.854   1.825   4.096 -0.2004 -0.2670 -0.4124
  505TIP3    H1 1521   4.852   1.911   4.139  1.8880 -1.2065  1.8292
  505TIP3    H2 1522   4.820   1.764   4.162 -1.2151 -1.2687 -1.7987
  506TIP3   OH2 1523   4.221   3.256   2.325 -0.2699  0.2332  0.1154
  506TIP3    H1 1524   4.276   3.327   2.293 -1.0900  1.5275  1.4195
  506TIP3    H2 1525   4.189   3.287   2.410 -2.0529 -0.9723 -0.0620
  507TIP3   OH2 1526   0.816   0.409   1.454 -0.4364 -0.0393 -0.0178
  507TIP3    H1 1527   0.848   0.374   1.371 -2.4654 -1.4119 -0.2986
  507TIP3    H2 1528   0.847   0.500   1.456  0.7823 -0.3835 -1.6217
  508TIP3   OH2 1529   0.991   1.303   2.043 -0.5246  0.4622  0.0461
  508TIP3    H1 1530   0.959   1.356   1.970  0.5526  2.5271  0.9746
  508TIP3    H2 1531   0.916   1.296   2.102 -1.1077 -0.3725 -0.7665
  509TIP3   OH2 1532   1.272   2.921   1.730 -0.2851  0.2263  0.4284
  509TIP3    H1 1533   1.203   2.858   1.751 -0.6767  0.3401 -0.4611
  509TIP3    H2 1534   1.343   2.901   1.791  0.7860 -3.0159 -1.6628
  510TIP3   OH2 1535   0.885   0.899   2.484  0.0727 -0.2702  0.1540
  510TIP3    H1 1536   0.836   0.955   2.544 -1.8274 -0.0511 -1.4976
  510TIP3    H2 1537   0.972   0.939   2.479 -0.8979  1.9052 -0.1274
  511TIP3   OH2 1538   2.410   4.568   1.892  0.0095 -0.4820  0.3716
  511TIP3    H1 1539   2.479   4.559   1.958  1.3376  1.7071 -0.6080
  511TIP3    H2 1540   2.454   4.610   1.818 -2.5282  1.8560  0.0388
  512TIP3   OH2 1541   1.080   4.783   4.060 -0.1711  0.0515 -0.0898
  512TIP3    H1 1542   1.132   4.828   4.126  0.6034 -0.4148 -0.3740
  512TIP3    H2 1543   1.144   4.754   3.995 -0.9925  1.2911 -1.5285
  513TIP3   OH2 1544   1.907   4.413   1.554  0.2652  0.2814  0.6693
  513TIP3    H1 1545   1.822   4.370   1.545  0.3185  0.2292  0.4322
  513TIP3    H2 1546   1.891   4.504   1.530  0.6318 -0.0714 -1.0239
  514TIP3   OH2 1547   3.993   5.357   0.266  0.4941 -0.6338  0.0352
  514TIP3    H1 1548   4.056   5.304   0.218 -0.8885 -0.7761 -1.7442
  514TIP3    H2 1549   3.914   5.303   0.270 -0.2582  0.4312  0.1030
  515TIP3   OH2 1550   3.383   5.038   4.184  0.5415 -0.4873 -0.1038
  515TIP3    H1 1551   3.342   4.955   4.209 -0.6830  0.0411 -0.3428
  515TIP3    H2 1552   3.474   5.014   4.164  0.5467 -1.5628  1.0654
  516TIP3   OH2 1553   6.075   1.595   0.049 -0.3659 -0.6512  0.0321
  516TIP3    H1 1554   6.110   1.534  -0.016 -1.3634 -0.4097 -0.7694
  516TIP3    H2 1555   6.132   1.671   0.045 -0.9794 -0.2229 -1.3214
  517TIP3   OH2 1556   5.267   1.118   4.140  0.5057 -0.0076 -0.1575
  517TIP3    H1 1557   5.249   1.049   4.076 -0.7763 -0.2896  0.4726
  517TIP3    H2 1558   5.215   1.193   4.110 -0.2147 -0.1858  0.5956
  518TIP3   OH2 1559   0.120   3.441   3.358 -0.1004 -0.3322  0.0509
  518TIP3    H1 1560   0.183   3.386   3.311  1.2528  0.8172  0.4542
  518TIP3    H2 1561   0.168   3.473   3.434 -1.3816  0.0892  0.7098
  519TIP3   OH2 1562   2.736   3.925   3.607  0.1814  0.2768 -0.0214
  519TIP3    H1 1563   2.733   3.851   3.668  0.5752 -0.0535 -0.3954
  519TIP3    H2 1564   2.675   3.900   3.537  1.1843 -0.2412 -0.7397
  520TIP3   OH2 1565   2.658   5.148   0.411  0.5695 -0.0692  0.0814
  520TIP3    H1 1566   2.660   5.107   0.498  2.8033  0.2905  0.2602
  520TIP3    H2 1567   2.610   5.086   0.357  0.2499 -0.9172  1.2840
  521TIP3   OH2 1568   0.398   3.996   0.186 -0.1742 -0.0344  0.2986
  521TIP3    H1 1569   0.341   4.022   0.113  0.1571 -2.3687 -0.9075
  521TIP3    H2 1570   0.339   3.986   0.260 -0.8928  0.2448 -0.2226
  522TIP3   OH2 1571   1.916   5.971   4.695  0.4464 -0.4392 -0.0323
  522TIP3    H1 1572   1.982   6.039   4.680 -0.4040  0.5864  0.7609
  522TIP3    H2 1573   1.967   5.896   4.727  1.2650  0.2435  0.3203
  523TIP3   OH2 1574   1.447   0.353   2.252 -0.2078 -0.2809  0.7214
  523TIP3    H1 1575   1.363   0.340   2.296 -0.8290  0.5326 -0.1916
  523TIP3    H2 1576   1.475   0.440   2.281  0.5870 -0.7619  1.4344
  524TIP3   OH2 1577   4.962   5.622   4.746 -0.0572  0.8908 -0.2826
  524TIP3    H1 1578   5.008   5.706   4.752  0.3843  0.6288  0.0245
  524TIP3    H2 1579   5.032   5.557   4.746 -0.4534  0.3933  1.7622
  525TIP3   OH2 1580   3.205   1.816   0.146  0.5128  0.1613 -0.1249
  525TIP3    H1 1581   3.120   1.773   0.137  1.1000 -1.0077 -0.1369
  525TIP3    H2 1582   3.237   1.790   0.232  0.7781  0.7562 -0.0377
  526TIP3   OH2 1583   3.506   1.073   3.053  0.5435 -0.9309  0.2168
  526TIP3    H1 1584   3.523   1.106   2.965  0.6281 -1.2387  0.1148
  526TIP3    H2 1585   3.415   1.097   3.071  0.7798 -0.1226  0.3844
  527TIP3   OH2 1586   2.985   0.500   3.350 -0.1261  0.0683 -0.0478
  527TIP3    H1 1587   2.963   0.589   3.377 -0.4053  0.1525 -0.5468
  527TIP3    H2 1588   2.947   0.491   3.263 -1.6051 -1.0913  0.6559
  528TIP3   OH2 1589   3.362   3.635   1.152 -0.1263  0.4037 -0.1731
  528TIP3    H1 1590   3.441   3.587   1.176 -0.6013  0.5008  1.8086
  528TIP3    H2 1591   3.321   3.582   1.083  0.3238 -1.0700  0.6394
  529TIP3   OH2 1592   5.924   5.994   1.234  0.3193 -0.2657  0.2650
  529TIP3    H1 1593   5.856   6.051   1.197  0.1830  0.7047  1.9000
  529TIP3    H2 1594   5.904   5.908   1.199  0.6057  0.6628 -2.3991
  530TIP3   OH2 1595   3.214   2.240   1.921 -0.2281 -0.6165 -0.5452
  530TIP3    H1 1596   3.239   2.327   1.952  0.1536 -0.3597 -1.5579
  530TIP3    H2 1597   3.212   2.186   2.001 -1.2595  0.4928  0.2133
  531TIP3   OH2 1598   5.479   1.411   3.121  0.1368 -0.0228  0.3784
  531TIP3    H1 1599   5.464   1.401   3.027  2.4297  0.9916 -0.1471
  531TIP3    H2 1600   5.406   1.466   3.151  0.5457  1.4810 -1.2446
  532TIP3   OH2 1601   3.027   5.240   1.841 -0.2775 -0.2146  0.0531
  532TIP3    H1 1602   3.111   5.284   1.829  0.5899 -1.5995  0.7012
  532TIP3    H2 1603   3.002   5.213   1.753 -0.2118  0.5012 -0.1883
  533TIP3   OH2 1604   4.125   5.469   2.084  0.2958  0.1665 -0.7328
  533TIP3    H1 1605   4.154   5.524   2.157 -0.9510 -0.2198  0.0747
  533TIP3    H2 1606   4.033   5.452   2.101  0.3423 -1.1394 -1.6427
  534TIP3   OH2 1607   3.224   4.431   0.223  0.5262 -0.1744 -0.3122
  534TIP3    H1 1608   3.135   4.466   0.228 -0.0136 -1.5308  0.3646
  534TIP3    H2 1609   3.271   4.472   0.295  0.4322  0.4923 -0.6284
  535TIP3   OH2 1610   0.309   5.243   0.359  0.4133 -0.2773  0.0550
  535TIP3    H1 1611   0.216   5.265   0.357  0.7744  1.3569 -0.9111
  535TIP3    H2 1612   0.350   5.320   0.401  1.6524  0.5742 -2.5322
  536TIP3   OH2 1613   5.258   0.875   3.961 -0.4820 -0.4867  0.4437
  536TIP3    H1 1614   5.267   0.781   3.945 -1.3815 -0.5927  0.5290
  536TIP3    H2 1615   5.190   0.903   3.899 -0.6114 -0.0024  0.7990
  537TIP3   OH2 1616   5.251   1.558   2.180  0.4184 -0.0721  0.1008
  537TIP3    H1 1617   5.332   1.583   2.135  0.7891 -0.1860  0.7050
  537TIP3    H2 1618   5.265   1.468   2.207 -0.4619 -0.5810 -1.0285
  538TIP3   OH2 1619   2.050   0.304   0.250 -0.2389 -0.6574 -0.0361
  538TIP3    H1 1620   2.066   0.273   0.339  0.4332 -1.7417 -0.5172
  538TIP3    H2 1621   1.980   0.368   0.259  0.2845 -0.2483  1.3623
  539TIP3   OH2 1622   4.990   0.489   4.162 -0.8078 -0.1858 -0.7607
  539TIP3    H1 1623   5.015   0.437   4.085  0.4667 -1.9921  0.7928
  539TIP3    H2 1624   4.944   0.427   4.219 -0.2521  0.6677  0.6598
  540TIP3   OH2 1625   4.248   3.902   2.461 -0.5192  0.4713  0.0461
  540TIP3    H1 1626   4.154   3.882   2.453 -0.6943  0.4571  1.7569
  540TIP3    H2 1627   4.275   3.856   2.541  1.0559  0.1375 -0.6629
  541TIP3   OH2 1628   0.395   1.118   3.260  0.3769  0.6080  0.3424
  541TIP3    H1 1629   0.323   1.181   3.268 -1.1112 -0.3570 -3.3377
  541TIP3    H2 1630   0.439   1.122   3.345 -3.7985  1.4673  2.7851
  542TIP3   OH2 1631   2.430   2.646   2.464 -0.3618 -0.1635  0.1667
  542TIP3    H1 1632   2.507   2.642   2.407 -1.1656  0.7810 -1.0292
  542TIP3    H2 1633   2.466   2.640   2.552  0.9282 -1.6106 -0.3977
  543TIP3   OH2 1634   4.663   2.701   0.696  0.2133 -0.8107 -0.2602
  543TIP3    H1 1635   4.640   2.704   0.603  0.3988 -1.7794 -0.3485
  543TIP3    H2 1636   4.661   2.793   0.724 -3.6259 -0.7281 -0.2593
  544TIP3   OH2 1637   0.088   4.903   3.893 -0.5588 -0.0691 -0.7042
  544TIP3    H1 1638   0.067   4.962   3.964  5.2478  2.6862 -0.6702
  544TIP3    H2 1639   0.139   4.833   3.934  2.7720  1.4941 -1.8111
  545TIP3   OH2 1640   5.469   1.482   4.682 -0.1830  0.3570 -0.8726
  545TIP3    H1 1641   5.421   1.532   4.616  1.1842  0.4165 -1.8642
  545TIP3    H2 1642   5.403   1.428   4.724 -1.3662  1.5560 -1.1216
  546TIP3   OH2 1643   3.955   3.323   3.506 -0.0100 -0.4362 -0.3484
  546TIP3    H1 1644   4.002   3.330   3.589 -0.4041 -0.3859 -0.1314
  546TIP3    H2 1645   3.900   3.401   3.502 -0.4081 -0.7187 -0.3996
  547TIP3   OH2 1646   1.840   4.759   1.611  0.1050  0.5833  0.0114
  547TIP3    H1 1647   1.777   4.790   1.677 -0.6857  0.1187 -0.5066
  547TIP3    H2 1648   1.917   4.813   1.624 -0.0147  0.4628  1.3636
  548TIP3   OH2 1649   6.094   3.413   2.037  0.0079  0.1647  0.2137
  548TIP3    H1 1650   6.180   3.403   1.997  0.5402 -1.2972  1.5695
  548TIP3    H2 1651   6.052   3.327   2.024 -1.0743  0.7192 -0.0456
  549TIP3   OH2 1652   0.553   1.776   4.136  0.3458 -0.6193 -0.3008
  549TIP3    H1 1653   0.521   1.707   4.194 -0.8311  0.6648  0.6554
  549TIP3    H2 1654   0.570   1.732   4.053 -0.0478 -2.1030  0.3668
  550TIP3   OH2 1655   2.349   0.933   3.227  0.2061  0.0488 -0.0375
  550TIP3    H1 1656   2.366   0.985   3.148 -2.9199  2.5549  0.7215
  550TIP3    H2 1657   2.257   0.909   3.221 -0.1296  0.2502  2.7568
  551TIP3   OH2 1658   1.972   5.571   2.949 -0.2134  0.1367  0.2241
  551TIP3    H1 1659   2.017   5.487   2.958  0.4214  0.1431 -2.2568
  551TIP3    H2 1660   1.883   5.548   2.924 -0.0346  0.1847 -0.4730
  552TIP3   OH2 1661   0.154   3.041   1.631 -1.1009 -0.4141 -0.1520
  552TIP3    H1 1662   0.082   3.064   1.689 -1.1890  1.3514 -0.8965
  552TIP3    H2 1663   0.162   3.116   1.571  0.9016 -0.8637 -0.5260
  553TIP3   OH2 1664   0.064   2.741   1.850 -0.2685  0.1172 -0.2452
  553TIP3    H1 1665   0.139   2.800   1.859 -0.5783  0.2147  3.0317
  553TIP3    H2 1666   0.047   2.710   1.939 -0.7207 -4.3039 -1.6333
  554TIP3   OH2 1667   3.130   0.979   2.895  0.1202 -0.6937  0.3075
  554TIP3    H1 1668   3.153   0.959   2.986 -0.9224  0.7646  0.9284
  554TIP3    H2 1669   3.036   0.996   2.897  0.2280  0.1595 -0.8781
  555TIP3   OH2 1670   2.857   1.177   0.453 -0.0889  0.3850  0.2242
  555TIP3    H1 1671   2.830   1.129   0.375  3.4357  1.2761 -1.7491
  555TIP3    H2 1672   2.846   1.269   0.430  0.7470  0.6524  0.8458
  556TIP3   OH2 1673   3.984   5.693   4.659 -0.0197  0.4101 -0.8171
  556TIP3    H1 1674   3.908   5.693   4.600  0.1428  0.2540 -1.0317
  556TIP3    H2 1675   4.044   5.756   4.620  0.6761 -0.7037 -1.6081
  557TIP3   OH2 1676   4.447   3.853   1.174 -0.3708  0.1159 -0.6989
  557TIP3    H1 1677   4.533   3.893   1.175 -0.1121 -0.4072  0.6333
  557TIP3    H2 1678   4.464   3.759   1.174 -0.8493 -0.0537  1.9587
  558TIP3   OH2 1679   3.189   3.219   5.018 -0.4338  0.0577  0.1715
  558TIP3    H1 1680   3.222   3.147   4.965  2.5209  1.2771  0.2122
  558TIP3    H2 1681   3.153   3.281   4.955  0.3424  0.1614 -0.1736
  559TIP3   OH2 1682   4.463   4.836   2.576 -0.1620  0.0907 -0.1253
  559TIP3    H1 1683   4.455   4.930   2.593 -1.1316  0.6024 -2.8890
  559TIP3    H2 1684   4.466   4.829   2.481  0.4613 -2.6705  0.0140
  560TIP3   OH2 1685   3.061   1.733   2.725  0.2002 -0.0431 -0.1753
  560TIP3    H1 1686   3.054   1.713   2.631  0.4811 -1.3012  0.0509
  560TIP3    H2 1687   3.137   1.683   2.755 -0.6326 -0.6764  0.9652
  561TIP3   OH2 1688   1.777   1.375   0.766 -0.0552 -0.0576 -0.2050
  561TIP3    H1 1689   1.862   1.371   0.722  1.1968 -2.3982  2.1325
  561TIP3    H2 1690   1.716   1.334   0.705  0.4227  1.6375 -1.9192
  562TIP3   OH2 1691   5.610   5.174   3.158 -0.1126 -0.1414 -0.0639
  562TIP3    H1 1692   5.587   5.147   3.069 -0.9768 -0.8530  0.3634
  562TIP3    H2 1693   5.527   5.177   3.205  0.4624 -1.0909  1.0711
  563TIP3   OH2 1694   2.396   3.013   4.708  0.5868  0.4667 -0.2115
  563TIP3    H1 1695   2.476   2.983   4.665  1.3166  1.5124  0.3788
  563TIP3    H2 1696   2.332   2.945   4.688  1.7987 -0.7652 -0.0824
  564TIP3   OH2 1697   5.347   5.129   2.986 -0.0156 -0.4450 -0.0396
  564TIP3    H1 1698   5.360   5.187   2.911  0.4635  0.6577  0.8748
  564TIP3    H2 1699   5.262   5.088   2.970 -0.2266  0.2932 -0.8460
  565TIP3   OH2 1700   4.852   4.315   2.938 -0.5161 -0.7140 -0.3193
  565TIP3    H1 1701   4.886   4.404   2.928  0.9753 -1.0741  1.1420
  565TIP3    H2 1702   4.807   4.297   2.855 -0.3870  1.1908 -0.8512
  566TIP3   OH2 1703   4.144   1.732   2.422  0.1054  0.0831  0.5075
  566TIP3    H1 1704   4.201   1.684   2.363 -1.5218 -2.7043  1.0261
  566TIP3    H2 1705   4.077   1.769   2.365 -0.8677 -1.7142  0.4098
  567TIP3   OH2 1706   4.286   2.558   2.610 -0.3382  0.3384 -0.0464
  567TIP3    H1 1707   4.221   2.593   2.670 -0.0549  0.2462  0.3220
  567TIP3    H2 1708   4.365   2.610   2.626 -0.1064 -0.0285  0.0437
  568TIP3   OH2 1709   6.099   2.986   1.036  0.2000  0.7432 -0.1068
  568TIP3    H1 1710   6.114   2.948   0.950  1.5370 -0.5849  0.6578
  568TIP3    H2 1711   6.181   3.031   1.057  0.3008  0.1337  0.8836
  569TIP3   OH2 1712   2.714   3.113   4.341  0.2872  0.0664 -0.0731
  569TIP3    H1 1713   2.686   3.022   4.337  0.2299 -0.0492  1.9623
  569TIP3    H2 1714   2.732   3.137   4.250 -1.9768 -1.2247 -0.9247
  570TIP3   OH2 1715   5.818   0.378   1.137 -0.3465  0.3291 -0.1716
  570TIP3    H1 1716   5.856   0.301   1.095 -1.3440  0.3516 -1.1792
  570TIP3    H2 1717   5.745   0.403   1.080 -0.5928  1.4934  0.6076
  571TIP3   OH2 1718   0.756   3.260   1.019 -0.1765 -0.4449  0.5850
  571TIP3    H1 1719   0.764   3.232   1.110  2.7716  0.5855  0.7834
  571TIP3    H2 1720   0.837   3.229   0.977  0.4523  2.4506 -0.6097
  572TIP3   OH2 1721   1.517   5.949   3.554 -0.1174  0.2135 -0.3273
  572TIP3    H1 1722   1.559   5.871   3.518 -0.2985  0.2918 -0.7143
  572TIP3    H2 1723   1.445   5.915   3.607 -1.0079  0.1347 -1.5237
  573TIP3   OH2 1724   5.802   3.933   2.467 -0.7554  0.2726  0.3487
  573TIP3    H1 1725   5.709   3.949   2.484 -0.8597 -0.1151  0.1697
  573TIP3    H2 1726   5.824   3.860   2.526 -1.0854 -0.9993 -1.0361
  574TIP3   OH2 1727   5.238   2.942   4.835  0.1910  0.2005 -0.0572
  574TIP3    H1 1728   5.319   2.899   4.808 -0.6009 -0.8723 -0.8238
  574TIP3    H2 1729   5.267   3.018   4.885  1.6805  0.3634 -1.1003
  575TIP3   OH2 1730   0.646   2.799   4.623 -0.0564 -0.2154 -0.1077
  575TIP3    H1 1731   0.720   2.785   4.564  2.0254  3.5473  1.2394
  575TIP3    H2 1732   0.596   2.870   4.582 -1.5643 -1.0590  0.1997
  576TIP3   OH2 1733   4.560   1.639   0.355 -0.5887 -0.2549 -0.1436
  576TIP3    H1 1734   4.479   1.676   0.322 -0.5758 -0.1569 -0.0651
  576TIP3    H2 1735   4.629   1.688   0.309 -0.5801 -0.8765 -0.8032
  577TIP3   OH2 1736   1.138   5.932   2.286  0.1213  0.1461 -0.1041
  577TIP3    H1 1737   1.228   5.936   2.318 -0.7732 -3.7202  3.9012
  577TIP3    H2 1738   1.140   5.862   2.220 -0.0447 -0.5535  0.6213
  578TIP3   OH2 1739   6.238   5.095   0.641 -0.3356 -0.2822 -0.0352
  578TIP3    H1 1740   6.159   5.046   0.622 -1.8269  1.6828  0.6924
  578TIP3    H2 1741   6.255   5.078   0.734 -1.4413  1.2365  0.4930
  579TIP3   OH2 1742   3.983   1.613   3.366 -0.3149  0.5126 -0.5082
  579TIP3    H1 1743   3.989   1.595   3.273  1.8461  5.3230 -1.6261
  579TIP3    H2 1744   4.073   1.600   3.399 -0.5907  0.8545  0.4086
  580TIP3   OH2 1745   2.705   2.677   1.829  0.2520  0.7433  0.4042
  580TIP3    H1 1746   2.730   2.623   1.754  2.5529  0.4821  1.2677
  580TIP3    H2 1747   2.613   2.659   1.843  0.8577 -2.9036  0.5363
  581TIP3   OH2 1748   2.824   3.526   1.793  0.6830 -0.3130  0.0401
  581TIP3    H1 1749   2.764   3.499   1.724 -0.7574  1.4190  0.5398
  581TIP3    H2 1750   2.876   3.596   1.754  0.5577 -0.0192  0.3925
  582TIP3   OH2 1751   4.856   3.015   0.615 -1.3953 -0.1547 -0.5490
  582TIP3    H1 1752   4.867   3.106   0.642 -0.0844 -0.2661 -0.6612
  582TIP3    H2 1753   4.820   2.971   0.692  0.5785 -0.0929  0.4583
  583TIP3   OH2 1754   3.479   2.634   5.068  0.1124  0.3501 -0.1270
  583TIP3    H1 1755   3.492   2.722   5.103 -0.0434  0.4387 -0.2898
  583TIP3    H2 1756   3.563   2.611   5.028 -0.4751  1.3009 -2.0202
  584TIP3   OH2 1757   4.012   4.020   4.851 -0.2705 -0.0750  0.1699
  584TIP3    H1 1758   4.001   3.985   4.939 -0.1054  0.0067  0.2232
  584TIP3    H2 1759   3.945   4.088   4.844 -0.9248 -0.7362 -0.1139
  585TIP3   OH2 1760   3.709   4.098   1.431  0.0580  0.1943  0.0157
  585TIP3    H1 1761   3.703   4.161   1.502 -1.7461 -1.2625  1.2495
  585TIP3    H2 1762   3.794   4.055   1.442  0.5450  1.1857  0.1912
  586TIP3   OH2 1763   2.653   0.952   4.288 -0.1004 -0.9724 -0.1967
  586TIP3    H1 1764   2.562   0.928   4.271 -0.4080  0.3244 -0.4452
  586TIP3    H2 1765   2.704   0.888   4.237 -0.9049 -0.6241 -1.4984
  587TIP3   OH2 1766   4.767   1.889   5.029  0.3490  0.2038  0.0449
  587TIP3    H1 1767   4.780   1.983   5.025  1.4647  0.0923  0.6056
  587TIP3    H2 1768   4.678   1.878   5.063  0.4791  1.0536  0.6745
  588TIP3   OH2 1769   4.752   3.422   0.801 -0.1165  0.1480  0.0525
  588TIP3    H1 1770   4.803   3.423   0.882 -0.4134  1.1929  0.2340
  588TIP3    H2 1771   4.661   3.419   0.830 -0.2339  0.7640 -0.2345
  589TIP3   OH2 1772   4.108   1.914   4.226 -0.1578  0.0370  0.6012
  589TIP3    H1 1773   4.105   1.819   4.221  0.6608  0.0716 -1.3083
  589TIP3    H2 1774   4.055   1.944   4.152  0.0272  1.0634  0.8602
  590TIP3   OH2 1775   1.874   3.706   2.742 -0.5355 -0.6685 -0.0315
  590TIP3    H1 1776   1.872   3.800   2.761 -1.2839 -0.5611 -0.5989
  590TIP3    H2 1777   1.828   3.665   2.816 -1.2441 -0.4811 -0.3672
  591TIP3   OH2 1778   4.769   2.653   2.903  0.3423 -0.1949  0.2350
  591TIP3    H1 1779   4.724   2.648   2.819 -4.4259  0.1409  2.4427
  591TIP3    H2 1780   4.785   2.562   2.928  1.4212 -0.3031 -0.7981
  592TIP3   OH2 1781   3.214   4.310   2.865 -0.2999 -0.1380 -0.0083
  592TIP3    H1 1782   3.258   4.332   2.948  1.3321  0.2516 -0.9260
  592TIP3    H2 1783   3.235   4.218   2.850 -0.3439 -0.1269 -0.1408
  593TIP3   OH2 1784   3.752   1.567   1.603 -0.0205  0.2079 -0.7936
  593TIP3    H1 1785   3.814   1.531   1.540  1.0152 -1.4512  1.0598
  593TIP3    H2 1786   3.780   1.532   1.687 -2.8052  0.3272  0.2994
  594TIP3   OH2 1787   3.444   5.962   3.371 -0.2379 -0.4534  0.5027
  594TIP3    H1 1788   3.363   6.007   3.396  0.7379  2.2770 -0.8469
  594TIP3    H2 1789   3.445   5.967   3.275  3.1201  2.8009  0.5383
  595TIP3   OH2 1790   3.159   1.031   4.524  0.6478 -0.2898  0.2430
  595TIP3    H1 1791   3.135   1.122   4.504 -0.9511 -0.0690  2.8040
  595TIP3    H2 1792   3.119   0.979   4.455 -2.1549  0.6441  1.0530
  596TIP3   OH2 1793   0.325   1.205   2.836  0.0635 -0.3545  0.2892
  596TIP3    H1 1794   0.321   1.226   2.743  1.2621  1.5928  0.6163
  596TIP3    H2 1795   0.250   1.249   2.874 -0.0901 -0.6540  0.3394
  597TIP3   OH2 1796   4.703   3.275   3.232 -0.2911  0.9306 -0.4634
  597TIP3    H1 1797   4.626   3.308   3.186 -1.1153  0.3606  0.4607
  597TIP3    H2 1798   4.689   3.181   3.238 -0.9743  1.1114  2.1855
  598TIP3   OH2 1799   0.850   1.931   3.421  0.1578  0.0275  0.0516
  598TIP3    H1 1800   0.755   1.940   3.416  0.1408  0.5884  1.1515
  598TIP3    H2 1801   0.868   1.916   3.513  0.9982 -2.1694 -0.4216
  599TIP3   OH2 1802   2.735   1.429   0.401 -0.4038 -0.3645 -0.3429
  599TIP3    H1 1803   2.768   1.517   0.381  1.3564 -1.0840 -0.7945
  599TIP3    H2 1804   2.641   1.441   0.413 -0.3039  1.4757 -1.0391
  600TIP3   OH2 1805   0.415   3.168   3.859 -0.0288  0.6976 -0.1520
  600TIP3    H1 1806   0.469   3.244   3.836  0.6858  0.9817  2.1899
  600TIP3    H2 1807   0.414   3.114   3.780  1.5707  1.9392 -1.0695
  601TIP3   OH2 1808   4.595   4.172   3.957  0.5803  0.1945  0.0623
  601TIP3    H1 1809   4.571   4.201   3.869 -0.3574 -0.6117  0.0385
  601TIP3    H2 1810   4.664   4.108   3.943 -1.7071 -2.3465 -0.3813
  602TIP3   OH2 1811   6.109   4.074   1.871 -0.3617 -0.0858  0.6526
  602TIP3    H1 1812   6.185   4.082   1.814 -0.7104  0.1617  0.2089
  602TIP3    H2 1813   6.066   3.993   1.843 -0.0557 -0.4172  1.1522
  603TIP3   OH2 1814   5.846   0.930   2.244 -0.0663 -0.6493  0.3201
  603TIP3    H1 1815   5.766   0.976   2.220  1.1149  1.1509 -0.4440
  603TIP3    H2 1816   5.826   0.837   2.231 -2.3817 -0.3558  1.3896
  604TIP3   OH2 1817   3.309   5.532   3.074  0.3231 -0.1215 -0.4201
  604TIP3    H1 1818   3.358   5.592   3.130  1.1811 -1.2712  0.0892
  604TIP3    H2 1819   3.266   5.472   3.134 -0.2465 -0.2473 -0.9392
  605TIP3   OH2 1820   3.107   5.045   4.268  0.0668  0.5278 -0.3124
  605TIP3    H1 1821   3.137   4.997   4.345 -1.1811 -0.0772 -0.1703
  605TIP3    H2 1822   3.069   5.125   4.303 -0.3500  0.3293 -0.3015
  606TIP3   OH2 1823   4.157   5.598   0.985  0.2429  0.0318  0.4464
  606TIP3    H1 1824   4.090   5.540   0.948  0.3024  0.9932 -1.2892
  606TIP3    H2 1825   4.240   5.564   0.950  0.3004  0.9797 -0.3822
  607TIP3   OH2 1826   1.454   1.361   0.219  0.1064 -0.1854  0.2016
  607TIP3    H1 1827   1.534   1.347   0.269  0.0366  0.5099  0.5109
  607TIP3    H2 1828   1.422   1.272   0.200  0.8029 -0.4609  0.2982
  608TIP3   OH2 1829   0.617   4.415   3.461 -0.2788  0.5228 -0.1749
  608TIP3    H1 1830   0.574   4.484   3.512 -0.3259 -0.7009  1.5385
  608TIP3    H2 1831   0.546   4.373   3.412 -1.1078 -1.2495  2.3587
  609TIP3   OH2 1832   0.792   1.157   1.767 -0.0539 -0.5952 -0.6235
  609TIP3    H1 1833   0.812   1.151   1.861  0.6455  0.8515 -0.6463
  609TIP3    H2 1834   0.764   1.069   1.743  0.0828 -1.0832  0.8688
  610TIP3   OH2 1835   5.794   3.241   0.959  0.0865 -0.6524 -0.1432
  610TIP3    H1 1836   5.830   3.246   0.871  1.4952 -1.4227  0.3572
  610TIP3    H2 1837   5.740   3.320   0.967  0.4077 -0.2659 -1.4707
  611TIP3   OH2 1838   4.870   5.612   3.546  0.0710  0.2276 -0.6275
  611TIP3    H1 1839   4.914   5.555   3.482  1.9882 -0.2996  1.0442
  611TIP3    H2 1840   4.860   5.557   3.624 -1.7801  0.9988 -0.2837
  612TIP3   OH2 1841   5.970   3.176   3.922 -0.2241 -0.1183 -0.1677
  612TIP3    H1 1842   6.057   3.136   3.919  1.0293  2.1091  2.3743
  612TIP3    H2 1843   5.955   3.207   3.833  0.7393 -2.0615 -1.0843
  613TIP3   OH2 1844   0.370  -0.001   3.589  0.3118  0.5445  0.2186
  613TIP3    H1 1845   0.392   0.052   3.512  1.5362 -1.2125 -0.7310
  613TIP3    H2 1846   0.455  -0.026   3.626 -0.1689 -1.3703  0.1434
  614TIP3   OH2 1847   0.311   3.121   2.333  0.1360  0.3215 -0.1676
  614TIP3    H1 1848   0.278   3.180   2.266 -0.7026  0.4528  0.3459
  614TIP3    H2 1849   0.288   3.163   2.416  1.7630  0.5123  0.2410
  615TIP3   OH2 1850   5.386   1.730   3.491  0.2698 -0.0347 -0.0253
  615TIP3    H1 1851   5.392   1.700   3.582 -0.3051 -0.1202 -0.0170
  615TIP3    H2 1852   5.307   1.689   3.456 -0.5399  1.4369 -0.0157
  616TIP3   OH2 1853   4.977   4.523   4.351 -0.4405  0.0268 -0.4487
  616TIP3    H1 1854   5.009   4.447   4.303 -2.1374 -0.2844 -1.1832
  616TIP3    H2 1855   4.886   4.532   4.322 -0.3548  2.1909 -0.1840
  617TIP3   OH2 1856   3.210   3.085   4.210 -0.0582 -0.3053 -0.1896
  617TIP3    H1 1857   3.212   3.067   4.116  0.4577  0.7856 -0.4051
  617TIP3    H2 1858   3.293   3.048   4.243  0.5873  0.8421 -0.4785
  618TIP3   OH2 1859   1.310   5.949   3.720 -0.4020 -0.2257 -0.2386
  618TIP3    H1 1860   1.220   5.962   3.692  0.0182  1.1954 -1.0422
  618TIP3    H2 1861   1.310   5.971   3.813 -0.8913 -0.3141 -0.2147
  619TIP3   OH2 1862   0.857   4.392   1.363 -0.3054 -0.4861 -0.0029
  619TIP3    H1 1863   0.786   4.331   1.385 -0.2351 -0.0217  1.7206
  619TIP3    H2 1864   0.844   4.465   1.424 -0.1933  1.0901 -1.7932
  620TIP3   OH2 1865   4.253   3.661   1.951  0.3712 -0.1032 -0.4606
  620TIP3    H1 1866   4.295   3.600   1.890 -1.4547 -1.3247 -0.5767
  620TIP3    H2 1867   4.188   3.708   1.897  1.4563  1.7217 -0.2854
  621TIP3   OH2 1868   2.681   5.397   3.207  0.3410 -0.0372 -0.4348
  621TIP3    H1 1869   2.754   5.390   3.268  0.1591  0.0185 -0.2111
  621TIP3    H2 1870   2.722   5.418   3.123  0.4427  2.0302  0.0863
  622TIP3   OH2 1871   3.258   5.387   0.232  0.3122 -0.1906  0.2250
  622TIP3    H1 1872   3.324   5.389   0.300  0.4802  0.0322  0.0573
  622TIP3    H2 1873   3.178   5.419   0.274  0.4628  0.1311  0.2664
  623TIP3   OH2 1874   5.790   2.598   4.941 -0.5535 -0.2172 -0.2580
  623TIP3    H1 1875   5.725   2.588   4.871 -0.3090 -1.4186 -0.3323
  623TIP3    H2 1876   5.856   2.657   4.904 -0.1926 -1.1964 -1.2166
  624TIP3   OH2 1877   2.797   1.361   0.090  0.2524 -0.2175  0.0918
  624TIP3    H1 1878   2.751   1.430   0.043  2.5031  0.6476 -1.0115
  624TIP3    H2 1879   2.781   1.379   0.183  0.8841  1.9066 -0.1646
  625TIP3   OH2 1880   5.380   5.512   1.267  0.0436 -0.3595  0.0730
  625TIP3    H1 1881   5.418   5.432   1.231 -0.6889 -0.9911  0.6481
  625TIP3    H2 1882   5.286   5.495   1.268 -0.0669  0.2361  0.8496
  626TIP3   OH2 1883   3.467   5.889   0.467  0.2610 -0.0808 -0.2105
  626TIP3    H1 1884   3.384   5.917   0.506  0.3962  1.2699 -0.8001
  626TIP3    H2 1885   3.463   5.922   0.377  1.3925 -0.0721 -0.2785
  627TIP3   OH2 1886   3.694   5.778   0.184  0.0155  0.1370 -0.4599
  627TIP3    H1 1887   3.683   5.825   0.267 -1.4262  1.5305 -1.3817
  627TIP3    H2 1888   3.637   5.701   0.192 -1.2313  1.0030 -0.6422
  628TIP3   OH2 1889   0.495   2.034   1.691 -0.0753  0.6140  0.2396
  628TIP3    H1 1890   0.464   2.002   1.776  1.8291 -0.2963  0.6505
  628TIP3    H2 1891   0.579   2.075   1.710 -0.1986  1.5070 -1.0445
  629TIP3   OH2 1892   1.148   4.723   5.002  0.4021  0.0596  0.2168
  629TIP3    H1 1893   1.115   4.797   5.053 -0.1502 -0.2314  0.2868
  629TIP3    H2 1894   1.240   4.745   4.985  0.4060  0.4838  0.7476
  630TIP3   OH2 1895   5.227   1.979   2.912 -0.1651 -0.3966  0.2881
  630TIP3    H1 1896   5.201   1.903   2.861  0.7142  0.0805 -0.8923
  630TIP3    H2 1897   5.253   2.044   2.848 -0.5959  0.8073  1.2866
  631TIP3   OH2 1898   3.483   4.923   0.001  0.1310 -0.1237  0.5788
  631TIP3    H1 1899   3.508   4.975   0.077  0.4413  0.3080  0.1849
  631TIP3    H2 1900   3.514   4.834   0.021 -0.3145 -0.1419  1.2076
  632TIP3   OH2 1901   1.943   2.146   2.152  0.3298  0.1149  0.5024
  632TIP3    H1 1902   1.959   2.213   2.086  0.0316 -0.3567 -0.0683
  632TIP3    H2 1903   1.854   2.162   2.182  0.1486 -0.1881  0.1500
  633TIP3   OH2 1904   5.293   0.211   0.470  0.4231 -0.0082  0.0911
  633TIP3    H1 1905   5.306   0.145   0.538 -1.0559 -0.1416  0.2738
  633TIP3    H2 1906   5.249   0.164   0.399  2.6172 -0.0624 -1.3312
  634TIP3   OH2 1907   1.198   5.067   0.468  0.0388  0.0283  0.4352
  634TIP3    H1 1908   1.225   5.000   0.405  1.5314 -0.2940  1.3547
  634TIP3    H2 1909   1.119   5.033   0.508  0.5086 -0.9711  0.5437
  635TIP3   OH2 1910   0.032   4.394   2.452  0.6791  0.4402 -0.5658
  635TIP3    H1 1911   0.090   4.423   2.382  2.1231 -2.4173 -0.7034
  635TIP3    H2 1912   0.025   4.300   2.440  0.0380 -0.0050  2.4371
  636TIP3   OH2 1913   2.723   4.858   1.904 -0.1481  0.0361  0.5301
  636TIP3    H1 1914   2.779   4.892   1.834 -1.4465 -1.0706 -1.1146
  636TIP3    H2 1915   2.653   4.923   1.911 -1.5309 -1.1910 -1.2048
  637TIP3   OH2 1916   1.545   1.133   0.972 -0.0241  0.3486  0.4998
  637TIP3    H1 1917   1.625   1.109   0.926  0.7061  0.9539  1.4177
  637TIP3    H2 1918   1.479   1.139   0.903  0.8185  0.2828 -0.3377
  638TIP3   OH2 1919   0.233   3.992   2.629 -0.2266 -0.2610  0.4942
  638TIP3    H1 1920   0.232   3.901   2.660  0.2658  0.2784  2.1792
  638TIP3    H2 1921   0.197   4.043   2.702  0.5788  1.0254  0.0261
  639TIP3   OH2 1922   3.476   5.173   1.922  0.6984  0.2102  0.1966
  639TIP3    H1 1923   3.550   5.152   1.865  2.2029  1.6352  1.5413
  639TIP3    H2 1924   3.514   5.179   2.009 -1.0999  0.5569  0.9942
  640TIP3   OH2 1925   6.064   4.610   4.339 -0.0880  0.2223 -0.2300
  640TIP3    H1 1926   6.002   4.539   4.352  1.3863 -1.2036 -0.6785
  640TIP3    H2 1927   6.019   4.670   4.279 -1.9400  0.4876  1.3328
  641TIP3   OH2 1928   4.981   3.299   0.456 -0.0779 -0.2170  0.5646
  641TIP3    H1 1929   4.945   3.349   0.384 -0.5502 -1.5938 -0.1934
  641TIP3    H2 1930   4.906   3.278   0.512 -0.1132 -1.1427  0.1937
  642TIP3   OH2 1931   2.261   4.486   2.496 -0.2447 -0.2269 -0.0640
  642TIP3    H1 1932   2.252   4.506   2.403 -1.2837 -0.5217 -0.0416
  642TIP3    H2 1933   2.198   4.544   2.539 -0.6854 -0.9869  0.3270
  643TIP3   OH2 1934   1.148   3.249   4.968  0.3223  0.5898  0.0186
  643TIP3    H1 1935   1.215   3.250   4.900 -1.2039  1.5308 -1.5342
  643TIP3    H2 1936   1.106   3.163   4.958  0.9204  0.2137  0.6439
  644TIP3   OH2 1937   5.765   4.225   1.978  0.2766 -0.4509  0.1482
  644TIP3    H1 1938   5.848   4.203   2.020  0.2543 -2.3973 -0.7304
  644TIP3    H2 1939   5.703   4.162   2.014 -0.0869 -1.1143 -1.5630
  645TIP3   OH2 1940   1.005   0.964   4.869 -0.1222  0.9819 -0.3145
  645TIP3    H1 1941   0.959   0.990   4.789 -0.2249 -1.4386 -1.1330
  645TIP3    H2 1942   0.973   0.875   4.886  1.2991  0.7515  1.3737
  646TIP3   OH2 1943   2.999   0.990   0.629  0.5266  0.4997 -0.0956
  646TIP3    H1 1944   2.948   1.032   0.559  0.2042  1.7582  0.8374
  646TIP3    H2 1945   3.084   0.973   0.590  1.3484  3.8494 -0.0403
  647TIP3   OH2 1946   1.425   5.958   1.717 -0.0207 -0.0591  0.3979
  647TIP3    H1 1947   1.507   5.909   1.708  0.3525  0.4421  0.9461
  647TIP3    H2 1948   1.398   5.941   1.808 -0.5123 -0.1969  0.2288
  648TIP3   OH2 1949   3.332   5.175   1.020  0.8289 -0.4495  1.2319
  648TIP3    H1 1950   3.346   5.163   0.927  0.8445  1.2546  0.9768
  648TIP3    H2 1951   3.418   5.201   1.054  0.5669  0.0657  1.5099
  649TIP3   OH2 1952   4.795   4.849   0.335  0.6373 -1.3189 -0.5735
  649TIP3    H1 1953   4.773   4.881   0.423 -1.1428 -1.0142 -1.0754
  649TIP3    H2 1954   4.845   4.769   0.350  0.5847 -1.1350  0.7130
  650TIP3   OH2 1955   4.944   3.323   3.798 -0.2233  0.0908  0.2584
  650TIP3    H1 1956   4.913   3.412   3.783  0.0624  0.1891  0.2509
  650TIP3    H2 1957   5.000   3.329   3.875 -0.9308 -0.2455  0.8190
  651TIP3   OH2 1958   1.805   5.004   3.723 -0.5468 -0.7821 -0.1751
  651TIP3    H1 1959   1.872   5.023   3.657 -1.4038  1.7632 -0.4197
  651TIP3    H2 1960   1.751   5.083   3.727 -1.8666 -1.6770  2.0265
  652TIP3   OH2 1961   3.148   1.701   1.403  1.0141 -0.1945 -0.0762
  652TIP3    H1 1962   3.123   1.746   1.484  2.6179  0.3461  0.1629
  652TIP3    H2 1963   3.069   1.701   1.350  0.4097  1.0689  0.7619
  653TIP3   OH2 1964   5.438   4.574   5.121  0.7625 -0.1730 -0.5734
  653TIP3    H1 1965   5.462   4.603   5.209 -1.2713  0.5788 -0.1904
  653TIP3    H2 1966   5.351   4.535   5.133 -0.0089  0.8966 -2.4141
  654TIP3   OH2 1967   1.009   1.474   3.711 -0.0440  0.7499 -0.0443
  654TIP3    H1 1968   0.962   1.489   3.629 -2.1083 -0.0325  0.9390
  654TIP3    H2 1969   0.945   1.433   3.769  1.7465  0.0160  1.5311
  655TIP3   OH2 1970   4.415   3.061   0.206  0.5678  0.3464  0.4313
  655TIP3    H1 1971   4.453   3.134   0.157  0.9662 -0.9736 -1.3059
  655TIP3    H2 1972   4.385   3.000   0.139 -3.0440  0.4625  1.7106
  656TIP3   OH2 1973   5.254   0.670   2.402 -0.0566 -0.4158 -0.2223
  656TIP3    H1 1974   5.254   0.606   2.473  0.3308 -0.9342 -0.6808
  656TIP3    H2 1975   5.337   0.655   2.357  0.1215  0.5304 -0.2297
  657TIP3   OH2 1976   0.935   2.808   4.093 -0.4606 -0.1083  0.2192
  657TIP3    H1 1977   0.854   2.858   4.097 -0.3824  0.0785 -0.3797
  657TIP3    H2 1978   0.920   2.745   4.022  0.2538  0.5616 -0.5534
  658TIP3   OH2 1979   0.232   5.433   4.461  0.0842  0.9929 -0.5803
  658TIP3    H1 1980   0.174   5.398   4.528  1.4527  0.7019  0.4690
  658TIP3    H2 1981   0.193   5.518   4.438 -0.8324  0.7343 -0.0153
  659TIP3   OH2 1982   5.290   0.887   4.790  0.5615 -0.0504  0.0437
  659TIP3    H1 1983   5.335   0.972   4.793  0.7794 -0.1798  0.5829
  659TIP3    H2 1984   5.307   0.848   4.876 -2.1415  0.6848  1.0042
  660TIP3   OH2 1985   0.264   3.471   3.869 -0.2883 -0.1589  0.5140
  660TIP3    H1 1986   0.223   3.384   3.871  0.5033 -0.5378  0.4796
  660TIP3    H2 1987   0.288   3.488   3.960  1.0843 -0.7231  0.2772
  661TIP3   OH2 1988   5.544   3.443   2.235  0.7357  0.2613  0.3662
  661TIP3    H1 1989   5.465   3.494   2.216 -0.3259 -1.7751 -1.1212
  661TIP3    H2 1990   5.525   3.400   2.318  1.1405  1.2652  1.0077
  662TIP3   OH2 1991   3.166   4.269   1.059  0.7739 -0.5845 -0.0520
  662TIP3    H1 1992   3.180   4.318   1.140  2.9794 -1.3040  0.0676
  662TIP3    H2 1993   3.193   4.180   1.079 -0.7978 -1.3279 -0.9765
  663TIP3   OH2 1994   5.734   3.815   1.155  0.6491  0.2036 -0.3578
  663TIP3    H1 1995   5.667   3.784   1.216  0.7406  2.0102  0.7006
  663TIP3    H2 1996   5.817   3.787   1.194  0.6102 -2.1540 -1.7359
  664TIP3   OH2 1997   4.166   5.084   0.562 -0.1334 -0.8250 -0.3617
  664TIP3    H1 1998   4.091   5.143   0.551  2.2104  3.0094  1.9169
  664TIP3    H2 1999   4.153   5.043   0.647  0.5668  0.3898  0.3652
  665TIP3   OH2 2000   1.687   1.214   4.364  0.2761 -0.1741 -0.4360
  665TIP3    H1 2001   1.681   1.169   4.279  0.5192 -0.6435 -0.2088
  665TIP3    H2 2002   1.650   1.152   4.426 -0.1564  0.2833 -0.2365
  666TIP3   OH2 2003   5.180   2.581   2.861  0.1309 -0.3600 -0.7770
  666TIP3    H1 2004   5.167   2.531   2.942 -0.3150 -0.1421 -0.7058
  666TIP3    H2 2005   5.197   2.515   2.794  0.8589 -0.5187 -0.4360
  667TIP3   OH2 2006   2.122   1.760   1.582 -0.4502  0.1159  0.0814
  667TIP3    H1 2007   2.124   1.760   1.677 -0.7363  0.0663  0.0903
  667TIP3    H2 2008   2.168   1.840   1.557 -3.1074  1.8694  0.3615
  668TIP3   OH2 2009   1.074   2.741   0.879  0.1618 -0.3659  0.0021
  668TIP3    H1 2010   1.089   2.797   0.803  0.9267  1.0655  1.1616
  668TIP3    H2 2011   0.993   2.695   0.859  0.3167  0.0183 -1.6500
  669TIP3   OH2 2012   6.149   3.846   4.431 -0.3265 -0.4994 -0.0034
  669TIP3    H1 2013   6.189   3.823   4.515  1.3548  0.9443 -0.3588
  669TIP3    H2 2014   6.132   3.762   4.389  3.5222 -1.2871 -0.3320
  670TIP3   OH2 2015   0.910   1.684   3.857 -0.4021  0.1412 -0.5311
  670TIP3    H1 2016   0.981   1.620   3.851  0.0178  0.4725  0.7171
  670TIP3    H2 2017   0.921   1.739   3.779 -0.0403 -0.5526 -0.9826
  671TIP3   OH2 2018   4.219   3.029   4.924  0.5859 -0.4050  0.1887
  671TIP3    H1 2019   4.281   3.075   4.867  0.1178  0.9126  0.7073
  671TIP3    H2 2020   4.134   3.039   4.881  0.3399  0.0179  0.7511
  672TIP3   OH2 2021   1.760   3.609   4.488  0.2080 -0.3814 -0.5742
  672TIP3    H1 2022   1.719   3.560   4.559  0.7435  1.7417  1.3348
  672TIP3    H2 2023   1.850   3.623   4.517  0.0481  1.8078 -0.8930
  673TIP3   OH2 2024   1.963   0.648   0.541  0.1605 -0.0348 -0.0141
  673TIP3    H1 2025   1.920   0.589   0.479 -0.5516  0.1605  0.2790
  673TIP3    H2 2026   2.008   0.712   0.486 -1.9263  1.2111 -0.4099
  674TIP3   OH2 2027   1.454   2.107   3.970 -0.1018 -0.6073  0.4671
  674TIP3    H1 2028   1.528   2.153   3.932 -0.9043  0.4548  0.1406
  674TIP3    H2 2029   1.381   2.127   3.912 -0.4910 -2.2913  0.3294
  675TIP3   OH2 2030   5.869   5.212   4.232 -0.2842  0.2486  0.8251
  675TIP3    H1 2031   5.878   5.265   4.153  0.8877  0.1266  0.8617
  675TIP3    H2 2032   5.778   5.183   4.231  0.3185 -2.1156 -2.0307
  676TIP3   OH2 2033   5.694   2.574   1.892 -0.4095  0.4323  0.1840
  676TIP3    H1 2034   5.714   2.632   1.818  0.9690 -0.6349 -0.3120
  676TIP3    H2 2035   5.690   2.486   1.854 -1.4972  0.0564  1.0960
  677TIP3   OH2 2036   4.910   5.535   2.479  0.2348 -0.1150 -0.7334
  677TIP3    H1 2037   4.865   5.608   2.437 -0.1599 -0.1685 -0.4017
  677TIP3    H2 2038   4.921   5.470   2.409 -1.4514 -0.6883 -0.5037
  678TIP3   OH2 2039   2.187   0.225   0.979 -0.3817  0.2505 -0.7890
  678TIP3    H1 2040   2.129   0.150   0.992 -0.4428  0.4401  0.0490
  678TIP3    H2 2041   2.252   0.218   1.048 -0.1996  0.8018 -0.8974
  679TIP3   OH2 2042   1.196   1.239   2.927  0.5647 -0.2483 -0.3637
  679TIP3    H1 2043   1.192   1.238   3.022 -0.5259 -1.3588 -0.3950
  679TIP3    H2 2044   1.185   1.147   2.902 -2.0808  0.3378 -1.6426
  680TIP3   OH2 2045   2.917   2.295   0.834 -0.9195 -0.0656 -0.2018
  680TIP3    H1 2046   2.825   2.319   0.845 -0.6020  1.4659 -0.5615
  680TIP3    H2 2047   2.963   2.379   0.828  0.4899 -0.7988 -0.1706
  681TIP3   OH2 2048   2.764   1.381   2.422 -0.5396  0.0423 -0.0959
  681TIP3    H1 2049   2.755   1.402   2.329 -0.6536  1.6104  0.2343
  681TIP3    H2 2050   2.714   1.450   2.467 -0.4380 -0.6523  1.1280
  682TIP3   OH2 2051   1.363   3.773   3.250  0.4800 -0.2185 -0.4789
  682TIP3    H1 2052   1.292   3.719   3.285 -0.1331 -0.1278 -1.5399
  682TIP3    H2 2053   1.388   3.731   3.168  1.3519  0.0128 -0.3461
  683TIP3   OH2 2054   0.608   0.214   2.832  0.2661  0.1962  0.3702
  683TIP3    H1 2055   0.658   0.213   2.913  1.0216 -3.8318  0.0429
  683TIP3    H2 2056   0.517   0.224   2.860  0.4605 -1.6653  1.8223
  684TIP3   OH2 2057   6.276   0.158   0.426  0.0213  0.3457  0.0182
  684TIP3    H1 2058   6.329   0.165   0.506 -1.3987  0.7019  0.9479
  684TIP3    H2 2059   6.250   0.248   0.407 -2.1943 -0.0401  0.9448
  685TIP3   OH2 2060   5.004   5.367   4.273 -0.5585  0.8017 -0.2021
  685TIP3    H1 2061   4.960   5.382   4.189  0.4768  1.6216 -0.6191
  685TIP3    H2 2062   4.968   5.284   4.304 -0.3142  0.0043 -1.8915
  686TIP3   OH2 2063   3.349   1.729   0.379  0.2558 -0.2324  0.8442
  686TIP3    H1 2064   3.414   1.710   0.312 -0.3900  0.8262 -0.1241
  686TIP3    H2 2065   3.387   1.695   0.460  1.4445 -0.7439  0.1023
  687TIP3   OH2 2066   5.491   5.405   4.435  0.5910  0.2676 -0.1916
  687TIP3    H1 2067   5.535   5.487   4.454  2.1475 -0.6229  0.1956
  687TIP3    H2 2068   5.436   5.424   4.359  1.4058  1.5007 -0.4978
  688TIP3   OH2 2069   4.255   1.632   1.664 -0.3237  0.0896  0.1868
  688TIP3    H1 2070   4.333   1.589   1.698 -0.8223 -1.7281 -0.8174
  688TIP3    H2 2071   4.214   1.673   1.740  1.0114  0.1220  0.9044
  689TIP3   OH2 2072   4.243   0.387   0.847  0.3846 -0.5767  0.4318
  689TIP3    H1 2073   4.323   0.430   0.877 -0.9212  1.1795  1.5857
  689TIP3    H2 2074   4.221   0.430   0.764  0.2705 -0.5757  0.4616
  690TIP3   OH2 2075   1.532   4.937   1.387 -0.2471 -0.1469  0.6646
  690TIP3    H1 2076   1.450   4.897   1.416 -0.1898 -1.6289 -0.9998
  690TIP3    H2 2077   1.576   4.867   1.339  0.4841  1.5514 -1.2746
  691TIP3   OH2 2078   3.434   3.869   3.833 -0.0723  0.1554  0.8627
  691TIP3    H1 2079   3.361   3.809   3.816  0.3609  0.0369 -0.7918
  691TIP3    H2 2080   3.401   3.954   3.804  0.6770 -0.0344 -0.6284
  692TIP3   OH2 2081   0.343   3.076   4.664  0.1375  0.3383  0.1786
  692TIP3    H1 2082   0.420   3.052   4.613  0.3221 -0.4637  0.8043
  692TIP3    H2 2083   0.292   3.132   4.606  2.1416  2.6183  0.4569
  693TIP3   OH2 2084   1.155   5.299   3.321  0.3701  0.1397  0.1053
  693TIP3    H1 2085   1.157   5.308   3.416  1.0213 -0.2696  0.1421
  693TIP3    H2 2086   1.159   5.204   3.306  0.4678  0.2095 -0.3254
  694TIP3   OH2 2087   3.047   4.184   0.286  0.3206 -0.8584 -0.1135
  694TIP3    H1 2088   3.076   4.275   0.276  0.9082 -1.0390 -0.0924
  694TIP3    H2 2089   3.065   4.144   0.201 -0.8648 -0.7091 -0.4491
  695TIP3   OH2 2090   3.796   5.178   1.506 -0.0070 -0.3099 -0.1076
  695TIP3    H1 2091   3.870   5.235   1.490  1.4971 -2.4969 -1.4724
  695TIP3    H2 2092   3.722   5.221   1.463  1.4767 -0.2561 -2.7678
  696TIP3   OH2 2093   3.359   0.311   3.824  0.0650 -0.4265 -0.4051
  696TIP3    H1 2094   3.443   0.269   3.847  1.0319 -0.1156 -3.0525
  696TIP3    H2 2095   3.367   0.400   3.857  2.6268  0.9182 -3.9494
  697TIP3   OH2 2096   4.257   3.844   4.534  0.1896  0.1698 -0.0335
  697TIP3    H1 2097   4.264   3.886   4.620  0.4189 -0.4924  0.2789
  697TIP3    H2 2098   4.273   3.914   4.471  0.3794  0.5847  0.4720
  698TIP3   OH2 2099   3.717   5.493   4.017 -0.2015 -0.5731 -0.7604
  698TIP3    H1 2100   3.788   5.482   3.954 -1.7712  0.1451 -2.7445
  698TIP3    H2 2101   3.694   5.404   4.044 -0.1028 -0.9639 -1.9131
  699TIP3   OH2 2102   2.638   0.866   1.711 -0.2607 -0.6498  0.2637
  699TIP3    H1 2103   2.697   0.868   1.787 -0.6868  0.4353  0.5830
  699TIP3    H2 2104   2.676   0.800   1.654  0.7166 -0.6754  0.9114
  700TIP3   OH2 2105   1.297   4.652   2.623 -0.3744 -0.0382 -0.2902
  700TIP3    H1 2106   1.257   4.724   2.672 -0.3340  0.1021 -0.4640
  700TIP3    H2 2107   1.337   4.597   2.691 -1.4166 -0.5291 -0.0530
  701TIP3   OH2 2108   3.616   3.268   0.722 -0.0492  0.3263  1.2770
  701TIP3    H1 2109   3.632   3.226   0.806 -1.5386 -0.8219  1.0278
  701TIP3    H2 2110   3.659   3.353   0.729  0.0725  0.1465  3.0997
  702TIP3   OH2 2111   4.147   2.587   2.867 -0.4776  0.4181 -0.4083
  702TIP3    H1 2112   4.187   2.647   2.930 -0.1310  0.1391 -0.3601
  702TIP3    H2 2113   4.091   2.530   2.921 -0.9452  0.8097 -0.4758
  703TIP3   OH2 2114   2.590   4.715   3.491 -0.5881 -0.3213 -0.5866
  703TIP3    H1 2115   2.665   4.762   3.454  0.6397 -0.5544  1.4783
  703TIP3    H2 2116   2.531   4.784   3.520  0.5526  0.0008  1.1144
  704TIP3   OH2 2117   2.898  -0.012   1.887 -0.1866 -0.4029  0.1282
  704TIP3    H1 2118   2.903  -0.033   1.794 -1.6717  1.2407 -0.3751
  704TIP3    H2 2119   2.882   0.082   1.889  0.6809 -0.2539  2.0901
  705TIP3   OH2 2120   4.681   4.215   1.609  0.1241  0.2908 -0.3902
  705TIP3    H1 2121   4.710   4.127   1.586  2.4991  0.5425  1.2683
  705TIP3    H2 2122   4.735   4.273   1.556 -0.9825  0.7890 -1.0059
  706TIP3   OH2 2123   5.254   0.219   2.197 -0.2940 -0.2517 -0.4800
  706TIP3    H1 2124   5.240   0.195   2.289 -0.6776 -1.4626 -0.8430
  706TIP3    H2 2125   5.333   0.273   2.199 -0.5042  0.0357  0.6093
  707TIP3   OH2 2126   2.161   3.492   0.418  0.1646  0.4678 -0.4393
  707TIP3    H1 2127   2.143   3.581   0.388  1.4569  1.3672  1.2787
  707TIP3    H2 2128   2.079   3.445   0.402 -1.7016  2.7705  1.4534
  708TIP3   OH2 2129   3.772   2.655   1.312  0.4563 -0.5781  0.1041
  708TIP3    H1 2130   3.850   2.646   1.258  0.4402 -0.2526  0.0256
  708TIP3    H2 2131   3.771   2.748   1.337  1.3534 -1.0152  1.9847
  709TIP3   OH2 2132   4.065   2.678   4.296  0.2745  0.3562 -0.0865
  709TIP3    H1 2133   4.006   2.753   4.303 -1.1913 -0.8861  2.0632
  709TIP3    H2 2134   4.013   2.612   4.250  1.5926  0.6113 -2.0654
  710TIP3   OH2 2135   0.372   4.871   3.134 -0.4747 -0.4335 -0.1856
  710TIP3    H1 2136   0.332   4.920   3.206 -2.5306  0.6835 -1.9518
  710TIP3    H2 2137   0.459   4.909   3.124 -1.2307  1.4209 -0.1148
  711TIP3   OH2 2138   5.142   4.797   2.250  0.3272 -0.1809  0.3427
  711TIP3    H1 2139   5.058   4.800   2.296  0.3469 -4.6295  1.1041
  711TIP3    H2 2140   5.119   4.779   2.159  0.3355 -2.1837  0.6855
  712TIP3   OH2 2141   2.206   3.264   3.538 -0.3272 -0.2471 -0.3959
  712TIP3    H1 2142   2.159   3.263   3.622  0.1104  0.8284 -0.1216
  712TIP3    H2 2143   2.298   3.257   3.562 -0.2812 -2.2618 -0.9286
  713TIP3   OH2 2144   0.824   3.930   3.983 -0.2197 -0.3028 -0.2579
  713TIP3    H1 2145   0.889   3.861   3.998 -0.0849  0.1560  1.5558
  713TIP3    H2 2146   0.802   3.961   4.071 -2.5275 -0.0974 -0.8395
  714TIP3   OH2 2147   0.274   1.036   4.860  0.0671 -0.2680  0.1669
  714TIP3    H1 2148   0.186   1.030   4.825 -0.1537 -0.2345  0.7039
  714TIP3    H2 2149   0.281   0.962   4.921  0.2794 -0.0515  0.4068
  715TIP3   OH2 2150   3.526   4.343   3.385  0.3605  0.1975  0.3423
  715TIP3    H1 2151   3.543   4.400   3.310  0.0899 -0.6447 -0.3831
  715TIP3    H2 2152   3.600   4.357   3.443  1.8429 -0.8740 -1.1831
  716TIP3   OH2 2153   2.121   1.727   4.531  0.4392  0.3935 -0.7075
  716TIP3    H1 2154   2.093   1.792   4.596 -0.2203  0.7114 -1.3048
  716TIP3    H2 2155   2.076   1.647   4.558  0.8688  0.2978 -0.2562
  717TIP3   OH2 2156   5.774   3.624   2.194 -0.3603 -0.0560  0.6276
  717TIP3    H1 2157   5.787   3.595   2.104  1.7666  0.4437  0.7366
  717TIP3    H2 2158   5.686   3.593   2.216  0.0367 -2.4172 -0.7680
  718TIP3   OH2 2159   2.878   1.893   0.582 -0.1493  0.0934 -0.4724
  718TIP3    H1 2160   2.897   1.802   0.603 -1.5520 -0.4391 -1.3726
  718TIP3    H2 2161   2.833   1.926   0.660 -1.3893 -0.5871 -0.8657
  719TIP3   OH2 2162   3.002   4.743   3.812  0.0250  0.7163  0.0202
  719TIP3    H1 2163   3.014   4.806   3.883 -0.4810  1.7189 -0.7591
  719TIP3    H2 2164   3.040   4.662   3.845 -0.1713  1.1729  1.4149
  720TIP3   OH2 2165   2.664   5.796   2.515  0.2042  0.4563  0.3245
  720TIP3    H1 2166   2.591   5.736   2.500 -0.3407  1.2968 -0.4980
  720TIP3    H2 2167   2.649   5.868   2.454  1.1557  1.1609  0.8896
  721TIP3   OH2 2168   0.315   3.338   0.152  0.1025  0.2079  0.3924
  721TIP3    H1 2169   0.291   3.412   0.096 -2.0483 -0.1888  0.6876
  721TIP3    H2 2170   0.317   3.375   0.240 -0.6674  0.0167  0.5026
  722TIP3   OH2 2171   2.538   5.100   1.499  0.1407 -0.0549 -0.6576
  722TIP3    H1 2172   2.534   5.010   1.468  0.2031 -0.4445  0.4303
  722TIP3    H2 2173   2.561   5.151   1.421  1.4776 -1.1288 -1.0050
  723TIP3   OH2 2174   5.151   5.680   3.280  0.1211 -0.2083 -0.0206
  723TIP3    H1 2175   5.166   5.774   3.271  0.7122 -0.2075  0.9186
  723TIP3    H2 2176   5.212   5.652   3.348  1.3486 -1.6242 -1.6162
  724TIP3   OH2 2177   1.718   0.521   0.451 -0.0742  0.1175 -0.1130
  724TIP3    H1 2178   1.716   0.482   0.539 -1.0516 -0.6330 -0.4555
  724TIP3    H2 2179   1.654   0.592   0.455 -0.9215 -0.6121 -0.5239
  725TIP3   OH2 2180   2.000   1.861   4.034  0.3234 -0.3455  0.1955
  725TIP3    H1 2181   1.922   1.837   3.984  0.5629  0.6923 -0.7204
  725TIP3    H2 2182   2.064   1.888   3.968  1.5570 -1.3897  0.9074
  726TIP3   OH2 2183   2.438   5.864   5.054  0.0452 -0.0501 -0.1617
  726TIP3    H1 2184   2.405   5.924   5.122 -3.8904 -1.8319 -0.2827
  726TIP3    H2 2185   2.428   5.913   4.972  1.5554  0.8302  0.1316
  727TIP3   OH2 2186   0.614   2.808   0.918  0.1575 -0.5741 -0.1925
  727TIP3    H1 2187   0.603   2.713   0.910 -1.3332 -0.3321 -1.8394
  727TIP3    H2 2188   0.530   2.838   0.952 -1.2363  0.5100 -4.0816
  728TIP3   OH2 2189   4.342   0.351   3.252 -0.0296 -0.0715  0.4305
  728TIP3    H1 2190   4.247   0.367   3.250  0.1981  1.4702  0.8020
  728TIP3    H2 2191   4.365   0.331   3.162 -0.7422 -0.7812  0.3876
  729TIP3   OH2 2192   5.529   0.115   1.745 -0.0857  0.3402  0.1166
  729TIP3    H1 2193   5.532   0.203   1.706 -1.0253  1.2713  2.0250
  729TIP3    H2 2194   5.457   0.119   1.808  1.5084 -0.9731  2.1545
  730TIP3   OH2 2195   2.845   2.543   3.685 -0.0959 -0.1654  0.1597
  730TIP3    H1 2196   2.888   2.578   3.607  1.2813  0.3854  1.1305
  730TIP3    H2 2197   2.857   2.448   3.678  0.2782 -0.0961 -0.1466
  731TIP3   OH2 2198   3.768   2.422   4.572  0.0049  0.3117  0.5200
  731TIP3    H1 2199   3.863   2.435   4.566  0.0835 -0.4147 -0.0620
  731TIP3    H2 2200   3.759   2.343   4.626 -0.2306 -0.0321 -0.0121
  732TIP3   OH2 2201   4.328   3.345   0.299  0.3013 -0.3433  0.3238
  732TIP3    H1 2202   4.268   3.408   0.259  1.9053  0.9082 -0.2389
  732TIP3    H2 2203   4.315   3.265   0.248 -0.9476 -0.1502  0.2883
  733TIP3   OH2 2204   1.408   3.690   1.858  0.2043 -0.0165  0.6572
  733TIP3    H1 2205   1.434   3.715   1.947  0.0025  0.1123  0.6806
  733TIP3    H2 2206   1.367   3.768   1.822  2.4786  0.7785 -0.4416
  734TIP3   OH2 2207   3.898   3.436   4.472 -0.0219 -0.4932  0.4436
  734TIP3    H1 2208   3.837   3.395   4.411 -0.6063 -0.5757  1.0635
  734TIP3    H2 2209   3.928   3.515   4.428  1.3664 -1.7145 -0.9166
  735TIP3   OH2 2210   4.100   5.840   0.349 -0.4193  0.1257 -0.0786
  735TIP3    H1 2211   4.039   5.768   0.361  1.6473 -1.5892  0.7861
  735TIP3    H2 2212   4.149   5.845   0.431  1.2045  0.8262 -1.0295
  736TIP3   OH2 2213   4.364   5.235   1.722  0.0448  0.1014  0.3920
  736TIP3    H1 2214   4.382   5.173   1.792  0.1416  0.0312  0.3061
  736TIP3    H2 2215   4.446   5.238   1.671  0.3515  0.9589  0.9010
  737TIP3   OH2 2216   5.301   2.740   0.299  0.5257 -0.0562 -0.1334
  737TIP3    H1 2217   5.381   2.739   0.352 -0.3001  2.2740  1.3475
  737TIP3    H2 2218   5.321   2.800   0.228  0.6616 -0.8972 -0.8177
  738TIP3   OH2 2219   4.386   4.714   1.993  0.4034 -0.7205  0.3612
  738TIP3    H1 2220   4.320   4.778   2.018  0.0040 -0.9838 -0.0079
  738TIP3    H2 2221   4.470   4.756   2.015  0.3997  1.3434 -2.8233
  739TIP3   OH2 2222   4.201   0.161   2.797 -0.1580 -0.0235 -0.2344
  739TIP3    H1 2223   4.262   0.117   2.738 -1.4987 -0.8816 -1.0196
  739TIP3    H2 2224   4.118   0.116   2.783 -1.1812  1.6804  0.1634
  740TIP3   OH2 2225   5.177   5.288   3.179 -0.0962  0.0583 -0.0961
  740TIP3    H1 2226   5.145   5.198   3.172  0.2027 -0.0159 -0.5011
  740TIP3    H2 2227   5.259   5.288   3.131 -0.1642  0.5819 -0.2105
  741TIP3   OH2 2228   0.127   3.764   1.058  0.1319  0.2958 -0.3972
  741TIP3    H1 2229   0.031   3.766   1.056  0.1553  0.8554 -2.1521
  741TIP3    H2 2230   0.154   3.820   0.985  1.7987 -0.1888 -0.1865
  742TIP3   OH2 2231   4.703   5.995   2.655 -0.3223  0.7399  0.1984
  742TIP3    H1 2232   4.709   5.924   2.590 -1.1000  0.3394  0.5491
  742TIP3    H2 2233   4.729   5.953   2.737  0.1215  1.1086  0.2496
  743TIP3   OH2 2234   3.314   1.941   4.156  0.1765 -0.3774  0.3245
  743TIP3    H1 2235   3.339   1.866   4.209  1.7864  1.1453  1.8590
  743TIP3    H2 2236   3.260   1.994   4.214  0.2473  0.3406 -0.2499
  744TIP3   OH2 2237   2.393   1.026   1.274 -0.3209 -0.0437  0.3023
  744TIP3    H1 2238   2.480   0.987   1.268 -0.0576  0.0291  2.7459
  744TIP3    H2 2239   2.344   0.986   1.202  1.3420 -1.0606 -0.3269
  745TIP3   OH2 2240   4.307   5.772   3.251 -0.0851  0.1630  0.4129
  745TIP3    H1 2241   4.322   5.680   3.229 -1.9131 -0.1278  0.2586
  745TIP3    H2 2242   4.395   5.811   3.252  0.9716 -1.9945  2.4835
  746TIP3   OH2 2243   3.798   3.530   3.516 -0.3700 -0.6666 -0.2190
  746TIP3    H1 2244   3.754   3.584   3.582 -0.7599  1.1205 -1.8480
  746TIP3    H2 2245   3.728   3.480   3.475 -0.4294 -0.2655 -0.6151
  747TIP3   OH2 2246   4.144   3.394   3.697 -0.2551 -0.0681 -0.1817
  747TIP3    H1 2247   4.190   3.335   3.757  0.1698  0.3965 -0.0446
  747TIP3    H2 2248   4.204   3.402   3.622  0.2521  1.1432  0.3275
  748TIP3   OH2 2249   4.544   5.609   4.093  0.4337 -0.4198 -0.0801
  748TIP3    H1 2250   4.635   5.611   4.065  1.2925 -1.1962  2.3857
  748TIP3    H2 2251   4.501   5.678   4.043  2.6954  0.9193 -0.2798
  749TIP3   OH2 2252   0.450   2.319   0.977 -0.0746  0.8391 -0.5602
  749TIP3    H1 2253   0.452   2.227   0.952  0.1836  0.3068  1.3363
  749TIP3    H2 2254   0.371   2.353   0.934 -1.4026 -0.7966  0.4408
  750TIP3   OH2 2255   4.002   2.654   3.601 -0.4316  0.3733  0.9180
  750TIP3    H1 2256   4.025   2.690   3.686  2.7357 -0.4073  0.4855
  750TIP3    H2 2257   3.983   2.562   3.618  0.6157  0.1189  0.7401
  751TIP3   OH2 2258   1.967   2.367   2.551  0.6599 -0.3813  0.2112
  751TIP3    H1 2259   1.996   2.305   2.485 -1.5743 -0.1905 -1.0285
  751TIP3    H2 2260   1.988   2.453   2.515 -0.2907 -0.2883 -0.1499
  752TIP3   OH2 2261   3.103   1.696   3.042  0.1016  0.0465 -0.1934
  752TIP3    H1 2262   3.185   1.688   2.995  1.2634 -1.6492  1.9159
  752TIP3    H2 2263   3.129   1.716   3.132 -1.8807  1.1046  0.1994
  753TIP3   OH2 2264   2.174   2.128   1.712  0.5963  0.3688  0.3889
  753TIP3    H1 2265   2.215   2.046   1.685 -0.0322 -0.2336  1.2152
  753TIP3    H2 2266   2.162   2.119   1.807  0.1615  1.2495  0.4305
  754TIP3   OH2 2267   2.092   5.496   3.260 -0.3126 -0.3628  0.0611
  754TIP3    H1 2268   2.084   5.495   3.355  1.2605 -0.9807  0.2132
  754TIP3    H2 2269   2.083   5.405   3.233 -0.4256 -0.2358 -0.3486
  755TIP3   OH2 2270   0.690   1.439   0.669  0.2391  0.6095 -0.1216
  755TIP3    H1 2271   0.613   1.433   0.726  1.9619  0.7661  2.3740
  755TIP3    H2 2272   0.711   1.532   0.666  0.1248  0.6133 -1.1246
  756TIP3   OH2 2273   1.754   5.830   4.878  0.6455  0.4460 -0.0117
  756TIP3    H1 2274   1.797   5.899   4.828  0.9212  0.6566  0.4994
  756TIP3    H2 2275   1.816   5.810   4.949  1.2292 -1.3487 -0.9770
  757TIP3   OH2 2276   3.423   0.557   1.244 -0.4826 -0.2049 -0.1818
  757TIP3    H1 2277   3.336   0.583   1.274 -1.3773 -0.9883 -1.9726
  757TIP3    H2 2278   3.465   0.639   1.220 -1.1694  0.0892 -0.4058
  758TIP3   OH2 2279   2.064   5.096   5.125 -0.5932 -0.0655  0.2163
  758TIP3    H1 2280   2.036   5.180   5.088  1.3558 -0.7924 -3.2975
  758TIP3    H2 2281   1.983   5.045   5.133 -1.5469  1.4383  0.6289
  759TIP3   OH2 2282   5.141   3.887   4.437  0.1867  0.9261 -0.1056
  759TIP3    H1 2283   5.097   3.816   4.483  1.9959 -0.8187 -0.8896
  759TIP3    H2 2284   5.140   3.960   4.498 -0.8345 -0.1064  1.1536
  760TIP3   OH2 2285   5.540   1.666   1.352 -0.2065 -0.2900 -0.4979
  760TIP3    H1 2286   5.481   1.616   1.409 -1.0101  0.8189 -0.3294
  760TIP3    H2 2287   5.497   1.666   1.267  1.5771 -2.9903 -1.5307
  761TIP3   OH2 2288   1.925   5.383   2.001 -0.3343 -0.0277 -0.3783
  761TIP3    H1 2289   1.887   5.469   2.017  0.0103  0.0986 -0.2336
  761TIP3    H2 2290   1.856   5.334   1.955 -0.3183  0.5237 -1.0029
  762TIP3   OH2 2291   5.976   2.259   1.009  0.1453 -0.3177  0.1750
  762TIP3    H1 2292   6.031   2.190   0.972  2.0859  1.1990  0.0911
  762TIP3    H2 2293   6.001   2.263   1.101  1.0978  1.1950 -0.1219
  763TIP3   OH2 2294   3.144   4.064   5.118  0.4163  0.1898 -0.5565
  763TIP3    H1 2295   3.167   4.049   5.210  1.1326 -0.8551 -0.8950
  763TIP3    H2 2296   3.049   4.078   5.120  0.5754  1.3399  0.4667
  764TIP3   OH2 2297   5.924   1.570   0.578 -0.1014 -0.7392  0.7344
  764TIP3    H1 2298   5.874   1.647   0.603  1.0424 -0.1591  1.2998
  764TIP3    H2 2299   5.950   1.530   0.661  0.1014 -1.2124  0.4508
  765TIP3   OH2 2300   1.866   5.088   1.794 -0.2355  0.2102 -0.2885
  765TIP3    H1 2301   1.819   5.039   1.726 -2.3303  1.3219  0.2804
  765TIP3    H2 2302   1.811   5.163   1.812  0.9665  0.6964  1.6722
  766TIP3   OH2 2303   3.794   4.852   3.429 -0.4098 -0.2923  0.5248
  766TIP3    H1 2304   3.706   4.824   3.455 -0.1377  0.2862  2.1877
  766TIP3    H2 2305   3.788   4.867   3.334 -1.3681 -2.8663  0.1125
  767TIP3   OH2 2306   0.267   0.646   1.828  0.2033  0.4388 -0.2106
  767TIP3    H1 2307   0.352   0.616   1.796  0.2218 -0.2856  0.4924
  767TIP3    H2 2308   0.288   0.703   1.902  0.1111  1.1761 -0.7366
  768TIP3   OH2 2309   4.073   4.535   1.200  0.4822  0.1947  0.0666
  768TIP3    H1 2310   4.063   4.575   1.286 -1.5096 -0.7673  0.3343
  768TIP3    H2 2311   4.071   4.440   1.217 -1.7004 -0.0243 -1.1509
  769TIP3   OH2 2312   4.282   1.556   3.742  0.4535  0.2396 -0.5507
  769TIP3    H1 2313   4.230   1.533   3.665  0.3295  0.1179 -0.4327
  769TIP3    H2 2314   4.251   1.643   3.766 -0.1570 -0.0969 -0.0992
  770TIP3   OH2 2315   4.124   5.891   3.991  0.1816 -0.5597  0.0430
  770TIP3    H1 2316   4.170   5.907   3.909 -1.1810  1.0568 -0.4588
  770TIP3    H2 2317   4.042   5.941   3.983 -1.0710 -2.2525  1.4205
  771TIP3   OH2 2318   3.946   5.387   1.453  0.0204  0.3490 -0.1245
  771TIP3    H1 2319   3.966   5.427   1.538 -1.6392 -0.5744  0.7685
  771TIP3    H2 2320   3.970   5.453   1.389  0.7098  1.3365  1.1048
  772TIP3   OH2 2321   2.538   4.903   3.883 -0.0518  0.3433 -0.5626
  772TIP3    H1 2322   2.463   4.845   3.890 -0.7181  1.1014 -1.1995
  772TIP3    H2 2323   2.614   4.845   3.884 -0.5666 -0.3706  1.2125
  773TIP3   OH2 2324   3.041   4.213   2.672  0.3784  0.1404  0.0315
  773TIP3    H1 2325   3.043   4.123   2.704 -0.8044 -0.5028 -1.5214
  773TIP3    H2 2326   3.118   4.255   2.710 -0.9344 -0.4267  3.7547
  774TIP3   OH2 2327   3.065   2.361   0.241  0.1229  0.6531  0.1652
  774TIP3    H1 2328   3.136   2.426   0.239  0.2600  0.5195 -1.4500
  774TIP3    H2 2329   3.088   2.301   0.312  1.9260  0.3421 -0.6205
  775TIP3   OH2 2330   5.747   2.749   0.739 -0.0050  0.0014 -0.0341
  775TIP3    H1 2331   5.767   2.834   0.779  0.7108 -1.0311  1.9434
  775TIP3    H2 2332   5.734   2.690   0.813 -0.8728 -1.5575 -1.3562
  776TIP3   OH2 2333   3.754   3.862   4.750  0.0621  0.2129 -0.1832
  776TIP3    H1 2334   3.712   3.776   4.748  0.2971  0.0862  0.2531
  776TIP3    H2 2335   3.836   3.849   4.702  0.5411 -0.0505  0.6866
  777TIP3   OH2 2336   0.818   2.598   4.975 -0.2298  0.0164  0.1954
  777TIP3    H1 2337   0.803   2.554   5.058 -0.3086  1.4473  0.9762
  777TIP3    H2 2338   0.731   2.622   4.944 -0.2404 -0.9525 -0.5753
  778TIP3   OH2 2339   0.777   4.527   0.350 -0.5136  0.1516  0.0449
  778TIP3    H1 2340   0.732   4.477   0.418 -1.3829 -0.7945 -1.1802
  778TIP3    H2 2341   0.715   4.594   0.324 -2.5312 -2.7565 -3.5084
  779TIP3   OH2 2342   2.136   5.493   0.137 -1.0236  0.4325 -0.3533
  779TIP3    H1 2343   2.212   5.442   0.109 -0.1036  1.5138  0.0937
  779TIP3    H2 2344   2.063   5.430   0.136  0.2518 -1.1636  1.1872
  780TIP3   OH2 2345   1.251   5.234   2.916 -0.3243  0.0540  0.5178
  780TIP3    H1 2346   1.248   5.146   2.955  0.9612  0.4418  1.5554
  780TIP3    H2 2347   1.192   5.286   2.971  0.7219  0.3669  1.3764
  781TIP3   OH2 2348   6.152   4.636   3.517  0.2516  0.1914 -0.2924
  781TIP3    H1 2349   6.244   4.624   3.538 -0.0712 -1.9744  0.1375
  781TIP3    H2 2350   6.126   4.555   3.473 -1.0445  1.4527 -1.9980
  782TIP3   OH2 2351   3.555   2.660   1.962 -0.0673 -0.2502 -0.1639
  782TIP3    H1 2352   3.640   2.696   1.938  0.1095 -0.6125 -0.0769
  782TIP3    H2 2353   3.566   2.631   2.053 -0.9305  1.7830  0.6630
  783TIP3   OH2 2354   2.992   2.491   4.907  0.4798  0.3641  0.1960
  783TIP3    H1 2355   2.985   2.584   4.929 -0.9781 -0.0820  1.8171
  783TIP3    H2 2356   3.002   2.490   4.811  2.3964  2.2170  0.2920
  784TIP3   OH2 2357   0.114   0.876   0.262  0.7827 -0.0513  0.7244
  784TIP3    H1 2358   0.200   0.847   0.293  0.3263 -0.5143  1.6112
  784TIP3    H2 2359   0.058   0.799   0.271  0.3784  0.1023 -0.3126
  785TIP3   OH2 2360   2.957   0.242   1.091  0.1431  0.0398 -0.2790
  785TIP3    H1 2361   2.870   0.210   1.114  0.0723  2.8007  4.4717
  785TIP3    H2 2362   2.945   0.336   1.079  2.3628  0.3483 -0.4364
  786TIP3   OH2 2363   2.666   0.203   3.757 -0.0610  0.2009  0.1009
  786TIP3    H1 2364   2.602   0.271   3.733  2.6791  3.3669  0.8819
  786TIP3    H2 2365   2.644   0.180   3.847 -0.7207  0.4260  0.0067
  787TIP3   OH2 2366   0.055   2.258   4.064  0.3931  0.3372 -0.0439
  787TIP3    H1 2367   0.090   2.230   4.149  3.4500  1.7085 -0.6868
  787TIP3    H2 2368   0.023   2.346   4.079  1.4981  0.8163 -0.3825
  788TIP3   OH2 2369   4.435   3.141   4.342 -0.8628 -0.6576 -0.2237
  788TIP3    H1 2370   4.510   3.096   4.381 -1.0863 -0.7522  0.1032
  788TIP3    H2 2371   4.452   3.140   4.248  0.2549  0.5845 -0.0587
  789TIP3   OH2 2372   1.694   3.158   2.230 -0.9525 -0.2788 -0.1807
  789TIP3    H1 2373   1.760   3.207   2.279  0.9304 -0.3963 -2.4496
  789TIP3    H2 2374   1.709   3.067   2.255  0.4165 -0.4080 -1.3212
  790TIP3   OH2 2375   1.269   4.332   0.654  0.6463  0.1224 -0.2141
  790TIP3    H1 2376   1.320   4.379   0.588  1.3462  0.3524  0.4691
  790TIP3    H2 2377   1.325   4.258   0.678 -0.8186 -1.6368 -1.9390
  791TIP3   OH2 2378   4.045   4.523   3.656 -0.1980  0.4098 -0.3663
  791TIP3    H1 2379   4.012   4.609   3.630 -2.0954 -0.8100 -2.2337
  791TIP3    H2 2380   3.967   4.474   3.680  0.4798 -1.7681 -2.3521
  792TIP3   OH2 2381   5.966   2.238   1.974  0.1745 -0.4477  0.2198
  792TIP3    H1 2382   5.974   2.230   1.879  0.4980  1.9085 -0.0033
  792TIP3    H2 2383   5.886   2.190   1.995 -1.8866  1.8647 -1.7740
  793TIP3   OH2 2384   1.509   0.557   4.595 -0.3935  0.2918  0.8732
  793TIP3    H1 2385   1.447   0.498   4.636 -1.4307 -0.3173 -1.4430
  793TIP3    H2 2386   1.595   0.518   4.612 -1.0188 -1.6377 -0.1700
  794TIP3   OH2 2387   2.022   5.021   4.701  0.3052  0.4364  0.9343
  794TIP3    H1 2388   2.079   5.003   4.626 -0.9324  0.7873 -0.1271
  794TIP3    H2 2389   2.077   5.072   4.761  1.5267 -0.4440  0.5996
  795TIP3   OH2 2390   0.532   2.097   2.516 -0.3889  0.2815 -0.0644
  795TIP3    H1 2391   0.464   2.128   2.456  0.5548  1.9937 -0.3036
  795TIP3    H2 2392   0.579   2.030   2.467 -0.4407  0.7542 -0.7705
  796TIP3   OH2 2393   0.277   5.243   4.012 -0.0621  0.0254  0.3990
  796TIP3    H1 2394   0.368   5.272   4.021  0.2196 -0.7731  0.1918
  796TIP3    H2 2395   0.251   5.272   3.925  0.3736 -0.7291  0.0014
  797TIP3   OH2 2396   0.624   3.726   1.978 -0.1686  0.4624 -0.1441
  797TIP3    H1 2397   0.534   3.694   1.979  0.3883 -1.2215 -0.6293
  797TIP3    H2 2398   0.665   3.677   1.907  1.1929  1.0572  0.2117
  798TIP3   OH2 2399   0.592   3.480   5.004  0.0108  0.7841  0.2683
  798TIP3    H1 2400   0.640   3.479   4.921 -1.6819 -1.3125 -0.7763
  798TIP3    H2 2401   0.649   3.432   5.065  0.2953  0.3960 -0.2970
  799TIP3   OH2 2402   4.723   4.684   1.668 -0.2551  0.1693 -0.1451
  799TIP3    H1 2403   4.641   4.642   1.693  0.0870 -0.1978  0.3668
  799TIP3    H2 2404   4.743   4.649   1.581  0.8962 -2.0614  0.9372
  800TIP3   OH2 2405   3.190   5.526   2.305 -0.3946  0.1227 -0.0209
  800TIP3    H1 2406   3.205   5.432   2.320 -0.8849 -0.0200 -0.4156
  800TIP3    H2 2407   3.100   5.531   2.276  0.1715  0.5201 -1.8071
  801TIP3   OH2 2408   3.809   3.350   4.724 -0.3254 -0.0381 -0.1905
  801TIP3    H1 2409   3.745   3.287   4.690  0.1708 -0.6705  0.0268
  801TIP3    H2 2410   3.843   3.394   4.646 -1.4578  0.7406 -0.2640
  802TIP3   OH2 2411   1.687   1.855   1.556 -0.2155  0.1078  0.2829
  802TIP3    H1 2412   1.592   1.854   1.563 -0.3202  2.5871  0.0348
  802TIP3    H2 2413   1.711   1.947   1.568  2.1872 -0.5090  0.6958
  803TIP3   OH2 2414   5.490   0.360   2.274 -0.1431  0.5042  0.0087
  803TIP3    H1 2415   5.530   0.444   2.250  3.4982 -0.9424  0.4621
  803TIP3    H2 2416   5.510   0.349   2.367 -0.1564 -1.0599 -0.1480
  804TIP3   OH2 2417   1.369   3.030   4.975 -0.2892 -0.0939  0.3664
  804TIP3    H1 2418   1.391   3.105   4.920 -2.9440  1.2959  1.0465
  804TIP3    H2 2419   1.339   2.963   4.914  0.7307 -0.1196 -0.1310
  805TIP3   OH2 2420   5.043   5.163   2.901 -0.2795 -0.4953  0.7160
  805TIP3    H1 2421   5.008   5.076   2.886 -0.7689  0.2013 -3.6193
  805TIP3    H2 2422   4.969   5.214   2.934 -0.6120 -1.1841  1.0445
  806TIP3   OH2 2423   2.658   5.331   3.607 -0.1594  0.4937 -0.2112
  806TIP3    H1 2424   2.649   5.426   3.615  1.0103  0.6193 -0.2157
  806TIP3    H2 2425   2.629   5.297   3.691  0.1662  0.9086  0.0722
  807TIP3   OH2 2426   3.058   4.058   4.703  0.2058 -0.7289  0.4953
  807TIP3    H1 2427   3.059   3.966   4.729 -0.4846 -1.4201 -1.7419
  807TIP3    H2 2428   3.073   4.057   4.609  0.7688  1.5064  0.5044
  808TIP3   OH2 2429   1.044   3.088   4.247  0.2833 -0.0958  0.8542
  808TIP3    H1 2430   1.075   3.076   4.336 -0.4987  0.0991  1.1601
  808TIP3    H2 2431   1.036   2.999   4.212 -0.8584 -0.2567  1.4901
  809TIP3   OH2 2432   2.208   2.822   2.888 -0.3705  0.1649  0.4685
  809TIP3    H1 2433   2.278   2.800   2.827 -1.1584  1.1715 -0.8374
  809TIP3    H2 2434   2.246   2.806   2.974  0.1659 -3.2175 -0.2275
  810TIP3   OH2 2435   0.684   2.288   4.808  0.8411 -0.5345 -0.4894
  810TIP3    H1 2436   0.629   2.337   4.870 -0.0491 -2.1335  0.0530
  810TIP3    H2 2437   0.633   2.210   4.789  2.7177 -1.8265 -0.3970
  811TIP3   OH2 2438   0.733   3.110   0.606 -0.1863 -0.1596  0.6652
  811TIP3    H1 2439   0.738   3.201   0.635 -2.0734 -0.5697  2.5589
  811TIP3    H2 2440   0.639   3.092   0.600  0.1238 -1.5417 -1.3103
  812TIP3   OH2 2441   5.220   2.334   3.761  0.6519 -0.2206  0.1103
  812TIP3    H1 2442   5.238   2.255   3.709 -0.4452 -0.7224  0.4609
  812TIP3    H2 2443   5.244   2.406   3.703  2.1500 -0.7941 -0.0372
  813TIP3   OH2 2444   0.047   3.101   0.638  0.1926  0.4152 -0.1262
  813TIP3    H1 2445  -0.024   3.131   0.695 -0.5218  0.6100 -1.0854
  813TIP3    H2 2446   0.066   3.176   0.582 -2.3176 -1.0449 -3.2666
  814TIP3   OH2 2447   1.986   5.766   3.932 -0.1489  0.3300 -0.3324
  814TIP3    H1 2448   1.968   5.842   3.987 -0.8589 -0.3393  0.3930
  814TIP3    H2 2449   1.900   5.723   3.923  0.7614 -2.5077  2.4872
  815TIP3   OH2 2450   4.616   5.260   4.612  0.5183 -0.6624 -0.2721
  815TIP3    H1 2451   4.601   5.165   4.605 -0.4847 -0.6527  1.4565
  815TIP3    H2 2452   4.679   5.278   4.542  0.0102 -2.4336 -1.2670
  816TIP3   OH2 2453   0.397   0.388   4.588 -0.1689  0.3679  0.0967
  816TIP3    H1 2454   0.327   0.329   4.560 -1.9099  2.0502  0.7516
  816TIP3    H2 2455   0.447   0.406   4.508 -0.5311 -0.7571 -0.4022
  817TIP3   OH2 2456   0.884   0.907   5.147 -0.1891 -0.1003 -0.0244
  817TIP3    H1 2457   0.977   0.929   5.135 -0.0076 -0.5928  0.4268
  817TIP3    H2 2458   0.871   0.910   5.242 -1.1427  1.9645 -0.1782
  818TIP3   OH2 2459   2.701   5.408   4.259  0.3862  0.2489  0.0455
  818TIP3    H1 2460   2.769   5.402   4.192  2.4856 -0.6085  2.1122
  818TIP3    H2 2461   2.719   5.491   4.304 -1.1876  0.9669 -0.5712
  819TIP3   OH2 2462   1.495   1.821   4.703  0.1460 -0.1017 -0.3370
  819TIP3    H1 2463   1.575   1.792   4.661  1.8814  2.8125  0.6393
  819TIP3    H2 2464   1.522   1.844   4.792 -1.6539  1.4062 -0.1264
  820TIP3   OH2 2465   3.717   0.347   3.548 -0.3731  0.5376  0.8648
  820TIP3    H1 2466   3.740   0.360   3.456  0.8454  1.5391  1.2880
  820TIP3    H2 2467   3.629   0.384   3.556 -0.0645  1.4211  0.3262
  821TIP3   OH2 2468   4.520   0.023   0.990  0.4502  0.5275 -0.5087
  821TIP3    H1 2469   4.583   0.034   0.918 -2.2631 -0.4303 -3.2832
  821TIP3    H2 2470   4.440   0.066   0.958 -0.4963  1.4153  2.6907
  822TIP3   OH2 2471   1.141   5.423   3.081  0.4573  0.5692  0.4685
  822TIP3    H1 2472   1.186   5.505   3.105  1.8160 -0.1637  0.5202
  822TIP3    H2 2473   1.139   5.372   3.162  1.5222 -0.2941 -0.0174
  823TIP3   OH2 2474   2.047   0.739   1.806  0.1853  0.0839  0.8728
  823TIP3    H1 2475   2.062   0.708   1.717 -1.2090 -1.2469  1.0633
  823TIP3    H2 2476   1.997   0.820   1.795  0.5405  0.2473  0.4402
  824TIP3   OH2 2477   5.731   5.491   0.556  0.4046 -0.5282 -0.1255
  824TIP3    H1 2478   5.739   5.396   0.566 -0.0681 -0.5533  0.0521
  824TIP3    H2 2479   5.816   5.519   0.522  0.1157 -1.1800 -1.4323
  825TIP3   OH2 2480   3.153   1.450   0.144 -0.5606 -0.0515 -0.5088
  825TIP3    H1 2481   3.087   1.517   0.160  0.4973  0.6772  1.1268
  825TIP3    H2 2482   3.110   1.387   0.086 -2.3687  0.8610 -0.2339
  826TIP3   OH2 2483   2.145   2.953   4.628 -0.3143 -0.5145 -0.6469
  826TIP3    H1 2484   2.151   3.005   4.548  1.1368 -2.9245 -2.2118
  826TIP3    H2 2485   2.065   2.902   4.617 -1.4996  0.9133  0.6948
  827TIP3   OH2 2486   2.203   5.842   1.814  0.0626 -0.2028  0.1588
  827TIP3    H1 2487   2.219   5.760   1.861 -0.1098  0.9909  2.4577
  827TIP3    H2 2488   2.118   5.830   1.773 -0.8273 -0.5785  2.0036
  828TIP3   OH2 2489   2.477   4.020   4.912  0.0071 -0.1376  0.7160
  828TIP3    H1 2490   2.391   3.978   4.916 -0.3485  0.4721 -0.1896
  828TIP3    H2 2491   2.537   3.955   4.948 -0.3698 -1.8623 -1.5338
  829TIP3   OH2 2492   0.839   2.235   1.484  0.1341  0.2267  0.4027
  829TIP3    H1 2493   0.906   2.301   1.464  0.5196 -0.0685  0.6794
  829TIP3    H2 2494   0.787   2.228   1.405  2.7275 -2.2428 -1.3304
  830TIP3   OH2 2495   0.572   3.916   1.409 -0.1165 -0.3256 -0.5261
  830TIP3    H1 2496   0.539   3.900   1.497 -0.7441  0.2804 -0.6492
  830TIP3    H2 2497   0.658   3.873   1.408 -0.6710 -1.4948 -0.0516
  831TIP3   OH2 2498   2.185   5.025   3.963  0.1663  0.5965 -0.2567
  831TIP3    H1 2499   2.120   5.046   4.030  1.4860  1.8053  0.6788
  831TIP3    H2 2500   2.185   5.101   3.905  0.9882  0.7622 -0.0489
  832TIP3   OH2 2501   0.510   0.459   0.409 -0.1327 -0.1375 -0.1558
  832TIP3    H1 2502   0.589   0.405   0.410 -0.0732 -0.0574 -0.4161
  832TIP3    H2 2503   0.487   0.467   0.317 -0.6488 -0.4539 -0.0606
  833TIP3   OH2 2504   2.493   5.939   3.634 -0.0879  0.1497 -0.4891
  833TIP3    H1 2505   2.400   5.925   3.653 -1.1071  3.1494 -2.5877
  833TIP3    H2 2506   2.504   5.907   3.544  0.9253 -0.0764 -0.3007
  834TIP3   OH2 2507   4.626   5.057   5.195 -0.2528  0.0529  0.2714
  834TIP3    H1 2508   4.548   5.045   5.141  0.2448  0.1358 -0.4859
  834TIP3    H2 2509   4.648   5.149   5.186  0.3163 -0.1074 -0.0748
  835TIP3   OH2 2510   5.003   5.394   3.462  0.0750  0.4771  0.9227
  835TIP3    H1 2511   5.026   5.354   3.546  0.2464 -1.2253  0.1157
  835TIP3    H2 2512   5.055   5.346   3.397 -2.5784 -0.6723 -0.5204
  836TIP3   OH2 2513   3.996   5.430   4.727 -0.5872  0.1919 -0.5245
  836TIP3    H1 2514   3.921   5.381   4.693 -1.6222  2.0199 -1.0315
  836TIP3    H2 2515   3.994   5.513   4.678  0.5635  1.0995  0.8849
  837TIP3   OH2 2516   0.105   1.605   0.513 -0.0085  0.3644  0.0336
  837TIP3    H1 2517   0.085   1.604   0.420 -3.3253 -1.4007  0.5894
  837TIP3    H2 2518   0.158   1.526   0.528  0.7044  0.7626 -0.3508
  838TIP3   OH2 2519   5.880   1.459   1.993 -0.2346  0.0299  0.1805
  838TIP3    H1 2520   5.944   1.407   2.041  0.0255  1.1822  1.1033
  838TIP3    H2 2521   5.910   1.455   1.902 -0.0410 -1.1510  0.2841
  839TIP3   OH2 2522   3.529   1.550   3.739  0.2230 -0.6438  0.0490
  839TIP3    H1 2523   3.590   1.530   3.668 -0.7511  0.1263 -1.0537
  839TIP3    H2 2524   3.572   1.619   3.789  0.7722 -0.9528  0.0107
  840TIP3   OH2 2525   4.155   5.935   2.718 -0.5755 -0.0552 -0.0841
  840TIP3    H1 2526   4.165   6.002   2.785 -2.1790  0.8914 -0.7320
  840TIP3    H2 2527   4.065   5.903   2.728 -0.8101  0.0202 -1.6696
  841TIP3   OH2 2528   0.538   0.739   4.586 -0.4715 -0.2119 -0.7419
  841TIP3    H1 2529   0.601   0.668   4.577  1.8658  1.9117 -2.2620
  841TIP3    H2 2530   0.590   0.818   4.595 -2.8601  1.7284 -2.3871
  842TIP3   OH2 2531   2.213   2.307   1.500  0.4825  0.0392 -0.0388
  842TIP3    H1 2532   2.200   2.395   1.535  1.6456  0.4619 -0.5932
  842TIP3    H2 2533   2.225   2.251   1.577 -0.6810  0.2775  0.3306
  843TIP3   OH2 2534   3.411   4.793   1.484 -0.3596 -0.8938 -0.5040
  843TIP3    H1 2535   3.503   4.812   1.500 -0.0536 -1.3702 -1.5872
  843TIP3    H2 2536   3.364   4.847   1.547  0.5789  0.8142 -1.2009
  844TIP3   OH2 2537   2.411   3.927   2.229  0.2298 -0.3337 -0.5783
  844TIP3    H1 2538   2.476   3.857   2.221 -1.5982 -2.1751 -0.4727
  844TIP3    H2 2539   2.370   3.911   2.314 -1.1945 -0.0568 -1.1799
  845TIP3   OH2 2540   2.270   3.677   0.923 -0.1243 -0.0125  0.1693
  845TIP3    H1 2541   2.246   3.693   0.832 -1.1890 -0.9732  0.2609
  845TIP3    H2 2542   2.346   3.733   0.938 -1.0540  1.5556 -0.7550
  846TIP3   OH2 2543   3.663   2.427   0.527  0.0180  0.0986  0.5586
  846TIP3    H1 2544   3.673   2.432   0.622 -3.1108 -1.2112  1.0855
  846TIP3    H2 2545   3.590   2.486   0.508  0.7783  0.5490 -1.1054
  847TIP3   OH2 2546   5.433   3.718   2.310  0.0385 -0.7174 -0.4595
  847TIP3    H1 2547   5.466   3.780   2.375  1.8348 -0.6173 -1.4109
  847TIP3    H2 2548   5.344   3.698   2.339 -0.9341  2.8945 -0.5366
  848TIP3   OH2 2549   3.764   2.769   4.747  0.4851 -0.0669 -0.3068
  848TIP3    H1 2550   3.857   2.781   4.726  0.0069  3.0493 -1.2469
  848TIP3    H2 2551   3.754   2.809   4.834  0.2020 -1.5936  0.3981
  849TIP3   OH2 2552   6.142   3.287   1.727  0.4343  0.6420  0.4285
  849TIP3    H1 2553   6.092   3.274   1.647  1.3994  0.0837 -0.0856
  849TIP3    H2 2554   6.109   3.220   1.787 -0.4554  1.2108  0.6013
  850TIP3   OH2 2555   4.487   1.676   1.344  0.7526 -0.0777  0.4761
  850TIP3    H1 2556   4.487   1.584   1.319  0.1587  0.1228 -0.3334
  850TIP3    H2 2557   4.432   1.718   1.278  0.7395  0.8029  1.0318
  851TIP3   OH2 2558   0.748   5.397   0.773 -0.0193  0.4851  0.2150
  851TIP3    H1 2559   0.822   5.458   0.775 -0.2635  0.7632  0.9957
  851TIP3    H2 2560   0.680   5.443   0.724  0.3926  0.1216 -0.7492
  852TIP3   OH2 2561   3.977   3.340   1.072  0.1731 -0.0339 -0.4220
  852TIP3    H1 2562   3.969   3.246   1.057 -0.1516 -0.1381  0.3596
  852TIP3    H2 2563   3.887   3.372   1.070  0.3589  0.4928 -2.0215
  853TIP3   OH2 2564   4.067   4.826   4.716  0.2422 -0.2204 -0.2299
  853TIP3    H1 2565   4.147   4.787   4.683 -0.1191 -1.9790  0.8148
  853TIP3    H2 2566   4.018   4.851   4.638  2.2842  2.0771 -0.8966
  854TIP3   OH2 2567   0.187   4.852   4.258 -0.4109 -0.1548 -1.1882
  854TIP3    H1 2568   0.234   4.839   4.341  0.1639  3.1700 -0.8392
  854TIP3    H2 2569   0.098   4.822   4.276  0.3715 -2.1151 -0.3163
  855TIP3   OH2 2570   4.603   2.103   4.568  0.2770 -0.0307  0.3641
  855TIP3    H1 2571   4.559   2.100   4.653 -0.6913 -0.6288 -0.1406
  855TIP3    H2 2572   4.568   2.028   4.520 -0.2895  1.0932 -1.0706
  856TIP3   OH2 2573   3.119   0.546   2.390  0.8104  0.6509  0.1086
  856TIP3    H1 2574   3.089   0.473   2.443 -0.5647 -0.0627 -1.5524
  856TIP3    H2 2575   3.153   0.506   2.310  1.1586  1.7606 -0.3228
  857TIP3   OH2 2576   1.713   4.465   3.811  0.4964 -0.4796  0.0846
  857TIP3    H1 2577   1.792   4.452   3.864 -0.4777 -2.3066  1.2245
  857TIP3    H2 2578   1.676   4.547   3.843  1.2239 -0.3083  0.5116
  858TIP3   OH2 2579   2.082   4.628   4.078 -0.2915 -0.1533 -0.1797
  858TIP3    H1 2580   2.043   4.701   4.126  1.1536 -0.0333  0.8733
  858TIP3    H2 2581   2.093   4.661   3.989 -2.3116 -0.1201 -0.4679
  859TIP3   OH2 2582   4.252   3.297   5.116 -0.0954 -0.1001  0.6496
  859TIP3    H1 2583   4.165   3.296   5.078  0.5203  0.8665 -0.8809
  859TIP3    H2 2584   4.259   3.382   5.159 -0.1533 -0.4750  1.4193
  860TIP3   OH2 2585   0.446   3.715   1.140  0.2611 -0.3209  0.0692
  860TIP3    H1 2586   0.351   3.722   1.138  0.3100  0.3321 -0.2924
  860TIP3    H2 2587   0.475   3.796   1.183  0.7017  0.0713 -0.9270
  861TIP3   OH2 2588   2.730   0.258   2.845  0.1944  0.2687 -0.3366
  861TIP3    H1 2589   2.686   0.174   2.838 -0.9916  0.8913 -0.5954
  861TIP3    H2 2590   2.812   0.239   2.892  1.6359 -1.6074 -3.3274
  862TIP3   OH2 2591   0.686   5.635   4.943  0.2727 -0.6414  0.2854
  862TIP3    H1 2592   0.629   5.579   4.891 -0.1441  0.0156  0.0159
  862TIP3    H2 2593   0.653   5.628   5.032 -0.9464  0.5871 -0.0437
  863TIP3   OH2 2594   5.812   2.194   4.556 -0.5199  0.5409 -0.1167
  863TIP3    H1 2595   5.846   2.191   4.466 -1.9091 -0.7291 -0.6413
  863TIP3    H2 2596   5.780   2.283   4.567 -0.6852  0.6011 -1.0387
  864TIP3   OH2 2597   4.196   1.390   4.988 -0.0121 -0.0162  0.6395
  864TIP3    H1 2598   4.125   1.346   4.941  0.7119 -0.7602  0.2010
  864TIP3    H2 2599   4.159   1.473   5.015 -0.7862 -0.0130 -0.3514
  865TIP3   OH2 2600   1.191   2.619   3.643 -0.6212  0.1615 -0.4049
  865TIP3    H1 2601   1.249   2.574   3.704 -0.2658 -0.2838 -1.0518
  865TIP3    H2 2602   1.244   2.692   3.610 -0.6207  0.0850 -0.5767
  866TIP3   OH2 2603   0.203   3.776   3.027 -0.2263  0.0747 -0.2962
  866TIP3    H1 2604   0.222   3.851   2.971  1.5872 -0.4243 -0.3987
  866TIP3    H2 2605   0.262   3.707   2.997  1.0607 -0.1232  2.4183
  867TIP3   OH2 2606   5.650   3.216   4.307 -0.0112 -0.2569  0.5898
  867TIP3    H1 2607   5.707   3.147   4.275  1.8838  0.4737  2.1716
  867TIP3    H2 2608   5.639   3.275   4.233 -1.8288 -2.2400 -0.8505
  868TIP3   OH2 2609   3.249   3.211   4.529 -0.2259  0.9743 -0.2172
  868TIP3    H1 2610   3.162   3.178   4.507 -0.6490  3.0776 -1.9442
  868TIP3    H2 2611   3.289   3.140   4.581 -2.2075 -0.8500 -1.0557
  869TIP3   OH2 2612   0.659   4.229   1.350  0.3065 -0.3012 -0.0448
  869TIP3    H1 2613   0.675   4.141   1.316 -2.1684  0.6701 -4.4571
  869TIP3    H2 2614   0.583   4.218   1.408 -0.2311 -1.0680 -0.8672
  870TIP3   OH2 2615   4.914   4.485   4.880 -0.6789 -0.1701  0.9188
  870TIP3    H1 2616   4.906   4.394   4.852  0.7940  0.3667 -1.5670
  870TIP3    H2 2617   4.823   4.515   4.891 -1.2971 -1.2332 -0.8140
  871TIP3   OH2 2618   5.866   4.595   3.565 -0.0706 -0.1673  0.1011
  871TIP3    H1 2619   5.933   4.622   3.628  0.3721 -0.8775 -0.0543
  871TIP3    H2 2620   5.854   4.501   3.582  1.6305 -0.8958 -2.2862
  872TIP3   OH2 2621   0.144   2.876   2.388 -0.1043  0.0605  0.7531
  872TIP3    H1 2622   0.218   2.916   2.342 -0.8304  0.1395 -0.3886
  872TIP3    H2 2623   0.168   2.784   2.395 -1.0722 -0.5121 -2.1807
  873TIP3   OH2 2624   3.279   3.740   4.333 -0.1292 -0.0245 -0.1539
  873TIP3    H1 2625   3.185   3.741   4.349 -0.2418 -0.6437 -0.7214
  873TIP3    H2 2626   3.316   3.795   4.402 -0.7898 -0.7228  0.7848
  874TIP3   OH2 2627   2.299   2.773   1.349 -0.1167 -0.0319 -0.4957
  874TIP3    H1 2628   2.310   2.757   1.443 -1.1943 -3.3618 -0.8132
  874TIP3    H2 2629   2.220   2.827   1.343 -0.4930 -0.4345  0.5305
  875TIP3   OH2 2630   1.244   1.184   0.950 -0.1077  0.5625  0.0894
  875TIP3    H1 2631   1.229   1.249   1.019 -0.0246  0.8364 -0.1515
  875TIP3    H2 2632   1.159   1.174   0.907 -0.1130  0.5305  0.1066
  876TIP3   OH2 2633   1.587   1.235   0.585  0.3846  0.4523 -0.3235
  876TIP3    H1 2634   1.519   1.284   0.631 -0.9542 -1.9165  0.3524
  876TIP3    H2 2635   1.565   1.143   0.599  1.1644 -0.4267 -3.8959
  877TIP3   OH2 2636   1.924   4.205   3.874 -0.6738 -0.1994  0.2158
  877TIP3    H1 2637   2.005   4.154   3.881 -0.1459  0.2513 -2.0682
  877TIP3    H2 2638   1.869   4.156   3.814 -0.7109  1.1946 -0.9365
  878TIP3   OH2 2639   0.705   1.274   4.578 -0.0092 -0.4827 -0.1014
  878TIP3    H1 2640   0.630   1.319   4.617  0.6414  0.6597 -0.1200
  878TIP3    H2 2641   0.699   1.294   4.484  0.8196  0.4128  0.0177
  879TIP3   OH2 2642   0.425   4.938   3.825  0.0534  0.3977 -0.0226
  879TIP3    H1 2643   0.417   4.957   3.919 -0.1108 -0.7022  0.1999
  879TIP3    H2 2644   0.364   4.998   3.783 -2.1532 -1.0904  0.8312
  880TIP3   OH2 2645   4.160   3.255   1.567 -0.6111 -0.5041 -0.0075
  880TIP3    H1 2646   4.153   3.244   1.472  0.9928 -0.8409 -0.1251
  880TIP3    H2 2647   4.101   3.327   1.588 -0.5146 -0.0160 -1.3554
  881TIP3   OH2 2648   4.231   0.589   3.932  0.2429  0.2551  0.0588
  881TIP3    H1 2649   4.162   0.632   3.983 -0.1793 -1.0418  0.6254
  881TIP3    H2 2650   4.184   0.544   3.862  0.5579 -0.2156  0.1452
  882TIP3   OH2 2651   6.039   2.221   2.235 -0.3146  0.2537 -0.1135
  882TIP3    H1 2652   5.948   2.196   2.250 -0.0399 -0.6532  0.1382
  882TIP3    H2 2653   6.046   2.233   2.141 -0.4397 -0.8213 -0.2785
  883TIP3   OH2 2654   4.741   3.877   0.628 -0.3340  0.3241  0.1755
  883TIP3    H1 2655   4.699   3.868   0.543 -1.3331  1.8995  0.4476
  883TIP3    H2 2656   4.755   3.972   0.638 -1.8458  0.3847  2.4871
  884TIP3   OH2 2657   6.129   3.240   0.646 -0.1243 -0.1837 -0.7325
  884TIP3    H1 2658   6.038   3.212   0.657 -0.6353  1.7203  0.5509
  884TIP3    H2 2659   6.136   3.263   0.553 -0.8859 -0.5861 -0.8968
  885TIP3   OH2 2660   1.759   2.818   3.848 -0.8291  0.5020 -0.4500
  885TIP3    H1 2661   1.767   2.776   3.934  0.1959 -1.0933 -1.2704
  885TIP3    H2 2662   1.849   2.836   3.821 -1.0208 -0.3545 -1.7772
  886TIP3   OH2 2663   2.951   1.830   3.456  0.4389 -0.2805  0.5320
  886TIP3    H1 2664   2.891   1.755   3.457  0.0752 -0.0347 -0.6858
  886TIP3    H2 2665   3.011   1.812   3.384  2.2361 -0.7896  2.0770
  887TIP3   OH2 2666   1.434   4.277   2.997  0.5829  0.6186  0.4355
  887TIP3    H1 2667   1.405   4.185   2.995  0.7674  0.4857  1.9877
  887TIP3    H2 2668   1.429   4.301   3.090  0.3647  2.2473  0.0355
  888TIP3   OH2 2669   2.601   3.820   3.396 -0.1935  0.3662 -0.2587
  888TIP3    H1 2670   2.513   3.783   3.405 -0.1409  0.7029  3.1653
  888TIP3    H2 2671   2.660   3.745   3.406 -0.1317  0.6712  2.2324
  889TIP3   OH2 2672   5.940   0.471   0.543 -0.0031  0.0217  0.1931
  889TIP3    H1 2673   5.897   0.387   0.529  0.6723 -0.2595 -0.2672
  889TIP3    H2 2674   6.034   0.451   0.539  0.1702  0.8982 -0.6245
  890TIP3   OH2 2675   1.798   3.093   1.688 -0.2937 -0.2562  0.5434
  890TIP3    H1 2676   1.723   3.137   1.728 -0.6007 -0.6284  0.3845
  890TIP3    H2 2677   1.761   3.015   1.648  0.2470 -0.6729  0.8370
  891TIP3   OH2 2678   0.379   4.428   4.634 -0.4160  0.2573 -0.1249
  891TIP3    H1 2679   0.347   4.515   4.612 -1.9637  0.1779  1.5748
  891TIP3    H2 2680   0.306   4.370   4.616 -0.4455 -0.2760  1.5049
  892TIP3   OH2 2681   5.244   0.178   2.481  0.5658 -0.3464  0.5234
  892TIP3    H1 2682   5.269   0.096   2.524 -1.0283 -1.1869 -0.0629
  892TIP3    H2 2683   5.161   0.201   2.521  0.1481  0.0398 -0.5302
  893TIP3   OH2 2684   2.254   1.548   2.442 -0.2439 -0.2015  0.1199
  893TIP3    H1 2685   2.181   1.599   2.476 -0.2480 -0.4177  0.4436
  893TIP3    H2 2686   2.259   1.472   2.500  0.3320 -0.1109  0.1963
  894TIP3   OH2 2687   3.328   3.137   2.470 -0.0375  0.3710 -0.1857
  894TIP3    H1 2688   3.387   3.064   2.489 -1.1839 -0.4992  0.0768
  894TIP3    H2 2689   3.266   3.137   2.543 -0.1815  1.4799 -0.2931
  895TIP3   OH2 2690   1.652   0.288   5.133  0.8264  0.4350  0.4535
  895TIP3    H1 2691   1.704   0.231   5.190 -0.3860 -1.2566 -0.0846
  895TIP3    H2 2692   1.711   0.311   5.062  1.0757 -0.8713  0.2248
  896TIP3   OH2 2693   5.989   0.045   3.986 -0.2420 -0.4336 -0.6418
  896TIP3    H1 2694   5.959  -0.024   3.927  1.7569 -1.3738 -0.6377
  896TIP3    H2 2695   5.978   0.126   3.936 -0.4350 -1.0020 -1.5424
  897TIP3   OH2 2696   0.360   2.088   1.453  0.0517  0.0580 -0.1932
  897TIP3    H1 2697   0.405   2.070   1.536  0.1844  0.9536 -0.0580
  897TIP3    H2 2698   0.421   2.144   1.405 -0.7243  0.9399 -0.1853
  898TIP3   OH2 2699   6.265   2.223   1.886  0.6964  0.2520 -0.2454
  898TIP3    H1 2700   6.246   2.317   1.884 -2.3580 -0.1819  1.7561
  898TIP3    H2 2701   6.351   2.216   1.927  0.2861  2.1349  1.0562
  899TIP3   OH2 2702   1.403   4.319   1.720 -0.1284 -0.0888  0.3123
  899TIP3    H1 2703   1.432   4.347   1.807 -1.8947 -0.4680  1.0752
  899TIP3    H2 2704   1.317   4.280   1.735 -1.8684  2.4861 -1.9421
  900TIP3   OH2 2705   2.195   5.833   0.373 -0.6926 -0.2489  0.3630
  900TIP3    H1 2706   2.116   5.808   0.421 -1.1159 -0.2531 -0.3398
  900TIP3    H2 2707   2.236   5.900   0.428 -0.6169 -0.9939  1.2549
  901TIP3   OH2 2708   1.007   1.509   1.636  0.5897 -0.4530  0.7273
  901TIP3    H1 2709   1.096   1.480   1.613  1.5367  1.9795  0.9642
  901TIP3    H2 2710   0.950   1.466   1.572  2.1611 -0.6400 -0.6197
  902TIP3   OH2 2711   4.241   1.746   3.937  0.0944 -0.5225  0.0222
  902TIP3    H1 2712   4.323   1.795   3.945  0.2009 -0.6481 -0.2788
  902TIP3    H2 2713   4.173   1.808   3.962  0.3754 -0.8050  1.6118
  903TIP3   OH2 2714   4.028   0.674   1.480  0.3026 -0.4372 -0.2202
  903TIP3    H1 2715   3.983   0.625   1.549 -2.1051  1.7304 -0.0700
  903TIP3    H2 2716   4.012   0.623   1.400 -0.0602 -1.1061  0.2686
  904TIP3   OH2 2717   1.252   5.187   1.697 -0.0728  0.1874  0.1548
  904TIP3    H1 2718   1.170   5.236   1.707 -0.1309  0.2826 -0.7493
  904TIP3    H2 2719   1.226   5.105   1.656  0.1637 -0.1873  0.7453
  905TIP3   OH2 2720   2.144   4.035   4.451  0.1089 -0.1379  0.0776
  905TIP3    H1 2721   2.193   4.112   4.422 -0.3683  0.2579  0.3182
  905TIP3    H2 2722   2.190   4.007   4.530 -0.2852  0.4842  0.5411
  906TIP3   OH2 2723   5.069   4.129   3.027 -0.0273 -0.1666  0.5124
  906TIP3    H1 2724   5.101   4.214   3.056 -0.1094  0.5662 -1.3890
  906TIP3    H2 2725   4.973   4.139   3.027 -0.2219 -1.3088  3.1692
  907TIP3   OH2 2726   0.223   2.251   0.055  0.2254 -0.1322 -0.2456
  907TIP3    H1 2727   0.231   2.160   0.029  0.5072 -0.0634 -0.3976
  907TIP3    H2 2728   0.271   2.301  -0.011 -0.7764  0.2193 -0.7287
  908TIP3   OH2 2729   3.684   5.485   1.410 -0.5816 -0.2261  0.6562
  908TIP3    H1 2730   3.645   5.570   1.389  0.5494 -0.1313 -1.2589
  908TIP3    H2 2731   3.764   5.507   1.458 -0.3543 -0.2081  0.2715
  909TIP3   OH2 2732   5.283   0.856   3.500  0.2276 -0.2588  0.0406
  909TIP3    H1 2733   5.265   0.873   3.592 -0.0504  0.1122 -0.0802
  909TIP3    H2 2734   5.375   0.828   3.498 -0.2451 -2.0319  0.6465
  910TIP3   OH2 2735   2.725   3.723   1.585 -0.1465  0.1497 -0.1060
  910TIP3    H1 2736   2.689   3.638   1.613 -3.2446  0.4178 -2.7100
  910TIP3    H2 2737   2.752   3.709   1.494  0.4016  1.7019 -0.2158
  911TIP3   OH2 2738  -0.004   1.968   2.736 -0.3230 -0.1002 -0.3501
  911TIP3    H1 2739   0.088   1.963   2.711 -0.4619 -0.8596 -0.7554
  911TIP3    H2 2740  -0.003   1.999   2.827  0.2649  1.0902 -0.7417
  912TIP3   OH2 2741   4.078   2.457   0.093 -0.5347  0.1169  0.1463
  912TIP3    H1 2742   4.072   2.484   0.184 -1.2163 -0.9660  0.4419
  912TIP3    H2 2743   4.136   2.381   0.094 -2.9457 -1.8457  0.1796
  913TIP3   OH2 2744   0.370   2.965   3.685 -0.0667  0.3752 -0.3645
  913TIP3    H1 2745   0.282   2.943   3.655  0.2134 -1.1705 -0.0942
  913TIP3    H2 2746   0.371   2.939   3.777  0.0811  2.1784  0.1851
  914TIP3   OH2 2747   4.651   5.119   3.585  0.2902  0.2200  0.2176
  914TIP3    H1 2748   4.603   5.144   3.664 -0.3858  0.6557 -0.3193
  914TIP3    H2 2749   4.592   5.140   3.513  1.1463  0.4333 -0.4426
  915TIP3   OH2 2750   1.349   0.782   4.956 -0.0836 -0.2373  0.0241
  915TIP3    H1 2751   1.370   0.736   5.037  0.3710 -0.4437 -0.2091
  915TIP3    H2 2752   1.427   0.834   4.937 -0.0845 -0.3998 -0.4238
  916TIP3   OH2 2753   3.616   3.140   4.745 -0.7687  0.2865 -0.5431
  916TIP3    H1 2754   3.626   3.127   4.839  0.8921  0.1501 -0.7066
  916TIP3    H2 2755   3.558   3.070   4.716  0.5152 -1.0579  0.0454
  917TIP3   OH2 2756   4.735   5.058   2.645  0.5164 -0.2702  0.2100
  917TIP3    H1 2757   4.821   5.082   2.610  0.4492  0.1552  0.3282
  917TIP3    H2 2758   4.678   5.054   2.569  0.6759 -0.6996  0.1148
  918TIP3   OH2 2759   4.018   4.753   0.265  0.2125  0.1519 -0.7080
  918TIP3    H1 2760   4.074   4.753   0.188 -0.3230  1.0714 -1.1064
  918TIP3    H2 2761   4.075   4.780   0.337  1.0739 -2.0659 -0.4691
  919TIP3   OH2 2762   3.074   5.679   0.097 -0.1881 -0.2599 -0.6588
  919TIP3    H1 2763   3.087   5.631   0.015 -2.1397  0.6411 -1.5515
  919TIP3    H2 2764   3.066   5.771   0.070 -0.3827  0.1118  0.6017
  920TIP3   OH2 2765   4.456   1.402   1.263 -0.1179 -0.1701 -0.1896
  920TIP3    H1 2766   4.507   1.384   1.185 -0.3578 -0.2005 -0.3391
  920TIP3    H2 2767   4.435   1.316   1.299  1.7017 -0.1651  1.0363
  921TIP3   OH2 2768   1.782   1.717   4.887 -0.5624 -0.1099 -0.0067
  921TIP3    H1 2769   1.812   1.765   4.810  0.0467  0.9443  0.8639
  921TIP3    H2 2770   1.755   1.785   4.949  0.3037 -0.8807  1.2548
  922TIP3   OH2 2771   1.378   2.778   2.926 -0.3404 -0.0795  0.5537
  922TIP3    H1 2772   1.346   2.700   2.972 -1.1019 -0.7893 -1.0937
  922TIP3    H2 2773   1.435   2.743   2.857  1.2706  0.9927  1.2616
  923TIP3   OH2 2774   3.552   0.887   3.958  0.2758 -0.3577 -0.4839
  923TIP3    H1 2775   3.565   0.982   3.957 -1.4716 -0.0746 -0.5997
  923TIP3    H2 2776   3.469   0.874   4.004  0.9221 -1.9151  0.3226
  924TIP3   OH2 2777   1.401   3.084   1.565  0.8031  0.5953 -0.1199
  924TIP3    H1 2778   1.446   3.029   1.501 -0.5006 -0.0828 -0.4866
  924TIP3    H2 2779   1.370   3.023   1.632 -2.9690  0.3454 -1.8417
  925TIP3   OH2 2780   4.054   3.635   3.429  0.1931  0.4366 -0.4497
  925TIP3    H1 2781   4.051   3.713   3.373  0.6163 -0.2305 -1.4266
  925TIP3    H2 2782   3.970   3.592   3.415  0.1025  0.5239 -0.1835
  926TIP3   OH2 2783   2.269   0.606   1.312  0.6622  0.4472  0.1603
  926TIP3    H1 2784   2.224   0.555   1.245  0.1070  0.1298  0.7683
  926TIP3    H2 2785   2.267   0.696   1.280  1.0304  0.1988 -0.5854
  927TIP3   OH2 2786  -0.000   0.621   3.566 -0.0235 -0.0275  0.2670
  927TIP3    H1 2787   0.058   0.546   3.549 -1.6046 -1.3089  0.2074
  927TIP3    H2 2788   0.020   0.646   3.656  0.2482 -0.8232  0.4430
  928TIP3   OH2 2789   3.239   1.989   2.584  0.2179 -0.2071  0.4507
  928TIP3    H1 2790   3.261   1.977   2.677 -0.4874 -0.7989  0.5545
  928TIP3    H2 2791   3.294   1.925   2.538  0.9492  0.4486  0.4070
  929TIP3   OH2 2792   5.729   2.538   3.060  0.0162 -0.4302  0.2018
  929TIP3    H1 2793   5.810   2.588   3.065  0.8083 -1.4926 -1.2256
  929TIP3    H2 2794   5.754   2.449   3.084 -1.1876 -0.3678  1.8348
  930TIP3   OH2 2795   1.163   5.862   4.539 -0.4042  0.4858  0.1940
  930TIP3    H1 2796   1.184   5.921   4.467  1.1051  1.0517  1.0505
  930TIP3    H2 2797   1.228   5.792   4.533 -1.2540 -0.3230  0.0860
  931TIP3   OH2 2798   4.758   5.909   1.683 -0.5511  0.1326 -0.8849
  931TIP3    H1 2799   4.685   5.879   1.738 -1.1755  0.9985 -1.2317
  931TIP3    H2 2800   4.735   5.879   1.595 -1.5402  2.1682 -1.3723
  932TIP3   OH2 2801   5.719   3.717   4.620 -0.6919  0.1866 -0.0608
  932TIP3    H1 2802   5.688   3.798   4.579 -0.3167  0.4325  0.1372
  932TIP3    H2 2803   5.738   3.659   4.546  2.8174  1.6339 -0.4589
  933TIP3   OH2 2804   5.197   5.400   2.370 -0.1470 -0.4446  0.4149
  933TIP3    H1 2805   5.184   5.463   2.441 -2.1089 -0.0316 -0.2142
  933TIP3    H2 2806   5.197   5.315   2.412  1.4706 -0.1109  1.1665
  934TIP3   OH2 2807   5.842   3.284   4.494  0.1282 -0.2100 -0.4043
  934TIP3    H1 2808   5.928   3.247   4.476 -0.0604 -0.1187 -1.5823
  934TIP3    H2 2809   5.787   3.252   4.423 -0.5833  0.5068 -0.1914
  935TIP3   OH2 2810   3.546   5.732   3.469  0.4370  0.6296  0.4714
  935TIP3    H1 2811   3.519   5.715   3.559  0.0931  0.5692  0.3573
  935TIP3    H2 2812   3.507   5.816   3.447 -0.4683  0.1009 -0.0110
  936TIP3   OH2 2813   2.366   2.379   0.215  0.4124 -0.3191 -0.2097
  936TIP3    H1 2814   2.346   2.286   0.216 -0.7984 -0.1097 -1.7913
  936TIP3    H2 2815   2.283   2.422   0.235  1.3291  0.4435  2.3899
  937TIP3   OH2 2816   4.137   2.032   3.645  0.0896  0.2907 -0.3056
  937TIP3    H1 2817   4.051   2.000   3.620  0.5128 -0.6911 -0.5816
  937TIP3    H2 2818   4.149   2.000   3.735 -0.8761  2.6632  0.7553
  938TIP3   OH2 2819   5.212   0.576   0.203  0.1515 -0.2561  0.0484
  938TIP3    H1 2820   5.257   0.492   0.204 -0.2966 -0.5724  3.1475
  938TIP3    H2 2821   5.282   0.641   0.207  0.4573 -0.4878 -1.1771
  939TIP3   OH2 2822   5.998   2.862   2.776  0.0215  0.0966  0.3815
  939TIP3    H1 2823   6.061   2.905   2.720  1.2485  0.2001  1.7736
  939TIP3    H2 2824   6.050   2.803   2.831 -1.2325 -0.7223  0.7447
  940TIP3   OH2 2825   5.595   5.237   4.209  0.1250 -0.0214  0.3604
  940TIP3    H1 2826   5.540   5.287   4.148  1.2725  0.6669 -0.1392
  940TIP3    H2 2827   5.574   5.273   4.295  0.4994  0.9261  0.0711
  941TIP3   OH2 2828   5.970   5.787   2.137 -1.1323 -0.0911  0.4925
  941TIP3    H1 2829   6.043   5.731   2.109 -0.6174  1.6476 -1.9621
  941TIP3    H2 2830   5.901   5.725   2.162  0.8783 -1.7792  2.2596
  942TIP3   OH2 2831   5.874   0.269   3.381 -0.0317  0.0353  0.2365
  942TIP3    H1 2832   5.919   0.268   3.297  0.4450 -1.3647  0.4820
  942TIP3    H2 2833   5.925   0.330   3.435  0.3715  0.0146 -0.1147
  943TIP3   OH2 2834   0.131   0.532   4.169 -0.2528  0.0069 -0.0072
  943TIP3    H1 2835   0.224   0.551   4.181 -0.3650 -0.6761  2.3641
  943TIP3    H2 2836   0.086   0.586   4.233 -1.3233 -1.0450  0.1797
  944TIP3   OH2 2837   1.701   3.671   3.585  0.2408  0.1137 -0.6365
  944TIP3    H1 2838   1.762   3.600   3.563  0.8455 -0.1620  1.7018
  944TIP3    H2 2839   1.615   3.629   3.584  0.2337  0.0951 -2.2188
  945TIP3   OH2 2840   1.246   1.686   1.377 -0.3661  0.5918 -0.3087
  945TIP3    H1 2841   1.152   1.691   1.358 -0.4820  0.8247  0.3187
  945TIP3    H2 2842   1.288   1.702   1.292 -0.8853  1.5113 -0.4047
  946TIP3   OH2 2843   2.888   4.923   1.685  0.7282 -0.3526 -0.4077
  946TIP3    H1 2844   2.896   4.892   1.595 -0.9093  0.2978 -0.8095
  946TIP3    H2 2845   2.879   5.018   1.678 -0.9903 -0.4250  0.2962
  947TIP3   OH2 2846   0.976   1.343   4.637  0.6837  0.1644  0.0203
  947TIP3    H1 2847   0.966   1.370   4.729  0.8307 -0.4663  0.2291
  947TIP3    H2 2848   0.890   1.310   4.612  0.6835  0.1926 -0.0149
  948TIP3   OH2 2849   1.530   5.256   0.981 -0.0845 -0.3413 -0.1554
  948TIP3    H1 2850   1.555   5.211   1.061 -1.8648 -0.6414  0.2706
  948TIP3    H2 2851   1.608   5.305   0.955  0.6589 -0.6074  1.4961
  949TIP3   OH2 2852   1.916   3.054   3.533  0.0388 -0.5750  0.5087
  949TIP3    H1 2853   1.962   3.123   3.485 -0.0407 -0.6832  0.2698
  949TIP3    H2 2854   1.829   3.090   3.550 -0.9388 -1.5094 -1.8870
  950TIP3   OH2 2855   3.341   3.628   3.233 -0.0526 -0.0295 -0.3706
  950TIP3    H1 2856   3.354   3.618   3.327 -1.1648 -0.1861 -0.2214
  950TIP3    H2 2857   3.366   3.718   3.215  0.7005 -0.1625 -0.0284
  951TIP3   OH2 2858   6.047   4.546   5.080 -0.6847  0.1028 -1.0088
  951TIP3    H1 2859   5.960   4.510   5.062 -1.8396  1.5550  1.1861
  951TIP3    H2 2860   6.108   4.478   5.051 -2.6274 -2.1575 -0.1166
  952TIP3   OH2 2861   5.045   2.663   4.541  0.1551  0.3808  0.3498
  952TIP3    H1 2862   4.973   2.600   4.536  1.6285 -1.3085 -1.3705
  952TIP3    H2 2863   5.074   2.674   4.451  3.4843 -0.8457  1.1031
  953TIP3   OH2 2864   3.042   4.697   1.761  0.4271 -0.4882 -0.0677
  953TIP3    H1 2865   3.000   4.775   1.725  1.4885  0.4774  0.7313
  953TIP3    H2 2866   3.013   4.626   1.704 -1.4463  0.2920 -0.1620
  954TIP3   OH2 2867   0.791   1.880   1.417 -0.1156 -0.2711  0.0733
  954TIP3    H1 2868   0.720   1.856   1.477  0.0081  1.5429  1.0266
  954TIP3    H2 2869   0.749   1.932   1.349  0.3594  1.7066  1.2025
  955TIP3   OH2 2870   4.046   4.461   4.629  0.0271  0.3111  0.1818
  955TIP3    H1 2871   4.051   4.443   4.723 -0.2730  2.2423  0.6094
  955TIP3    H2 2872   4.041   4.374   4.588  1.4312 -0.6131  1.8451
  956TIP3   OH2 2873   0.102   2.305   1.669  0.4423  0.0292 -0.1546
  956TIP3    H1 2874   0.135   2.297   1.580 -0.9409 -2.2560 -0.5458
  956TIP3    H2 2875   0.129   2.224   1.712 -0.3738  0.3312  0.9698
  957TIP3   OH2 2876   0.209   1.593   4.540 -0.1805  0.0329  0.1337
  957TIP3    H1 2877   0.150   1.551   4.602  2.8329 -1.0110  2.5944
  957TIP3    H2 2878   0.254   1.520   4.497  1.6176  0.6373  0.8480
  958TIP3   OH2 2879   3.957   0.217   4.931  0.4861  0.1093 -0.1058
  958TIP3    H1 2880   3.985   0.281   4.866  1.1871  1.6706  1.6417
  958TIP3    H2 2881   3.864   0.235   4.943  0.6645  0.7429  0.3213
  959TIP3   OH2 2882   5.105   0.006   2.124  0.1815  0.1136 -0.0841
  959TIP3    H1 2883   5.151   0.088   2.141  1.6452 -0.5272 -0.7107
  959TIP3    H2 2884   5.047   0.026   2.051  1.1616  0.4021 -0.8076
  960TIP3   OH2 2885   4.902   2.063   0.745  0.2490  0.0188  0.3373
  960TIP3    H1 2886   4.925   2.059   0.838  1.4347 -0.9184  0.0266
  960TIP3    H2 2887   4.809   2.085   0.745  0.5258  1.3990  1.7088
  961TIP3   OH2 2888   5.251   1.789   0.097  0.2771 -0.0732  0.3364
  961TIP3    H1 2889   5.326   1.848   0.107 -0.8464  1.5054 -0.2038
  961TIP3    H2 2890   5.255   1.733   0.174  2.0732 -0.1236  0.2549
  962TIP3   OH2 2891   1.056   2.545   0.544 -0.0910 -0.3527  0.3495
  962TIP3    H1 2892   0.978   2.525   0.596  0.5301  1.4687  2.1006
  962TIP3    H2 2893   1.022   2.565   0.457 -1.7677  1.5073  1.3533
  963TIP3   OH2 2894   5.353   1.816   2.589 -0.3501  0.2725  0.4925
  963TIP3    H1 2895   5.414   1.768   2.532  1.8271  1.0776  2.0122
  963TIP3    H2 2896   5.335   1.757   2.662  1.3782  1.2273  1.7558
  964TIP3   OH2 2897   1.083   1.079   0.208 -0.3533 -0.5617 -1.0308
  964TIP3    H1 2898   1.021   1.148   0.231 -0.4864 -0.1871 -2.3997
  964TIP3    H2 2899   1.072   1.013   0.276  0.3423  1.0850  0.7742
  965TIP3   OH2 2900   3.970   1.924   3.222 -0.4855 -0.0317 -0.2756
  965TIP3    H1 2901   4.050   1.952   3.177  0.0243 -1.3770 -0.2296
  965TIP3    H2 2902   3.949   1.839   3.184 -1.6249  0.0711  0.0755
  966TIP3   OH2 2903   0.644   3.145   1.552 -0.0846 -0.5684  0.0361
  966TIP3    H1 2904   0.712   3.139   1.620 -0.1726 -2.7575 -0.0018
  966TIP3    H2 2905   0.693   3.149   1.470 -0.0044  0.2573  0.1120
  967TIP3   OH2 2906   4.751   2.985   2.373  0.0531  0.4695  0.1275
  967TIP3    H1 2907   4.669   3.027   2.401  0.0253  1.9780 -1.9508
  967TIP3    H2 2908   4.723   2.906   2.327 -0.0711 -0.1914  1.2910
  968TIP3   OH2 2909   1.134   3.872   1.039 -0.6556  0.5302  0.4286
  968TIP3    H1 2910   1.211   3.842   1.086 -0.7575 -1.1355 -0.3585
  968TIP3    H2 2911   1.147   3.966   1.026  0.9462  0.3804  0.8154
  969TIP3   OH2 2912   0.842   5.410   3.720 -0.1835 -0.7551 -0.4577
  969TIP3    H1 2913   0.872   5.416   3.811 -1.2471 -0.8271 -0.0980
  969TIP3    H2 2914   0.872   5.492   3.680  0.3794 -0.7664 -0.0766
  970TIP3   OH2 2915   3.972   3.051   4.845 -0.5672  0.6179 -0.3211
  970TIP3    H1 2916   3.933   3.003   4.772 -3.1022 -0.3918  1.5543
  970TIP3    H2 2917   3.908   3.119   4.866 -0.6746 -0.1014  1.9151
  971TIP3   OH2 2918   4.006   5.111   3.865 -0.5161 -0.0314 -0.0471
  971TIP3    H1 2919   3.986   5.033   3.916 -0.4551 -1.1562 -1.6682
  971TIP3    H2 2920   3.920   5.145   3.838 -0.5577  0.6748  0.9106
  972TIP3   OH2 2921   1.681   1.897   5.084 -0.1782  1.0279 -0.0090
  972TIP3    H1 2922   1.759   1.953   5.084  0.6005 -0.0162 -0.4792
  972TIP3    H2 2923   1.620   1.941   5.144  0.9579  1.6036  0.7675
  973TIP3   OH2 2924   2.648   4.274   0.924  0.3192 -0.1564  0.7830
  973TIP3    H1 2925   2.685   4.208   0.865 -1.1460  0.4275 -0.8721
  973TIP3    H2 2926   2.587   4.226   0.980 -1.1781 -0.1742 -0.7975
  974TIP3   OH2 2927   4.705   3.917   1.060  0.2418  0.2054 -0.1707
  974TIP3    H1 2928   4.790   3.875   1.046  1.3006  1.6238  1.5434
  974TIP3    H2 2929   4.651   3.888   0.986  1.8064 -1.7182 -0.6537
  975TIP3   OH2 2930   0.863   4.621   5.063  0.0372 -0.5771 -0.0280
  975TIP3    H1 2931   0.846   4.670   4.983 -0.7073  1.5706  1.3446
  975TIP3    H2 2932   0.951   4.650   5.090  0.1664 -1.0704  0.0826
  976TIP3   OH2 2933   2.220   2.562   0.967 -0.6243 -0.0004  0.1239
  976TIP3    H1 2934   2.174   2.481   0.989 -1.3415  0.4666  0.3726
  976TIP3    H2 2935   2.275   2.580   1.043  0.4014 -0.8326 -0.3795
  977TIP3   OH2 2936   2.245   0.371   0.744  0.4036 -0.5144  0.6510
  977TIP3    H1 2937   2.230   0.464   0.765  1.2273 -0.1879 -0.1208
  977TIP3    H2 2938   2.213   0.324   0.820 -1.9378  0.2660  0.2365
  978TIP3   OH2 2939   0.973   1.556   0.937  0.7037 -0.2348 -0.4729
  978TIP3    H1 2940   0.886   1.521   0.960  1.6488 -2.2938  0.2480
  978TIP3    H2 2941   0.963   1.651   0.942 -1.0713 -0.4425  1.3339
  979TIP3   OH2 2942   5.444   2.963   3.355 -0.2099 -0.5072  0.0349
  979TIP3    H1 2943   5.361   3.008   3.337 -1.4816 -1.8447  2.0866
  979TIP3    H2 2944   5.438   2.881   3.306 -1.0404 -1.4631  1.6153
  980TIP3   OH2 2945   5.386   0.251   4.875  0.3247 -0.5697  0.5320
  980TIP3    H1 2946   5.328   0.184   4.911 -3.5468  0.1140 -3.5964
  980TIP3    H2 2947   5.348   0.334   4.904  2.1952 -0.0183  1.5951
  981TIP3   OH2 2948   5.740   2.283   1.314  0.4100  0.2290 -0.3623
  981TIP3    H1 2949   5.776   2.367   1.285  1.2971 -0.6908 -2.1663
  981TIP3    H2 2950   5.646   2.298   1.322  0.4063  1.1434 -1.7196
  982TIP3   OH2 2951   5.192   4.389   2.618  0.0985 -0.6225 -0.0578
  982TIP3    H1 2952   5.149   4.380   2.704 -0.1337 -2.9392 -0.3408
  982TIP3    H2 2953   5.121   4.376   2.555  0.5325 -0.4909 -0.5799
  983TIP3   OH2 2954   0.232   2.580   1.587  0.1696  0.0907 -0.1172
  983TIP3    H1 2955   0.250   2.611   1.498 -0.9815  1.3190  0.0474
  983TIP3    H2 2956   0.299   2.622   1.641 -0.1262  0.6571 -0.1852
  984TIP3   OH2 2957   4.700   0.090   0.789 -0.0911  0.2309 -0.1819
  984TIP3    H1 2958   4.651   0.163   0.752 -0.2562 -0.4120 -1.2667
  984TIP3    H2 2959   4.763   0.065   0.721  1.3462  0.6330  0.9459
  985TIP3   OH2 2960   6.213   3.836   0.968 -0.1856  0.3332 -0.3910
  985TIP3    H1 2961   6.151   3.790   0.912 -0.7161  0.0960  0.3722
  985TIP3    H2 2962   6.202   3.795   1.054  1.4083 -0.0789 -0.3561
  986TIP3   OH2 2963   2.614   5.576   2.679 -0.0025 -0.7686 -0.2769
  986TIP3    H1 2964   2.685   5.632   2.646 -1.1224  1.0984  0.3459
  986TIP3    H2 2965   2.641   5.552   2.767  0.2969 -0.8969 -0.4004
  987TIP3   OH2 2966   4.586   3.820   0.841  0.5326 -0.2012 -0.1300
  987TIP3    H1 2967   4.649   3.821   0.768 -0.7959 -1.5201 -1.3819
  987TIP3    H2 2968   4.551   3.731   0.840  0.2487 -0.1511  1.9752
  988TIP3   OH2 2969   0.466   1.599   4.309  1.1010 -0.0427 -0.5107
  988TIP3    H1 2970   0.476   1.672   4.370  1.8194 -0.0966 -0.5608
  988TIP3    H2 2971   0.374   1.573   4.318  1.4125 -0.6907  1.2890
  989TIP3   OH2 2972   5.674   0.580  -0.024  0.1618 -0.0323  0.1730
  989TIP3    H1 2973   5.598   0.523  -0.011  1.1064 -1.6423 -1.0773
  989TIP3    H2 2974   5.694   0.613   0.064 -0.4994 -1.5395  0.9261
  990TIP3   OH2 2975   1.436   5.385   3.078 -0.1664  0.0500  0.3992
  990TIP3    H1 2976   1.372   5.366   3.009  0.3128  0.2749 -0.1100
  990TIP3    H2 2977   1.471   5.299   3.102  0.5737  0.0719 -0.5302
  991TIP3   OH2 2978   4.561   0.348   1.540 -0.1123  0.3385  0.4962
  991TIP3    H1 2979   4.546   0.407   1.614 -2.2049 -0.5247  0.8339
  991TIP3    H2 2980   4.497   0.374   1.474  0.2739 -0.2784 -0.1476
  992TIP3   OH2 2981   1.449   2.724   1.479 -0.0855 -0.0350  0.1101
  992TIP3    H1 2982   1.432   2.636   1.447  1.1016  0.1326 -1.0698
  992TIP3    H2 2983   1.384   2.779   1.433  0.3432 -0.0613 -0.5365
  993TIP3   OH2 2984   0.579   2.689   4.876 -0.1879  0.8603 -0.1236
  993TIP3    H1 2985   0.492   2.670   4.842  0.3567 -0.7071 -0.7649
  993TIP3    H2 2986   0.628   2.720   4.800  0.5438 -0.9635 -0.4694
  994TIP3   OH2 2987   1.744   1.483   4.228  0.2316  0.4183 -0.2204
  994TIP3    H1 2988   1.816   1.478   4.165  1.8087 -0.4289  1.5250
  994TIP3    H2 2989   1.688   1.409   4.206  0.0594  0.8835 -1.3951
  995TIP3   OH2 2990   3.883   1.405   1.788  0.6687  0.6166 -0.3758
  995TIP3    H1 2991   3.858   1.328   1.738 -1.1506  0.9017  0.0343
  995TIP3    H2 2992   3.975   1.389   1.813  0.0039 -1.9598  0.7152
  996TIP3   OH2 2993   5.225   3.555   3.338  0.0575 -0.4224 -0.6776
  996TIP3    H1 2994   5.194   3.507   3.260 -0.4387  0.1721 -0.8521
  996TIP3    H2 2995   5.206   3.496   3.411 -0.2823 -0.6187 -0.9216
  997TIP3   OH2 2996   3.047   3.556   3.533  0.7932 -0.8013  0.3152
  997TIP3    H1 2997   3.022   3.515   3.616  0.1573  0.1687  0.6153
  997TIP3    H2 2998   2.966   3.563   3.484  0.7140  0.8445  0.6183
  998TIP3   OH2 2999   3.152   0.730   3.546  0.2802  0.1643  0.5102
  998TIP3    H1 3000   3.139   0.663   3.613 -1.9656  0.5881  0.5720
  998TIP3    H2 3001   3.070   0.731   3.496  1.3857  0.8168 -1.3959
  999TIP3   OH2 3002   1.892   1.258   2.905 -0.4972 -0.1853 -0.7715
  999TIP3    H1 3003   1.865   1.271   2.814  0.0481  1.1096 -0.7700
  999TIP3    H2 3004   1.975   1.211   2.899 -0.6290 -0.3994 -0.9317
 1000TIP3   OH2 3005   1.150   3.889   4.883  0.4751  0.1248  0.6920
 1000TIP3    H1 3006   1.129   3.809   4.834  0.0468  0.7472 -0.1630
 1000TIP3    H2 3007   1.198   3.858   4.959 -2.1020 -1.2343  1.8906
 1001TIP3   OH2 3008   2.874   1.321   4.851 -0.2310  0.0847  0.5873
 1001TIP3    H1 3009   2.969   1.333   4.849 -0.1038 -0.9636 -1.7074
 1001TIP3    H2 3010   2.862   1.229   4.875 -0.5747 -0.3104 -1.0199
 1002TIP3   OH2 3011   4.361   1.910   1.472 -0.0785  0.1371  0.3281
 1002TIP3    H1 3012   4.398   1.822   1.474 -0.4290 -0.0010  0.8782
 1002TIP3    H2 3013   4.437   1.968   1.483 -0.1805 -0.2016  4.8607
 1003TIP3   OH2 3014   3.074   2.070   0.903 -0.3211  0.5866  0.0864
 1003TIP3    H1 3015   3.129   2.041   0.830  0.0616 -0.0243  0.6097
 1003TIP3    H2 3016   3.025   2.144   0.867  0.5280  0.8814 -0.5180
 1004TIP3   OH2 3017   3.306   0.242   4.964 -0.2598 -0.4559 -0.1733
 1004TIP3    H1 3018   3.306   0.302   5.039 -2.9102  0.6219 -0.9119
 1004TIP3    H2 3019   3.352   0.164   4.996 -1.6964 -0.2547  2.7884
 1005TIP3   OH2 3020   4.578   5.493   4.885  0.0623 -0.5128  0.0179
 1005TIP3    H1 3021   4.509   5.503   4.820  0.2345  0.4478 -0.0329
 1005TIP3    H2 3022   4.650   5.451   4.837  0.8840  1.8498 -0.9657
 1006TIP3   OH2 3023   0.987   5.507   4.266 -0.0535 -0.0442 -0.4902
 1006TIP3    H1 3024   0.954   5.564   4.336 -1.3353  0.2717 -1.3112
 1006TIP3    H2 3025   0.994   5.564   4.190 -4.1835 -1.3533 -2.1630
 1007TIP3   OH2 3026   3.864   0.542   0.400  0.3043  0.2133 -0.2765
 1007TIP3    H1 3027   3.801   0.611   0.422 -2.9453 -1.3839 -3.5604
 1007TIP3    H2 3028   3.880   0.497   0.483 -1.4654  1.8068  1.0273
 1008TIP3   OH2 3029   1.388   1.032   3.050 -0.3403 -0.2151 -0.2218
 1008TIP3    H1 3030   1.438   1.105   3.013  0.2334 -0.6182 -0.2608
 1008TIP3    H2 3031   1.366   1.061   3.138  1.5517 -0.7167  0.4818
 1009TIP3   OH2 3032   1.713   0.829   3.045  0.1632  0.0075 -0.5978
 1009TIP3    H1 3033   1.649   0.810   3.114 -0.7054  0.2133 -1.3278
 1009TIP3    H2 3034   1.723   0.746   2.999  1.3391 -0.3354  0.2404
 1010TIP3   OH2 3035   5.622   0.134   1.405 -0.1010  0.2973 -0.1320
 1010TIP3    H1 3036   5.556   0.203   1.409 -1.4416 -0.8446 -1.3668
 1010TIP3    H2 3037   5.624   0.108   1.312  1.6965 -0.0811 -0.0199
 1011TIP3   OH2 3038   5.879   1.509   4.184  0.3074  0.0407  0.2538
 1011TIP3    H1 3039   5.873   1.536   4.092  0.2782  0.8806  0.4920
 1011TIP3    H2 3040   5.798   1.462   4.200 -0.9130  2.1479  0.5485
 1012TIP3   OH2 3041   2.221   3.799   4.687  0.3888 -0.5248 -0.1450
 1012TIP3    H1 3042   2.310   3.836   4.688  0.6315 -1.0882  1.2588
 1012TIP3    H2 3043   2.190   3.808   4.777 -1.6420  1.1496 -0.9247
 1013TIP3   OH2 3044   4.503   4.540   1.764  0.2204 -0.4047  0.1578
 1013TIP3    H1 3045   4.451   4.569   1.839  1.5528 -0.4470  1.1532
 1013TIP3    H2 3046   4.524   4.448   1.784  1.3196 -0.1627  0.1891
 1014TIP3   OH2 3047   2.893   1.301   2.043 -0.5547  0.5542 -0.2090
 1014TIP3    H1 3048   2.906   1.208   2.062  0.1506  0.7824  0.4835
 1014TIP3    H2 3049   2.819   1.303   1.982 -1.7205 -0.3424  1.1092
 1015TIP3   OH2 3050   3.499   3.008   2.826  0.0772 -0.3460 -0.2802
 1015TIP3    H1 3051   3.544   2.924   2.827 -2.0416 -1.5505  0.1710
 1015TIP3    H2 3052   3.543   3.059   2.894  0.1355 -1.8407  0.8695
 1016TIP3   OH2 3053   2.258   3.711   4.293 -0.3220 -0.6635  0.1511
 1016TIP3    H1 3054   2.171   3.700   4.331 -0.0038 -1.2931  0.7141
 1016TIP3    H2 3055   2.303   3.629   4.311 -0.7460 -1.8060 -3.2789
 1017TIP3   OH2 3056   0.388   5.377   3.777  0.0565  0.6651  0.2294
 1017TIP3    H1 3057   0.391   5.472   3.790 -1.2796  0.4249  3.1296
 1017TIP3    H2 3058   0.442   5.341   3.847 -1.1030 -0.7453  0.4444
 1018TIP3   OH2 3059   1.943   0.229   3.529 -0.3809  0.0446 -0.0133
 1018TIP3    H1 3060   1.965   0.136   3.532  1.2453  0.4201  1.1623
 1018TIP3    H2 3061   2.005   0.267   3.467 -0.3355  0.4916  0.2960
 1019TIP3   OH2 3062   1.940   3.321   0.358 -0.1978 -0.2364  0.0792
 1019TIP3    H1 3063   1.851   3.288   0.347 -0.7197  1.3381 -0.7783
 1019TIP3    H2 3064   1.996   3.245   0.343 -1.3571 -1.0542 -0.2864
 1020TIP3   OH2 3065   3.862   2.962   4.010  0.2241  0.4481  0.2343
 1020TIP3    H1 3066   3.816   3.046   4.003 -0.9455 -0.1297  0.7789
 1020TIP3    H2 3067   3.923   2.963   3.936 -1.0401  1.0148 -0.8492
 1021TIP3   OH2 3068   5.401   3.002   0.476  0.2657  0.1525  0.1477
 1021TIP3    H1 3069   5.392   2.911   0.507 -0.4357 -1.8520 -4.9635
 1021TIP3    H2 3070   5.489   3.007   0.440  0.2826  1.5397  0.3215
 1022TIP3   OH2 3071   3.960   4.398   5.165 -0.0161 -0.1565 -0.1996
 1022TIP3    H1 3072   4.055   4.400   5.179 -0.2059 -1.4833  1.8722
 1022TIP3    H2 3073   3.927   4.472   5.216 -0.1598 -0.3012 -0.0818
 1023TIP3   OH2 3074   3.357   0.373   0.470  0.5879  0.2019  0.5315
 1023TIP3    H1 3075   3.399   0.290   0.489 -1.1339 -1.4754 -2.2336
 1023TIP3    H2 3076   3.267   0.362   0.500  0.4836  1.2763  0.6435
 1024TIP3   OH2 3077   1.553   3.715   0.686 -0.1718  0.1865  0.4767
 1024TIP3    H1 3078   1.622   3.673   0.736 -0.8806 -2.5771 -0.6724
 1024TIP3    H2 3079   1.594   3.735   0.601 -0.4592 -0.3733  0.2036
 1025TIP3   OH2 3080   0.585   5.281   3.127  0.4705  0.2015  0.2482
 1025TIP3    H1 3081   0.616   5.276   3.217 -0.0350  0.5452  0.4456
 1025TIP3    H2 3082   0.602   5.194   3.091 -2.2920 -1.0728  1.6738
 1026TIP3   OH2 3083   0.641   4.944   1.021 -0.1140 -0.3698  0.0245
 1026TIP3    H1 3084   0.634   4.992   1.104 -0.0500  1.3396 -0.9158
 1026TIP3    H2 3085   0.575   4.874   1.028 -0.0334 -0.3255  1.5401
 1027TIP3   OH2 3086   5.756   0.375   4.872  0.5908  0.0202  0.2414
 1027TIP3    H1 3087   5.830   0.349   4.818 -0.6922  0.1845 -1.6959
 1027TIP3    H2 3088   5.713   0.293   4.897  2.3880 -0.2206  2.9800
 1028TIP3   OH2 3089   3.125   5.913   2.688 -0.1519  0.7641 -0.7323
 1028TIP3    H1 3090   3.144   5.868   2.605  2.9111 -1.0957  0.7998
 1028TIP3    H2 3091   3.174   5.863   2.754 -2.3338  2.2333  2.2342
 1029TIP3   OH2 3092   5.874   4.419   4.297 -0.0120 -0.6004  0.1550
 1029TIP3    H1 3093   5.823   4.421   4.216  1.1785  1.4002 -0.6079
 1029TIP3    H2 3094   5.898   4.327   4.308 -1.4224 -1.1335 -0.9532
 1030TIP3   OH2 3095   1.949   2.803   2.774  0.3026  0.1552  0.3232
 1030TIP3    H1 3096   1.920   2.719   2.809  0.5013  0.4604  1.2525
 1030TIP3    H2 3097   2.038   2.814   2.808  0.2782  0.7480  0.2134
 1031TIP3   OH2 3098   1.531   0.689   1.692 -0.0759 -0.2148 -0.1456
 1031TIP3    H1 3099   1.447   0.668   1.733  0.4386 -0.2498  0.9304
 1031TIP3    H2 3100   1.525   0.782   1.671  0.2928  0.2415  1.6440
 1032TIP3   OH2 3101   2.678   0.974   1.065  0.1770 -0.0542 -0.3345
 1032TIP3    H1 3102   2.733   1.040   1.105  1.2157 -0.4349 -1.0930
 1032TIP3    H2 3103   2.616   1.023   1.012 -0.6283  0.4071  0.9778
 1033TIP3   OH2 3104   2.575   2.542   0.313 -0.2358 -0.3719 -0.1329
 1033TIP3    H1 3105   2.615   2.583   0.236 -0.2373 -1.4214 -0.7011
 1033TIP3    H2 3106   2.486   2.523   0.286 -1.1742  1.8454  1.0896
 1034TIP3   OH2 3107   5.533   4.179   4.156  0.2056  0.0782  0.3127
 1034TIP3    H1 3108   5.463   4.220   4.207  0.4634 -1.8776  2.4107
 1034TIP3    H2 3109   5.492   4.104   4.114  0.2086  1.1683 -1.7490
 1035TIP3   OH2 3110   0.560   2.910   2.482 -0.2406  0.1153 -0.9535
 1035TIP3    H1 3111   0.630   2.879   2.538  0.0808  0.6101 -1.0689
 1035TIP3    H2 3112   0.604   2.966   2.417 -0.5312 -0.8703 -2.0341
 1036TIP3   OH2 3113   1.274   1.552   4.470  0.5562 -0.1110  0.5461
 1036TIP3    H1 3114   1.262   1.494   4.395  0.2548 -3.6295  3.0692
 1036TIP3    H2 3115   1.354   1.600   4.451  0.9207 -1.4583 -1.6551
 1037TIP3   OH2 3116   2.831   0.274   4.835 -0.1853 -0.2343 -0.0060
 1037TIP3    H1 3117   2.926   0.285   4.827 -0.4919  2.2742 -1.1750
 1037TIP3    H2 3118   2.817   0.247   4.925  1.6567 -1.1104  0.0564
 1038TIP3   OH2 3119   5.053   1.024   0.202  0.3118  0.3823 -0.0842
 1038TIP3    H1 3120   5.039   0.941   0.249  1.2148  0.6092  0.6200
 1038TIP3    H2 3121   4.965   1.056   0.184 -0.2193  1.3735  3.4472
 1039TIP3   OH2 3122   3.818   1.071   4.812 -0.2623 -0.3910  0.5183
 1039TIP3    H1 3123   3.842   1.160   4.788  0.9042 -0.8177  0.0152
 1039TIP3    H2 3124   3.741   1.051   4.758  0.2204 -0.1180 -0.2802
 1040TIP3   OH2 3125   0.309   5.795   2.802  0.3277  0.2626 -0.2826
 1040TIP3    H1 3126   0.277   5.706   2.818 -0.5181  0.2857 -1.6849
 1040TIP3    H2 3127   0.297   5.808   2.708  0.1319  1.9827 -0.0434
 1041TIP3   OH2 3128   6.199   2.011   4.426 -0.0179 -0.3432  0.0217
 1041TIP3    H1 3129   6.152   2.031   4.507 -0.7033  1.4110 -0.7596
 1041TIP3    H2 3130   6.203   1.915   4.424  1.3390 -0.4662  2.8405
 1042TIP3   OH2 3131   5.314   4.708   1.753 -0.0033  0.3363 -0.1705
 1042TIP3    H1 3132   5.324   4.726   1.660  0.4803 -0.4280 -0.2804
 1042TIP3    H2 3133   5.367   4.775   1.797  1.7940 -0.7553 -0.5638
 1043TIP3   OH2 3134   4.311   5.306   5.060  0.5988 -0.7544 -0.3913
 1043TIP3    H1 3135   4.335   5.353   4.980  2.3652  1.0203  1.0803
 1043TIP3    H2 3136   4.249   5.364   5.103 -0.1721 -1.5995 -0.3523
 1044TIP3   OH2 3137   4.513   2.831   3.158  0.0230  0.5929  0.0482
 1044TIP3    H1 3138   4.420   2.820   3.178  0.5303 -0.5263  2.0938
 1044TIP3    H2 3139   4.553   2.747   3.183  1.7673  1.4812  0.4177
 1045TIP3   OH2 3140   6.234   5.999   1.010 -0.1429  0.6635  0.6226
 1045TIP3    H1 3141   6.221   6.005   1.105  1.5164  2.3366  0.8028
 1045TIP3    H2 3142   6.177   5.928   0.982 -0.0614 -0.4250  3.0097
 1046TIP3   OH2 3143   4.918   0.391   2.994  0.3523 -0.6515  0.0567
 1046TIP3    H1 3144   4.982   0.453   2.959  0.9757 -0.7627  0.9378
 1046TIP3    H2 3145   4.853   0.445   3.038 -0.3943 -0.5167 -1.1877
 1047TIP3   OH2 3146   5.498   2.145   2.991 -0.6673 -0.3829  0.5655
 1047TIP3    H1 3147   5.449   2.206   2.937  0.9884  0.4327 -0.0820
 1047TIP3    H2 3148   5.517   2.193   3.071  0.3772 -0.1361  0.1808
 1048TIP3   OH2 3149   2.651   0.419   1.319  0.1979  0.1451 -0.2958
 1048TIP3    H1 3150   2.742   0.438   1.342  0.4715 -0.0892 -1.1412
 1048TIP3    H2 3151   2.645   0.443   1.226 -1.1963  2.3111  0.2771
 1049TIP3   OH2 3152   1.292   0.747   3.273  0.6999  0.5058  0.1680
 1049TIP3    H1 3153   1.367   0.766   3.218  0.7621 -0.5824 -0.1440
 1049TIP3    H2 3154   1.293   0.816   3.340  1.6915  0.7735 -0.1068
 1050TIP3   OH2 3155   5.705   5.435   3.050  0.7739  0.4835 -0.3878
 1050TIP3    H1 3156   5.792   5.457   3.082  1.6407 -0.8806 -1.6822
 1050TIP3    H2 3157   5.713   5.436   2.954 -0.4529 -0.3062 -0.5289
 1051TIP3   OH2 3158   0.332   0.217   1.426  0.6171  0.4586 -0.1852
 1051TIP3    H1 3159   0.293   0.245   1.510  0.7022 -0.1324  0.0559
 1051TIP3    H2 3160   0.426   0.226   1.440  0.6022  2.1395 -0.8568
 1052TIP3   OH2 3161   1.974   3.719   1.994 -0.3682 -0.1927  0.0574
 1052TIP3    H1 3162   2.002   3.769   2.071 -2.3331  3.6189 -1.4058
 1052TIP3    H2 3163   2.054   3.703   1.945  0.4206  1.7037  0.6234
 1053TIP3   OH2 3164   2.541   3.890   0.689  0.0625  0.6805 -0.7496
 1053TIP3    H1 3165   2.467   3.913   0.633 -1.9845 -1.0266  1.0843
 1053TIP3    H2 3166   2.541   3.794   0.691 -0.3416  0.6290  2.5180
 1054TIP3   OH2 3167   3.479   0.729   3.429 -0.3079  0.0659  0.2554
 1054TIP3    H1 3168   3.494   0.790   3.356 -0.9198 -0.2999 -0.1891
 1054TIP3    H2 3169   3.480   0.784   3.507  1.7154  0.2839  0.1252
 1055TIP3   OH2 3170   2.060   0.722   4.835 -0.8808  0.6420  0.0330
 1055TIP3    H1 3171   2.020   0.806   4.811  0.2096  1.7232  1.7313
 1055TIP3    H2 3172   2.149   0.728   4.801 -1.4182 -0.8209 -1.7861
 1056TIP3   OH2 3173   3.299   2.118   0.689 -0.0169  0.0519 -0.3351
 1056TIP3    H1 3174   3.247   2.061   0.632  0.4775 -0.1999 -0.5377
 1056TIP3    H2 3175   3.249   2.200   0.692 -1.6592 -0.9292  1.3657
 1057TIP3   OH2 3176   3.001   2.809   2.121  0.7520  0.1522 -0.2995
 1057TIP3    H1 3177   2.935   2.850   2.064  0.8845 -0.5345 -0.9649
 1057TIP3    H2 3178   3.025   2.729   2.075  2.4038  0.6247 -0.2972
 1058TIP3   OH2 3179   2.543   0.081   4.856 -0.4937  0.5500  0.3891
 1058TIP3    H1 3180   2.596   0.088   4.936  0.4982 -1.6392 -0.0175
 1058TIP3    H2 3181   2.463   0.037   4.885  0.2771 -1.1289  0.0399
 1059TIP3   OH2 3182   2.692   3.223   2.197 -0.2785  0.1570 -0.2435
 1059TIP3    H1 3183   2.729   3.276   2.268  0.2930 -1.3535  0.6379
 1059TIP3    H2 3184   2.745   3.245   2.120 -0.9075  1.8210 -0.2444
 1060TIP3   OH2 3185   0.327   4.818   1.675 -0.1349 -0.3913 -0.5076
 1060TIP3    H1 3186   0.367   4.892   1.629 -1.4176 -0.1608 -1.2747
 1060TIP3    H2 3187   0.400   4.778   1.723  0.5743  1.4400  0.0422
 1061TIP3   OH2 3188   5.037   3.476   1.378 -0.2130  0.1195 -0.1161
 1061TIP3    H1 3189   5.083   3.412   1.322 -0.4865  0.1218 -0.3475
 1061TIP3    H2 3190   5.046   3.559   1.331 -3.3143 -0.4365 -1.9415
 1062TIP3   OH2 3191   2.337   2.497   2.858  0.1442 -0.0545 -0.1053
 1062TIP3    H1 3192   2.351   2.432   2.926  0.4292  1.8128  1.7290
 1062TIP3    H2 3193   2.242   2.508   2.855  0.1375 -0.0513  0.0927
 1063TIP3   OH2 3194   6.128   1.158   0.264  0.4059  0.1152  0.2023
 1063TIP3    H1 3195   6.103   1.114   0.345  2.7530  1.5472  1.8268
 1063TIP3    H2 3196   6.104   1.250   0.278  1.3164  0.4740 -0.4755
 1064TIP3   OH2 3197   3.294   4.532   1.569  0.1898 -0.2049  0.2742
 1064TIP3    H1 3198   3.346   4.455   1.546  1.5802  0.7910 -0.0645
 1064TIP3    H2 3199   3.342   4.606   1.531 -2.1937  0.6916 -1.2547
 1065TIP3   OH2 3200   3.001   4.890   0.317 -0.0839 -0.1978 -0.2648
 1065TIP3    H1 3201   2.994   4.878   0.222 -1.0200 -1.1659 -0.1021
 1065TIP3    H2 3202   2.980   4.982   0.331 -0.7639 -0.2359 -0.9342
 1066TIP3   OH2 3203   2.740   2.046   1.729  0.2136  0.2486 -0.0054
 1066TIP3    H1 3204   2.673   2.114   1.736  1.0828  1.1117  0.2579
 1066TIP3    H2 3205   2.820   2.089   1.759  0.5720 -1.2452  1.2811
 1067TIP3   OH2 3206   1.177   3.087   3.208  0.5975 -0.4757 -0.0678
 1067TIP3    H1 3207   1.092   3.057   3.175  1.1249 -1.5244 -0.5153
 1067TIP3    H2 3208   1.231   3.008   3.210  1.8386  0.3364 -0.6344
 1068TIP3   OH2 3209   0.331   0.516   3.642 -0.2329 -0.0297  0.1908
 1068TIP3    H1 3210   0.382   0.519   3.561 -0.8978  1.8385 -0.2030
 1068TIP3    H2 3211   0.395   0.505   3.711  0.7051  1.9718 -0.3127
 1069TIP3   OH2 3212   5.465   0.895   1.375  0.4460  0.8555 -0.1932
 1069TIP3    H1 3213   5.540   0.928   1.326  0.6844  2.1161  0.9338
 1069TIP3    H2 3214   5.501   0.826   1.430  0.7660  1.3257  0.2023
 1070TIP3   OH2 3215   1.930   2.868   2.515  0.2811 -0.4110  0.1747
 1070TIP3    H1 3216   1.846   2.909   2.496  1.3281  1.2425 -1.2278
 1070TIP3    H2 3217   1.930   2.856   2.610 -0.8033  1.3368  0.4456
 1071TIP3   OH2 3218   1.662   1.211   1.263  0.2593 -0.6059 -0.2710
 1071TIP3    H1 3219   1.635   1.123   1.288 -0.7710 -0.4712 -0.8476
 1071TIP3    H2 3220   1.652   1.213   1.168  0.0019  0.2205 -0.2337
 1072TIP3   OH2 3221   0.712   2.553   4.281 -0.3137  0.0032 -0.1509
 1072TIP3    H1 3222   0.641   2.607   4.248 -0.6247  0.1095  0.6534
 1072TIP3    H2 3223   0.675   2.509   4.358  0.5320  0.2005  0.3845
 1073TIP3   OH2 3224   4.739   0.375   4.267 -0.2505  0.0575  0.2175
 1073TIP3    H1 3225   4.673   0.434   4.303  0.6289  0.7214  0.7879
 1073TIP3    H2 3226   4.708   0.354   4.179 -2.0989 -1.0437  1.0761
 1074TIP3   OH2 3227   4.283   5.471   2.638  0.4486 -0.2390  0.6292
 1074TIP3    H1 3228   4.350   5.407   2.612 -0.5854 -1.0892 -0.0241
 1074TIP3    H2 3229   4.227   5.480   2.561 -0.8450 -0.4170  1.5179
 1075TIP3   OH2 3230   3.611   3.737   4.451 -0.1887  0.2672 -0.1390
 1075TIP3    H1 3231   3.630   3.665   4.511 -1.2071 -0.2046 -0.3616
 1075TIP3    H2 3232   3.534   3.780   4.489 -0.3468  0.4680 -0.6769
 1076TIP3   OH2 3233   0.087   5.816   4.954 -0.1475 -0.7880 -0.0202
 1076TIP3    H1 3234   0.047   5.729   4.951 -0.6266 -0.5844  0.3677
 1076TIP3    H2 3235   0.017   5.873   4.986  0.1968 -0.2782 -0.1747
 1077TIP3   OH2 3236   1.543   3.672   3.063 -0.2297 -0.0861 -0.0402
 1077TIP3    H1 3237   1.498   3.628   2.991 -0.1283  0.9007 -0.7294
 1077TIP3    H2 3238   1.618   3.716   3.022 -1.0266  1.7618  0.3716
 1078TIP3   OH2 3239   4.917   2.250   3.470  0.4409  0.2878  0.5159
 1078TIP3    H1 3240   4.980   2.197   3.519 -0.6206 -1.1379  0.3956
 1078TIP3    H2 3241   4.833   2.231   3.510 -0.0499  1.4098  0.0476
 1079TIP3   OH2 3242   3.093   0.196   4.782  0.1189  0.6323 -0.3361
 1079TIP3    H1 3243   3.168   0.214   4.838  0.5633  0.2432 -0.7951
 1079TIP3    H2 3244   3.094   0.101   4.770 -0.4954  0.6124 -0.2825
 1080TIP3   OH2 3245   0.817   3.656   0.650 -0.1942  0.3404 -0.4547
 1080TIP3    H1 3246   0.874   3.729   0.675  0.7097 -0.2455 -0.7732
 1080TIP3    H2 3247   0.844   3.633   0.562 -1.8262  0.8911 -1.1501
 1081TIP3   OH2 3248   2.383   5.698   2.752  0.3423 -0.1557  0.1401
 1081TIP3    H1 3249   2.456   5.677   2.694 -0.7180  0.0014 -1.2891
 1081TIP3    H2 3250   2.311   5.721   2.694 -0.3810  1.3405  1.5488
 1082TIP3   OH2 3251   4.783   4.599   3.889  0.1943 -0.2660  0.0246
 1082TIP3    H1 3252   4.800   4.643   3.806 -0.7676  0.3877  0.1568
 1082TIP3    H2 3253   4.693   4.566   3.881  0.2001 -0.4625  0.6788
 1083TIP3   OH2 3254   1.087   5.510   5.013  0.2900 -0.1153  0.1072
 1083TIP3    H1 3255   1.171   5.498   4.970 -0.4317  1.0092 -1.7633
 1083TIP3    H2 3256   1.031   5.548   4.945 -2.3910 -2.7979  0.5774
 1084TIP3   OH2 3257   4.521   0.611   3.962 -0.6523  0.0913 -0.0530
 1084TIP3    H1 3258   4.457   0.550   3.998 -2.6542  0.1297 -3.1315
 1084TIP3    H2 3259   4.476   0.695   3.961  0.3531  0.6392 -0.0517
 1085TIP3   OH2 3260   3.924   4.114   3.880  0.2886 -0.0842 -0.3461
 1085TIP3    H1 3261   3.972   4.032   3.868 -1.0785 -1.0756  0.6621
 1085TIP3    H2 3262   3.837   4.087   3.907  0.6255  1.7072  3.0475
 1086TIP3   OH2 3263   3.780   0.259   1.498 -0.2748 -0.1264  0.0958
 1086TIP3    H1 3264   3.838   0.195   1.456 -2.7667 -2.0304 -0.6484
 1086TIP3    H2 3265   3.772   0.228   1.588 -0.3698 -0.0316  0.1196
 1087TIP3   OH2 3266   5.249   4.221   4.800 -0.4817  0.0550 -0.0918
 1087TIP3    H1 3267   5.297   4.300   4.777  0.3687 -0.2883  0.4760
 1087TIP3    H2 3268   5.238   4.226   4.895 -1.6386  0.1588 -0.2167
 1088TIP3   OH2 3269   1.976   2.632   3.808 -0.0998  0.5590  0.3907
 1088TIP3    H1 3270   1.991   2.719   3.771 -0.7096  0.6616  0.3820
 1088TIP3    H2 3271   1.975   2.646   3.903  1.0083  0.3660  0.4496
 1089TIP3   OH2 3272   5.481   3.435   4.618  0.4013 -0.0755  0.3529
 1089TIP3    H1 3273   5.452   3.527   4.617 -0.6844 -0.3805 -1.6748
 1089TIP3    H2 3274   5.400   3.385   4.630  0.9084 -0.7953  0.8091
 1090TIP3   OH2 3275   4.667   0.716   2.889 -0.3119 -0.2266  0.6232
 1090TIP3    H1 3276   4.716   0.787   2.931  1.2653 -0.3460 -0.8809
 1090TIP3    H2 3277   4.578   0.725   2.922 -0.4667  3.2001 -0.3631
 1091TIP3   OH2 3278   2.359   2.785   1.855 -0.2382  0.0155 -0.5713
 1091TIP3    H1 3279   2.324   2.826   1.934  1.9839  0.4745  0.2516
 1091TIP3    H2 3280   2.377   2.695   1.880  1.6311  0.4766 -0.1100
 1092TIP3   OH2 3281   3.252   3.924   2.530 -0.1749 -0.5634  0.5671
 1092TIP3    H1 3282   3.171   3.881   2.500 -0.3639  0.4674 -0.4612
 1092TIP3    H2 3283   3.322   3.876   2.486 -0.4037  0.3342 -0.8544
 1093TIP3   OH2 3284   1.422   0.721   3.881  0.4613  0.0249  0.1007
 1093TIP3    H1 3285   1.362   0.743   3.810  0.3058 -2.2706 -0.5252
 1093TIP3    H2 3286   1.365   0.698   3.954  0.5540 -1.2217 -0.1997
 1094TIP3   OH2 3287   4.564   5.256   0.955 -0.4612 -0.0658 -0.0832
 1094TIP3    H1 3288   4.472   5.255   0.930 -0.4008 -1.1393 -0.3224
 1094TIP3    H2 3289   4.578   5.341   0.996 -2.0854 -0.6816  1.9001
 1095TIP3   OH2 3290   5.602   2.561   2.140 -0.2551 -0.4893 -0.4159
 1095TIP3    H1 3291   5.637   2.613   2.213 -2.3710  1.2347 -0.5199
 1095TIP3    H2 3292   5.663   2.577   2.068 -0.2606  1.0443 -0.1237
 1096TIP3   OH2 3293   0.295   1.464   4.884 -0.1170  0.1130  0.4846
 1096TIP3    H1 3294   0.246   1.545   4.896 -0.9246 -0.3970  0.6584
 1096TIP3    H2 3295   0.261   1.405   4.950  0.6820 -0.2867  0.5566
 1097TIP3   OH2 3296   2.230   3.408   0.674  0.0900 -0.0682  0.1519
 1097TIP3    H1 3297   2.189   3.445   0.595 -0.0949  2.4257  1.3160
 1097TIP3    H2 3298   2.284   3.336   0.641 -1.4160 -0.3455 -2.0027
 1098TIP3   OH2 3299   4.214   5.089   2.344  0.0384 -0.4337 -0.4723
 1098TIP3    H1 3300   4.174   5.076   2.430  0.1497  1.0455 -0.1727
 1098TIP3    H2 3301   4.245   5.180   2.345  0.3840 -0.5081 -1.9335
 1099TIP3   OH2 3302   4.376   0.520   1.730 -0.3756  0.1715  0.5307
 1099TIP3    H1 3303   4.312   0.490   1.665 -2.0442  2.0497  1.1828
 1099TIP3    H2 3304   4.361   0.464   1.806 -1.7530  0.9949  0.9013
 1100TIP3   OH2 3305   3.945   1.443   4.591 -0.1731 -0.1131 -0.0773
 1100TIP3    H1 3306   3.983   1.531   4.603  0.1707 -0.4474  1.4484
 1100TIP3    H2 3307   3.957   1.425   4.498  1.1222  0.8622 -0.1322
 1101TIP3   OH2 3308   4.351   2.245   2.209  0.4209 -0.2977  0.2317
 1101TIP3    H1 3309   4.378   2.291   2.289 -1.1840  1.7848 -0.3262
 1101TIP3    H2 3310   4.426   2.249   2.151  1.2683 -0.9578  1.2524
 1102TIP3   OH2 3311   4.084   4.343   1.472 -0.0197  0.3539  0.8664
 1102TIP3    H1 3312   3.997   4.383   1.468 -0.0212  0.2531 -1.4806
 1102TIP3    H2 3313   4.068   4.255   1.505 -1.0230 -0.0609 -0.6201
 1103TIP3   OH2 3314   2.073   0.697   3.666  0.0079  0.1144  0.4348
 1103TIP3    H1 3315   2.065   0.608   3.698  1.1061 -0.0055  0.4227
 1103TIP3    H2 3316   2.111   0.746   3.739 -2.1723  0.9840  1.0521
 1104TIP3   OH2 3317   3.069   3.719   0.475 -0.1400  0.1205  0.0872
 1104TIP3    H1 3318   3.012   3.723   0.552 -1.0527 -0.8321 -0.5209
 1104TIP3    H2 3319   3.105   3.631   0.476  0.0790  0.1989 -0.4283
 1105TIP3   OH2 3320   0.109   4.739   2.668 -0.0638  0.7976  0.5131
 1105TIP3    H1 3321   0.051   4.807   2.702 -2.3988 -0.6456 -0.2988
 1105TIP3    H2 3322   0.143   4.696   2.747 -0.6156  1.2730  1.0238
 1106TIP3   OH2 3323   5.619   5.877   0.015  0.0758 -0.3614 -0.2034
 1106TIP3    H1 3324   5.583   5.963  -0.003  2.5208  1.1896  1.6722
 1106TIP3    H2 3325   5.658   5.885   0.102  1.0573 -3.1460 -0.2851
 1107TIP3   OH2 3326   2.475   0.738   2.221 -0.6934 -0.3790 -0.1580
 1107TIP3    H1 3327   2.402   0.677   2.213 -1.7077  0.9231 -1.1503
 1107TIP3    H2 3328   2.532   0.698   2.287 -2.7020 -1.0128  1.2902
 1108TIP3   OH2 3329   1.204   4.663   0.077 -1.0385 -0.0771  0.4040
 1108TIP3    H1 3330   1.186   4.594   0.139  0.7945 -1.2629 -0.3036
 1108TIP3    H2 3331   1.119   4.682   0.036 -2.2009  0.4656  2.8983
 1109TIP3   OH2 3332   6.254   1.003   4.112 -0.9434 -0.1064 -0.0060
 1109TIP3    H1 3333   6.209   0.929   4.070 -0.3112 -0.4920 -0.0068
 1109TIP3    H2 3334   6.192   1.075   4.105 -1.6771 -0.6977  0.2127
 1110TIP3   OH2 3335   1.908   5.076   1.309  0.3363 -0.2277 -0.1517
 1110TIP3    H1 3336   1.994   5.092   1.270  0.3185 -1.0399 -0.5471
 1110TIP3    H2 3337   1.902   5.138   1.382  0.6892  0.7610 -0.9595
 1111TIP3   OH2 3338   0.077   0.260   4.053 -0.2672  0.2544  0.5376
 1111TIP3    H1 3339   0.069   0.347   4.092  0.9735  0.6347 -0.0116
 1111TIP3    H2 3340   0.011   0.207   4.098 -2.5181  1.9693 -0.5606
 1112TIP3   OH2 3341   6.077   4.129  -0.018  0.1468 -0.1383  0.3171
 1112TIP3    H1 3342   6.093   4.173   0.066  0.7069 -1.0966  0.7384
 1112TIP3    H2 3343   6.137   4.054  -0.017 -0.0185 -0.3054 -0.8385
 1113TIP3   OH2 3344   1.150   5.654   0.907  0.1161 -0.3417 -0.1889
 1113TIP3    H1 3345   1.180   5.717   0.972  0.0649 -1.7730  1.2745
 1113TIP3    H2 3346   1.206   5.578   0.920  0.5889 -0.4268 -2.3290
 1114TIP3   OH2 3347   1.164   3.036   3.952 -0.1060 -0.3089  0.1429
 1114TIP3    H1 3348   1.104   2.989   3.895  0.1147 -0.0484 -0.3098
 1114TIP3    H2 3349   1.109   3.096   4.001 -0.5294 -1.6764  1.4206
 1115TIP3   OH2 3350   1.498   5.360   3.927 -0.0505  0.2231  0.2795
 1115TIP3    H1 3351   1.490   5.313   4.010 -0.0807  0.9353  0.6948
 1115TIP3    H2 3352   1.466   5.448   3.947  0.1063  0.4488 -0.4471
 1116TIP3   OH2 3353   3.086   2.396   3.172  0.2127 -0.0330 -0.1950
 1116TIP3    H1 3354   3.171   2.431   3.197 -0.4105  2.6911 -1.5298
 1116TIP3    H2 3355   3.087   2.397   3.076 -0.7396 -1.5472 -0.2504
 1117TIP3   OH2 3356   4.370   1.593   0.547  0.2598  0.1582 -0.5959
 1117TIP3    H1 3357   4.387   1.654   0.619  0.4385 -0.1465 -0.3737
 1117TIP3    H2 3358   4.446   1.604   0.489  0.0527  0.4965 -0.8030
 1118TIP3   OH2 3359   1.408   5.383   1.818 -0.4263  0.6949 -0.0945
 1118TIP3    H1 3360   1.352   5.458   1.794  0.8008  1.0665 -2.0380
 1118TIP3    H2 3361   1.375   5.311   1.764 -0.1661  0.4436  0.0810
 1119TIP3   OH2 3362  -0.008   4.832   1.689  0.0316  0.0181 -0.4902
 1119TIP3    H1 3363   0.039   4.767   1.742 -0.7636  0.2296  0.5097
 1119TIP3    H2 3364   0.033   4.915   1.713 -1.7435  0.3991  1.5192
 1120TIP3   OH2 3365   3.055   3.418   1.960 -0.4724 -0.4557  0.1074
 1120TIP3    H1 3366   3.120   3.486   1.978  0.2315 -1.5606  2.0950
 1120TIP3    H2 3367   2.990   3.461   1.903  0.7878  1.3524 -0.0582
 1121TIP3   OH2 3368   5.350   2.296   0.284 -0.3026 -0.6035  0.1952
 1121TIP3    H1 3369   5.308   2.381   0.298  0.3043  0.0983 -1.9594
 1121TIP3    H2 3370   5.434   2.303   0.331  0.4790  0.6470 -1.3071
 1122TIP3   OH2 3371   4.309   0.636   2.309 -0.6068  0.7283 -0.0319
 1122TIP3    H1 3372   4.285   0.723   2.278  0.7423  0.4141 -2.1092
 1122TIP3    H2 3373   4.320   0.584   2.230  0.1919 -0.9180  1.0988
 1123TIP3   OH2 3374   1.629   0.790   4.848  0.2003 -0.0633 -0.0845
 1123TIP3    H1 3375   1.663   0.858   4.905  1.3403  0.5595 -1.4547
 1123TIP3    H2 3376   1.689   0.716   4.860  1.7594  0.8162 -2.0280
 1124TIP3   OH2 3377   4.171   1.189   1.951  0.2733 -0.2321 -0.0315
 1124TIP3    H1 3378   4.178   1.285   1.948  0.1335 -0.0777  2.5177
 1124TIP3    H2 3379   4.151   1.164   1.861  0.6846  2.0921 -0.8459
 1125TIP3   OH2 3380   0.475   0.957   0.726 -0.7763  0.2035 -0.4385
 1125TIP3    H1 3381   0.510   0.874   0.756 -2.6481 -0.1443  0.9153
 1125TIP3    H2 3382   0.507   1.022   0.789  0.9559  0.6287 -1.6766
 1126TIP3   OH2 3383   0.995   1.203   5.211  0.5708 -0.3680 -0.2563
 1126TIP3    H1 3384   0.905   1.234   5.209  1.0611  1.1144 -1.1889
 1126TIP3    H2 3385   1.024   1.207   5.120  1.9534  0.3771  0.1918
 1127TIP3   OH2 3386   3.282   4.360   2.520 -0.4647 -0.2857 -0.4138
 1127TIP3    H1 3387   3.296   4.445   2.561 -0.8380  0.0832 -1.0324
 1127TIP3    H2 3388   3.344   4.359   2.447 -0.3217 -0.6256 -0.2867
 1128TIP3   OH2 3389   0.336   0.254   2.213  0.2971 -0.2269 -0.2682
 1128TIP3    H1 3390   0.347   0.290   2.301 -1.3222 -1.2072  0.3867
 1128TIP3    H2 3391   0.408   0.292   2.163  0.6645  1.1688  1.2074
 1129TIP3   OH2 3392   0.182   1.742   0.786  0.0246 -0.1150 -0.2868
 1129TIP3    H1 3393   0.277   1.731   0.775 -0.3077 -0.7685 -3.2915
 1129TIP3    H2 3394   0.144   1.698   0.710 -2.9152 -2.9544  2.5283
 1130TIP3   OH2 3395   5.280   2.415   4.439  0.0933  0.2961 -0.2264
 1130TIP3    H1 3396   5.286   2.488   4.378 -0.3270  0.6939  0.1997
 1130TIP3    H2 3397   5.304   2.453   4.524 -0.6352  0.0662  0.0895
 1131TIP3   OH2 3398   4.722   3.557   4.123 -0.1996  0.0790  0.9099
 1131TIP3    H1 3399   4.695   3.514   4.042 -0.1706  0.3744  0.7462
 1131TIP3    H2 3400   4.672   3.639   4.125  0.8882  0.7648  0.4652
 1132TIP3   OH2 3401   2.702   0.189   1.153 -0.0683 -0.0501 -0.0901
 1132TIP3    H1 3402   2.644   0.258   1.122 -0.2980 -0.3965 -0.4271
 1132TIP3    H2 3403   2.670   0.109   1.112  1.0586 -0.1410 -0.8307
 1133TIP3   OH2 3404   1.351   0.425   3.889  0.1818  0.2393  0.4524
 1133TIP3    H1 3405   1.311   0.413   3.975 -0.2408  1.0787  0.3794
 1133TIP3    H2 3406   1.339   0.517   3.869 -1.1887 -0.2649 -1.2426
 1134TIP3   OH2 3407   4.321   5.842   4.969  0.6227  0.3446  0.6521
 1134TIP3    H1 3408   4.232   5.863   4.996 -0.0434 -0.5305 -0.7320
 1134TIP3    H2 3409   4.377   5.886   5.033 -0.7276  3.1789  0.0381
 1135TIP3   OH2 3410   3.559   0.717   4.371 -0.5700  0.2409 -0.3613
 1135TIP3    H1 3411   3.595   0.628   4.372  0.7607  0.7529  0.3121
 1135TIP3    H2 3412   3.476   0.709   4.326  0.4265 -1.0029 -2.1024
 1136TIP3   OH2 3413   4.956   2.579   2.617 -0.0840  0.7413 -0.0079
 1136TIP3    H1 3414   5.051   2.587   2.603 -0.1099  0.1930 -0.5868
 1136TIP3    H2 3415   4.948   2.524   2.695  0.0738  0.9645  0.1672
 1137TIP3   OH2 3416   2.729   3.995   1.521 -0.5845 -0.3524  0.2980
 1137TIP3    H1 3417   2.711   3.902   1.529  1.0713 -0.8500 -1.1912
 1137TIP3    H2 3418   2.815   4.006   1.562 -0.8870  0.5955  0.7103
 1138TIP3   OH2 3419   0.079   3.734   2.098  0.3104  0.2229 -0.4036
 1138TIP3    H1 3420   0.091   3.677   2.173 -1.3755 -3.2009 -2.4629
 1138TIP3    H2 3421   0.001   3.786   2.119  0.4448  0.0304  0.5807
 1139TIP3   OH2 3422   2.770   2.322   0.382  0.5716  0.1723  0.6262
 1139TIP3    H1 3423   2.697   2.369   0.342  0.6079 -0.1639  0.1575
 1139TIP3    H2 3424   2.834   2.391   0.402  0.9560  0.2623 -0.7688
 1140TIP3   OH2 3425   0.223   1.464   4.285  0.2251  0.3403  0.7442
 1140TIP3    H1 3426   0.211   1.510   4.202 -2.1428  1.9695  1.8761
 1140TIP3    H2 3427   0.174   1.382   4.273  0.1398  0.4343  0.4233
 1141TIP3   OH2 3428   3.280   0.270   2.760 -0.3800  0.3464  0.0097
 1141TIP3    H1 3429   3.188   0.245   2.766 -0.2808  0.3329  2.3530
 1141TIP3    H2 3430   3.285   0.355   2.804  0.7929  0.1280  0.3235
 1142TIP3   OH2 3431   0.508   1.600   1.785  0.2792 -0.2570  0.1917
 1142TIP3    H1 3432   0.545   1.515   1.810 -0.2276 -0.3808  0.5407
 1142TIP3    H2 3433   0.490   1.644   1.868 -1.1581 -0.5629  0.0677
 1143TIP3   OH2 3434   1.535   1.335   2.453  0.1704 -0.0447 -0.3120
 1143TIP3    H1 3435   1.622   1.297   2.454 -0.0334 -0.6206 -1.6349
 1143TIP3    H2 3436   1.477   1.262   2.429 -0.4334  0.7193 -1.2779
 1144TIP3   OH2 3437   3.353   3.509   2.438  0.2246 -0.0454 -0.0679
 1144TIP3    H1 3438   3.431   3.477   2.393  0.0359  2.5983 -2.5563
 1144TIP3    H2 3439   3.280   3.470   2.391 -0.0031 -0.5850  0.7053
 1145TIP3   OH2 3440   4.754   0.589   0.540  0.1843  0.1485  0.2702
 1145TIP3    H1 3441   4.757   0.534   0.619  0.5941 -0.9293 -0.4730
 1145TIP3    H2 3442   4.825   0.652   0.552 -0.0954  0.3421  0.9999
 1146TIP3   OH2 3443   4.055   0.471   3.459  0.0373  0.3857  0.0471
 1146TIP3    H1 3444   4.018   0.390   3.425 -1.7432  0.9252  0.6336
 1146TIP3    H2 3445   4.007   0.541   3.414  0.3715  1.1104  0.7880
 1147TIP3   OH2 3446   4.955   3.632   2.170 -0.1644  0.4696 -0.1536
 1147TIP3    H1 3447   4.980   3.540   2.171 -0.4555  0.3921  0.7920
 1147TIP3    H2 3448   5.033   3.678   2.141 -0.3752 -0.1676 -1.8298
 1148TIP3   OH2 3449   1.537   1.400   3.139 -0.1401  0.1889  0.1590
 1148TIP3    H1 3450   1.470   1.464   3.161  0.7291  1.3840 -0.5528
 1148TIP3    H2 3451   1.499   1.349   3.067 -1.1203 -0.6068  1.2083
 1149TIP3   OH2 3452   4.168   4.753   3.099 -0.3987  0.0239 -0.0062
 1149TIP3    H1 3453   4.104   4.717   3.160 -0.4882 -1.4757 -0.9258
 1149TIP3    H2 3454   4.158   4.700   3.020  2.6711 -0.9753  0.1363
 1150TIP3   OH2 3455   3.763   4.866   0.287 -0.3435  0.2484 -0.1223
 1150TIP3    H1 3456   3.854   4.837   0.279 -0.2851 -0.0919  1.4261
 1150TIP3    H2 3457   3.755   4.894   0.378 -2.0995 -0.8369  0.1032
 1151TIP3   OH2 3458   1.568   1.414   1.000  0.4498 -0.3520  0.1615
 1151TIP3    H1 3459   1.594   1.333   0.957  1.3027  0.2113 -0.4293
 1151TIP3    H2 3460   1.643   1.438   1.054 -0.0726 -0.3207  0.8891
 1152TIP3   OH2 3461  -0.005   3.232   2.888  0.8065  0.2060 -0.0634
 1152TIP3    H1 3462  -0.010   3.203   2.979  0.4494  0.7340  0.0921
 1152TIP3    H2 3463   0.087   3.253   2.873  0.6023  1.8127  0.7254
 1153TIP3   OH2 3464   3.672   0.208   5.019 -0.1311  0.2765  0.1191
 1153TIP3    H1 3465   3.671   0.116   4.993  1.2105  0.5913 -1.2180
 1153TIP3    H2 3466   3.718   0.209   5.102  0.2864 -0.2178 -0.0981
 1154TIP3   OH2 3467   2.553   5.032   2.022  0.0566  0.3429 -0.3747
 1154TIP3    H1 3468   2.594   5.110   1.985  2.1713 -0.0161  1.0374
 1154TIP3    H2 3469   2.514   5.063   2.104  2.5419 -0.3433  1.1590
 1155TIP3   OH2 3470   2.439   4.452   4.596 -0.1238 -0.4665  0.3310
 1155TIP3    H1 3471   2.502   4.520   4.622  0.1414 -0.5562 -0.0705
 1155TIP3    H2 3472   2.408   4.416   4.679 -0.9633  0.7648  0.5797
 1156TIP3   OH2 3473   5.222   3.350   2.174  0.1295 -0.4608  0.5256
 1156TIP3    H1 3474   5.152   3.310   2.121 -0.2470  0.4502  0.3282
 1156TIP3    H2 3475   5.248   3.428   2.124  0.9727 -0.5357  0.8304
 1157TIP3   OH2 3476   3.470   0.480   3.547 -0.2926  0.7132 -0.0708
 1157TIP3    H1 3477   3.393   0.430   3.519  1.2129  0.2903 -4.0348
 1157TIP3    H2 3478   3.455   0.568   3.513 -0.4118  1.5466  2.0113
 1158TIP3   OH2 3479   1.353   5.976   0.971  0.0904  0.1247  0.2515
 1158TIP3    H1 3480   1.440   5.948   0.941 -1.0966 -0.8120 -2.6801
 1158TIP3    H2 3481   1.328   5.909   1.035  0.5947 -0.9852 -0.6621
 1159TIP3   OH2 3482   2.273   3.152   1.995  0.6511  0.0106 -0.4052
 1159TIP3    H1 3483   2.212   3.121   1.927  1.1411  0.0258 -0.8544
 1159TIP3    H2 3484   2.285   3.077   2.052 -1.4147  0.5869  0.9069
 1160TIP3   OH2 3485   5.752   0.343   2.778  0.2499 -0.4000  0.1072
 1160TIP3    H1 3486   5.846   0.325   2.778  0.0058 -1.8763 -0.8218
 1160TIP3    H2 3487   5.737   0.393   2.859  1.6103 -1.4190  1.0462
 1161TIP3   OH2 3488   3.120   4.552   0.620 -0.2190  0.6596  0.7854
 1161TIP3    H1 3489   3.083   4.634   0.587 -1.2776 -0.6023 -1.3950
 1161TIP3    H2 3490   3.045   4.507   0.659 -0.6830 -0.9768 -1.7302
 1162TIP3   OH2 3491   1.515   4.665   0.231 -0.1277  0.3730  0.0160
 1162TIP3    H1 3492   1.536   4.617   0.151  1.3647 -0.3825  0.8120
 1162TIP3    H2 3493   1.468   4.601   0.285 -0.1075  0.5026  0.1878
 1163TIP3   OH2 3494   0.085   5.308   0.133  0.2318  0.0952  0.6321
 1163TIP3    H1 3495   0.057   5.225   0.171 -0.5778  0.0634 -0.0000
 1163TIP3    H2 3496   0.004   5.348   0.101  0.5223  1.4140  1.4791
 1164TIP3   OH2 3497   4.017   5.610   3.317  0.2027 -0.0235  0.5217
 1164TIP3    H1 3498   3.958   5.684   3.331  0.9251  0.3541  1.7819
 1164TIP3    H2 3499   4.002   5.552   3.392 -0.5028 -1.2968 -0.5548
 1165TIP3   OH2 3500   2.366   5.528   3.778 -0.2624 -0.2735 -0.1788
 1165TIP3    H1 3501   2.367   5.547   3.684 -0.7177  0.1887 -0.0968
 1165TIP3    H2 3502   2.451   5.558   3.810 -1.3160  2.7537  0.1397
 1166TIP3   OH2 3503   0.489   0.946   2.466  0.0200  0.0905 -0.4343
 1166TIP3    H1 3504   0.494   0.976   2.556  3.2395  0.4291 -0.5831
 1166TIP3    H2 3505   0.525   0.857   2.469 -1.2532 -0.4794 -1.2169
 1167TIP3   OH2 3506   4.274   2.611   0.477  0.1686 -0.1304 -0.6705
 1167TIP3    H1 3507   4.249   2.593   0.568 -0.0309  0.5660 -0.5822
 1167TIP3    H2 3508   4.365   2.640   0.481 -0.2319  1.1800 -0.5250
 1168TIP3   OH2 3509   0.504   4.729   4.302  0.2029  0.5062  0.5332
 1168TIP3    H1 3510   0.529   4.799   4.242 -2.1577  2.3901  1.5645
 1168TIP3    H2 3511   0.576   4.725   4.365  1.9434 -0.3893 -1.3879
 1169TIP3   OH2 3512   0.031   5.565   5.099  0.2307  0.1473  0.2231
 1169TIP3    H1 3513  -0.028   5.535   5.168 -0.4465 -1.5406 -0.9978
 1169TIP3    H2 3514   0.005   5.514   5.022  2.4345  0.2915 -0.6976
 1170TIP3   OH2 3515   5.821   0.569   1.491  0.0637  0.2975 -0.2593
 1170TIP3    H1 3516   5.870   0.512   1.550 -2.8405 -2.2848 -0.0819
 1170TIP3    H2 3517   5.855   0.549   1.404 -0.3621 -1.2476 -0.1131
 1171TIP3   OH2 3518   4.950   2.322   0.314 -0.0881 -0.1511  0.2378
 1171TIP3    H1 3519   4.914   2.323   0.225  0.4114 -0.4094  0.0232
 1171TIP3    H2 3520   5.028   2.377   0.309  0.1076 -0.4037  0.4363
 1172TIP3   OH2 3521   1.218   3.484   4.112  0.4380 -0.3151 -0.2782
 1172TIP3    H1 3522   1.220   3.441   4.198  0.2061 -0.1343 -0.1809
 1172TIP3    H2 3523   1.277   3.559   4.122  0.5126 -0.3694 -0.3157
 1173TIP3   OH2 3524   2.773   2.089   3.438  0.0604 -0.6009 -0.0028
 1173TIP3    H1 3525   2.812   2.003   3.422  3.1995  0.3047  1.6911
 1173TIP3    H2 3526   2.828   2.150   3.387 -0.2712  0.6144  1.0244
 1174TIP3   OH2 3527   0.083   1.369   2.426 -0.3831  0.3956  0.4536
 1174TIP3    H1 3528   0.079   1.276   2.405  1.1861  0.4805 -0.3739
 1174TIP3    H2 3529   0.028   1.379   2.503  0.3869 -1.4425  1.2897
 1175TIP3   OH2 3530   3.786   0.121   1.753 -0.0669 -0.2727  0.0775
 1175TIP3    H1 3531   3.805   0.156   1.840 -0.5426 -0.9545  0.4616
 1175TIP3    H2 3532   3.739   0.039   1.769  0.8715 -1.0088 -0.8026
 1176TIP3   OH2 3533   4.587   3.401   2.478 -0.3244 -0.6926  0.0834
 1176TIP3    H1 3534   4.663   3.352   2.510 -1.0005 -1.1646  1.0149
 1176TIP3    H2 3535   4.521   3.391   2.547 -0.7356  0.9315 -0.0286
 1177TIP3   OH2 3536   1.832   0.256   1.318 -0.5087  0.0186 -0.7477
 1177TIP3    H1 3537   1.774   0.269   1.392 -0.7542  1.8642 -1.2172
 1177TIP3    H2 3538   1.835   0.161   1.306 -2.3235 -0.1860  0.1439
 1178TIP3   OH2 3539   4.934   2.653   0.655 -0.4669  1.0994 -0.8426
 1178TIP3    H1 3540   4.851   2.688   0.686 -0.1358  2.0117 -0.9557
 1178TIP3    H2 3541   4.926   2.558   0.665 -1.8991  1.0955 -1.7899
 1179TIP3   OH2 3542   3.558   0.856   3.179  0.3183  1.0455 -0.0908
 1179TIP3    H1 3543   3.652   0.856   3.200  0.2973  0.3594  0.0240
 1179TIP3    H2 3544   3.541   0.945   3.148  1.1570  0.9798 -0.7912
 1180TIP3   OH2 3545   0.781   0.276   2.066 -0.0684 -0.0626  0.1170
 1180TIP3    H1 3546   0.761   0.182   2.077 -1.3236  0.0392 -0.9804
 1180TIP3    H2 3547   0.864   0.277   2.019 -0.5514 -0.6720 -0.7944
 1181TIP3   OH2 3548   3.061   5.447   2.009 -0.1982  0.1407  0.7006
 1181TIP3    H1 3549   3.155   5.451   1.993  0.0753 -2.0056  1.5204
 1181TIP3    H2 3550   3.028   5.385   1.945 -0.9293  0.2417  0.9688
 1182TIP3   OH2 3551   2.015   0.350   4.297  0.2717 -0.2763 -0.5906
 1182TIP3    H1 3552   1.979   0.265   4.270  2.2308 -1.3573  0.0090
 1182TIP3    H2 3553   2.088   0.365   4.237  0.7180  0.3758  0.0996
 1183TIP3   OH2 3554   4.936   5.315   1.989 -0.2763  0.2581  0.2552
 1183TIP3    H1 3555   4.936   5.389   1.927 -1.6177  1.4511  1.5960
 1183TIP3    H2 3556   4.847   5.280   1.983  0.1372 -0.7932  0.1777
 1184TIP3   OH2 3557   4.242   4.093   2.693 -0.2004 -0.7712 -0.0642
 1184TIP3    H1 3558   4.191   4.131   2.622 -1.1352 -0.6923  0.6259
 1184TIP3    H2 3559   4.331   4.083   2.658 -0.1144  1.2997 -0.5215
 1185TIP3   OH2 3560   3.395   3.530   2.710 -0.3203  0.1789 -0.2521
 1185TIP3    H1 3561   3.397   3.442   2.747  0.6421  0.9000  1.5284
 1185TIP3    H2 3562   3.369   3.517   2.619  2.6300 -2.2369 -0.9119
 1186TIP3   OH2 3563   2.669   2.114   1.037 -0.1970  0.8512  0.2808
 1186TIP3    H1 3564   2.575   2.124   1.022 -0.4352 -0.4287  0.8203
 1186TIP3    H2 3565   2.680   2.132   1.131  0.4421  3.1109 -0.1568
 1187TIP3   OH2 3566   3.919   5.760   1.458  0.2726 -0.2522  0.2074
 1187TIP3    H1 3567   3.991   5.821   1.440  0.1092 -0.3835 -0.9884
 1187TIP3    H2 3568   3.903   5.769   1.552 -0.3832  2.2908 -0.0587
 1188TIP3   OH2 3569   6.171   4.580   0.439  0.2630  0.2084  0.4273
 1188TIP3    H1 3570   6.244   4.607   0.494  0.3963  1.2221 -0.2170
 1188TIP3    H2 3571   6.140   4.661   0.398 -1.4422 -0.1260  0.9429
 1189TIP3   OH2 3572   0.272   0.843   2.028 -0.1001  0.2476  0.3629
 1189TIP3    H1 3573   0.303   0.885   2.108 -2.1694 -1.5048  2.2449
 1189TIP3    H2 3574   0.179   0.825   2.045 -0.5810 -0.3818 -2.3842
 1190TIP3   OH2 3575   5.233   1.346   3.669  0.2117 -0.0153  0.1658
 1190TIP3    H1 3576   5.174   1.359   3.594 -0.3526 -0.3289  0.5489
 1190TIP3    H2 3577   5.318   1.379   3.639  0.0314 -0.2931 -0.6736
 1191TIP3   OH2 3578   6.168   1.911   1.921 -0.0796 -0.8941  0.0101
 1191TIP3    H1 3579   6.246   1.965   1.907 -1.1306  0.0883 -2.5237
 1191TIP3    H2 3580   6.094   1.970   1.908 -1.2722 -2.5303 -1.0630
 1192TIP3   OH2 3581   4.108   2.125   2.883 -0.0991  0.2257  0.4964
 1192TIP3    H1 3582   4.106   2.167   2.797  0.7524  1.1427  0.9014
 1192TIP3    H2 3583   4.136   2.035   2.865 -3.2173 -0.6679 -0.5418
 1193TIP3   OH2 3584   2.362   0.251   5.205  0.2812  0.5160  0.4497
 1193TIP3    H1 3585   2.298   0.280   5.139 -1.3895 -0.2240  1.6863
 1193TIP3    H2 3586   2.426   0.201   5.155 -1.5478 -0.9925 -0.5332
 1194TIP3   OH2 3587   1.607   4.507   2.222 -0.1033 -0.4251 -0.0794
 1194TIP3    H1 3588   1.567   4.571   2.163  0.3651  1.0626  1.1495
 1194TIP3    H2 3589   1.691   4.486   2.182 -0.7423 -1.1867 -1.0746
 1195TIP3   OH2 3590   0.268   5.927   4.483 -0.1201 -0.1122 -0.2003
 1195TIP3    H1 3591   0.188   5.965   4.519 -0.4145 -1.7632  1.0051
 1195TIP3    H2 3592   0.339   5.972   4.528 -0.3837  0.7502 -0.6354
 1196TIP3   OH2 3593   3.773   1.036   0.788  0.2526 -0.0336 -0.3305
 1196TIP3    H1 3594   3.717   1.081   0.852  2.1947 -0.7523  2.0465
 1196TIP3    H2 3595   3.803   1.105   0.729 -0.0229  1.0682  0.7809
 1197TIP3   OH2 3596   1.114   3.555   0.588  0.2783 -0.4105 -0.8607
 1197TIP3    H1 3597   1.202   3.541   0.554  0.1170  0.9853 -1.9141
 1197TIP3    H2 3598   1.128   3.607   0.668  0.4176 -0.4080 -0.8857
 1198TIP3   OH2 3599   5.110   0.074   3.780  0.0011  0.0992  0.0146
 1198TIP3    H1 3600   5.126   0.008   3.712  2.0464  0.4108  0.1223
 1198TIP3    H2 3601   5.035   0.041   3.829 -0.6874 -0.7967 -1.5722
 1199TIP3   OH2 3602   4.921   0.564   3.703 -0.4729  0.1222  0.1282
 1199TIP3    H1 3603   4.971   0.491   3.666  0.7335  0.0455  1.7814
 1199TIP3    H2 3604   4.911   0.625   3.631  2.2087  0.1977 -0.2963
 1200TIP3   OH2 3605   4.800   1.049   3.232 -0.5691 -0.2540  0.3839
 1200TIP3    H1 3606   4.767   0.962   3.251 -0.9160 -0.1119  0.4347
 1200TIP3    H2 3607   4.878   1.058   3.287 -0.2302 -0.7292 -0.0186
 1201TIP3   OH2 3608   5.803   3.669   4.110 -0.3413 -0.5878  0.1508
 1201TIP3    H1 3609   5.734   3.692   4.048  0.6368  0.5278 -0.5586
 1201TIP3    H2 3610   5.871   3.629   4.056  0.1855 -0.3383  0.6217
 1202TIP3   OH2 3611   4.177   2.936   1.606  0.3735  0.3355  0.4047
 1202TIP3    H1 3612   4.088   2.913   1.634 -0.0315 -0.5208 -1.4419
 1202TIP3    H2 3613   4.222   2.960   1.687 -1.8517  1.9904  1.2818
 1203TIP3   OH2 3614   5.796   0.732   2.558 -0.1357  0.3334 -0.2962
 1203TIP3    H1 3615   5.735   0.805   2.566  1.2979  1.5767 -0.2092
 1203TIP3    H2 3616   5.883   0.772   2.567  0.6804 -1.5726  1.2037
 1204TIP3   OH2 3617   3.688   2.500   4.932  0.1680 -0.1270 -0.2074
 1204TIP3    H1 3618   3.689   2.433   5.001  1.8393 -0.4427 -0.4800
 1204TIP3    H2 3619   3.781   2.516   4.914 -0.1547 -1.1457 -3.4169
 1205TIP3   OH2 3620   6.179   1.716   2.846 -0.1347 -0.1178 -0.1751
 1205TIP3    H1 3621   6.089   1.696   2.819 -0.5740  3.0469 -1.4969
 1205TIP3    H2 3622   6.168   1.783   2.914  1.1871  1.5348 -1.5183
 1206TIP3   OH2 3623   2.257   4.223   0.717 -1.3918 -0.2172 -0.4987
 1206TIP3    H1 3624   2.210   4.201   0.797  0.7864  0.0513  0.9478
 1206TIP3    H2 3625   2.235   4.314   0.701 -0.0432  0.4606  1.2006
 1207TIP3   OH2 3626   5.487   1.195   5.188 -0.5031  0.2965 -0.4760
 1207TIP3    H1 3627   5.482   1.286   5.158  1.0849  0.5849  0.0206
 1207TIP3    H2 3628   5.549   1.153   5.129  0.1680  0.0390  0.3773
 1208TIP3   OH2 3629   3.349   3.097   1.775 -0.1072  0.3981 -0.0542
 1208TIP3    H1 3630   3.357   3.060   1.862  0.2410  0.6781  0.0314
 1208TIP3    H2 3631   3.389   3.184   1.781  0.7380  0.0742 -0.7107
 1209TIP3   OH2 3632   0.372   2.453   0.395 -0.7682  0.1567  0.8142
 1209TIP3    H1 3633   0.459   2.445   0.434  0.4301 -0.9064 -1.8156
 1209TIP3    H2 3634   0.339   2.363   0.389 -1.2931  0.3745  0.2668
 1210TIP3   OH2 3635   2.259   2.640   5.055 -0.1241  0.4480 -0.3093
 1210TIP3    H1 3636   2.219   2.556   5.034  0.4877 -0.3449  1.4407
 1210TIP3    H2 3637   2.203   2.677   5.123  0.8798  0.3031  0.6413
 1211TIP3   OH2 3638   4.395   2.534   0.971  0.0022  0.3820 -0.1986
 1211TIP3    H1 3639   4.320   2.474   0.977  1.4758 -1.8341 -2.1366
 1211TIP3    H2 3640   4.442   2.521   1.053  1.1940 -2.6001 -1.1943
 1212TIP3   OH2 3641   3.605   2.264   2.541  0.0020  0.1639 -0.5262
 1212TIP3    H1 3642   3.515   2.282   2.517 -0.9344 -2.2600  0.8447
 1212TIP3    H2 3643   3.626   2.182   2.496  1.0387 -0.0166  0.2468
 1213TIP3   OH2 3644   4.228   4.954   2.084 -0.0165  0.0374 -1.0129
 1213TIP3    H1 3645   4.138   4.931   2.059 -0.0272 -1.2224  0.1013
 1213TIP3    H2 3646   4.217   5.005   2.164  0.2605 -0.1753 -0.8399
 1214TIP3   OH2 3647   3.523   1.221   2.807  0.0473 -0.0329  0.4327
 1214TIP3    H1 3648   3.604   1.187   2.768  0.1183 -0.5400  1.0220
 1214TIP3    H2 3649   3.459   1.216   2.736  0.7509  1.2994 -0.3497
 1215TIP3   OH2 3650   1.569   4.839   3.817 -0.0312 -0.5527  0.1566
 1215TIP3    H1 3651   1.563   4.819   3.724 -0.2051  2.8436 -0.6897
 1215TIP3    H2 3652   1.662   4.855   3.833 -0.3590  2.2114 -0.3331
 1216TIP3   OH2 3653   6.154   1.672   4.795 -0.1283  0.0697 -0.1513
 1216TIP3    H1 3654   6.152   1.659   4.700 -0.0152 -1.1158 -0.0003
 1216TIP3    H2 3655   6.230   1.623   4.825  0.2553  1.0209  0.4837
 1217TIP3   OH2 3656   0.272   5.429   4.834 -0.1499  0.2909 -0.2873
 1217TIP3    H1 3657   0.344   5.454   4.775  1.3863 -1.9734  0.4897
 1217TIP3    H2 3658   0.286   5.483   4.912  0.2321  0.4633 -0.4705
 1218TIP3   OH2 3659   0.861   3.176   1.689 -0.3884 -0.1506  0.0859
 1218TIP3    H1 3660   0.846   3.122   1.767  2.5768 -1.6224 -0.2257
 1218TIP3    H2 3661   0.892   3.260   1.724 -1.0808 -0.0646  0.5093
 1219TIP3   OH2 3662   6.074   4.996   3.964  0.3509 -0.4408  0.0909
 1219TIP3    H1 3663   6.059   4.938   4.039  0.8583 -0.8286 -0.1019
 1219TIP3    H2 3664   6.123   4.942   3.901 -0.6079 -0.3176 -0.7820
 1220TIP3   OH2 3665   4.441   1.478   4.571  0.2779  0.5704 -0.3961
 1220TIP3    H1 3666   4.527   1.463   4.532  0.6245 -0.5136  0.7202
 1220TIP3    H2 3667   4.460   1.526   4.652  0.1556 -1.8512  1.1816
 1221TIP3   OH2 3668   0.374   3.749   3.551  0.1608 -0.3445  0.1022
 1221TIP3    H1 3669   0.386   3.751   3.646  0.5372 -0.0882  0.0535
 1221TIP3    H2 3670   0.404   3.835   3.521 -2.3082  0.5633  0.0132
 1222TIP3   OH2 3671   4.675   2.090   0.136 -0.0034  0.0772  0.3296
 1222TIP3    H1 3672   4.703   2.180   0.117 -2.7063  0.8921 -0.1944
 1222TIP3    H2 3673   4.689   2.043   0.053 -0.0056  0.3969  0.1473
 1223TIP3   OH2 3674   1.067   4.135   1.018  0.0176  0.1172  0.2473
 1223TIP3    H1 3675   1.085   4.228   1.004  1.7611 -0.0441  1.0982
 1223TIP3    H2 3676   0.975   4.124   0.994  0.3937  1.5573 -2.2039
 1224TIP3   OH2 3677   3.446   3.668   4.946 -0.2260 -0.0630  0.3904
 1224TIP3    H1 3678   3.512   3.656   4.877  0.4362  2.1507  0.5441
 1224TIP3    H2 3679   3.365   3.636   4.908  0.4912 -0.6500 -0.7059
 1225TIP3   OH2 3680   3.238   0.135   1.089  0.2066 -0.1729  0.1101
 1225TIP3    H1 3681   3.283   0.063   1.044  0.8153  0.5904 -0.5228
 1225TIP3    H2 3682   3.166   0.158   1.030  0.1592 -0.1001  0.1966
 1226TIP3   OH2 3683   4.756   4.334   2.328 -0.4546  0.0480 -0.2083
 1226TIP3    H1 3684   4.749   4.314   2.235 -1.2355  2.1847 -0.6625
 1226TIP3    H2 3685   4.717   4.421   2.337  0.6151  0.3726  1.9380
 1227TIP3   OH2 3686   5.484   0.268   4.385 -0.1490  0.5546 -0.3283
 1227TIP3    H1 3687   5.484   0.211   4.462 -0.2116  0.7001 -0.2204
 1227TIP3    H2 3688   5.431   0.343   4.412 -0.2549  0.5583 -0.5473
 1228TIP3   OH2 3689   1.253   2.354   3.402 -0.4582  0.3587 -0.1270
 1228TIP3    H1 3690   1.191   2.283   3.422 -0.8629  0.4192 -1.0914
 1228TIP3    H2 3691   1.238   2.419   3.470  1.8948 -1.6187  2.5649
 1229TIP3   OH2 3692   3.417   0.036   2.712  0.1772 -0.1613  0.5287
 1229TIP3    H1 3693   3.357  -0.038   2.719 -0.0893 -0.1191 -0.9666
 1229TIP3    H2 3694   3.361   0.113   2.723 -0.6342 -0.0085 -3.3684
 1230TIP3   OH2 3695   2.093   4.353   4.580  0.1195  0.2201  0.0782
 1230TIP3    H1 3696   2.136   4.280   4.623  0.0770 -0.6589 -1.3155
 1230TIP3    H2 3697   2.158   4.388   4.519 -0.4486  0.1713 -0.5727
 1231TIP3   OH2 3698   5.637   4.562   3.203  0.3130  0.0733 -0.7898
 1231TIP3    H1 3699   5.730   4.557   3.178  0.7542  1.1924  0.4714
 1231TIP3    H2 3700   5.623   4.484   3.256  0.4619 -0.2178 -1.1684
 1232TIP3   OH2 3701   6.221   5.832   2.991 -0.5180 -0.2654  0.3915
 1232TIP3    H1 3702   6.129   5.836   2.966 -0.7808 -0.0452  1.3416
 1232TIP3    H2 3703   6.257   5.760   2.939 -1.8194 -2.0557  1.7965
 1233TIP3   OH2 3704   3.781   4.288   2.993 -0.2817  0.1916  0.3157
 1233TIP3    H1 3705   3.790   4.350   2.921  0.1660 -0.7591 -0.4677
 1233TIP3    H2 3706   3.692   4.253   2.985  0.0229 -0.4763 -0.2571
 1234TIP3   OH2 3707   4.579   5.534   1.883  0.1178  0.0296 -0.2150
 1234TIP3    H1 3708   4.647   5.518   1.817  1.4924  1.1441  0.8710
 1234TIP3    H2 3709   4.545   5.621   1.861 -2.2224 -1.1525 -1.7486
 1235TIP3   OH2 3710   1.880   4.748   3.164  0.2953  0.3875 -0.5277
 1235TIP3    H1 3711   1.828   4.670   3.183 -0.7606  0.5760 -2.4806
 1235TIP3    H2 3712   1.970   4.715   3.158  0.5165  0.0395  2.7105
 1236TIP3   OH2 3713   5.489   3.609   3.419  0.4270 -0.4578 -0.0869
 1236TIP3    H1 3714   5.394   3.612   3.430  0.3964  1.5243 -0.5412
 1236TIP3    H2 3715   5.518   3.540   3.479 -1.3520 -1.7284 -0.5872
 1237TIP3   OH2 3716   5.659   0.794   2.080  0.3047 -0.1242 -0.3830
 1237TIP3    H1 3717   5.701   0.776   1.996 -1.3921 -1.2362 -1.0586
 1237TIP3    H2 3718   5.652   0.890   2.083  1.5833  0.0025 -0.8768
 1238TIP3   OH2 3719   2.543   5.963   0.009 -0.5732  0.1295 -0.3152
 1238TIP3    H1 3720   2.554   5.869   0.024 -1.8133  0.0589  0.2992
 1238TIP3    H2 3721   2.568   6.004   0.092 -1.5562  0.2120 -0.0497
 1239TIP3   OH2 3722   6.051   4.088   2.343 -0.0675  0.2834 -0.1473
 1239TIP3    H1 3723   5.985   4.019   2.342 -0.1270  0.3335  0.1704
 1239TIP3    H2 3724   6.037   4.134   2.426 -0.9293  1.5402 -0.9555
 1240TIP3   OH2 3725   4.062   2.065   2.423 -0.2976 -0.1523  0.3084
 1240TIP3    H1 3726   3.973   2.099   2.411 -0.1146 -0.0490 -0.9209
 1240TIP3    H2 3727   4.070   1.996   2.356  0.3578 -0.5392  0.7759
 1241TIP3   OH2 3728   2.005   1.920   3.231  0.5395 -0.1293 -0.5342
 1241TIP3    H1 3729   1.986   1.836   3.188  0.2488 -0.3649  0.0427
 1241TIP3    H2 3730   1.938   1.980   3.197  0.1181 -0.3934 -0.1766
 1242TIP3   OH2 3731   3.483   0.627   0.493  1.3505  0.1439 -0.3119
 1242TIP3    H1 3732   3.413   0.644   0.556  0.4719 -0.2121 -1.1761
 1242TIP3    H2 3733   3.470   0.536   0.467  1.2998  0.4817 -1.5023
 1243TIP3   OH2 3734   1.307   4.709   3.768 -0.9084 -0.1767  0.1438
 1243TIP3    H1 3735   1.347   4.683   3.851 -0.7755  0.7756  0.3909
 1243TIP3    H2 3736   1.245   4.639   3.748  0.6342 -1.5421 -0.0954
 1244TIP3   OH2 3737  -0.003   0.558   4.603  0.2115 -0.0993  0.1520
 1244TIP3    H1 3738   0.063   0.534   4.538  0.3992 -0.4966  0.4830
 1244TIP3    H2 3739   0.037   0.534   4.687  0.5367  1.6400  0.5449
 1245TIP3   OH2 3740   1.888   2.681   2.091  0.3256  0.0627 -0.2380
 1245TIP3    H1 3741   1.897   2.628   2.170  2.0051 -1.4574 -1.3635
 1245TIP3    H2 3742   1.798   2.667   2.063  0.1740 -0.6523  0.5516
 1246TIP3   OH2 3743   2.668   0.776   0.284  0.2068  0.6898 -0.1262
 1246TIP3    H1 3744   2.716   0.781   0.367  1.9346 -1.3693 -0.9003
 1246TIP3    H2 3745   2.676   0.863   0.245  0.6777  1.2444  1.1735
 1247TIP3   OH2 3746   0.718   2.278   2.633 -0.3869  0.2071 -0.4985
 1247TIP3    H1 3747   0.656   2.212   2.600  0.1166 -0.0870 -0.8640
 1247TIP3    H2 3748   0.668   2.325   2.700 -0.6587 -0.7399 -0.0096
 1248TIP3   OH2 3749   6.093   3.778   3.796  0.0560  0.1740 -0.0028
 1248TIP3    H1 3750   6.179   3.808   3.823  0.2506  1.7390 -2.1038
 1248TIP3    H2 3751   6.036   3.854   3.809 -0.5109 -0.1059 -0.7889
 1249TIP3   OH2 3752   5.296   5.651   3.673  0.1056 -0.0095  0.0825
 1249TIP3    H1 3753   5.335   5.613   3.594  2.0102 -0.8760  1.3938
 1249TIP3    H2 3754   5.284   5.744   3.651 -0.7897 -0.4905 -1.7103
 1250TIP3   OH2 3755   0.578   5.034   1.316 -0.7156  0.0557  0.3678
 1250TIP3    H1 3756   0.492   5.027   1.359 -0.9203  0.6864  0.0761
 1250TIP3    H2 3757   0.626   5.099   1.367 -0.0716 -0.9488  1.0649
 1251TIP3   OH2 3758   1.486   5.459   0.475  0.0526  0.1610  0.1199
 1251TIP3    H1 3759   1.486   5.365   0.456  2.5170 -0.2484  1.5617
 1251TIP3    H2 3760   1.419   5.470   0.542  0.1668 -0.7276  0.3991
 1252TIP3   OH2 3761   5.664   5.528   4.913  0.0657 -0.5374  0.1351
 1252TIP3    H1 3762   5.661   5.609   4.964 -0.7188 -0.1478 -0.4934
 1252TIP3    H2 3763   5.605   5.468   4.958 -0.0104 -0.4633  0.1347
 1253TIP3   OH2 3764   5.582   3.220   2.093 -0.1898 -0.0418 -0.0261
 1253TIP3    H1 3765   5.580   3.301   2.144 -1.5731 -0.9082  1.3912
 1253TIP3    H2 3766   5.494   3.213   2.056 -0.4706 -1.4774  0.8615
 1254TIP3   OH2 3767   2.700   3.702   3.748  0.2557 -0.0270  0.3495
 1254TIP3    H1 3768   2.701   3.616   3.707  0.8869  0.6251 -1.1034
 1254TIP3    H2 3769   2.648   3.691   3.827  1.2710 -1.9965  0.7967
 1255TIP3   OH2 3770   1.197   4.659   4.435 -0.1455  0.4758  0.0230
 1255TIP3    H1 3771   1.173   4.744   4.396 -0.9443 -1.0604 -3.1303
 1255TIP3    H2 3772   1.120   4.604   4.423  0.5723 -0.9177  1.4521
 1256TIP3   OH2 3773   5.366   4.084   0.205  0.5498 -0.2562  0.1652
 1256TIP3    H1 3774   5.365   4.091   0.301 -0.6705  0.9093  0.1079
 1256TIP3    H2 3775   5.273   4.075   0.181  0.7068  0.8723 -0.9721
 1257TIP3   OH2 3776   4.712   2.672   4.888  0.7299 -0.2246  0.2184
 1257TIP3    H1 3777   4.758   2.724   4.822 -1.0892  2.0356  0.5914
 1257TIP3    H2 3778   4.702   2.731   4.962  0.7371 -1.9830  1.7035
 1258TIP3   OH2 3779   2.934   0.911   0.271  0.3356 -0.0799  0.0263
 1258TIP3    H1 3780   2.915   0.911   0.177 -1.7386  1.3539  0.3928
 1258TIP3    H2 3781   2.958   1.001   0.291 -0.0187 -0.1993  1.0276
 1259TIP3   OH2 3782   2.305   2.390   4.877 -0.1296  0.0917  0.0653
 1259TIP3    H1 3783   2.367   2.336   4.828 -0.7622 -1.4126  0.8581
 1259TIP3    H2 3784   2.353   2.415   4.957 -0.6657 -1.5132  0.9309
 1260TIP3   OH2 3785   4.355   0.572   2.053  0.0962  0.0618 -0.1739
 1260TIP3    H1 3786   4.351   0.486   2.011 -0.0595 -0.3016  0.5598
 1260TIP3    H2 3787   4.371   0.633   1.982  0.6030 -0.6201 -0.6618
 1261TIP3   OH2 3788   6.286   4.795   5.030  0.2545  0.0823 -0.2283
 1261TIP3    H1 3789   6.326   4.731   5.090  0.7795 -0.0768 -0.7476
 1261TIP3    H2 3790   6.330   4.781   4.947  0.4574  1.2154 -0.3188
 1262TIP3   OH2 3791   2.578   0.968   2.919  0.0244 -0.9261 -0.0874
 1262TIP3    H1 3792   2.546   0.891   2.872 -1.1021  0.8450 -2.4597
 1262TIP3    H2 3793   2.499   1.008   2.956  0.1450  0.5496 -1.3134
 1263TIP3   OH2 3794   1.967   4.707   2.074  0.2494  0.6673 -0.0361
 1263TIP3    H1 3795   2.020   4.680   1.999  0.6964  2.7551 -0.5254
 1263TIP3    H2 3796   2.028   4.755   2.130 -0.0408 -0.9580  1.8048
 1264TIP3   OH2 3797   1.948   2.565   5.159  0.3911  0.5285  0.2381
 1264TIP3    H1 3798   2.000   2.520   5.092 -0.4936 -0.9181  0.4861
 1264TIP3    H2 3799   2.011   2.619   5.206  1.0942  1.3192 -1.5326
 1265TIP3   OH2 3800   0.072   1.066   2.345 -0.5534 -0.3479 -0.7189
 1265TIP3    H1 3801   0.150   1.011   2.331  0.2207  0.7896 -1.0869
 1265TIP3    H2 3802  -0.001   1.012   2.316  0.2718 -0.8734 -1.9248
 1266TIP3   OH2 3803   0.209   3.463   1.805 -0.4205  1.3207  1.0020
 1266TIP3    H1 3804   0.267   3.387   1.801  0.6785  2.1721 -0.0655
 1266TIP3    H2 3805   0.138   3.436   1.863  0.7935  0.0629  1.9722
 1267TIP3   OH2 3806   1.877   2.640   4.078 -0.1690 -0.2162  0.1703
 1267TIP3    H1 3807   1.881   2.544   4.081  1.5387 -0.1846 -0.0909
 1267TIP3    H2 3808   1.914   2.668   4.162 -1.3797  0.2330  0.5783
 1268TIP3   OH2 3809   0.672   2.725   3.746  0.2862 -0.0266 -0.0620
 1268TIP3    H1 3810   0.606   2.667   3.785 -0.5753  1.6757  1.1046
 1268TIP3    H2 3811   0.750   2.712   3.801 -0.0394  0.2538  0.4697
 1269TIP3   OH2 3812   0.670   3.082   0.156 -0.7392  0.1424 -0.2367
 1269TIP3    H1 3813   0.692   3.167   0.193  0.4127 -0.5423  0.7215
 1269TIP3    H2 3814   0.577   3.070   0.177 -0.4729  0.4008  1.1894
 1270TIP3   OH2 3815   0.395   1.509   3.838  0.1212 -0.7339 -0.2140
 1270TIP3    H1 3816   0.423   1.420   3.861  0.1568 -0.6266  0.1652
 1270TIP3    H2 3817   0.459   1.566   3.882  0.2909 -0.5281 -0.7200
 1271TIP3   OH2 3818   0.735   4.388   0.581  0.6245 -0.1113  0.3266
 1271TIP3    H1 3819   0.737   4.407   0.675 -3.5525 -0.1454  0.5952
 1271TIP3    H2 3820   0.719   4.294   0.576  1.7046 -0.2723 -0.5130
 1272TIP3   OH2 3821   3.183   2.625   4.104 -0.0916 -0.2116  0.2052
 1272TIP3    H1 3822   3.098   2.631   4.060 -0.2923 -0.5370  0.5457
 1272TIP3    H2 3823   3.242   2.591   4.037  0.0026  0.9405 -0.3341
 1273TIP3   OH2 3824   3.726   3.306   4.314  0.9263  0.1177  0.2727
 1273TIP3    H1 3825   3.710   3.212   4.323  1.1937  0.1066  0.6789
 1273TIP3    H2 3826   3.758   3.316   4.224  0.5418 -0.1266  0.1070
 1274TIP3   OH2 3827   3.166   4.298   4.797  0.1602 -0.6057 -0.4255
 1274TIP3    H1 3828   3.235   4.295   4.863  0.9619  0.3114 -1.1948
 1274TIP3    H2 3829   3.140   4.206   4.786  1.0416 -0.9330  0.1110
 1275TIP3   OH2 3830   1.791   1.428   1.362 -0.1934 -0.0922  0.1095
 1275TIP3    H1 3831   1.724   1.473   1.413 -1.3571 -0.7120 -0.8194
 1275TIP3    H2 3832   1.745   1.354   1.322  0.4194  0.8690 -2.5722
 1276TIP3   OH2 3833   2.492   5.827   3.400  0.7706  0.2647 -0.2401
 1276TIP3    H1 3834   2.587   5.826   3.410  0.8355 -1.2242 -0.7071
 1276TIP3    H2 3835   2.472   5.748   3.348 -0.6725  0.7994 -0.5559
 1277TIP3   OH2 3836   5.450   0.807   0.486 -0.6916  0.2564 -0.0473
 1277TIP3    H1 3837   5.528   0.783   0.537 -0.4365 -0.4787 -0.7491
 1277TIP3    H2 3838   5.380   0.755   0.525 -0.8966  1.1152  0.7535
 1278TIP3   OH2 3839   2.577   2.599   3.650  0.5249 -0.1006  0.4559
 1278TIP3    H1 3840   2.505   2.536   3.650  1.6531 -1.4180  0.3939
 1278TIP3    H2 3841   2.653   2.549   3.623  0.9396  1.9315 -2.7059
 1279TIP3   OH2 3842   3.726   4.432   2.765  0.2685 -0.5246  0.0830
 1279TIP3    H1 3843   3.652   4.379   2.735 -0.3043  0.3103 -0.0085
 1279TIP3    H2 3844   3.698   4.522   2.752  1.5163 -0.1898 -0.4428
 1280TIP3   OH2 3845   0.064   0.636   1.079  0.4222  0.5945 -0.4570
 1280TIP3    H1 3846  -0.000   0.583   1.126 -0.9774  1.2007 -1.5836
 1280TIP3    H2 3847   0.111   0.573   1.024  0.2538  0.2409 -0.1988
 1281TIP3   OH2 3848   4.491   4.224   2.999  0.3116 -0.0080  0.1431
 1281TIP3    H1 3849   4.565   4.244   3.057  0.7551 -0.5487 -0.2262
 1281TIP3    H2 3850   4.529   4.226   2.911 -0.6140  2.0423 -0.2607
 1282TIP3   OH2 3851   1.591   4.381   4.524  0.3018 -0.0186  0.5699
 1282TIP3    H1 3852   1.586   4.329   4.604  0.5362 -1.5666 -0.3760
 1282TIP3    H2 3853   1.676   4.358   4.486  0.6427  1.4745  0.3731
 1283TIP3   OH2 3854   5.667   0.026   1.149 -0.3997  0.5365  0.5090
 1283TIP3    H1 3855   5.729  -0.046   1.161 -1.4163 -0.1812  1.6963
 1283TIP3    H2 3856   5.709   0.083   1.085  0.4493 -1.0864 -0.4432
 1284TIP3   OH2 3857   3.329   3.860   0.575 -0.4496  0.6165 -0.1438
 1284TIP3    H1 3858   3.312   3.951   0.603  1.2520  0.8187  0.3832
 1284TIP3    H2 3859   3.284   3.852   0.492  0.6177  2.4976 -0.9927
 1285TIP3   OH2 3860   5.905   1.041   0.758  0.3156 -0.3714 -0.7922
 1285TIP3    H1 3861   5.888   1.115   0.700 -0.0270 -1.0016 -1.4978
 1285TIP3    H2 3862   5.979   1.070   0.813 -0.4530  0.8755 -0.3763
 1286TIP3   OH2 3863   1.397   4.140   0.237 -0.1528  0.1146 -0.8323
 1286TIP3    H1 3864   1.344   4.090   0.298  1.6137 -1.3229 -0.4071
 1286TIP3    H2 3865   1.359   4.120   0.151  0.8890 -2.5889 -0.7592
 1287TIP3   OH2 3866   3.841   4.374   3.763 -0.1988  0.6196 -0.3549
 1287TIP3    H1 3867   3.881   4.315   3.826  2.8274  3.2207  0.4474
 1287TIP3    H2 3868   3.772   4.419   3.811 -0.2020  0.1965  0.0408
 1288TIP3   OH2 3869   5.471   5.255   2.513  0.0275 -0.0847  0.2665
 1288TIP3    H1 3870   5.527   5.332   2.502 -1.3453  0.6516 -2.2592
 1288TIP3    H2 3871   5.524   5.182   2.481 -0.3588  0.5936 -2.0581
 1289TIP3   OH2 3872   5.477   5.765   0.456 -0.0417 -0.2253 -0.6175
 1289TIP3    H1 3873   5.429   5.686   0.433 -1.1642 -0.0025  0.8026
 1289TIP3    H2 3874   5.497   5.754   0.550 -0.1391  1.1286 -0.4222
 1290TIP3   OH2 3875   0.285   3.326   2.936 -0.1901  0.1349 -0.4362
 1290TIP3    H1 3876   0.266   3.297   3.025  2.9546 -0.2155  0.2336
 1290TIP3    H2 3877   0.329   3.410   2.947  1.4319 -0.5274 -1.5280
 1291TIP3   OH2 3878   1.266   3.673   1.570  0.2344  0.3620  0.0022
 1291TIP3    H1 3879   1.350   3.712   1.546  2.3182 -0.9238  4.2774
 1291TIP3    H2 3880   1.280   3.636   1.657 -4.1947 -1.8878  0.0585
 1292TIP3   OH2 3881   2.544   4.161   0.666  0.0988 -0.5594  0.0566
 1292TIP3    H1 3882   2.475   4.167   0.732 -0.2208 -1.0501 -0.2290
 1292TIP3    H2 3883   2.586   4.077   0.683  1.0812  0.0188  0.6570
 1293TIP3   OH2 3884   5.766   3.438   5.142  0.0682  0.4746  0.3075
 1293TIP3    H1 3885   5.836   3.446   5.206  0.0481  2.0302  0.1626
 1293TIP3    H2 3886   5.686   3.435   5.194  0.0129  2.2664  0.3821
 1294TIP3   OH2 3887   4.830   4.181   1.002  0.3405 -0.4721 -0.4584
 1294TIP3    H1 3888   4.765   4.249   0.985  1.2352  0.5426  0.0518
 1294TIP3    H2 3889   4.781   4.111   1.044 -0.2999  0.5951  0.6236
 1295TIP3   OH2 3890   5.627   1.755   3.312 -0.7468  0.1230  0.0498
 1295TIP3    H1 3891   5.570   1.756   3.389  0.2066 -0.3389  0.7779
 1295TIP3    H2 3892   5.684   1.830   3.322 -0.8842  0.2968 -0.4239
 1296TIP3   OH2 3893   5.379   5.166   1.311 -0.1889 -0.5545 -0.4987
 1296TIP3    H1 3894   5.409   5.131   1.395 -0.2664  1.2765  0.3468
 1296TIP3    H2 3895   5.458   5.173   1.258  0.3295  0.7662  0.4008
 1297TIP3   OH2 3896   4.061   3.852   2.860 -0.8091 -0.1475  0.8568
 1297TIP3    H1 3897   4.030   3.852   2.769  0.8853 -2.6006  0.1780
 1297TIP3    H2 3898   4.142   3.902   2.858 -0.1542 -1.1873  0.7335
 1298TIP3   OH2 3899   3.769   0.819   1.636  0.3967 -0.1184  0.4492
 1298TIP3    H1 3900   3.831   0.862   1.577  0.5269 -0.8131  0.0734
 1298TIP3    H2 3901   3.691   0.805   1.582  0.3649 -0.3750  0.5619
 1299TIP3   OH2 3902   6.140   3.816   1.625  0.1357 -0.3054  0.2128
 1299TIP3    H1 3903   6.221   3.842   1.582 -0.0832 -2.5849 -1.7957
 1299TIP3    H2 3904   6.075   3.880   1.595  1.0869  1.5535  1.8594
 1300TIP3   OH2 3905   6.187   4.734   2.110  0.6542 -0.2962  0.0166
 1300TIP3    H1 3906   6.153   4.727   2.021 -0.3263 -0.6261  0.4029
 1300TIP3    H2 3907   6.150   4.815   2.144 -0.3879 -1.0343  0.6939
 1301TIP3   OH2 3908   4.357   1.211   4.508  0.2593  0.3515  0.2713
 1301TIP3    H1 3909   4.418   1.197   4.436 -1.1095 -1.6583 -0.5898
 1301TIP3    H2 3910   4.383   1.295   4.546  2.0430  0.6763 -1.5298
 1302TIP3   OH2 3911   0.587   4.464   3.983 -0.0174  0.2883  0.0387
 1302TIP3    H1 3912   0.541   4.539   3.944 -1.1200 -0.7822 -0.8042
 1302TIP3    H2 3913   0.675   4.469   3.947  0.2404  1.7351  0.7910
 1303TIP3   OH2 3914   4.180   5.949   3.386  0.0148  0.2610 -0.0538
 1303TIP3    H1 3915   4.210   5.874   3.336  1.6003  0.2805  0.7996
 1303TIP3    H2 3916   4.195   5.925   3.477 -1.0631  0.9567  0.3290
 1304TIP3   OH2 3917   5.736   4.987   4.103  0.1906  0.6392  0.3585
 1304TIP3    H1 3918   5.687   5.053   4.151 -0.3587  0.6300 -0.1743
 1304TIP3    H2 3919   5.796   5.037   4.048 -0.6423  0.7280 -0.4889
 1305TIP3   OH2 3920   1.576   0.729   0.540 -0.2256  0.3645  0.0353
 1305TIP3    H1 3921   1.607   0.711   0.629 -0.1682  0.7562  0.0945
 1305TIP3    H2 3922   1.483   0.705   0.542 -0.0817 -0.2031  0.0322
 1306TIP3   OH2 3923   1.864   0.599   2.675 -0.1402 -0.1817  0.0775
 1306TIP3    H1 3924   1.957   0.581   2.665 -0.0219  0.1864  0.5307
 1306TIP3    H2 3925   1.850   0.682   2.631 -0.5552 -0.9762 -1.3661
 1307TIP3   OH2 3926   0.857   3.276   3.381 -0.2759 -0.0737 -0.1719
 1307TIP3    H1 3927   0.832   3.324   3.460  0.3200 -1.0951  0.6711
 1307TIP3    H2 3928   0.939   3.233   3.404 -0.3746 -0.8364 -1.1628
 1308TIP3   OH2 3929   4.003   1.152   4.041  0.0567 -0.4708  0.0632
 1308TIP3    H1 3930   4.022   1.067   4.000  0.9371 -0.2228 -0.0564
 1308TIP3    H2 3931   4.086   1.180   4.078 -0.7198 -0.7468  2.1608
 1309TIP3   OH2 3932   0.894   0.103   4.097  0.0065  0.0945 -0.1632
 1309TIP3    H1 3933   0.848   0.066   4.022 -0.7005  0.8357 -0.1072
 1309TIP3    H2 3934   0.964   0.041   4.115 -1.3792 -1.4423  0.1876
 1310TIP3   OH2 3935   6.023   0.454   3.527 -0.1904 -0.0933  0.0614
 1310TIP3    H1 3936   5.961   0.488   3.592 -0.2800  0.8513 -0.4912
 1310TIP3    H2 3937   6.088   0.406   3.578 -1.1860 -0.8251  0.6842
 1311TIP3   OH2 3938   5.702   0.226   3.930  0.8486 -0.2170  0.3000
 1311TIP3    H1 3939   5.672   0.169   3.859  0.5301  0.9267 -0.5113
 1311TIP3    H2 3940   5.656   0.308   3.915  1.1138  0.1872  1.5942
 1312TIP3   OH2 3941   1.502   0.187   0.555  0.2400  0.0654  0.2803
 1312TIP3    H1 3942   1.426   0.232   0.590 -0.4869 -2.5659  2.4719
 1312TIP3    H2 3943   1.552   0.161   0.633  4.6619  3.3895 -1.0128
 1313TIP3   OH2 3944   1.481   2.534   4.370  0.1980  0.0232  0.0695
 1313TIP3    H1 3945   1.561   2.486   4.349  0.4937  0.5312  0.0085
 1313TIP3    H2 3946   1.472   2.598   4.299 -0.1612  0.0935  0.1736
 1314TIP3   OH2 3947   0.302   1.950   2.202 -0.5360  1.3926  0.4356
 1314TIP3    H1 3948   0.212   1.921   2.183  0.3419 -1.0586 -0.3999
 1314TIP3    H2 3949   0.343   1.874   2.243  1.2905  2.2966  0.3792
 1315TIP3   OH2 3950   5.713   5.854   0.315 -0.1096 -0.4945  0.3419
 1315TIP3    H1 3951   5.768   5.836   0.391  0.2694 -0.3315  0.1073
 1315TIP3    H2 3952   5.629   5.813   0.337 -1.1863  2.4076  2.3762
 1316TIP3   OH2 3953   1.961   3.619   0.053 -0.8404 -0.6848  0.3053
 1316TIP3    H1 3954   1.936   3.624   0.145 -2.0868  1.4962 -0.0917
 1316TIP3    H2 3955   1.881   3.594   0.007 -0.7468  0.2450 -0.3856
 1317TIP3   OH2 3956   3.019   4.938   3.540  0.0860  0.0050  0.0654
 1317TIP3    H1 3957   3.100   4.888   3.532  0.6624  0.9051  0.0756
 1317TIP3    H2 3958   3.036   4.997   3.614 -0.3297  0.6439 -0.3439
 1318TIP3   OH2 3959   4.664   3.964   1.450 -0.1188 -0.3231 -0.2315
 1318TIP3    H1 3960   4.660   3.933   1.540  2.1475 -1.0617 -0.3095
 1318TIP3    H2 3961   4.689   3.887   1.399 -1.8333 -0.0302 -1.5899
 1319TIP3   OH2 3962   3.267   0.578   4.840  0.3888 -0.4029  0.2947
 1319TIP3    H1 3963   3.351   0.622   4.829  1.1523 -1.4701  1.5863
 1319TIP3    H2 3964   3.242   0.552   4.752  1.9175 -0.9354 -0.0185
 1320TIP3   OH2 3965   3.380   5.496   3.832 -0.2309  0.6096 -0.5915
 1320TIP3    H1 3966   3.469   5.501   3.866 -0.8229  2.3563  0.8928
 1320TIP3    H2 3967   3.333   5.443   3.897 -0.0817 -1.2132 -1.9168
 1321TIP3   OH2 3968   4.249   3.415   4.383 -0.3492  0.1452 -0.1130
 1321TIP3    H1 3969   4.243   3.436   4.476  0.5702 -0.3929  0.0787
 1321TIP3    H2 3970   4.316   3.474   4.350 -0.7035  0.3634 -0.4550
 1322TIP3   OH2 3971   2.713   1.535   4.884 -0.9045 -0.2356  0.0411
 1322TIP3    H1 3972   2.754   1.571   4.963 -3.8595 -0.3467  1.7498
 1322TIP3    H2 3973   2.777   1.470   4.853  0.8105  0.5376  1.6983
 1323TIP3   OH2 3974   1.978   1.170   4.287 -0.3227 -0.2309  0.4112
 1323TIP3    H1 3975   1.897   1.218   4.307  0.1482  1.1299 -0.8162
 1323TIP3    H2 3976   1.982   1.168   4.192  0.7266 -0.9230  0.4557
 1324TIP3   OH2 3977   0.896   1.230   1.531  0.0121  0.5940  0.4594
 1324TIP3    H1 3978   0.880   1.224   1.625  2.5145 -0.6544  0.8568
 1324TIP3    H2 3979   0.872   1.144   1.497  1.3021  0.2687  0.3450
 1325TIP3   OH2 3980   4.510   1.535   1.727 -0.2511  0.3160  0.4320
 1325TIP3    H1 3981   4.548   1.474   1.791 -1.6974  1.1395  2.1463
 1325TIP3    H2 3982   4.538   1.500   1.642 -0.6865 -2.5029  1.3396
 1326TIP3   OH2 3983   1.713   2.860   1.170  0.0503  0.0314 -0.0768
 1326TIP3    H1 3984   1.704   2.862   1.075 -1.7908 -0.5644  0.0434
 1326TIP3    H2 3985   1.769   2.784   1.187  0.4736  0.1974 -0.6639
 1327TIP3   OH2 3986   2.204   1.306   1.459 -0.1578  0.3252  0.2205
 1327TIP3    H1 3987   2.228   1.264   1.542 -0.1604 -1.0649 -0.4614
 1327TIP3    H2 3988   2.286   1.310   1.410 -0.5835 -1.0325 -0.6374
 1328TIP3   OH2 3989   0.113   3.848   4.707  0.3299 -0.0424  0.4205
 1328TIP3    H1 3990   0.152   3.761   4.707  2.7036  0.9435 -0.7193
 1328TIP3    H2 3991   0.177   3.903   4.752 -0.9220  1.2351  0.7312
 1329TIP3   OH2 3992   5.329   1.624   4.492 -0.6603 -0.5839  0.6398
 1329TIP3    H1 3993   5.290   1.709   4.513  2.9990  1.4502 -0.1005
 1329TIP3    H2 3994   5.337   1.623   4.397  1.1488 -0.8179  0.7629
 1330TIP3   OH2 3995   4.993   4.109   3.517  0.5649 -0.0570 -0.2387
 1330TIP3    H1 3996   5.055   4.156   3.461 -0.0275  0.1581 -0.7244
 1330TIP3    H2 3997   4.987   4.163   3.596  2.5836 -1.1389  0.7410
 1331TIP3   OH2 3998   1.946   2.750   4.328 -0.0481 -0.2821  0.2043
 1331TIP3    H1 3999   1.906   2.785   4.408 -1.4045  1.0728 -1.0043
 1331TIP3    H2 4000   1.977   2.663   4.353 -3.5160 -1.3536  1.3582
 1332TIP3   OH2 4001   2.372   3.237   1.153  0.3750  0.5163 -0.5003
 1332TIP3    H1 4002   2.298   3.292   1.179  0.2776  1.2557 -2.1779
 1332TIP3    H2 4003   2.415   3.214   1.235 -0.0116  2.5233  0.3357
 1333TIP3   OH2 4004   3.228   3.706   1.966  0.5684  0.2807 -0.9445
 1333TIP3    H1 4005   3.139   3.740   1.972  0.6276  0.3206 -0.2377
 1333TIP3    H2 4006   3.278   3.755   2.031  0.5280 -1.4979  0.5138
 1334TIP3   OH2 4007   0.293   1.964   4.424  0.3374 -0.1378 -0.1533
 1334TIP3    H1 4008   0.284   1.977   4.518  1.0444  2.7214 -0.4140
 1334TIP3    H2 4009   0.374   1.915   4.414  0.7819  0.4144  0.6718
 1335TIP3   OH2 4010   1.286   3.556   2.929  0.2559  0.4782  0.3138
 1335TIP3    H1 4011   1.239   3.622   2.878 -1.3362 -1.3710 -0.7828
 1335TIP3    H2 4012   1.216   3.505   2.971  1.4074 -0.7516  0.8011
 1336TIP3   OH2 4013   2.786   4.894   3.379  0.1378  0.3246 -0.1886
 1336TIP3    H1 4014   2.857   4.913   3.440  0.4869 -0.4216 -0.3591
 1336TIP3    H2 4015   2.785   4.969   3.319  0.9309  0.2316 -0.3244
 1337TIP3   OH2 4016   3.007   2.123   1.766  0.1375 -0.6083  0.3996
 1337TIP3    H1 4017   3.091   2.153   1.801 -0.5528  0.8554  0.8938
 1337TIP3    H2 4018   2.986   2.045   1.817  0.0950  0.3588  1.9157
 1338TIP3   OH2 4019   1.391   0.355   4.745  0.1346 -0.0541 -0.1049
 1338TIP3    H1 4020   1.409   0.288   4.678 -0.1979 -0.3433  0.0951
 1338TIP3    H2 4021   1.298   0.347   4.763  0.2990 -0.2286  0.6730
 1339TIP3   OH2 4022   5.293   1.829   1.417  0.3958 -0.2401 -0.2283
 1339TIP3    H1 4023   5.243   1.862   1.342  2.8299 -0.2188 -1.9612
 1339TIP3    H2 4024   5.288   1.734   1.408 -0.0782 -0.2502  0.1323
 1340TIP3   OH2 4025   2.477   1.877   2.686  0.1969 -0.0989 -0.3075
 1340TIP3    H1 4026   2.414   1.806   2.679  1.9945 -2.2846  2.8599
 1340TIP3    H2 4027   2.434   1.952   2.644 -3.1908 -2.1534 -0.8940
 1341TIP3   OH2 4028   2.803   2.899   1.936 -0.6420 -0.4987 -0.4664
 1341TIP3    H1 4029   2.720   2.945   1.940 -0.4127 -0.1954  1.2498
 1341TIP3    H2 4030   2.788   2.828   1.874 -1.5848  0.6835 -1.6440
 1342TIP3   OH2 4031   4.937   2.857   1.013  0.0451  0.2236  0.1477
 1342TIP3    H1 4032   4.905   2.776   1.053 -0.4380  0.9081  1.1763
 1342TIP3    H2 4033   4.914   2.925   1.075 -0.3830  1.2795 -1.1269
 1343TIP3   OH2 4034   5.273   0.228   3.055 -0.4096 -0.5433  0.4176
 1343TIP3    H1 4035   5.220   0.307   3.061 -0.5451 -0.6887  1.2260
 1343TIP3    H2 4036   5.337   0.236   3.125 -0.2991 -1.0594  0.3806
 1344TIP3   OH2 4037   2.626   3.333   3.395  0.8967 -0.6381 -0.2200
 1344TIP3    H1 4038   2.577   3.256   3.368 -0.9463  0.5105 -0.3224
 1344TIP3    H2 4039   2.572   3.375   3.461  1.8407  0.5989 -0.1892
 1345TIP3   OH2 4040   1.881   0.530   1.174  0.2527 -0.1160 -0.8345
 1345TIP3    H1 4041   1.798   0.576   1.184  0.6987  0.6650 -0.6744
 1345TIP3    H2 4042   1.864   0.442   1.209 -0.4418  0.1065 -0.6056
 1346TIP3   OH2 4043   0.501   5.409   1.058  0.2928 -0.1340  0.7617
 1346TIP3    H1 4044   0.428   5.471   1.059  0.3787 -0.0223  0.3724
 1346TIP3    H2 4045   0.563   5.446   0.994  0.7693 -0.1315  1.2150
 1347TIP3   OH2 4046   3.369   2.426   4.907 -0.4166 -0.0370 -0.0433
 1347TIP3    H1 4047   3.393   2.497   4.967 -1.3405  0.4898 -0.2747
 1347TIP3    H2 4048   3.440   2.423   4.843 -1.3033  2.0880 -1.2396
 1348TIP3   OH2 4049   4.657   4.331   4.626 -0.2332 -0.3978  0.3829
 1348TIP3    H1 4050   4.658   4.241   4.594 -0.1244 -0.5536  0.8186
 1348TIP3    H2 4051   4.695   4.326   4.714  0.0349  0.1137  0.3010
 1349TIP3   OH2 4052   5.251   2.546   5.173 -0.3427  0.1426 -0.4153
 1349TIP3    H1 4053   5.187   2.527   5.104 -0.8017  1.0546 -0.2565
 1349TIP3    H2 4054   5.199   2.550   5.253  0.2613 -1.4797  0.1094
 1350TIP3   OH2 4055   0.862   4.516   3.533 -0.0631 -0.6964 -0.2194
 1350TIP3    H1 4056   0.770   4.493   3.516 -1.1315  1.5443  2.0377
 1350TIP3    H2 4057   0.860   4.609   3.555  2.6909 -0.7535  0.5795
 1351TIP3   OH2 4058   5.180   3.971   0.887  0.3335 -0.4829 -0.8403
 1351TIP3    H1 4059   5.146   4.040   0.830  1.6162 -0.7521 -1.9941
 1351TIP3    H2 4060   5.210   4.016   0.965 -2.4607 -0.2261  0.1717
 1352TIP3   OH2 4061   2.512   4.085   1.362 -0.2317  0.1444  0.0327
 1352TIP3    H1 4062   2.442   4.099   1.425 -0.8120  1.4556 -0.8567
 1352TIP3    H2 4063   2.583   4.046   1.413 -0.3822  1.9061  1.6897
 1353TIP3   OH2 4064   2.286   4.185   5.095 -0.6271  0.4231 -0.9058
 1353TIP3    H1 4065   2.226   4.256   5.117  0.2693  1.7598 -2.4939
 1353TIP3    H2 4066   2.254   4.110   5.145 -1.1631  2.1064  1.4491
 1354TIP3   OH2 4067   2.543   1.856   1.728  0.3347  0.2318  0.5155
 1354TIP3    H1 4068   2.621   1.910   1.740  1.7988 -1.4688 -0.7834
 1354TIP3    H2 4069   2.577   1.768   1.714 -1.7905 -0.4233 -1.0141
 1355TIP3   OH2 4070   2.187   1.924   3.830 -0.3082 -0.0761  0.0625
 1355TIP3    H1 4071   2.180   1.892   3.740 -0.1533  1.5340 -0.5515
 1355TIP3    H2 4072   2.279   1.911   3.852 -0.1865  0.1973 -0.2749
 1356TIP3   OH2 4073   4.544   4.115   2.506 -0.2159 -0.3844  0.3579
 1356TIP3    H1 4074   4.557   4.025   2.476  2.3543 -0.3976  1.2525
 1356TIP3    H2 4075   4.523   4.163   2.426 -0.6381 -1.5974 -0.3010
 1357TIP3   OH2 4076   3.302   1.260   0.267  0.0073  0.4815  0.2845
 1357TIP3    H1 4077   3.270   1.326   0.206  0.3674  0.4950  0.1057
 1357TIP3    H2 4078   3.308   1.305   0.351 -0.2333  0.5375  0.2704
 1358TIP3   OH2 4079   5.860   4.357   3.963  0.8500 -0.1339 -0.4610
 1358TIP3    H1 4080   5.835   4.283   4.018 -0.1168  1.1533  0.9233
 1358TIP3    H2 4081   5.956   4.362   3.971  0.9035 -1.1060 -0.4277
 1359TIP3   OH2 4082   0.639   4.340   4.715  0.0813 -0.6952 -0.0903
 1359TIP3    H1 4083   0.637   4.287   4.795  2.3231 -0.6631  0.0741
 1359TIP3    H2 4084   0.548   4.360   4.696 -0.7639 -3.5737  0.5337
 1360TIP3   OH2 4085   6.201   1.432   1.699 -0.1985 -0.5115 -0.0026
 1360TIP3    H1 4086   6.223   1.340   1.681  1.1925 -0.2770  0.3644
 1360TIP3    H2 4087   6.257   1.481   1.639 -0.5472  0.1176  0.1879
 1361TIP3   OH2 4088   6.294   1.489   4.963 -1.1636  0.1501  0.1931
 1361TIP3    H1 4089   6.258   1.440   5.037 -0.6303 -0.5992 -0.0295
 1361TIP3    H2 4090   6.330   1.568   5.003  1.2798 -1.3250  1.1468
 1362TIP3   OH2 4091   1.985   5.594   4.551  0.3631  0.2111 -0.6054
 1362TIP3    H1 4092   1.969   5.547   4.469 -0.4189  1.5855 -1.2778
 1362TIP3    H2 4093   1.986   5.687   4.526 -0.9876  0.7362  1.0791
 1363TIP3   OH2 4094   0.693   0.194   5.025  0.2279  0.1809 -0.0632
 1363TIP3    H1 4095   0.694   0.099   5.020  0.8104  0.1019  1.0736
 1363TIP3    H2 4096   0.643   0.222   4.949 -0.9765 -1.0800  0.2191
 1364TIP3   OH2 4097   1.987   2.919   0.052 -0.0312 -0.2418  0.8335
 1364TIP3    H1 4098   2.078   2.936   0.076  0.1428  0.5030 -0.2807
 1364TIP3    H2 4099   1.986   2.828   0.024  1.1665  0.6087 -2.4243
 1365TIP3   OH2 4100   0.452   4.441   1.592 -0.1295  0.6705 -0.3381
 1365TIP3    H1 4101   0.439   4.518   1.647  2.9400  0.8999  0.2483
 1365TIP3    H2 4102   0.496   4.378   1.649  0.2529 -0.3243 -1.6728
 1366TIP3   OH2 4103   1.217   4.434   5.010  0.2191 -0.3553 -0.1501
 1366TIP3    H1 4104   1.189   4.525   5.019  1.4924  0.0229  0.2097
 1366TIP3    H2 4105   1.286   4.437   4.943 -0.1876 -1.1699 -0.6265
 1367TIP3   OH2 4106   5.892   3.484   0.775 -0.3851 -0.2596  0.7244
 1367TIP3    H1 4107   5.982   3.464   0.799  0.2913 -0.0864 -1.4261
 1367TIP3    H2 4108   5.862   3.406   0.727 -0.7310  0.4045 -0.1575
 1368TIP3   OH2 4109   0.139   5.168   2.518  0.0491  0.3292 -0.1289
 1368TIP3    H1 4110   0.127   5.120   2.436 -2.8494 -0.8915  0.8963
 1368TIP3    H2 4111   0.112   5.257   2.497 -0.4230  0.0874 -0.5834
 1369TIP3   OH2 4112   3.789   5.550   3.170  0.0137  0.0359 -0.5073
 1369TIP3    H1 4113   3.784   5.456   3.186  1.8062 -0.0359 -0.1054
 1369TIP3    H2 4114   3.860   5.581   3.227  0.5243  1.3361 -1.7551
 1370TIP3   OH2 4115   0.303   5.022   3.352 -0.4945  0.2009  0.2066
 1370TIP3    H1 4116   0.220   4.981   3.377  0.0358 -0.9087  0.2270
 1370TIP3    H2 4117   0.279   5.109   3.321 -1.7243 -0.2806 -0.2532
 1371TIP3   OH2 4118   1.841   5.849   4.473  1.0230  0.1868  0.0425
 1371TIP3    H1 4119   1.802   5.768   4.506  1.9968 -0.9937 -1.4912
 1371TIP3    H2 4120   1.849   5.905   4.550 -0.2174 -0.9481  1.0544
 1372TIP3   OH2 4121   0.264   3.960   3.894 -0.0453 -0.2261 -0.6884
 1372TIP3    H1 4122   0.311   4.007   3.824 -0.8367 -0.6302 -1.5162
 1372TIP3    H2 4123   0.296   3.999   3.975  1.5710 -0.3558 -1.2246
 1373TIP3   OH2 4124   0.220   0.903   5.126 -0.2107 -0.4265 -0.1331
 1373TIP3    H1 4125   0.218   0.874   5.217  0.8507  1.2669  0.4926
 1373TIP3    H2 4126   0.226   0.999   5.132 -1.1225 -0.2153 -2.0046
 1374TIP3   OH2 4127   4.401   5.036   4.001  0.0578  0.0843  0.3843
 1374TIP3    H1 4128   4.485   5.025   3.955 -0.0433  1.4248 -0.1590
 1374TIP3    H2 4129   4.335   5.009   3.937 -0.0781  1.8773 -0.2914
 1375TIP3   OH2 4130   4.861   1.549   0.634  0.1980  0.4332  0.2661
 1375TIP3    H1 4131   4.897   1.575   0.550 -1.0768 -0.0819 -0.4640
 1375TIP3    H2 4132   4.857   1.454   0.630 -2.1154  0.4927 -0.0973
 1376TIP3   OH2 4133   5.983   4.963   2.130 -0.2347  0.0128  0.2375
 1376TIP3    H1 4134   5.917   4.898   2.104 -0.6914  0.9100 -0.9258
 1376TIP3    H2 4135   5.960   5.042   2.080  1.6715  0.3727 -0.1526
 1377TIP3   OH2 4136   4.079   0.646   2.606 -0.2028 -0.0937 -0.2514
 1377TIP3    H1 4137   4.031   0.580   2.656  0.6340 -0.5378 -0.0026
 1377TIP3    H2 4138   4.096   0.604   2.522 -0.6949  0.2552 -0.5266
 1378TIP3   OH2 4139   5.417   3.104   4.610 -0.3847 -0.4841  0.4119
 1378TIP3    H1 4140   5.504   3.094   4.571 -0.2344 -0.4410  0.7355
 1378TIP3    H2 4141   5.424   3.062   4.695 -0.5252  0.0044  0.6681
 1379TIP3   OH2 4142   3.250   5.891   1.905 -0.3293  0.1125 -0.7413
 1379TIP3    H1 4143   3.197   5.967   1.880 -0.9142 -0.3927 -1.0671
 1379TIP3    H2 4144   3.214   5.865   1.990  0.0153  0.3251 -0.5272
 1380TIP3   OH2 4145   4.006   3.784   4.600  0.5205 -0.2263 -0.0287
 1380TIP3    H1 4146   4.092   3.799   4.560  0.4276 -1.5551 -0.7815
 1380TIP3    H2 4147   3.951   3.753   4.528 -0.6306  0.7159  0.4255
 1381TIP3   OH2 4148   4.331   4.105   1.416  0.0500 -0.2756 -0.2741
 1381TIP3    H1 4149   4.374   4.046   1.354  0.5249 -0.0062 -0.2139
 1381TIP3    H2 4150   4.388   4.105   1.493 -1.8564 -2.6262  1.2547
 1382TIP3   OH2 4151   3.949   5.738   4.927  0.1787 -0.7777 -0.3384
 1382TIP3    H1 4152   4.031   5.697   4.954  0.4414 -0.0725 -0.0629
 1382TIP3    H2 4153   3.952   5.737   4.831  0.1930 -1.3732 -0.3365
 1383TIP3   OH2 4154   1.075   4.481   4.058 -0.6708  0.0595  0.5162
 1383TIP3    H1 4155   0.981   4.468   4.067 -0.7661  1.0074  0.9900
 1383TIP3    H2 4156   1.084   4.568   4.018 -0.0350 -0.7538 -1.2560
 1384TIP3   OH2 4157   5.359   2.803   1.238 -0.5580 -0.4861  0.1858
 1384TIP3    H1 4158   5.323   2.849   1.162 -0.9087 -1.5942 -0.3418
 1384TIP3    H2 4159   5.451   2.789   1.216 -0.7953 -1.3378 -0.3235
 1385TIP3   OH2 4160   2.875   3.226   3.526 -0.0488  0.2569 -0.6260
 1385TIP3    H1 4161   2.812   3.271   3.469 -0.2905 -0.4856 -0.9572
 1385TIP3    H2 4162   2.957   3.227   3.476 -0.4522 -1.0983 -1.3682
 1386TIP3   OH2 4163   6.292   5.197   2.819  0.4119 -0.4643  0.0388
 1386TIP3    H1 4164   6.387   5.209   2.817  0.1589  2.0408  0.0691
 1386TIP3    H2 4165   6.263   5.215   2.729 -0.1663  0.5091  0.3994
 1387TIP3   OH2 4166   1.239   0.484   3.281  0.1333  0.2380  0.4998
 1387TIP3    H1 4167   1.282   0.568   3.296 -0.1287  0.3714  0.5218
 1387TIP3    H2 4168   1.306   0.418   3.300 -0.0184  0.4090  1.7221
 1388TIP3   OH2 4169   6.301   3.062   1.402 -0.1665  0.4270 -0.2411
 1388TIP3    H1 4170   6.354   2.982   1.407 -0.4476  0.1751 -1.0372
 1388TIP3    H2 4171   6.264   3.072   1.489  0.6357  0.2214  0.1335
 1389TIP3   OH2 4172   6.061   5.498   2.080  0.5101 -0.3529 -0.0777
 1389TIP3    H1 4173   6.083   5.411   2.046 -1.4703 -0.6041 -0.8577
 1389TIP3    H2 4174   6.082   5.558   2.008 -0.5480 -0.5151 -0.5494
 1390TIP3   OH2 4175   4.874   5.422   4.510 -0.0155 -0.6690 -0.0143
 1390TIP3    H1 4176   4.910   5.511   4.520  0.2416 -0.8292  0.5462
 1390TIP3    H2 4177   4.848   5.417   4.418 -4.0536  1.5075  0.7641
 1391TIP3   OH2 4178   2.405   4.820   4.847 -0.4069 -0.5708 -0.2060
 1391TIP3    H1 4179   2.403   4.753   4.779 -0.1713  0.7464 -1.5590
 1391TIP3    H2 4180   2.340   4.885   4.819  0.5577  0.5914  0.1526
 1392TIP3   OH2 4181   5.628   5.872   0.933  1.3769 -0.0871  0.4550
 1392TIP3    H1 4182   5.533   5.878   0.924  1.1891 -0.0155  2.1155
 1392TIP3    H2 4183   5.659   5.855   0.845 -0.1647  0.0405 -0.1518
 1393TIP3   OH2 4184   6.240   4.529   1.599 -0.2157  0.2183  0.5948
 1393TIP3    H1 4185   6.310   4.535   1.663  0.0102 -1.2880  0.5151
 1393TIP3    H2 4186   6.246   4.611   1.549  2.5015 -0.5249 -0.4416
 1394TIP3   OH2 4187   2.324   4.753   2.887 -0.1336 -0.6750  0.7251
 1394TIP3    H1 4188   2.396   4.786   2.833  0.1472 -1.8345  0.3654
 1394TIP3    H2 4189   2.349   4.663   2.908 -1.7499 -1.3057  0.0949
 1395TIP3   OH2 4190   3.166   4.451   3.406  0.6241  0.0133 -0.3715
 1395TIP3    H1 4191   3.139   4.393   3.335 -0.3352  1.3127 -1.1017
 1395TIP3    H2 4192   3.092   4.510   3.419  0.9412  0.0823  1.4414
 1396TIP3   OH2 4193   4.178   5.966   3.738  0.1892 -0.1792  0.1578
 1396TIP3    H1 4194   4.109   5.996   3.679  0.5734 -1.2501 -0.8684
 1396TIP3    H2 4195   4.203   5.881   3.704  1.9716  0.1553  0.5601
 1397TIP3   OH2 4196   4.883   1.240   2.657  0.3688 -0.0097 -0.4146
 1397TIP3    H1 4197   4.949   1.281   2.601 -0.2977  1.1339 -0.3783
 1397TIP3    H2 4198   4.809   1.223   2.600  1.2091 -2.8328 -0.8611
 1398TIP3   OH2 4199   0.686   1.085   2.353 -0.2252  0.0395  0.3422
 1398TIP3    H1 4200   0.612   1.033   2.384 -0.7141 -0.3071 -1.3038
 1398TIP3    H2 4201   0.757   1.022   2.341 -0.1118  0.1310  0.5316
 1399TIP3   OH2 4202   4.109   0.936   2.997  0.1267  0.0492 -0.0063
 1399TIP3    H1 4203   4.029   0.986   2.977  0.1133  0.7717  1.6685
 1399TIP3    H2 4204   4.140   0.905   2.912 -0.6132  1.7919 -0.9617
 1400TIP3   OH2 4205   4.543   5.704   2.578 -0.5530 -0.3845  0.4793
 1400TIP3    H1 4206   4.623   5.711   2.526 -2.3404 -0.4289 -2.4917
 1400TIP3    H2 4207   4.551   5.619   2.623  0.6858 -0.7741 -0.4223
 1401TIP3   OH2 4208   0.486   5.745   4.321  0.2072  0.7573 -0.0958
 1401TIP3    H1 4209   0.543   5.771   4.394  2.0544  4.1586 -2.4621
 1401TIP3    H2 4210   0.424   5.817   4.312  0.5405  0.8369 -2.2791
 1402TIP3   OH2 4211   4.518   4.286   1.812  0.4498  0.1986  0.5026
 1402TIP3    H1 4212   4.441   4.285   1.755  0.0793 -0.0982  0.9998
 1402TIP3    H2 4213   4.587   4.247   1.759 -0.0916 -0.8206  0.5141
 1403TIP3   OH2 4214   4.925   3.037   4.465  0.3940 -0.0550  0.3418
 1403TIP3    H1 4215   4.971   3.043   4.548  0.1050 -2.4220  0.7310
 1403TIP3    H2 4216   4.906   3.128   4.442  1.7123  0.7410  2.1331
 1404TIP3   OH2 4217   5.592   0.339   1.985 -0.0215 -0.3648  0.1566
 1404TIP3    H1 4218   5.588   0.261   1.930  1.9593 -1.2477  1.1832
 1404TIP3    H2 4219   5.558   0.311   2.069 -0.5206  0.2618  0.1741
 1405TIP3   OH2 4220   6.110   5.215   1.327  0.9333 -0.2456  0.2398
 1405TIP3    H1 4221   6.164   5.136   1.324  1.9933  0.4961 -1.7316
 1405TIP3    H2 4222   6.120   5.254   1.241  0.2193  1.9312  1.0879
 1406TIP3   OH2 4223   3.282   3.062   3.934  0.0179 -0.3860 -0.6222
 1406TIP3    H1 4224   3.375   3.044   3.927  0.3098  0.9943 -0.5038
 1406TIP3    H2 4225   3.259   3.104   3.851 -0.5106 -0.7752 -0.6771
 1407TIP3   OH2 4226   1.735   1.530   3.812  0.6459  0.2884 -0.0216
 1407TIP3    H1 4227   1.738   1.577   3.895  1.1852  3.4522 -1.6803
 1407TIP3    H2 4228   1.826   1.503   3.797  0.3977 -1.0601  0.7658
 1408TIP3   OH2 4229   1.294   1.128   2.229  0.4273  0.2536 -0.3062
 1408TIP3    H1 4230   1.294   1.077   2.148  0.0605 -0.1391 -0.0711
 1408TIP3    H2 4231   1.375   1.103   2.273  0.5555  0.3541 -0.4868
 1409TIP3   OH2 4232   4.645   4.201   3.540  0.1801 -0.1918 -0.7141
 1409TIP3    H1 4233   4.596   4.281   3.558  1.7065  0.2912  1.8914
 1409TIP3    H2 4234   4.737   4.227   3.547  0.7544 -1.8176 -1.6375
 1410TIP3   OH2 4235   1.588   3.316   2.472 -0.0251  0.1298 -0.7932
 1410TIP3    H1 4236   1.540   3.262   2.410  1.2743 -3.3946  0.9498
 1410TIP3    H2 4237   1.524   3.338   2.540 -0.2273 -0.7093 -0.7001
 1411TIP3   OH2 4238   2.923   2.824   0.004  0.2535 -0.3983  0.4269
 1411TIP3    H1 4239   2.953   2.734   0.019 -1.7115 -0.9463  1.2786
 1411TIP3    H2 4240   2.902   2.857   0.091 -1.0671  0.1293 -0.0696
 1412TIP3   OH2 4241   5.989   1.859   4.214  0.1873  0.1648  0.4794
 1412TIP3    H1 4242   5.959   1.801   4.144  2.4402 -0.9353  0.3633
 1412TIP3    H2 4243   5.925   1.931   4.214 -0.3878 -0.2617 -2.0739
 1413TIP3   OH2 4244   1.600   3.209   1.816  0.1645  0.0020  0.3326
 1413TIP3    H1 4245   1.541   3.279   1.843  0.2681  0.0518  0.4306
 1413TIP3    H2 4246   1.559   3.130   1.852 -0.4097 -0.0999 -0.5079
 1414TIP3   OH2 4247   4.496   1.927   3.993  0.0164  0.3111  0.3388
 1414TIP3    H1 4248   4.443   2.006   3.983 -1.7741 -1.1260 -2.7940
 1414TIP3    H2 4249   4.569   1.939   3.932 -0.6471 -0.6892 -0.6837
 1415TIP3   OH2 4250   4.031   0.480   2.394 -0.1469  0.5965 -0.2960
 1415TIP3    H1 4251   3.972   0.411   2.362 -0.5112  0.1799  1.1838
 1415TIP3    H2 4252   4.110   0.433   2.420 -0.8083  0.5184  1.7756
 1416TIP3   OH2 4253   4.466   0.112   5.166 -0.2587 -0.6242  0.0827
 1416TIP3    H1 4254   4.422   0.170   5.105  0.2324 -0.1145  0.2073
 1416TIP3    H2 4255   4.505   0.170   5.231 -0.7078 -1.1454  0.8523
 1417TIP3   OH2 4256   5.349   3.735   4.582  0.4501  0.2033  0.1772
 1417TIP3    H1 4257   5.389   3.763   4.500  0.3524  1.3129  0.4938
 1417TIP3    H2 4258   5.327   3.816   4.627 -0.9257 -0.3701  0.6120
 1418TIP3   OH2 4259   1.848   5.619   2.084 -0.2569 -0.3120 -0.4193
 1418TIP3    H1 4260   1.843   5.702   2.037  0.5537 -0.1353 -0.2115
 1418TIP3    H2 4261   1.879   5.643   2.172 -1.4136 -0.6720  0.1001
 1419TIP3   OH2 4262   4.776   3.751   0.013  0.0691  0.3940 -0.3748
 1419TIP3    H1 4263   4.695   3.707  -0.013  0.2347  0.1286 -0.4511
 1419TIP3    H2 4264   4.752   3.801   0.091 -0.3075  0.7960 -0.7489
 1420TIP3   OH2 4265   3.244   0.713   0.754  0.2910 -0.5365  0.0982
 1420TIP3    H1 4266   3.268   0.805   0.771  1.7178 -1.0380  1.0522
 1420TIP3    H2 4267   3.173   0.718   0.691  1.1522  1.2023 -0.8247
 1421TIP3   OH2 4268   1.074   4.439   2.593 -0.5016  0.0464  0.3081
 1421TIP3    H1 4269   1.153   4.491   2.579 -0.1607 -0.5594 -0.0277
 1421TIP3    H2 4270   1.036   4.429   2.506 -0.7292 -0.0077  0.4136
 1422TIP3   OH2 4271   2.586   2.286   1.751  0.1610 -0.1330 -0.0010
 1422TIP3    H1 4272   2.612   2.353   1.689  0.2012 -0.7718 -0.6970
 1422TIP3    H2 4273   2.492   2.300   1.764  0.0408 -0.3234 -0.6291
 1423TIP3   OH2 4274   2.169   0.073   3.373 -0.6609  0.2744  0.0266
 1423TIP3    H1 4275   2.160   0.060   3.279  0.3215 -0.0966 -0.0268
 1423TIP3    H2 4276   2.257   0.040   3.394 -0.9759  0.0815  1.1178
 1424TIP3   OH2 4277   4.370   4.876   4.231  0.0158 -0.2869  0.3116
 1424TIP3    H1 4278   4.465   4.859   4.229  0.3297  1.2649  0.5672
 1424TIP3    H2 4279   4.361   4.962   4.188 -1.0457  0.4675  1.9730
 1425TIP3   OH2 4280   5.673   5.187   4.706  0.4780  0.5593  0.1010
 1425TIP3    H1 4281   5.692   5.167   4.614  0.2105  0.3789  0.0838
 1425TIP3    H2 4282   5.698   5.108   4.754 -0.2813  0.2915  0.0698
 1426TIP3   OH2 4283   5.914   2.773   4.306 -0.8838 -0.7195  0.1015
 1426TIP3    H1 4284   5.841   2.774   4.369  0.7669  0.6002  2.1383
 1426TIP3    H2 4285   5.970   2.702   4.335  0.3483  0.4671  0.7354
 1427TIP3   OH2 4286   5.021   1.680   3.013  0.0938  0.0832  0.2200
 1427TIP3    H1 4287   4.990   1.736   3.084 -1.7623 -0.1824 -0.3407
 1427TIP3    H2 4288   5.028   1.738   2.937  1.1764  0.1679  0.3627
 1428TIP3   OH2 4289   1.804   3.652   1.207 -0.2580  0.0391  0.0036
 1428TIP3    H1 4290   1.874   3.587   1.197 -0.0590 -0.3841  2.9942
 1428TIP3    H2 4291   1.847   3.725   1.252 -1.1589  0.9976 -0.6565
 1429TIP3   OH2 4292   3.966   2.701   2.693  0.1737 -0.3903  1.0827
 1429TIP3    H1 4293   4.019   2.633   2.735  1.1978 -0.2905  0.0116
 1429TIP3    H2 4294   3.984   2.780   2.745  0.0573 -0.6337  1.4979
 1430TIP3   OH2 4295   2.579   0.240   4.358 -0.0228  0.3380 -0.2230
 1430TIP3    H1 4296   2.511   0.218   4.295 -1.3842  0.5082  1.1236
 1430TIP3    H2 4297   2.561   0.182   4.433  0.6421  1.1514  0.5875
 1431TIP3   OH2 4298   3.518   4.136   0.778  0.0383 -0.8041 -0.7986
 1431TIP3    H1 4299   3.512   4.200   0.849  1.4250 -3.0013  1.4726
 1431TIP3    H2 4300   3.612   4.123   0.766 -0.1873 -1.1386 -2.4616
 1432TIP3   OH2 4301   1.881   3.610   0.308  0.2395  0.4121 -0.1509
 1432TIP3    H1 4302   1.867   3.518   0.330 -0.8383 -0.2540 -3.1109
 1432TIP3    H2 4303   1.793   3.646   0.296  0.6097  2.1223  1.7527
 1433TIP3   OH2 4304   5.318   2.948   1.954 -0.5064  0.0417 -0.1882
 1433TIP3    H1 4305   5.342   3.013   1.887 -0.6045  0.1654 -0.1034
 1433TIP3    H2 4306   5.342   2.990   2.037 -1.3393  0.3096 -0.0747
 1434TIP3   OH2 4307   2.911   5.145   3.914  0.0080 -0.3598  1.0420
 1434TIP3    H1 4308   2.835   5.147   3.972 -2.4670  1.2127 -1.9953
 1434TIP3    H2 4309   2.922   5.052   3.892  0.2730 -0.8374  2.9514
 1435TIP3   OH2 4310   3.366   5.937   1.509  0.7386  0.5007 -0.2713
 1435TIP3    H1 4311   3.438   5.990   1.476  1.4031 -0.0609  0.2517
 1435TIP3    H2 4312   3.356   5.964   1.600  0.9914 -0.1641 -0.0429
 1436TIP3   OH2 4313   5.590   0.244   0.620  0.1769 -0.5426 -0.3807
 1436TIP3    H1 4314   5.615   0.275   0.707 -0.6780  0.9580 -0.6397
 1436TIP3    H2 4315   5.522   0.178   0.637 -0.7479  0.4944  0.0816
 1437TIP3   OH2 4316   1.157   1.182   3.837 -0.3761  0.1847  0.2430
 1437TIP3    H1 4317   1.158   1.230   3.754 -0.6632 -0.6792 -0.2736
 1437TIP3    H2 4318   1.070   1.200   3.873  0.1255  1.4259  0.8930
 1438TIP3   OH2 4319   3.354   2.910   3.232  0.1142  0.1048  0.2311
 1438TIP3    H1 4320   3.338   2.980   3.169 -0.8181  0.0140  0.3416
 1438TIP3    H2 4321   3.408   2.847   3.186  2.7311  1.8016  0.7638
 1439TIP3   OH2 4322   1.455   0.962   1.611 -0.5290 -0.6895 -0.0711
 1439TIP3    H1 4323   1.542   0.978   1.574 -0.6134 -1.5011 -0.6678
 1439TIP3    H2 4324   1.442   1.032   1.675 -0.9841  1.6626 -2.5787
 1440TIP3   OH2 4325   0.587   0.792   1.128 -0.1802  0.4276 -0.3525
 1440TIP3    H1 4326   0.623   0.868   1.174 -1.5598  1.9289 -1.6345
 1440TIP3    H2 4327   0.631   0.792   1.044  0.5067 -0.8140 -0.0235
 1441TIP3   OH2 4328   0.759   0.832   1.956 -0.0890  0.0624  0.5564
 1441TIP3    H1 4329   0.815   0.856   2.029  0.3553 -0.7886  0.5155
 1441TIP3    H2 4330   0.790   0.745   1.930  2.2817  1.6789 -2.9714
 1442TIP3   OH2 4331   5.818   3.357   4.086  0.3913  0.6401  0.5088
 1442TIP3    H1 4332   5.862   3.291   4.032  0.9276  0.7782  0.7692
 1442TIP3    H2 4333   5.888   3.416   4.114 -0.0758  1.3088  0.3030
 1443TIP3   OH2 4334   2.018   3.789   5.111 -0.3301  0.2154  0.0852
 1443TIP3    H1 4335   2.040   3.867   5.162 -1.6660  0.6081  0.0853
 1443TIP3    H2 4336   1.924   3.776   5.125 -0.2221 -1.1408 -0.2702
 1444TIP3   OH2 4337   2.639   0.531   0.628 -0.2663  0.1985 -0.6204
 1444TIP3    H1 4338   2.556   0.537   0.676 -0.8869  0.1618 -1.6741
 1444TIP3    H2 4339   2.645   0.613   0.579 -0.2541 -0.2937 -1.4574
 1445TIP3   OH2 4340   5.289   5.354   0.532 -0.0889 -0.4599  0.4797
 1445TIP3    H1 4341   5.269   5.329   0.442  1.0055 -1.6063  0.5357
 1445TIP3    H2 4342   5.309   5.272   0.577  1.7062  0.3094  1.1709
 1446TIP3   OH2 4343   1.158   5.644   2.449 -0.0657  0.4281  0.3406
 1446TIP3    H1 4344   1.163   5.598   2.533 -0.2198  2.2032  1.3756
 1446TIP3    H2 4345   1.086   5.707   2.460 -1.0858 -0.2779 -1.6607
 1447TIP3   OH2 4346   6.143   3.906   0.317  0.6245 -0.2809 -0.0381
 1447TIP3    H1 4347   6.050   3.894   0.334  1.0793 -1.2559  2.2618
 1447TIP3    H2 4348   6.166   3.985   0.366  1.4279 -1.4706  1.6375
 1448TIP3   OH2 4349   0.209   5.240   2.777 -0.3062 -0.6825 -0.3900
 1448TIP3    H1 4350   0.285   5.193   2.810 -0.1298 -0.7089 -0.8265
 1448TIP3    H2 4351   0.198   5.208   2.687  0.4177  0.8238 -1.0460
 1449TIP3   OH2 4352   3.537   5.667   0.797 -0.1220 -0.4028  0.0283
 1449TIP3    H1 4353   3.501   5.655   0.709 -0.4352 -1.3286  0.2667
 1449TIP3    H2 4354   3.464   5.700   0.849 -0.5520 -1.8708  0.4121
 1450TIP3   OH2 4355   1.385   0.082   4.898  0.4335  0.3890  0.4189
 1450TIP3    H1 4356   1.334   0.021   4.844  1.5229 -1.9093  1.8195
 1450TIP3    H2 4357   1.327   0.157   4.911 -1.5407 -0.9193 -0.2865
 1451TIP3   OH2 4358   6.253   2.678   1.580 -0.3860 -0.9318 -0.1334
 1451TIP3    H1 4359   6.308   2.725   1.517  0.7202 -0.8808  0.8375
 1451TIP3    H2 4360   6.211   2.747   1.631 -0.5764 -0.9730 -0.2374
 1452TIP3   OH2 4361   4.773   4.967   4.785 -0.0953 -0.0438  0.0763
 1452TIP3    H1 4362   4.859   4.953   4.745 -0.5853 -0.9779 -0.6839
 1452TIP3    H2 4363   4.780   5.053   4.827  0.7753  0.4891 -1.1161
 1453TIP3   OH2 4364   6.097   0.830   0.952  0.0160  0.4697 -0.6342
 1453TIP3    H1 4365   6.096   0.925   0.945 -2.4227  0.6083  0.3937
 1453TIP3    H2 4366   6.116   0.813   1.044 -2.2626  0.1477 -0.1549
 1454TIP3   OH2 4367   0.502   3.271   0.936  0.3395 -0.7022  0.4812
 1454TIP3    H1 4368   0.597   3.258   0.936  0.9765  2.4617 -2.3900
 1454TIP3    H2 4369   0.490   3.360   0.969 -1.7744 -1.4132  1.7894
 1455TIP3   OH2 4370   0.104   0.924   2.919  0.0491  0.2314 -0.4422
 1455TIP3    H1 4371   0.160   0.973   2.980  0.1858  0.3790 -0.6873
 1455TIP3    H2 4372   0.113   0.969   2.836 -0.3495  0.1894 -0.5119
 1456TIP3   OH2 4373   3.567   5.212   0.823 -0.1298 -0.0126 -0.5991
 1456TIP3    H1 4374   3.649   5.245   0.785  0.1705  0.7219  0.6294
 1456TIP3    H2 4375   3.545   5.275   0.892 -1.0415 -0.9003 -0.0450
 1457TIP3   OH2 4376   1.288   3.616   4.509  0.1571 -0.3344 -0.1173
 1457TIP3    H1 4377   1.199   3.634   4.481 -0.3099 -1.8695  0.3015
 1457TIP3    H2 4378   1.314   3.694   4.558 -0.4178  0.7256 -1.4404
 1458TIP3   OH2 4379   2.908   3.442   1.206  0.2497  0.9327  0.7706
 1458TIP3    H1 4380   2.821   3.421   1.173 -0.1373  1.6699  1.2996
 1458TIP3    H2 4381   2.945   3.503   1.142  0.0783  1.2162  0.9432
 1459TIP3   OH2 4382   6.158   0.346   4.812  0.4640  0.2825 -0.0238
 1459TIP3    H1 4383   6.186   0.437   4.825 -0.3143  0.6580 -0.8641
 1459TIP3    H2 4384   6.137   0.316   4.900  1.1996  0.7513  0.3271
 1460TIP3   OH2 4385   2.378   1.187   4.484  0.2616 -0.5354  0.2403
 1460TIP3    H1 4386   2.416   1.210   4.400  0.2066 -1.4790 -0.0586
 1460TIP3    H2 4387   2.362   1.270   4.528 -2.7537  0.2456 -1.9922
 1461TIP3   OH2 4388   0.348   5.925   0.216 -0.0092  0.6714 -0.1727
 1461TIP3    H1 4389   0.342   5.838   0.256 -0.7036  0.4776 -0.6696
 1461TIP3    H2 4390   0.258   5.946   0.192  0.2300  1.2987 -0.5455
 1462TIP3   OH2 4391   4.497   5.558   1.292 -0.2814  0.7661 -0.7278
 1462TIP3    H1 4392   4.444   5.637   1.294 -0.8997  0.3401  0.2897
 1462TIP3    H2 4393   4.490   5.522   1.380  0.7776  0.0919 -0.9011
 1463TIP3   OH2 4394   3.582   5.024   2.530 -0.1670 -0.3834  0.4585
 1463TIP3    H1 4395   3.602   5.108   2.489 -1.9405  0.7272  1.7678
 1463TIP3    H2 4396   3.639   4.961   2.483 -0.3236  1.1549 -1.9897
 1464TIP3   OH2 4397   2.961   3.042   3.847  0.1197  0.1868  0.2681
 1464TIP3    H1 4398   3.041   3.062   3.799 -0.8201  0.9964 -1.0116
 1464TIP3    H2 4399   2.912   2.984   3.789  0.2078 -1.1604  1.4810
 1465TIP3   OH2 4400   6.212   0.103   4.206 -1.0632  0.7579 -0.1555
 1465TIP3    H1 4401   6.203   0.020   4.159  0.1105  0.9723 -0.7967
 1465TIP3    H2 4402   6.126   0.144   4.198 -1.3307  0.1048 -0.7883
 1466TIP3   OH2 4403   1.066   2.905   1.109 -0.0777 -0.1422  0.3635
 1466TIP3    H1 4404   1.049   2.848   1.034  0.4875 -0.4828  0.4875
 1466TIP3    H2 4405   0.979   2.934   1.137 -0.4761 -1.7857  0.9551
 1467TIP3   OH2 4406   4.783   0.928   0.551  0.5013 -0.3955  0.1986
 1467TIP3    H1 4407   4.744   1.015   0.560  1.8538  0.2802 -0.2091
 1467TIP3    H2 4408   4.738   0.889   0.476 -0.6759 -0.3825  0.8680
 1468TIP3   OH2 4409   0.426   1.182   4.107  0.1531  0.1687 -0.0184
 1468TIP3    H1 4410   0.438   1.210   4.198 -1.6496 -0.6861  0.5438
 1468TIP3    H2 4411   0.369   1.105   4.114 -0.4317  0.3947 -1.9040
 1469TIP3   OH2 4412   0.615   4.993   3.587 -0.3311  0.0149 -0.1310
 1469TIP3    H1 4413   0.630   4.949   3.671 -2.3122 -0.9795 -0.2225
 1469TIP3    H2 4414   0.522   4.977   3.569 -0.4605  1.9954 -1.5104
 1470TIP3   OH2 4415   2.725   4.441   4.256 -0.2287  0.5624 -0.0807
 1470TIP3    H1 4416   2.737   4.444   4.351  0.1435  0.9734 -0.1333
 1470TIP3    H2 4417   2.674   4.519   4.236 -2.5955 -0.8540  0.0629
 1471TIP3   OH2 4418   0.967   5.339   0.558  0.4080 -0.6238 -0.5826
 1471TIP3    H1 4419   0.907   5.303   0.492 -0.1157  0.0974 -0.5172
 1471TIP3    H2 4420   0.910   5.357   0.634  0.4442  1.2707 -0.9651
 1472TIP3   OH2 4421   2.631   0.755   4.082  0.0911  0.4117  0.0912
 1472TIP3    H1 4422   2.714   0.758   4.035 -0.2346  1.8515 -0.4600
 1472TIP3    H2 4423   2.586   0.677   4.047  0.9768 -0.0727  0.0144
 1473TIP3   OH2 4424   5.517   2.575   3.604  0.3634 -0.0019 -0.4965
 1473TIP3    H1 4425   5.542   2.666   3.620 -0.2404  0.0686  0.1230
 1473TIP3    H2 4426   5.429   2.581   3.567  0.0958 -0.3484  0.0729
 1474TIP3   OH2 4427   0.896   3.376   2.035 -0.0782  0.2284 -0.7461
 1474TIP3    H1 4428   0.864   3.364   2.124  0.8553  1.2679 -0.2550
 1474TIP3    H2 4429   0.825   3.423   1.990  0.0672  1.0459 -0.1297
 1475TIP3   OH2 4430   4.081   5.656   5.183  0.7121  0.3612  0.7978
 1475TIP3    H1 4431   4.112   5.608   5.106  0.4333  1.8078 -0.2814
 1475TIP3    H2 4432   4.053   5.589   5.245  0.5775 -0.8471 -0.5308
 1476TIP3   OH2 4433   2.529   1.632   4.508 -0.2823 -0.0864 -0.0733
 1476TIP3    H1 4434   2.476   1.577   4.449 -0.1470  0.4877 -0.7480
 1476TIP3    H2 4435   2.474   1.709   4.523 -0.8546 -0.7901  1.6003
 1477TIP3   OH2 4436   4.974   1.966   0.334  0.2388 -0.2239  0.2936
 1477TIP3    H1 4437   4.919   2.027   0.283  0.1115 -1.7909 -1.5466
 1477TIP3    H2 4438   5.063   1.999   0.323  0.0107  0.6475  0.8658
 1478TIP3   OH2 4439   5.428   0.330   1.409  0.2106 -0.6519  0.0932
 1478TIP3    H1 4440   5.416   0.308   1.317 -0.6010 -2.2028  0.5280
 1478TIP3    H2 4441   5.339   0.340   1.443  0.4909 -0.4816  0.7914
 1479TIP3   OH2 4442   5.783   0.820   5.183 -0.0171 -0.3191  0.3090
 1479TIP3    H1 4443   5.811   0.742   5.136 -1.8858 -0.7723 -0.1528
 1479TIP3    H2 4444   5.699   0.795   5.221 -1.5661  1.9654 -1.3396
 1480TIP3   OH2 4445   4.997   4.739   4.896 -0.3644 -0.5773  0.4075
 1480TIP3    H1 4446   4.980   4.645   4.887  0.0245 -0.6083  0.0151
 1480TIP3    H2 4447   4.972   4.776   4.812 -0.4257 -0.3380  0.5303
 1481TIP3   OH2 4448   1.166   2.821   2.173 -0.7376  0.4033  0.5330
 1481TIP3    H1 4449   1.127   2.834   2.260  0.3865  0.8498  0.9978
 1481TIP3    H2 4450   1.247   2.773   2.190 -0.8652 -0.1512 -0.3593
 1482TIP3   OH2 4451   5.569   1.399   2.305 -0.1367  0.5847  0.3613
 1482TIP3    H1 4452   5.546   1.349   2.227  0.1162 -0.8386  1.1559
 1482TIP3    H2 4453   5.641   1.455   2.277  1.5642 -1.5799  0.0739
 1483TIP3   OH2 4454   1.596   2.120   3.163  0.7165  0.0441  0.7544
 1483TIP3    H1 4455   1.578   2.035   3.123  1.6938  0.5636 -0.8609
 1483TIP3    H2 4456   1.527   2.178   3.129  0.8555  0.2179  0.7685
 1484TIP3   OH2 4457   1.750   0.120   2.553  0.2332  0.3633  0.5455
 1484TIP3    H1 4458   1.813   0.049   2.539 -0.6949 -0.6250  1.1833
 1484TIP3    H2 4459   1.675   0.097   2.497  0.3780  1.4889 -0.1567
 1485TIP3   OH2 4460   5.182   3.938   1.687  0.2302 -0.2781  0.2797
 1485TIP3    H1 4461   5.164   4.031   1.702 -0.8433 -0.7558  2.3626
 1485TIP3    H2 4462   5.246   3.915   1.755  0.1131 -1.1779  0.0957
 1486TIP3   OH2 4463   5.119   5.785   0.172  0.6068  0.0878 -0.3606
 1486TIP3    H1 4464   5.140   5.873   0.141  2.2624 -0.4176 -0.7658
 1486TIP3    H2 4465   5.089   5.738   0.094  0.6056  0.0332 -0.3276
 1487TIP3   OH2 4466   1.506   0.283   3.494  0.2226 -0.4493 -0.4357
 1487TIP3    H1 4467   1.529   0.293   3.402  2.9349  0.2267  0.2147
 1487TIP3    H2 4468   1.547   0.200   3.520 -1.9696 -1.5312 -0.1669
 1488TIP3   OH2 4469   2.494   3.158   1.389  0.1377  0.0210 -0.4257
 1488TIP3    H1 4470   2.570   3.101   1.380 -0.4054 -1.1568  1.7512
 1488TIP3    H2 4471   2.452   3.129   1.470 -2.1108  1.2546 -1.0694
 1489TIP3   OH2 4472   4.650   2.019   3.246  0.1268  0.6542  0.1962
 1489TIP3    H1 4473   4.657   1.929   3.277 -0.4242  1.1058  1.7199
 1489TIP3    H2 4474   4.741   2.047   3.231  0.3591  0.1766  0.7103
 1490TIP3   OH2 4475   2.081   0.114   2.264  0.2397  0.4638  0.0126
 1490TIP3    H1 4476   1.991   0.083   2.251  0.7204 -1.2374  0.5793
 1490TIP3    H2 4477   2.099   0.098   2.357  1.0728  0.9948 -0.0427
 1491TIP3   OH2 4478   4.457   1.387   3.472 -0.5754  0.1657 -0.0460
 1491TIP3    H1 4479   4.515   1.365   3.545 -1.4430  0.1629  0.6586
 1491TIP3    H2 4480   4.497   1.346   3.396  0.7318  0.7617  0.2849
 1492TIP3   OH2 4481   2.719   3.960   2.884  0.2902  0.2566 -0.3055
 1492TIP3    H1 4482   2.741   4.052   2.903 -0.5128  0.8157 -1.9203
 1492TIP3    H2 4483   2.801   3.923   2.851  0.2619  0.8217 -1.0561
 1493TIP3   OH2 4484   1.785   0.066   2.231  0.4583  0.9318 -0.2638
 1493TIP3    H1 4485   1.773  -0.010   2.175  1.2152 -0.1716  1.0243
 1493TIP3    H2 4486   1.702   0.114   2.224 -0.3100 -0.3961 -0.5238
 1494TIP3   OH2 4487   0.764   3.049   4.714 -0.0256  0.1291 -0.4501
 1494TIP3    H1 4488   0.715   2.979   4.671 -1.0408 -0.5750  1.7122
 1494TIP3    H2 4489   0.697   3.114   4.737  0.5727  0.7451 -0.4305
 1495TIP3   OH2 4490   5.147   0.871   1.526 -0.2093 -0.3302  0.5258
 1495TIP3    H1 4491   5.227   0.919   1.546  1.6480 -1.7373 -2.6931
 1495TIP3    H2 4492   5.135   0.811   1.600  0.4924  1.2941  2.0142
 1496TIP3   OH2 4493   2.689   3.448   2.655 -0.2598  0.1828  0.5707
 1496TIP3    H1 4494   2.765   3.443   2.714 -0.0397 -0.9835  0.2216
 1496TIP3    H2 4495   2.666   3.356   2.639 -0.9228  0.5057 -0.3916
 1497TIP3   OH2 4496   0.324   1.770   4.723  0.2035  0.6386  0.0385
 1497TIP3    H1 4497   0.292   1.709   4.656 -1.3067  1.4120  0.0219
 1497TIP3    H2 4498   0.287   1.738   4.805  0.2785  0.9303  0.1883
 1498TIP3   OH2 4499   6.338   3.356   1.922  0.4348 -0.1108 -0.1108
 1498TIP3    H1 4500   6.291   3.332   1.842  1.1373  0.1025 -0.6023
 1498TIP3    H2 4501   6.390   3.279   1.943 -0.0473 -0.3104  0.3766
 1499TIP3   OH2 4502   4.318   2.746   1.243 -0.3196  0.1133 -0.0973
 1499TIP3    H1 4503   4.384   2.680   1.265 -2.2916 -1.3400  1.9362
 1499TIP3    H2 4504   4.303   2.736   1.150 -0.4598 -2.2905  0.1198
 1500TIP3   OH2 4505   5.878   3.704   2.594  0.1683  0.7382  0.4530
 1500TIP3    H1 4506   5.847   3.614   2.602 -2.1236  1.4126  0.1266
 1500TIP3    H2 4507   5.910   3.711   2.504  1.4242 -0.0186  0.8264
 1501TIP3   OH2 4508   5.094   0.109   1.142 -0.4431  0.3443  0.5706
 1501TIP3    H1 4509   5.133   0.031   1.103  0.7512  0.0104  2.2804
 1501TIP3    H2 4510   5.135   0.182   1.096  3.4509  0.0584  3.0859
 1502TIP3   OH2 4511   0.355   5.514   3.443  0.6058  0.6262 -0.2828
 1502TIP3    H1 4512   0.415   5.471   3.503 -1.4451  0.1968  1.5980
 1502TIP3    H2 4513   0.320   5.442   3.389  1.5569  0.8444 -1.2227
 1503TIP3   OH2 4514   4.244   4.000   1.901 -0.4567 -0.2206 -0.5098
 1503TIP3    H1 4515   4.278   3.967   1.984  0.0968 -0.1353 -0.6924
 1503TIP3    H2 4516   4.149   4.003   1.913 -0.2804  1.6297  0.8035
 1504TIP3   OH2 4517   6.341   1.292   3.701 -0.0959  0.5373  0.6858
 1504TIP3    H1 4518   6.273   1.230   3.728  0.6100 -0.3068  0.6021
 1504TIP3    H2 4519   6.318   1.316   3.612 -0.4070  0.4187  0.7337
 1505TIP3   OH2 4520   3.302   1.014   2.704 -0.3025 -0.0205 -0.8565
 1505TIP3    H1 4521   3.259   1.008   2.789  1.5441 -1.1993  0.0686
 1505TIP3    H2 4522   3.306   0.924   2.672 -0.5186  0.3469 -1.9807
 1506TIP3   OH2 4523   0.465   2.557   2.067  0.7488 -0.9128  0.1084
 1506TIP3    H1 4524   0.470   2.644   2.106  0.0832 -0.8153 -0.0070
 1506TIP3    H2 4525   0.552   2.519   2.081  1.8825  0.6924 -2.0466
 1507TIP3   OH2 4526   0.771   1.896   4.320 -0.2898 -0.6467 -0.4723
 1507TIP3    H1 4527   0.791   1.857   4.234  0.0299  0.6698 -1.0305
 1507TIP3    H2 4528   0.849   1.879   4.372 -0.1961 -0.8566 -0.6787
 1508TIP3   OH2 4529   4.964   1.409   4.372  0.1642 -0.1686 -0.4431
 1508TIP3    H1 4530   4.999   1.371   4.291  2.6250 -3.2603  1.8295
 1508TIP3    H2 4531   5.040   1.416   4.429 -1.8176 -0.3556  2.3980
 1509TIP3   OH2 4532   2.284   5.204   4.462 -0.1100 -0.6186 -0.0489
 1509TIP3    H1 4533   2.195   5.226   4.491 -0.4489  0.3533 -1.7395
 1509TIP3    H2 4534   2.327   5.288   4.449  0.7650 -1.0687 -0.1400
 1510TIP3   OH2 4535   4.879   5.076   1.574 -0.2504 -0.6016  0.1732
 1510TIP3    H1 4536   4.901   5.169   1.576  1.4924 -0.9300 -0.9967
 1510TIP3    H2 4537   4.817   5.068   1.502 -0.1863 -0.3900  0.0924
 1511TIP3   OH2 4538   2.469   1.133   0.978 -0.3178 -0.0959 -0.1919
 1511TIP3    H1 4539   2.497   1.217   0.943 -0.0008  0.3618  1.1183
 1511TIP3    H2 4540   2.384   1.151   1.019  0.4930  0.0078  1.5588
 1512TIP3   OH2 4541   1.135   0.565   3.012 -0.0843 -0.1188  0.3727
 1512TIP3    H1 4542   1.097   0.653   3.002  1.3352  0.3760 -1.0920
 1512TIP3    H2 4543   1.140   0.552   3.107 -3.1391  0.0631  0.6639
 1513TIP3   OH2 4544   5.860   4.834   2.526 -0.5100  0.1353 -0.2925
 1513TIP3    H1 4545   5.925   4.787   2.577 -0.2861 -0.8360 -1.4206
 1513TIP3    H2 4546   5.837   4.773   2.455 -0.6542  1.4897 -1.4531
 1514TIP3   OH2 4547   5.693   2.861   3.141  0.2851 -0.1721 -0.4206
 1514TIP3    H1 4548   5.647   2.936   3.178 -0.1566 -1.0943  0.9969
 1514TIP3    H2 4549   5.735   2.819   3.216 -0.8232 -2.2447 -0.8694
 1515TIP3   OH2 4550   1.151   4.540   0.341  0.5555  0.2326  0.3866
 1515TIP3    H1 4551   1.101   4.490   0.405  1.4173 -0.7847  0.2878
 1515TIP3    H2 4552   1.108   4.626   0.338 -1.2150 -0.6325  0.2311
 1516TIP3   OH2 4553   0.945   4.801   1.667 -0.3766 -0.2838  0.6160
 1516TIP3    H1 4554   0.941   4.763   1.754 -0.9968 -0.7559  0.3897
 1516TIP3    H2 4555   0.930   4.894   1.681 -1.0046 -0.4336  0.9611
 1517TIP3   OH2 4556   2.770   5.828   3.674  0.1012 -0.4449 -0.2106
 1517TIP3    H1 4557   2.843   5.855   3.618  0.8584 -1.1759  0.4025
 1517TIP3    H2 4558   2.724   5.909   3.694  0.1914 -0.0952 -1.3696
 1518TIP3   OH2 4559   4.204   2.526   1.764 -0.1097 -0.2898  0.2483
 1518TIP3    H1 4560   4.137   2.457   1.769 -0.2812 -0.1128  0.4325
 1518TIP3    H2 4561   4.180   2.587   1.834  0.1146 -0.1081  0.1671
 1519TIP3   OH2 4562   2.612   5.220   4.946  0.8103  0.7704 -0.2324
 1519TIP3    H1 4563   2.633   5.221   5.039  1.1152 -1.7712 -0.2172
 1519TIP3    H2 4564   2.536   5.278   4.938  1.2224  1.5999  1.4546
 1520TIP3   OH2 4565   3.343   3.334   1.070  0.0675  0.0125 -0.6701
 1520TIP3    H1 4566   3.364   3.251   1.028  1.1143 -0.1515  0.1499
 1520TIP3    H2 4567   3.427   3.378   1.081 -0.2659  0.3966  0.5068
 1521TIP3   OH2 4568   2.127   0.753   2.762  0.3148 -0.2704 -0.0224
 1521TIP3    H1 4569   2.120   0.844   2.790  2.0052 -0.7291  2.2678
 1521TIP3    H2 4570   2.221   0.734   2.764  0.0193 -2.0308 -0.5614
 1522TIP3   OH2 4571   2.336   2.556   0.710  0.6951  0.5208 -0.1288
 1522TIP3    H1 4572   2.302   2.497   0.643 -0.2227 -0.2905  1.0017
 1522TIP3    H2 4573   2.308   2.516   0.793  1.7640  1.5054  0.7383
 1523TIP3   OH2 4574   0.204   1.990   0.646  0.0969  0.6523  0.0615
 1523TIP3    H1 4575   0.156   1.927   0.699  1.2710 -0.9349 -0.6836
 1523TIP3    H2 4576   0.225   2.061   0.707 -1.7496  0.6452  0.7669
 1524TIP3   OH2 4577   1.380   2.620   2.234 -0.1652  0.0262 -0.2516
 1524TIP3    H1 4578   1.321   2.565   2.183 -0.6586  0.8710 -0.6133
 1524TIP3    H2 4579   1.370   2.590   2.324 -0.8877 -0.0656 -0.3629
 1525TIP3   OH2 4580   3.882   3.251   2.362  0.3491  0.2467  0.1650
 1525TIP3    H1 4581   3.943   3.186   2.327  0.6555  0.5399  0.1413
 1525TIP3    H2 4582   3.813   3.200   2.403  0.1754 -0.0970 -0.5462
 1526TIP3   OH2 4583   4.509   0.739   1.805 -0.2909 -0.4013  0.1618
 1526TIP3    H1 4584   4.495   0.817   1.753 -2.3515 -0.1267  1.0603
 1526TIP3    H2 4585   4.468   0.668   1.755 -1.7076 -0.2452  1.0589
 1527TIP3   OH2 4586   4.152   0.403   5.189 -0.0076 -0.4059  0.1720
 1527TIP3    H1 4587   4.205   0.482   5.177  1.0808 -0.7092  2.4243
 1527TIP3    H2 4588   4.071   0.420   5.141 -0.0283  2.3148  1.0220
 1528TIP3   OH2 4589   6.232   4.579   2.626  0.0217 -0.4181 -0.1890
 1528TIP3    H1 4590   6.311   4.633   2.623 -0.2440 -0.0553 -0.7921
 1528TIP3    H2 4591   6.248   4.509   2.563 -0.0858 -0.4170 -0.2175
 1529TIP3   OH2 4592   3.798   3.694   1.705 -0.2203 -0.4084 -0.3876
 1529TIP3    H1 4593   3.749   3.765   1.664  1.0444  0.9133  0.3058
 1529TIP3    H2 4594   3.759   3.686   1.793 -0.5870 -0.8364 -0.5809
 1530TIP3   OH2 4595   0.294   3.295   2.068 -0.2261  0.3338 -0.5142
 1530TIP3    H1 4596   0.374   3.332   2.106 -0.5434 -0.0230  0.5401
 1530TIP3    H2 4597   0.312   3.290   1.974  0.8120  0.6808 -0.3484
 1531TIP3   OH2 4598   2.143   3.398   0.987 -0.1025 -0.1998 -0.2122
 1531TIP3    H1 4599   2.198   3.467   0.949  0.3582 -0.6605 -0.3837
 1531TIP3    H2 4600   2.144   3.328   0.922 -1.2444 -0.0538 -0.4134
 1532TIP3   OH2 4601   1.381   4.401   0.410 -0.3184 -0.1363  0.2321
 1532TIP3    H1 4602   1.318   4.416   0.340 -0.0717 -0.9121 -0.1581
 1532TIP3    H2 4603   1.457   4.361   0.367  0.9532  1.8169  0.4812
 1533TIP3   OH2 4604   3.959   1.551   0.330  0.2071 -0.4607 -0.6484
 1533TIP3    H1 4605   3.978   1.644   0.346  1.8170 -0.5532 -1.8157
 1533TIP3    H2 4606   4.001   1.505   0.402 -2.6970 -0.2304  1.3820
 1534TIP3   OH2 4607   4.934   2.393   3.843  0.0859 -0.7139 -0.3356
 1534TIP3    H1 4608   5.006   2.333   3.826  0.7699 -0.3894  1.3362
 1534TIP3    H2 4609   4.974   2.479   3.843 -0.4681 -0.4547 -0.2660
 1535TIP3   OH2 4610   4.687   2.988   3.287 -0.2859  0.2796 -0.2441
 1535TIP3    H1 4611   4.618   2.939   3.243  0.1366  1.2479 -2.0867
 1535TIP3    H2 4612   4.725   2.926   3.349 -3.4583  0.0320  1.6541
 1536TIP3   OH2 4613   3.398   0.662   1.851  0.0778  0.4882  0.2244
 1536TIP3    H1 4614   3.410   0.718   1.928 -0.1136  0.9368 -0.0729
 1536TIP3    H2 4615   3.477   0.607   1.850 -0.3847 -0.2487  1.3342
 1537TIP3   OH2 4616   3.241   4.629   4.315  1.1319  0.6067 -0.0821
 1537TIP3    H1 4617   3.173   4.631   4.248 -1.4030 -1.8843  2.1897
 1537TIP3    H2 4618   3.279   4.542   4.308 -0.5878 -0.5205  2.8081
 1538TIP3   OH2 4619   4.676   3.684   2.188  0.7808 -0.2246 -0.0297
 1538TIP3    H1 4620   4.761   3.653   2.158 -0.0452 -0.5176 -2.2233
 1538TIP3    H2 4621   4.623   3.691   2.109 -1.1438  0.3007  1.2269
 1539TIP3   OH2 4622   0.263   3.544   2.242 -0.1920  0.4255 -0.0621
 1539TIP3    H1 4623   0.195   3.480   2.265 -1.0554  1.6244  0.8722
 1539TIP3    H2 4624   0.318   3.549   2.320  1.8223 -1.4925 -1.2614
 1540TIP3   OH2 4625   0.610   5.701   4.544  0.6500 -0.3267  0.5829
 1540TIP3    H1 4626   0.671   5.707   4.618 -0.0407  1.6701  1.0288
 1540TIP3    H2 4627   0.564   5.618   4.558  0.4928  0.0423  2.4386
 1541TIP3   OH2 4628   3.437   4.229   4.620  0.3693 -0.0637  0.3209
 1541TIP3    H1 4629   3.439   4.147   4.669 -0.1444 -0.0526  0.3647
 1541TIP3    H2 4630   3.511   4.279   4.655  0.1676 -0.1631  0.9031
 1542TIP3   OH2 4631   4.517   3.146   2.984  0.2773  0.1006 -0.1845
 1542TIP3    H1 4632   4.511   3.240   2.997  1.0608  0.1438 -0.0919
 1542TIP3    H2 4633   4.575   3.135   2.909  0.3753 -0.3074 -0.0562
 1543TIP3   OH2 4634   0.919   2.674   3.825 -0.1979 -0.1586 -0.2330
 1543TIP3    H1 4635   1.003   2.716   3.806  1.6947 -3.4065  0.2941
 1543TIP3    H2 4636   0.942   2.584   3.846 -3.9827 -1.5790 -1.4863
 1544TIP3   OH2 4637   1.393   4.260   0.992  0.6142 -0.2536  0.1027
 1544TIP3    H1 4638   1.363   4.207   1.065 -0.1046 -1.3051 -0.9201
 1544TIP3    H2 4639   1.321   4.323   0.978  0.7022 -0.1247  0.2294
 1545TIP3   OH2 4640   3.264   3.909   4.910  0.3579 -0.2085 -0.2566
 1545TIP3    H1 4641   3.228   3.956   4.986 -0.2462  0.1543 -0.7563
 1545TIP3    H2 4642   3.254   3.817   4.932  1.6555 -0.1334  0.7895
 1546TIP3   OH2 4643   1.156   0.604   4.885 -0.1877 -0.2293  0.2997
 1546TIP3    H1 4644   1.195   0.668   4.945  0.4029 -0.4383  0.1532
 1546TIP3    H2 4645   1.164   0.520   4.931 -0.0287 -0.3414  0.0731
 1547TIP3   OH2 4646   5.088   4.138   0.631 -0.5849 -0.6580 -0.4379
 1547TIP3    H1 4647   5.125   4.103   0.550  0.5496 -2.2749  0.7115
 1547TIP3    H2 4648   5.162   4.182   0.674 -1.4172  1.0703 -0.7154
 1548TIP3   OH2 4649   4.820   1.251   1.407  0.9242 -0.2084  0.9759
 1548TIP3    H1 4650   4.760   1.183   1.376 -0.1526  1.0804  0.1662
 1548TIP3    H2 4651   4.907   1.213   1.394  0.4374 -0.6644 -1.4325
 1549TIP3   OH2 4652   1.996   1.929   4.298  0.0694 -0.5204  0.4125
 1549TIP3    H1 4653   1.997   1.894   4.209 -4.3623  0.3152 -0.1630
 1549TIP3    H2 4654   1.964   1.857   4.352  2.7283 -1.0239  1.4959
 1550TIP3   OH2 4655   4.058   3.044   2.296 -0.4972  0.3694  0.4005
 1550TIP3    H1 4656   4.124   3.113   2.298 -0.9191  0.7793  0.1611
 1550TIP3    H2 4657   4.095   2.975   2.351  0.9685 -0.1838 -1.2017
 1551TIP3   OH2 4658   6.209   4.438   0.999 -0.0473  0.2596  0.1270
 1551TIP3    H1 4659   6.143   4.423   0.931  0.5914 -0.3043 -0.3854
 1551TIP3    H2 4660   6.205   4.532   1.017  1.2986  0.8440 -2.2903
 1552TIP3   OH2 4661   4.802   1.552   2.468 -0.0273  0.8032  0.2504
 1552TIP3    H1 4662   4.750   1.578   2.391  0.2423  0.9923  0.1305
 1552TIP3    H2 4663   4.834   1.465   2.446  2.0134  1.7636 -0.8974
 1553TIP3   OH2 4664   4.509   1.632   4.791  0.7830 -0.2817 -0.8521
 1553TIP3    H1 4665   4.465   1.630   4.876  0.4157 -1.0900 -1.0497
 1553TIP3    H2 4666   4.602   1.640   4.811  0.8254 -1.8317 -0.3141
 1554TIP3   OH2 4667   1.800   1.727   4.377  0.3610 -0.0972 -0.1167
 1554TIP3    H1 4668   1.733   1.788   4.347 -0.5952 -0.4670  1.1871
 1554TIP3    H2 4669   1.795   1.653   4.317  0.4363  0.4147 -0.7523
 1555TIP3   OH2 4670   4.972   3.096   2.279  0.1515  0.2241  0.3311
 1555TIP3    H1 4671   4.879   3.076   2.285  0.4791 -1.9119 -0.5921
 1555TIP3    H2 4672   5.013   3.035   2.341  0.9974  0.3908 -0.0574
 1556TIP3   OH2 4673   2.106   5.041   2.894 -0.5021 -0.2017  0.2558
 1556TIP3    H1 4674   2.113   5.037   2.989  0.6275  0.8004  0.2431
 1556TIP3    H2 4675   2.083   4.952   2.867 -3.1439 -0.0046  1.5970
 1557TIP3   OH2 4676   0.146   4.134   1.593 -0.0046  0.6132 -0.0095
 1557TIP3    H1 4677   0.093   4.147   1.672 -0.0087  1.2471 -0.1139
 1557TIP3    H2 4678   0.209   4.066   1.617 -0.1541  0.6409  0.4642
 1558TIP3   OH2 4679   2.788   1.638   2.762  0.6062 -0.3322  0.9178
 1558TIP3    H1 4680   2.882   1.656   2.765  0.8144 -1.1540 -0.1150
 1558TIP3    H2 4681   2.748   1.713   2.805  1.6191  0.9173 -0.2273
 1559TIP3   OH2 4682   0.319   3.922   1.665  0.1457 -0.2334  0.0371
 1559TIP3    H1 4683   0.282   3.884   1.585  1.2728  0.0553 -0.6530
 1559TIP3    H2 4684   0.303   3.857   1.733 -0.1953 -0.8079 -0.5851
 1560TIP3   OH2 4685   2.956   5.434   4.960 -0.4579 -0.5688 -0.0561
 1560TIP3    H1 4686   3.019   5.438   4.889 -0.6123 -1.3131 -0.2439
 1560TIP3    H2 4687   2.873   5.460   4.921 -0.0770  1.7207  0.4823
 1561TIP3   OH2 4688   3.732   3.612   0.597 -0.1511  0.1167 -0.0373
 1561TIP3    H1 4689   3.762   3.692   0.640 -0.0900 -0.8779  1.8784
 1561TIP3    H2 4690   3.667   3.642   0.534  1.7651  1.9169 -1.3275
 1562TIP3   OH2 4691   5.975   2.022   1.711 -0.1993 -0.5821  0.4783
 1562TIP3    H1 4692   5.992   1.942   1.662  0.4066 -0.6447  0.7745
 1562TIP3    H2 4693   5.898   2.061   1.669  0.9024 -0.0910 -1.1865
 1563TIP3   OH2 4694   5.502   5.804   2.615 -0.6247  0.3137 -0.3975
 1563TIP3    H1 4695   5.440   5.780   2.546 -0.0127  2.9853 -1.9977
 1563TIP3    H2 4696   5.588   5.796   2.574 -0.1709  0.7877  0.4414
 1564TIP3   OH2 4697   5.244   1.139   2.540 -0.6398 -0.7116 -0.0361
 1564TIP3    H1 4698   5.252   1.135   2.635 -0.8992 -0.1982  0.0128
 1564TIP3    H2 4699   5.231   1.049   2.512 -2.0643 -0.7072  0.5530
 1565TIP3   OH2 4700   3.808   4.155   2.169  0.4911 -0.6660  0.0200
 1565TIP3    H1 4701   3.900   4.182   2.166  0.6004 -0.9158  0.8631
 1565TIP3    H2 4702   3.801   4.104   2.250 -0.3334 -0.8590 -0.1699
 1566TIP3   OH2 4703   2.347   1.752   0.428  0.1580  0.5225  0.1058
 1566TIP3    H1 4704   2.393   1.777   0.348 -0.4193  1.1324 -0.0374
 1566TIP3    H2 4705   2.393   1.800   0.497 -0.0828  0.9165 -0.0046
 1567TIP3   OH2 4706   2.606   4.497   3.692  0.1185  0.2694 -0.7927
 1567TIP3    H1 4707   2.532   4.451   3.731  1.8830 -0.8179  1.5246
 1567TIP3    H2 4708   2.574   4.525   3.606 -2.4038 -1.6163 -0.5980
 1568TIP3   OH2 4709   2.596   2.215   5.172  0.1941 -1.1191  0.2014
 1568TIP3    H1 4710   2.632   2.269   5.102 -0.1804 -0.7472  0.2937
 1568TIP3    H2 4711   2.668   2.208   5.236  0.5462 -1.4862 -0.2255
 1569TIP3   OH2 4712   1.583   5.300   1.548 -0.0449  0.3884  0.1985
 1569TIP3    H1 4713   1.676   5.311   1.529 -0.0598  0.4452  0.1584
 1569TIP3    H2 4714   1.577   5.213   1.588 -0.0985 -0.0383 -0.6990
 1570TIP3   OH2 4715   4.689   3.324   5.013 -0.7645 -0.2054  0.4820
 1570TIP3    H1 4716   4.642   3.398   5.051 -1.2672 -0.5331  0.5071
 1570TIP3    H2 4717   4.656   3.248   5.060  1.4189 -0.2578  2.0930
 1571TIP3   OH2 4718   5.557   2.415   4.369 -0.5489  0.6315  0.2577
 1571TIP3    H1 4719   5.502   2.343   4.401  0.0503  0.8507  1.8570
 1571TIP3    H2 4720   5.626   2.423   4.435  0.6132  1.2790 -0.9972
 1572TIP3   OH2 4721   6.295   0.863   5.094  0.2485  0.1563 -0.6366
 1572TIP3    H1 4722   6.389   0.846   5.086  0.0921 -1.3138  0.1661
 1572TIP3    H2 4723   6.269   0.813   5.172 -1.7854 -2.2315 -2.6679
 1573TIP3   OH2 4724   3.502   0.082   3.358  0.6722 -0.2944 -0.8147
 1573TIP3    H1 4725   3.524   0.042   3.442  1.1229 -1.7012 -1.5530
 1573TIP3    H2 4726   3.573   0.144   3.341  0.8364 -0.3635 -0.3807
 1574TIP3   OH2 4727   3.470   0.247   2.047  0.6013  0.5779  0.1086
 1574TIP3    H1 4728   3.476   0.246   1.952 -0.3999  0.7788  0.0370
 1574TIP3    H2 4729   3.419   0.325   2.068 -1.1629 -0.6751  0.6794
 1575TIP3   OH2 4730   5.429   1.303   2.071 -0.3871  0.4524 -0.1649
 1575TIP3    H1 4731   5.404   1.365   2.003  2.0946  0.0378 -1.5945
 1575TIP3    H2 4732   5.356   1.241   2.075 -0.5855  0.4321 -2.5649
 1576TIP3   OH2 4733   1.976   2.633   2.419  0.1248  0.3124 -0.2193
 1576TIP3    H1 4734   1.881   2.624   2.415  0.0683  1.1828 -3.0038
 1576TIP3    H2 4735   1.990   2.714   2.468 -0.6804  0.9487 -0.9963
 1577TIP3   OH2 4736   5.156   5.126   1.955  0.0498  0.0617 -0.2597
 1577TIP3    H1 4737   5.072   5.170   1.968 -0.4911 -0.8164 -0.6954
 1577TIP3    H2 4738   5.196   5.172   1.880 -0.6940 -0.4335 -0.9766
 1578TIP3   OH2 4739   0.992   0.535   3.828  0.5580  0.2134  0.1820
 1578TIP3    H1 4740   0.949   0.483   3.895 -0.4621  0.7135 -0.0595
 1578TIP3    H2 4741   0.966   0.625   3.848 -1.4132  0.2160 -1.9972
 1579TIP3   OH2 4742   3.381   4.752   2.349  0.2448 -0.1871 -0.1172
 1579TIP3    H1 4743   3.468   4.748   2.307  0.0464  1.0815 -0.6957
 1579TIP3    H2 4744   3.399   4.733   2.441  1.3859  1.5619  0.0621
 1580TIP3   OH2 4745   4.345   0.559   1.085  0.2264 -0.0586  0.1266
 1580TIP3    H1 4746   4.396   0.556   1.004 -0.1083 -0.2519 -0.0765
 1580TIP3    H2 4747   4.270   0.614   1.065  0.4802  0.4405  0.5047
 1581TIP3   OH2 4748   3.624   5.735   3.969  0.6915  0.0224 -0.2171
 1581TIP3    H1 4749   3.642   5.641   3.975  1.2714  0.1371 -0.0445
 1581TIP3    H2 4750   3.690   5.768   3.908  0.4226  0.3007 -0.3570
 1582TIP3   OH2 4751   0.802   5.176   0.429  0.4029  0.1873 -0.3986
 1582TIP3    H1 4752   0.808   5.149   0.521 -0.3891  0.2961 -0.3115
 1582TIP3    H2 4753   0.708   5.177   0.411  0.5804 -0.8636 -1.5172
 1583TIP3   OH2 4754   5.053   5.918   4.398 -0.6822  0.7298  0.4633
 1583TIP3    H1 4755   4.973   5.866   4.405 -0.2321 -0.1501 -0.5481
 1583TIP3    H2 4756   5.049   5.978   4.472 -2.5195  1.0549  0.1448
 1584TIP3   OH2 4757   3.217   3.742   2.910 -0.3726  0.1729  0.5244
 1584TIP3    H1 4758   3.134   3.723   2.955 -1.0113  1.5583 -0.0076
 1584TIP3    H2 4759   3.216   3.684   2.834 -0.7534  0.0265  0.6374
 1585TIP3   OH2 4760   0.523   3.864   2.637 -0.2583  0.2534 -0.3812
 1585TIP3    H1 4761   0.617   3.882   2.640  0.4690 -3.0343  0.5388
 1585TIP3    H2 4762   0.487   3.911   2.712  1.4093 -1.6417  1.7371
 1586TIP3   OH2 4763   1.235   3.832   2.831  0.4078 -0.1158 -0.0493
 1586TIP3    H1 4764   1.161   3.835   2.891  0.0732 -0.2098 -0.4543
 1586TIP3    H2 4765   1.196   3.837   2.744  0.8179 -1.0106 -0.2993
 1587TIP3   OH2 4766   2.958   2.063   4.716 -0.3289  0.6835 -0.2126
 1587TIP3    H1 4767   2.945   2.100   4.629 -2.3325 -0.5121 -0.5022
 1587TIP3    H2 4768   2.880   2.008   4.730  0.5013 -0.0634  1.8596
 1588TIP3   OH2 4769   2.192   0.257   0.482 -0.0468  0.2907  0.1106
 1588TIP3    H1 4770   2.269   0.302   0.446  0.2278 -0.3270 -0.0890
 1588TIP3    H2 4771   2.184   0.291   0.571 -0.4218  1.4406 -0.3490
 1589TIP3   OH2 4772   1.196   5.463   2.223  0.7418 -0.0584 -0.0375
 1589TIP3    H1 4773   1.119   5.471   2.279 -0.1415  0.9276 -1.3304
 1589TIP3    H2 4774   1.270   5.485   2.281  0.2619 -2.3589  1.5782
 1590TIP3   OH2 4775   0.425   3.279   5.145  0.1962 -0.3169  0.1706
 1590TIP3    H1 4776   0.371   3.288   5.067 -0.1206  1.0523  0.5326
 1590TIP3    H2 4777   0.471   3.196   5.133 -0.5636 -0.5822 -1.0182
 1591TIP3   OH2 4778   0.812   3.779   1.443 -0.2383 -0.5323  0.3259
 1591TIP3    H1 4779   0.887   3.821   1.402 -1.0037  0.7214  0.1573
 1591TIP3    H2 4780   0.838   3.688   1.454  1.4488 -0.0397  0.6272
 1592TIP3   OH2 4781   0.341   1.751   2.384 -0.3690 -0.1096 -0.0097
 1592TIP3    H1 4782   0.402   1.698   2.436 -1.0755 -0.2029  0.7378
 1592TIP3    H2 4783   0.296   1.687   2.328  2.0599  0.2171 -2.5676
 1593TIP3   OH2 4784   2.367   1.890   4.503  0.0815  0.3559 -0.2770
 1593TIP3    H1 4785   2.283   1.854   4.532  0.6013  0.5558  1.5939
 1593TIP3    H2 4786   2.413   1.912   4.584  2.2639 -0.4418 -1.2298
 1594TIP3   OH2 4787   6.146   5.768   4.943 -0.0625 -0.0901 -0.4652
 1594TIP3    H1 4788   6.120   5.694   4.998  0.9768 -1.5447 -1.8475
 1594TIP3    H2 4789   6.082   5.769   4.872 -0.4675  0.7940 -0.1066
 1595TIP3   OH2 4790   5.585   4.136   0.049 -0.3102 -0.1450 -0.1779
 1595TIP3    H1 4791   5.654   4.101   0.105  0.0817  2.6526  1.2801
 1595TIP3    H2 4792   5.504   4.118   0.095 -0.3997 -1.5812 -0.8579
 1596TIP3   OH2 4793   3.029   0.821   2.322 -0.0232 -0.5470 -0.5679
 1596TIP3    H1 4794   2.999   0.840   2.411  1.6170  0.2391 -0.1486
 1596TIP3    H2 4795   3.028   0.726   2.316 -1.5766 -0.5862 -0.2546
 1597TIP3   OH2 4796   4.054   1.716   3.675  0.0698 -0.2809 -0.0222
 1597TIP3    H1 4797   4.046   1.775   3.750  1.1481 -0.1729  0.0210
 1597TIP3    H2 4798   4.020   1.633   3.707 -0.5538  0.0637  0.2238
 1598TIP3   OH2 4799   0.147   3.775   4.101  0.0836  0.5434 -0.4281
 1598TIP3    H1 4800   0.157   3.843   4.035 -0.7766  0.7455 -0.3708
 1598TIP3    H2 4801   0.131   3.823   4.183 -2.4714  0.3230 -0.7083
 1599TIP3   OH2 4802   2.248   3.822   4.947 -0.4261 -0.5570  0.5121
 1599TIP3    H1 4803   2.180   3.805   5.012 -0.3680 -1.2953  0.3946
 1599TIP3    H2 4804   2.329   3.792   4.989 -0.1574  0.3257  0.6553
 1600TIP3   OH2 4805   0.950   0.969   2.126 -0.2481  0.0761  0.4110
 1600TIP3    H1 4806   1.031   0.978   2.076 -0.0736  0.1412  0.6986
 1600TIP3    H2 4807   0.970   1.010   2.210  0.0574 -1.5800  1.1879
 1601TIP3   OH2 4808   4.636   2.203   0.538 -0.1106 -0.2197 -0.3253
 1601TIP3    H1 4809   4.620   2.196   0.632 -0.7937  0.7756 -0.3454
 1601TIP3    H2 4810   4.671   2.118   0.513  1.7079  0.0161  1.1380
 1602TIP3   OH2 4811   5.402   0.527   1.963 -0.2284  0.3847 -0.3295
 1602TIP3    H1 4812   5.375   0.558   1.877  1.5666  2.1873 -0.3151
 1602TIP3    H2 4813   5.465   0.458   1.945 -1.3916 -0.7031 -0.3919
 1603TIP3   OH2 4814   5.761   4.932   3.159  0.2433  0.0649  0.7920
 1603TIP3    H1 4815   5.776   4.921   3.065 -2.0605 -1.3403  0.5271
 1603TIP3    H2 4816   5.724   5.020   3.167  0.9731  0.4134  0.4975
 1604TIP3   OH2 4817   5.252   1.741   3.799 -0.1323 -0.2118  0.3906
 1604TIP3    H1 4818   5.203   1.762   3.879  2.3495 -0.9411  2.2385
 1604TIP3    H2 4819   5.306   1.818   3.783  0.0292 -0.4180 -0.0748
 1605TIP3   OH2 4820   0.705   2.987   3.761 -0.1999  0.5330 -0.1280
 1605TIP3    H1 4821   0.693   3.024   3.673 -0.3416  0.6770 -0.0487
 1605TIP3    H2 4822   0.682   2.895   3.751  0.9836  0.2679 -0.5197
 1606TIP3   OH2 4823   2.410   2.728   4.841  0.9647 -0.2713  0.5325
 1606TIP3    H1 4824   2.360   2.699   4.917 -0.6246 -0.6359 -0.5939
 1606TIP3    H2 4825   2.357   2.700   4.766  3.1514 -1.1719 -0.7596
 1607TIP3   OH2 4826   5.214   0.604   3.885 -0.2096 -0.4609 -0.6574
 1607TIP3    H1 4827   5.167   0.617   3.803 -2.4277  2.0173  0.8328
 1607TIP3    H2 4828   5.185   0.518   3.916 -0.0982 -0.9909 -1.9621
 1608TIP3   OH2 4829   0.330   1.229   1.918 -0.1398  0.0351 -0.1294
 1608TIP3    H1 4830   0.392   1.281   1.971  0.3332  0.0432 -0.6861
 1608TIP3    H2 4831   0.250   1.227   1.971  0.5585 -0.5821  0.9380
 1609TIP3   OH2 4832   6.174   4.206   0.235 -0.2663  0.0485 -0.6501
 1609TIP3    H1 4833   6.205   4.155   0.310 -0.7788 -1.2119 -1.2774
 1609TIP3    H2 4834   6.254   4.234   0.191  0.0234 -0.6978 -0.6128
 1610TIP3   OH2 4835   5.404   4.007   0.520  0.6396 -0.1119  0.4648
 1610TIP3    H1 4836   5.464   3.933   0.522  1.9787  0.9087  0.2819
 1610TIP3    H2 4837   5.318   3.971   0.540  1.3701 -1.5845  1.0188
 1611TIP3   OH2 4838   2.255   4.920   0.357  0.5856  0.2167 -0.9886
 1611TIP3    H1 4839   2.267   4.968   0.439  1.1068 -1.9195  0.2606
 1611TIP3    H2 4840   2.161   4.906   0.350  0.5136  0.6558 -0.9218
 1612TIP3   OH2 4841   2.506   5.108   0.048  0.7734  0.5708  0.5047
 1612TIP3    H1 4842   2.458   5.049  -0.010 -0.1134  2.3910 -0.7135
 1612TIP3    H2 4843   2.507   5.063   0.133 -0.9556 -0.6107 -0.0431
 1613TIP3   OH2 4844   5.861   5.926   4.820  0.8387  0.7093  0.5553
 1613TIP3    H1 4845   5.818   5.874   4.887 -0.3468  2.6886  1.4253
 1613TIP3    H2 4846   5.793   5.985   4.789  1.4982  0.2381 -2.0394
 1614TIP3   OH2 4847   4.912   4.792   1.259  0.4403  0.0736 -0.6031
 1614TIP3    H1 4848   4.853   4.867   1.269  2.3039  1.4342  0.7808
 1614TIP3    H2 4849   4.960   4.811   1.178  0.3587 -0.0102 -0.6701
 1615TIP3   OH2 4850   1.320   2.434   3.789 -0.1317 -0.0495 -0.1052
 1615TIP3    H1 4851   1.392   2.488   3.820  0.1859 -0.5761  0.0783
 1615TIP3    H2 4852   1.264   2.421   3.866  0.1369 -0.5287  0.0111
 1616TIP3   OH2 4853   4.689   2.610   4.326 -0.5378  0.4895 -0.0154
 1616TIP3    H1 4854   4.723   2.534   4.279 -2.0875 -0.3032  0.0743
 1616TIP3    H2 4855   4.686   2.680   4.260  1.7295  0.7867  0.1172
 1617TIP3   OH2 4856   4.326   3.734   3.517 -0.5326  0.5456  0.4152
 1617TIP3    H1 4857   4.236   3.702   3.517 -1.0030  1.5894  3.3138
 1617TIP3    H2 4858   4.321   3.820   3.559  1.8152  0.6307  0.6454
 1618TIP3   OH2 4859   1.912   5.319   5.002  0.2723 -0.2731  0.4057
 1618TIP3    H1 4860   1.919   5.403   5.049  1.0204  0.0901 -0.3318
 1618TIP3    H2 4861   1.839   5.274   5.045 -1.4132  1.5474 -0.4033
 1619TIP3   OH2 4862   0.758   0.728   3.584  0.4864  0.2645  1.2789
 1619TIP3    H1 4863   0.848   0.699   3.572  0.2805  0.0231  0.2145
 1619TIP3    H2 4864   0.727   0.680   3.660  1.5508  1.0871  2.2635
 1620TIP3   OH2 4865   2.985   2.641   3.915  0.4433  0.1465 -0.3666
 1620TIP3    H1 4866   3.056   2.677   3.862 -0.0395  0.2152 -0.9743
 1620TIP3    H2 4867   2.922   2.608   3.851 -1.0905  1.9951  0.0995
 1621TIP3   OH2 4868   3.260   0.924   3.359  0.6535 -0.1336  0.2824
 1621TIP3    H1 4869   3.280   0.861   3.428 -1.2285 -1.1375 -0.0340
 1621TIP3    H2 4870   3.342   0.972   3.346  1.7486 -1.5920  1.4680
 1622TIP3   OH2 4871   3.527   2.284   0.742 -0.4350 -0.3587  0.0124
 1622TIP3    H1 4872   3.446   2.235   0.729  0.0825 -0.9952 -0.9263
 1622TIP3    H2 4873   3.574   2.275   0.659  1.1031 -0.9658  0.8949
 1623TIP3   OH2 4874   0.081   4.517   3.637 -0.0221 -0.0929  0.1232
 1623TIP3    H1 4875   0.128   4.468   3.705 -1.7594 -1.9061  0.1145
 1623TIP3    H2 4876   0.132   4.501   3.557  0.4821 -0.2683  0.4703
 1624TIP3   OH2 4877   6.097   0.456   0.981 -0.8414 -0.5151 -0.2729
 1624TIP3    H1 4878   6.168   0.437   1.042  0.3749  0.7087 -1.2532
 1624TIP3    H2 4879   6.097   0.382   0.921 -0.8211 -0.8136  0.0871
 1625TIP3   OH2 4880   2.621   0.694   4.475 -0.1418  0.3528 -0.2368
 1625TIP3    H1 4881   2.636   0.759   4.543 -0.3100 -0.8738  1.0047
 1625TIP3    H2 4882   2.685   0.716   4.407  1.8460  0.0553  1.4408
 1626TIP3   OH2 4883   5.828   5.790   1.080  0.2445 -0.0589 -0.5190
 1626TIP3    H1 4884   5.770   5.822   1.012  1.3630  1.0064 -1.0149
 1626TIP3    H2 4885   5.773   5.734   1.134 -2.0896  3.1485  0.7933
 1627TIP3   OH2 4886   1.563   3.531   4.696  0.1819  0.1151 -0.2671
 1627TIP3    H1 4887   1.579   3.447   4.739  0.1291 -0.0308 -0.5294
 1627TIP3    H2 4888   1.500   3.511   4.627 -0.9058  0.6183  0.5427
 1628TIP3   OH2 4889   0.171   3.278   1.486 -0.1345 -0.2408  0.0119
 1628TIP3    H1 4890   0.115   3.351   1.459  0.5494  0.4603  0.4548
 1628TIP3    H2 4891   0.258   3.315   1.490  0.1290 -0.9236  0.8981
 1629TIP3   OH2 4892   5.720   5.162   2.035  0.3601 -0.2987 -0.3247
 1629TIP3    H1 4893   5.669   5.120   2.103 -1.2056  0.3884 -1.0284
 1629TIP3    H2 4894   5.716   5.102   1.961 -0.4361  0.2814 -0.7646
 1630TIP3   OH2 4895   1.097   1.854   4.417 -0.0055  0.1108  0.1798
 1630TIP3    H1 4896   1.161   1.909   4.371  1.7603 -1.0860  1.1217
 1630TIP3    H2 4897   1.121   1.861   4.509 -0.0829 -1.7763  0.3731
 1631TIP3   OH2 4898   3.864   3.151   1.386 -0.1546 -0.7106 -0.1869
 1631TIP3    H1 4899   3.780   3.191   1.364  0.4019 -0.0494 -1.1737
 1631TIP3    H2 4900   3.922   3.225   1.404  0.3824 -1.1380 -0.1273
 1632TIP3   OH2 4901   4.388   1.653   2.282  0.3308 -0.6460 -0.1326
 1632TIP3    H1 4902   4.427   1.740   2.286 -0.1120 -0.4251 -0.4333
 1632TIP3    H2 4903   4.431   1.610   2.208  1.6116 -1.2315  0.9176
 1633TIP3   OH2 4904   3.784   2.158   3.169  0.7641  0.3475  0.1225
 1633TIP3    H1 4905   3.803   2.065   3.179  0.3097 -0.0379 -2.1860
 1633TIP3    H2 4906   3.851   2.202   3.221  2.9768 -1.1975 -1.2808
 1634TIP3   OH2 4907   1.324   3.042   0.567 -0.1199  0.5203 -0.3168
 1634TIP3    H1 4908   1.367   3.076   0.489 -0.7150 -1.4376 -1.5812
 1634TIP3    H2 4909   1.396   3.013   0.624  0.2985  0.8619 -0.6716
 1635TIP3   OH2 4910   0.316   4.851   0.511  0.3881 -0.0641  0.1821
 1635TIP3    H1 4911   0.323   4.821   0.420  0.7687  1.6638 -0.4013
 1635TIP3    H2 4912   0.239   4.908   0.512 -1.0041 -1.8478  1.5243
 1636TIP3   OH2 4913   5.288   2.996   1.420 -0.2211  0.0651 -0.4542
 1636TIP3    H1 4914   5.317   2.921   1.368 -2.3542  0.3812 -2.2721
 1636TIP3    H2 4915   5.367   3.027   1.464  0.9445 -2.5435 -0.5221
 1637TIP3   OH2 4916   5.646   0.366   2.523 -0.4523  0.3128 -0.2444
 1637TIP3    H1 4917   5.664   0.354   2.616  1.0726 -0.7768 -0.6576
 1637TIP3    H2 4918   5.729   0.393   2.485 -0.9881  0.4725 -1.3571
 1638TIP3   OH2 4919   1.648   5.138   1.225 -0.2035  0.1761 -0.4033
 1638TIP3    H1 4920   1.739   5.111   1.233  0.1612  1.5062  0.2239
 1638TIP3    H2 4921   1.600   5.078   1.282  0.7109  1.4331  1.7802
 1639TIP3   OH2 4922   6.088   4.701   1.842 -0.5717  0.1968 -0.8750
 1639TIP3    H1 4923   6.151   4.715   1.772  0.5320  0.3757  0.1319
 1639TIP3    H2 4924   6.059   4.610   1.830  0.3445 -0.0876 -0.9811
 1640TIP3   OH2 4925   3.474   5.328   0.372  0.8223 -0.3759 -0.3256
 1640TIP3    H1 4926   3.447   5.278   0.448  2.2361 -0.3725  0.2161
 1640TIP3    H2 4927   3.526   5.267   0.320  1.9199  0.2766 -0.0391
 1641TIP3   OH2 4928   4.224   5.737   3.628  0.3106  0.6550  0.1391
 1641TIP3    H1 4929   4.178   5.679   3.566  1.5201  0.9368 -1.0826
 1641TIP3    H2 4930   4.222   5.690   3.711 -0.4025 -0.2580 -0.3726
 1642TIP3   OH2 4931   2.094   5.538   3.795 -0.0057 -0.2680  0.0173
 1642TIP3    H1 4932   2.186   5.522   3.819 -0.0871 -0.4255  0.2368
 1642TIP3    H2 4933   2.074   5.623   3.834  0.5029  0.5016 -1.3672
 1643TIP3   OH2 4934   5.161   3.507   0.544 -0.1441 -0.5485  0.2466
 1643TIP3    H1 4935   5.149   3.413   0.534  1.1857 -0.6766 -0.3710
 1643TIP3    H2 4936   5.094   3.546   0.487  0.6909 -1.1637 -1.1971
 1644TIP3   OH2 4937   5.450   5.536   0.649 -0.9813 -0.6501 -0.2874
 1644TIP3    H1 4938   5.389   5.483   0.597 -0.5302  0.4795 -2.0577
 1644TIP3    H2 4939   5.537   5.514   0.614 -0.8311  1.8274 -1.7468
 1645TIP3   OH2 4940   3.691   1.631   4.768 -0.4841  0.0649  0.0818
 1645TIP3    H1 4941   3.758   1.604   4.831 -0.0789 -1.5270 -0.9552
 1645TIP3    H2 4942   3.741   1.663   4.693 -0.9341  0.8308  0.1067
 1646TIP3   OH2 4943   1.600   3.939   4.987  0.4511  0.4262  0.7399
 1646TIP3    H1 4944   1.694   3.944   4.968  0.5590  0.4350  1.2508
 1646TIP3    H2 4945   1.563   3.890   4.914  0.6768  1.4032 -0.0381
 1647TIP3   OH2 4946   3.541   3.105   0.521 -0.7135  0.2273 -0.2771
 1647TIP3    H1 4947   3.522   3.017   0.556  2.2719  0.0134  1.1086
 1647TIP3    H2 4948   3.575   3.154   0.596  2.3342  0.9731 -2.0024
 1648TIP3   OH2 4949   3.557   1.204   1.168 -0.1282 -0.6506  0.1856
 1648TIP3    H1 4950   3.479   1.157   1.138  0.1182  0.0244 -1.5855
 1648TIP3    H2 4951   3.527   1.252   1.245 -1.3864 -0.6203 -0.2999
 1649TIP3   OH2 4952   3.446   0.905   3.695  0.2066  0.2997  0.6163
 1649TIP3    H1 4953   3.495   0.905   3.777  0.0968  0.2035  0.6826
 1649TIP3    H2 4954   3.360   0.940   3.719  0.2211  0.4071  0.5136
 1650TIP3   OH2 4955   1.341   0.547   0.037 -0.1340  0.2256  0.0333
 1650TIP3    H1 4956   1.366   0.569  -0.053  0.1883 -4.1111 -1.1751
 1650TIP3    H2 4957   1.411   0.584   0.091  1.3909  0.2886 -1.8552
 1651TIP3   OH2 4958   2.661   2.461   0.936  0.4278  0.0388 -0.5668
 1651TIP3    H1 4959   2.716   2.417   1.001  0.3413  0.9250  0.1369
 1651TIP3    H2 4960   2.589   2.401   0.920  1.0944 -0.7195 -0.7690
 1652TIP3   OH2 4961   2.514   0.582   1.517  0.5086  0.4053 -0.1193
 1652TIP3    H1 4962   2.473   0.554   1.599  0.3934  0.6481 -0.0941
 1652TIP3    H2 4963   2.520   0.501   1.465 -0.6612  0.4852 -0.4053
 1653TIP3   OH2 4964   2.831   1.766   4.478 -0.0471  0.2509 -0.4288
 1653TIP3    H1 4965   2.742   1.730   4.478  0.1748 -0.2970 -0.2561
 1653TIP3    H2 4966   2.848   1.788   4.569  0.5768 -1.0929 -0.2102
 1654TIP3   OH2 4967   6.244   4.917   2.725  0.1959  0.1860 -0.5799
 1654TIP3    H1 4968   6.234   5.004   2.763  1.0265 -0.9368  2.5321
 1654TIP3    H2 4969   6.163   4.871   2.748  0.1109 -0.1165 -1.4581
 1655TIP3   OH2 4970   0.272   0.112   4.447  0.2225 -0.0023  0.3605
 1655TIP3    H1 4971   0.266   0.026   4.490  1.5970  0.2560  1.1423
 1655TIP3    H2 4972   0.181   0.141   4.437 -0.1825 -0.4572  2.3627
 1656TIP3   OH2 4973   6.255   0.235   1.458  0.0324 -0.2605 -0.1363
 1656TIP3    H1 4974   6.171   0.223   1.415  0.6557 -1.4565 -1.0846
 1656TIP3    H2 4975   6.235   0.232   1.551 -0.9834 -0.5236 -0.3516
 1657TIP3   OH2 4976   4.654   2.734   3.865  0.3833  0.3619  0.6720
 1657TIP3    H1 4977   4.617   2.658   3.820  1.6448 -1.0920  1.9571
 1657TIP3    H2 4978   4.616   2.809   3.820  0.5963 -0.9847 -1.9363
 1658TIP3   OH2 4979   2.555   1.100   4.902 -0.0289 -0.5173 -0.3889
 1658TIP3    H1 4980   2.501   1.102   4.981  0.5034 -1.2221  0.0059
 1658TIP3    H2 4981   2.577   1.008   4.891 -0.0291 -0.4116 -1.3183
 1659TIP3   OH2 4982   0.693   1.995   0.697  0.3054  0.4392  0.2279
 1659TIP3    H1 4983   0.606   1.970   0.664 -0.0536  1.0206  0.7021
 1659TIP3    H2 4984   0.693   2.091   0.694  0.7024  0.4628  0.7905
 1660TIP3   OH2 4985   1.616   1.186   2.923  1.0969 -0.4059  0.6311
 1660TIP3    H1 4986   1.710   1.201   2.916  0.9896  0.1741  0.3912
 1660TIP3    H2 4987   1.586   1.179   2.832  0.8317 -0.1126  0.6967
 1661TIP3   OH2 4988   6.227   4.953   1.343  0.1677 -0.3427 -0.3491
 1661TIP3    H1 4989   6.311   4.928   1.305  1.2038  2.0023  0.2670
 1661TIP3    H2 4990   6.167   4.955   1.268  0.7934 -1.3393 -0.9041
 1662TIP3   OH2 4991   2.861   4.364   3.617  0.3738 -0.2058 -0.0776
 1662TIP3    H1 4992   2.882   4.456   3.600  0.2864 -0.2288 -0.3148
 1662TIP3    H2 4993   2.770   4.365   3.647  0.5826 -0.1478  0.5597
 1663TIP3   OH2 4994   2.771   0.298   4.553 -0.0987  0.4007 -0.0091
 1663TIP3    H1 4995   2.681   0.290   4.523  0.0006 -0.4269 -0.1103
 1663TIP3    H2 4996   2.772   0.255   4.638  0.3401 -0.1758 -0.2999
 1664TIP3   OH2 4997   5.601   0.864   1.123 -0.5960 -0.6237  0.2109
 1664TIP3    H1 4998   5.686   0.830   1.095 -0.4550 -1.0151  1.0908
 1664TIP3    H2 4999   5.537   0.805   1.082 -0.4761 -0.0744 -0.8036
 1665TIP3   OH2 5000   5.706   4.544   4.478  0.5920 -0.2684 -0.3509
 1665TIP3    H1 5001   5.656   4.606   4.426  1.9087  0.1897 -1.0959
 1665TIP3    H2 5002   5.759   4.495   4.415 -0.1828 -1.9591  0.2419
 1666TIP3   OH2 5003   0.425   3.061   0.224  0.2906 -0.3750 -0.0568
 1666TIP3    H1 5004   0.367   2.994   0.258 -0.5758  0.6733  0.6049
 1666TIP3    H2 5005   0.368   3.118   0.172  0.1115  2.0901  2.5885
 1667TIP3   OH2 5006   2.321   0.248   4.206 -0.0154 -0.2205 -0.7826
 1667TIP3    H1 5007   2.315   0.320   4.269  0.5093 -0.8838  0.0494
 1667TIP3    H2 5008   2.292   0.286   4.123 -0.3727  0.7681 -0.2189
 1668TIP3   OH2 5009   6.117   1.753   3.245 -0.0482 -0.2341 -0.3875
 1668TIP3    H1 5010   6.143   1.834   3.200 -1.8421  0.1675 -0.7744
 1668TIP3    H2 5011   6.085   1.696   3.174  0.0134 -0.8046  0.0353
 1669TIP3   OH2 5012   3.178   5.374   0.915 -0.0228  0.2027  0.0624
 1669TIP3    H1 5013   3.162   5.324   0.835  2.5002 -0.5110 -0.0836
 1669TIP3    H2 5014   3.236   5.318   0.967  0.8986  1.9435  1.0056
 1670TIP3   OH2 5015   2.694   5.309   2.574  0.5168  0.2014 -0.4627
 1670TIP3    H1 5016   2.669   5.400   2.591  0.0484 -0.1015  0.5191
 1670TIP3    H2 5017   2.626   5.257   2.616 -0.0174 -0.6240 -2.2278
 1671TIP3   OH2 5018   3.355   2.775   1.845 -0.0703  0.4010  0.4409
 1671TIP3    H1 5019   3.428   2.733   1.891 -0.5804 -1.0891 -0.0433
 1671TIP3    H2 5020   3.381   2.773   1.753 -0.3501  0.6455  0.3555
 1672TIP3   OH2 5021   4.340   4.884   0.207  0.1817  0.0158  0.4246
 1672TIP3    H1 5022   4.260   4.922   0.169 -1.5434 -2.5066  1.2790
 1672TIP3    H2 5023   4.308   4.822   0.272  2.9133 -0.4854  1.3902
 1673TIP3   OH2 5024   4.647   0.790   3.429 -0.4353 -0.3087 -0.5524
 1673TIP3    H1 5025   4.707   0.825   3.495  1.3876 -0.0578 -2.2420
 1673TIP3    H2 5026   4.668   0.696   3.426 -2.9067 -1.0463  1.5311
 1674TIP3   OH2 5027   3.161   3.453   0.170  0.2611  0.4178 -0.3670
 1674TIP3    H1 5028   3.082   3.407   0.141  1.4853 -2.3048  0.2579
 1674TIP3    H2 5029   3.198   3.490   0.090  0.3632 -1.6852 -1.3730
 1675TIP3   OH2 5030   3.645   3.181   5.043 -0.7764  0.3375 -0.8866
 1675TIP3    H1 5031   3.555   3.166   5.072 -0.3977  0.3743  0.3748
 1675TIP3    H2 5032   3.668   3.266   5.080 -0.3559  0.5278 -1.5624
 1676TIP3   OH2 5033   4.691   2.143   5.001  0.4505  0.0434  0.0899
 1676TIP3    H1 5034   4.713   2.233   4.976  0.0723  0.1886  0.2787
 1676TIP3    H2 5035   4.643   2.152   5.083 -0.7802 -0.2358 -0.5847
 1677TIP3   OH2 5036   0.626   4.380   1.884 -0.1376 -0.1286 -0.1879
 1677TIP3    H1 5037   0.579   4.299   1.864  2.5838 -1.8960  0.0122
 1677TIP3    H2 5038   0.606   4.397   1.976 -0.8586 -0.4745 -0.2729
 1678TIP3   OH2 5039   3.029   1.282   4.481  0.0782  0.1554  0.1218
 1678TIP3    H1 5040   3.056   1.285   4.389  2.1298 -1.0854  0.6153
 1678TIP3    H2 5041   2.936   1.259   4.477  0.2907 -0.6062 -1.6495
 1679TIP3   OH2 5042   2.140   0.552   0.021 -0.1410 -0.6290 -0.3171
 1679TIP3    H1 5043   2.088   0.591  -0.048  0.8702  0.7011 -0.3599
 1679TIP3    H2 5044   2.081   0.545   0.096  0.3024  3.9144  0.7329
 1680TIP3   OH2 5045   1.498   3.851   2.734 -0.3656 -0.2646 -0.1876
 1680TIP3    H1 5046   1.419   3.859   2.786 -0.6017  1.0032 -0.7092
 1680TIP3    H2 5047   1.492   3.765   2.694 -0.6762 -0.8398  1.0567
 1681TIP3   OH2 5048   4.298   1.649   0.238 -0.4678  0.4711  0.6306
 1681TIP3    H1 5049   4.277   1.656   0.145 -1.7916  2.9770  1.0093
 1681TIP3    H2 5050   4.290   1.556   0.258  0.7329 -0.2506 -1.9154
 1682TIP3   OH2 5051   2.592   1.898   3.727 -0.0475  0.0995 -0.0034
 1682TIP3    H1 5052   2.538   1.882   3.805  0.3499 -0.5573  0.1444
 1682TIP3    H2 5053   2.629   1.813   3.706  1.6855  0.6923  0.4682
 1683TIP3   OH2 5054   5.547   5.849   1.796 -0.1119  0.7378  0.0596
 1683TIP3    H1 5055   5.567   5.777   1.856  0.6016 -0.1153 -1.1462
 1683TIP3    H2 5056   5.465   5.886   1.829 -0.1915 -0.2575  1.0415
 1684TIP3   OH2 5057   3.973   1.744   1.981  0.0019  0.6449  0.5262
 1684TIP3    H1 5058   4.061   1.726   2.016 -0.0735  0.1766  0.4861
 1684TIP3    H2 5059   3.988   1.766   1.889  0.0247 -0.0963  0.3430
 1685TIP3   OH2 5060   5.758   4.870   2.865 -0.1052 -0.1732 -0.7059
 1685TIP3    H1 5061   5.785   4.780   2.846  0.7472  0.1384 -1.0273
 1685TIP3    H2 5062   5.697   4.892   2.794 -1.1212 -0.8293 -0.0642
 1686TIP3   OH2 5063   1.494   4.713   2.041  0.0514  0.6533  0.1387
 1686TIP3    H1 5064   1.421   4.749   1.991  0.6358  0.2106 -1.0946
 1686TIP3    H2 5065   1.572   4.736   1.990  0.7339  0.6385  1.1326
 1687TIP3   OH2 5066   6.139   2.650   2.907 -0.3405 -0.2724 -0.3555
 1687TIP3    H1 5067   6.080   2.641   2.982 -1.2799  3.1392 -0.5402
 1687TIP3    H2 5068   6.226   2.636   2.945 -0.7961  1.3073  1.4164
 1688TIP3   OH2 5069   3.460   5.694   2.088  0.0540 -0.0654  0.4977
 1688TIP3    H1 5070   3.377   5.742   2.099 -0.8692 -1.8164  1.5405
 1688TIP3    H2 5071   3.435   5.602   2.088  1.9076 -0.6173 -0.3465
 1689TIP3   OH2 5072   1.946   4.424   1.874 -0.4776  0.0014  0.3730
 1689TIP3    H1 5073   1.897   4.477   1.937 -1.9049 -0.4640 -0.2906
 1689TIP3    H2 5074   1.900   4.438   1.791  0.2679 -0.8067 -0.1891
 1690TIP3   OH2 5075   4.400   4.218   1.100  0.1939 -0.3529  0.1960
 1690TIP3    H1 5076   4.420   4.176   1.016 -1.2299 -1.5144  0.3872
 1690TIP3    H2 5077   4.468   4.187   1.159  1.0758  0.2910 -0.4721
 1691TIP3   OH2 5078   4.677   2.752   2.108  0.1313  0.0275  0.4508
 1691TIP3    H1 5079   4.614   2.691   2.071  1.6014 -1.4064  0.2084
 1691TIP3    H2 5080   4.685   2.822   2.043 -1.0780  0.1673  0.4329
 1692TIP3   OH2 5081   2.607   1.068   1.499  0.2143  0.4548  0.0587
 1692TIP3    H1 5082   2.659   1.007   1.552 -0.6733  0.3528  0.8385
 1692TIP3    H2 5083   2.560   1.011   1.437  0.6765  0.5059 -0.3421
 1693TIP3   OH2 5084   5.484   5.380   1.970 -0.0615 -0.1328 -0.0577
 1693TIP3    H1 5085   5.496   5.323   2.046 -1.1460 -0.3126 -0.0111
 1693TIP3    H2 5086   5.403   5.350   1.930  0.3181  0.1920 -1.0903
 1694TIP3   OH2 5087   3.571   0.240   4.015 -0.1984 -0.0452  0.1870
 1694TIP3    H1 5088   3.632   0.310   3.989  0.6625 -0.7301  0.3119
 1694TIP3    H2 5089   3.628   0.167   4.041 -1.0352 -1.7464 -2.4074
 1695TIP3   OH2 5090   1.850   5.889   4.205 -0.5853  0.2344 -0.4555
 1695TIP3    H1 5091   1.758   5.875   4.183 -0.5276 -0.8956 -0.0401
 1695TIP3    H2 5092   1.850   5.902   4.300 -0.3269  0.4237 -0.4800
 1696TIP3   OH2 5093   1.781   5.348   0.538  0.0819 -0.1223  0.4447
 1696TIP3    H1 5094   1.756   5.436   0.566  0.4269  1.2321 -2.9717
 1696TIP3    H2 5095   1.869   5.358   0.502 -0.5256 -1.4084 -1.5881
 1697TIP3   OH2 5096   4.775   3.970   3.670 -0.1532 -0.3877  0.6981
 1697TIP3    H1 5097   4.713   4.026   3.623  0.1546  1.5057  2.4154
 1697TIP3    H2 5098   4.853   3.971   3.615 -0.7359 -0.5748 -0.1554
 1698TIP3   OH2 5099   1.917   2.019   5.126  0.0626 -0.3168 -0.1926
 1698TIP3    H1 5100   1.946   2.089   5.184  0.8968 -2.2033  1.8565
 1698TIP3    H2 5101   1.891   2.063   5.045  0.6273  2.2918  0.9418
 1699TIP3   OH2 5102   4.672   2.513   0.877  0.1974  0.1676  0.3362
 1699TIP3    H1 5103   4.665   2.586   0.815 -0.8703 -1.0586 -1.0969
 1699TIP3    H2 5104   4.582   2.498   0.906  0.6415  0.5004  1.9723
 1700TIP3   OH2 5105   2.246   5.980   4.433  0.2799 -0.3268 -0.1910
 1700TIP3    H1 5106   2.205   5.947   4.353 -0.5809 -2.6479  1.1279
 1700TIP3    H2 5107   2.179   6.037   4.472 -0.0346 -0.6779 -0.2079
 1701TIP3   OH2 5108   1.267   1.090   0.483 -0.3807 -0.2182 -0.0447
 1701TIP3    H1 5109   1.335   1.084   0.416 -1.3132  1.2290 -1.1853
 1701TIP3    H2 5110   1.226   1.175   0.468 -2.5696 -1.1126  0.4438
 1702TIP3   OH2 5111   2.729   3.427   4.767  0.5010  0.0081  0.1808
 1702TIP3    H1 5112   2.768   3.346   4.799 -1.6955 -1.0852  0.2320
 1702TIP3    H2 5113   2.758   3.434   4.676  1.5361 -0.2664  0.4746
 1703TIP3   OH2 5114   6.263   2.885   0.354  0.3019  0.0235  0.3666
 1703TIP3    H1 5115   6.309   2.860   0.273  0.1757  1.6246 -0.2243
 1703TIP3    H2 5116   6.246   2.978   0.345 -1.0550 -0.0615  1.6031
 1704TIP3   OH2 5117   0.997   2.869   2.402 -0.3335  0.1479 -0.2621
 1704TIP3    H1 5118   1.026   2.950   2.360 -0.7245 -0.1181 -1.0623
 1704TIP3    H2 5119   0.966   2.897   2.489 -0.3519  0.8391 -0.4816
 1705TIP3   OH2 5120   2.705   5.323   0.834 -0.2931  0.3283 -0.1428
 1705TIP3    H1 5121   2.792   5.300   0.865 -0.6196 -0.7374  0.0373
 1705TIP3    H2 5122   2.715   5.332   0.739 -0.1616 -0.6927 -0.2370
 1706TIP3   OH2 5123   2.383   0.304   4.752  0.3861  0.0462  0.4645
 1706TIP3    H1 5124   2.456   0.267   4.802  0.5415  0.0397  0.2332
 1706TIP3    H2 5125   2.424   0.345   4.676  0.2144  0.6612  0.6989
 1707TIP3   OH2 5126   4.934   0.879   4.838  0.7265  0.3966 -0.3313
 1707TIP3    H1 5127   4.882   0.838   4.769 -0.7838  0.5913  0.6460
 1707TIP3    H2 5128   4.982   0.949   4.794  0.6142 -0.1647 -1.3728
 1708TIP3   OH2 5129   0.323   0.046   0.583  0.0437 -0.1164 -0.1007
 1708TIP3    H1 5130   0.279   0.051   0.668  0.5530  0.3114  0.1412
 1708TIP3    H2 5131   0.311   0.133   0.545 -0.4666 -0.4017 -0.6181
 1709TIP3   OH2 5132   3.887   4.212   1.238  0.0716  0.9774  0.0198
 1709TIP3    H1 5133   3.975   4.247   1.248 -0.7409  2.9353  1.0571
 1709TIP3    H2 5134   3.872   4.160   1.317  0.3858  0.4054 -0.2939
 1710TIP3   OH2 5135   4.492   1.982   0.302 -0.5732 -0.1504  0.2169
 1710TIP3    H1 5136   4.558   1.956   0.366 -0.0019 -1.7080 -0.9486
 1710TIP3    H2 5137   4.542   2.009   0.226 -1.2592  1.2099  0.2167
 1711TIP3   OH2 5138   4.680   2.228   0.832  0.7403 -0.4879 -0.2350
 1711TIP3    H1 5139   4.662   2.182   0.914  0.4546 -1.8147 -1.0076
 1711TIP3    H2 5140   4.693   2.319   0.857 -0.2820 -0.7047  1.1632
 1712TIP3   OH2 5141   1.628   4.984   0.780  0.5079 -0.6432  0.0414
 1712TIP3    H1 5142   1.594   4.962   0.866  1.0919 -0.3899  0.3442
 1712TIP3    H2 5143   1.557   4.964   0.720 -0.1265 -0.2400  0.6450
 1713TIP3   OH2 5144   4.912   1.283   0.622 -0.0891 -0.2244 -0.0768
 1713TIP3    H1 5145   4.992   1.249   0.583  0.7956  1.4208  0.2068
 1713TIP3    H2 5146   4.845   1.219   0.600  0.9154 -0.6856 -1.9955
 1714TIP3   OH2 5147   1.793   1.878   2.316 -0.0748 -0.1305  0.2066
 1714TIP3    H1 5148   1.755   1.837   2.394  0.0400 -0.4113  0.1183
 1714TIP3    H2 5149   1.870   1.825   2.297  2.1069  2.1372  2.0904
 1715TIP3   OH2 5150   3.810   5.453   2.178 -0.2105  0.0724  0.2331
 1715TIP3    H1 5151   3.850   5.427   2.261 -1.2383 -0.3211  0.6133
 1715TIP3    H2 5152   3.757   5.530   2.200  0.4200  0.6787 -0.2975
 1716TIP3   OH2 5153   4.705   1.503   5.160  0.1788 -0.1616  0.2007
 1716TIP3    H1 5154   4.652   1.485   5.082  1.6601  0.5579 -1.0126
 1716TIP3    H2 5155   4.755   1.423   5.175  1.3610  0.3611 -0.8118
 1717TIP3   OH2 5156   1.596   4.272   1.256  0.1034  0.4280  0.2453
 1717TIP3    H1 5157   1.507   4.238   1.241  0.2876  0.2749 -0.5137
 1717TIP3    H2 5158   1.609   4.335   1.185  0.4459  0.7586  0.6038
 1718TIP3   OH2 5159   2.694   2.663   0.108 -0.3013  0.0886  0.3051
 1718TIP3    H1 5160   2.724   2.740   0.156 -0.1214  0.5028 -0.4504
 1718TIP3    H2 5161   2.764   2.644   0.046 -0.3540 -0.6736  0.4701
 1719TIP3   OH2 5162   3.309   2.305   1.648 -0.2665  0.0970 -0.0129
 1719TIP3    H1 5163   3.246   2.320   1.718  0.1535  0.5666  0.2775
 1719TIP3    H2 5164   3.312   2.388   1.600  0.7240  0.3736  0.4835
 1720TIP3   OH2 5165   2.231   2.125   0.217  0.2108  0.2853 -0.2653
 1720TIP3    H1 5166   2.179   2.126   0.297 -1.1275  0.2027 -1.0882
 1720TIP3    H2 5167   2.166   2.132   0.147  1.3990  1.1606 -1.3195
 1721TIP3   OH2 5168   5.898   4.244   3.165  0.1495 -0.3877  0.2950
 1721TIP3    H1 5169   5.961   4.220   3.097 -0.3729 -0.3610 -0.2064
 1721TIP3    H2 5170   5.825   4.184   3.152 -0.1818 -0.0308  0.4950
 1722TIP3   OH2 5171   4.954   3.234   4.990  0.1484 -0.5032  0.9501
 1722TIP3    H1 5172   4.865   3.270   4.994  0.3101 -0.1126  1.0145
 1722TIP3    H2 5173   4.948   3.163   4.925  0.0877  0.3631 -0.0153
 1723TIP3   OH2 5174   3.012   0.022   2.587 -0.7388 -0.1785 -0.1266
 1723TIP3    H1 5175   2.940   0.011   2.648 -0.3984 -1.9935  0.0234
 1723TIP3    H2 5176   3.009   0.114   2.560 -2.9787 -0.1796 -0.0036
 1724TIP3   OH2 5177   2.151   0.340   3.402  0.3847 -0.0292 -0.8914
 1724TIP3    H1 5178   2.178   0.249   3.410 -0.0706 -0.0195  1.3140
 1724TIP3    H2 5179   2.231   0.391   3.417  0.4787 -0.0437 -1.3230
 1725TIP3   OH2 5180   0.537   2.188   0.203  0.3040  0.2549  0.2470
 1725TIP3    H1 5181   0.451   2.191   0.160  0.3912  0.3537  0.0775
 1725TIP3    H2 5182   0.598   2.215   0.135  0.6650 -1.4315 -0.1539
 1726TIP3   OH2 5183   2.213   0.147   1.862  0.3729  0.3717 -0.7877
 1726TIP3    H1 5184   2.139   0.191   1.822  1.5104  1.6603 -1.5356
 1726TIP3    H2 5185   2.196   0.054   1.848 -0.5952  0.6927 -1.8499
 1727TIP3   OH2 5186   6.159   1.626   1.906 -0.4414 -0.0556 -0.3575
 1727TIP3    H1 5187   6.169   1.719   1.892  0.1920 -0.0746 -0.0439
 1727TIP3    H2 5188   6.171   1.586   1.820  0.8521  0.0280 -0.2236
 1728TIP3   OH2 5189   3.104   3.438   4.587 -0.2107  0.1998  0.1634
 1728TIP3    H1 5190   3.168   3.371   4.563 -0.2251  0.1064  0.3825
 1728TIP3    H2 5191   3.149   3.521   4.573 -0.1928  0.1456 -0.1124
 1729TIP3   OH2 5192   5.556   5.281   1.132  0.2138 -0.2511  0.0098
 1729TIP3    H1 5193   5.622   5.329   1.183 -0.4316 -1.7800  2.4486
 1729TIP3    H2 5194   5.607   5.222   1.077  0.9211 -0.1538  0.5382
 1730TIP3   OH2 5195   0.308   5.126   3.682  0.0908  0.1270 -0.5203
 1730TIP3    H1 5196   0.230   5.153   3.635  0.5261  0.6924 -0.9236
 1730TIP3    H2 5197   0.347   5.207   3.714 -0.4075 -0.2585  1.1892
 1731TIP3   OH2 5198   2.206   1.011   4.176  0.2902 -0.1530 -0.0402
 1731TIP3    H1 5199   2.130   1.030   4.122 -0.5929 -1.0701  0.8295
 1731TIP3    H2 5200   2.199   1.073   4.249  0.6874  0.1250 -0.2337
 1732TIP3   OH2 5201   6.182   4.368   3.435 -0.1763 -0.7186 -0.0026
 1732TIP3    H1 5202   6.261   4.335   3.477 -1.4186 -0.8531  2.3887
 1732TIP3    H2 5203   6.121   4.294   3.437 -1.1414  0.0644  0.3663
 1733TIP3   OH2 5204   0.508   0.338   0.733  0.2248 -0.4145  0.0468
 1733TIP3    H1 5205   0.424   0.383   0.728  0.3302 -0.1567  0.4962
 1733TIP3    H2 5206   0.572   0.408   0.746  0.5033 -0.6140 -0.2091
 1734TIP3   OH2 5207   5.683   1.730   0.920  0.4673  0.0184 -0.0672
 1734TIP3    H1 5208   5.724   1.798   0.972  0.3921  1.6101 -1.9961
 1734TIP3    H2 5209   5.705   1.648   0.965  2.4597  1.1219  1.0678
 1735TIP3   OH2 5210   5.343   2.153   0.673  0.6289 -0.5049  0.1744
 1735TIP3    H1 5211   5.412   2.216   0.654  1.0246 -0.4913  1.5377
 1735TIP3    H2 5212   5.262   2.204   0.667  0.7915 -0.3347 -0.6449
 1736TIP3   OH2 5213   2.541   3.257   4.903  0.1785  0.7154 -0.1911
 1736TIP3    H1 5214   2.538   3.174   4.855  2.7290  0.0228  0.7072
 1736TIP3    H2 5215   2.594   3.315   4.849  2.5506  0.1275  1.3776
 1737TIP3   OH2 5216   6.061   2.984   3.480 -0.0907  0.2086 -0.3059
 1737TIP3    H1 5217   5.976   3.027   3.486  0.1653  0.4656  2.2218
 1737TIP3    H2 5218   6.125   3.056   3.482  0.2472 -0.1068  0.6209
 1738TIP3   OH2 5219   0.147   5.173   4.804 -0.1972  0.3128  0.2978
 1738TIP3    H1 5220   0.168   5.154   4.712 -1.3703  0.0576  0.0722
 1738TIP3    H2 5221   0.192   5.256   4.822 -0.9435  1.0026 -0.8761
 1739TIP3   OH2 5222   2.799   2.403   2.531 -0.0986 -0.0194  0.2866
 1739TIP3    H1 5223   2.786   2.404   2.626  0.2534  1.3844  0.3403
 1739TIP3    H2 5224   2.864   2.334   2.516 -0.0495 -0.1517  1.0659
 1740TIP3   OH2 5225   4.274   1.922   4.629 -0.3881  0.1104 -0.0583
 1740TIP3    H1 5226   4.353   1.914   4.576  0.9788  1.1432  1.7155
 1740TIP3    H2 5227   4.217   1.980   4.579  1.6251  2.6332  0.3323
 1741TIP3   OH2 5228   5.468   1.141   3.262  0.4315  0.0684  0.2384
 1741TIP3    H1 5229   5.489   1.226   3.222  0.7542 -1.1732 -2.4737
 1741TIP3    H2 5230   5.386   1.115   3.219  0.7077 -1.2975  0.5015
 1742TIP3   OH2 5231   3.712   0.377   3.277  0.4666 -0.0367  0.4092
 1742TIP3    H1 5232   3.703   0.470   3.255  0.2086  0.0225  0.7606
 1742TIP3    H2 5233   3.754   0.339   3.200 -2.3137 -0.2327 -1.1422
 1743TIP3   OH2 5234   1.321   1.957   0.801 -0.0225 -0.4934 -1.6967
 1743TIP3    H1 5235   1.246   1.931   0.853  0.2509 -1.4418 -1.7556
 1743TIP3    H2 5236   1.292   2.035   0.753  0.3037  1.5798  1.2083
 1744TIP3   OH2 5237   3.379   5.889   3.948 -0.2370  0.2876 -0.1184
 1744TIP3    H1 5238   3.457   5.839   3.972 -0.6399 -0.3727 -0.1419
 1744TIP3    H2 5239   3.405   5.940   3.871 -0.0354 -0.4912 -0.5794
 1745TIP3   OH2 5240   2.532   1.291   5.151 -0.1865 -0.2389  0.1723
 1745TIP3    H1 5241   2.547   1.324   5.062 -0.3148 -0.4263  0.0799
 1745TIP3    H2 5242   2.480   1.359   5.193  1.9292  1.0328  0.9050
 1746TIP3   OH2 5243   0.902   2.701   2.743  0.4461  0.9038  0.5201
 1746TIP3    H1 5244   0.967   2.768   2.763 -0.1316  2.2197 -1.6351
 1746TIP3    H2 5245   0.927   2.669   2.656  0.3748 -1.3212  1.2678
 1747TIP3   OH2 5246   5.215   3.413   3.097 -0.0430  0.1870  0.0381
 1747TIP3    H1 5247   5.155   3.338   3.089  0.5905 -0.3245 -0.0262
 1747TIP3    H2 5248   5.296   3.383   3.057  0.4742  0.6295  0.7265
 1748TIP3   OH2 5249   2.882   3.870   1.784 -0.0921  0.2951  0.4297
 1748TIP3    H1 5250   2.965   3.885   1.741 -0.6422  3.7383  0.3055
 1748TIP3    H2 5251   2.833   3.814   1.724  0.9010  1.0350 -1.1109
 1749TIP3   OH2 5252   1.929   3.029   0.947  0.0997 -0.2438  0.0554
 1749TIP3    H1 5253   1.996   3.007   1.012 -0.1319  2.1002  1.1640
 1749TIP3    H2 5254   1.892   2.944   0.922  0.5084 -1.2945  2.6579
 1750TIP3   OH2 5255   6.053   1.894   1.256 -0.5521 -0.2769  0.4830
 1750TIP3    H1 5256   6.044   1.987   1.276 -1.0521 -0.6909  2.3814
 1750TIP3    H2 5257   5.967   1.856   1.275 -0.4180 -1.1010 -0.4632
 1751TIP3   OH2 5258   2.438   1.875   1.989 -0.3352 -0.1298 -0.3895
 1751TIP3    H1 5259   2.463   1.823   1.912 -1.7671 -3.5611  1.2257
 1751TIP3    H2 5260   2.516   1.926   2.010  0.9950 -1.1025 -2.5392
 1752TIP3   OH2 5261   1.913   5.328   0.101 -0.1974  0.4528 -0.4528
 1752TIP3    H1 5262   1.858   5.334   0.022  2.2668 -0.6525 -2.4086
 1752TIP3    H2 5263   1.866   5.267   0.157 -2.3728  1.7948 -0.6826
 1753TIP3   OH2 5264   6.202   5.905   4.306 -0.2196  0.0530  0.1915
 1753TIP3    H1 5265   6.129   5.843   4.308 -1.1699  1.1025 -0.7554
 1753TIP3    H2 5266   6.233   5.907   4.397 -0.4442 -1.4532  0.3389
 1754TIP3   OH2 5267   4.603   0.894   4.610  0.4068 -0.2759  0.4221
 1754TIP3    H1 5268   4.645   0.980   4.598  2.9808 -1.3441  1.1255
 1754TIP3    H2 5269   4.525   0.912   4.662  0.9877  1.6044  0.7108
 1755TIP3   OH2 5270   3.451   3.846   5.174 -0.3211 -1.0312 -0.4587
 1755TIP3    H1 5271   3.446   3.788   5.098  0.3189 -2.2327  0.3764
 1755TIP3    H2 5272   3.543   3.871   5.179 -0.6223  0.2875 -0.9382
 1756TIP3   OH2 5273   3.633   2.215   1.392  0.1735 -0.2377  0.2089
 1756TIP3    H1 5274   3.604   2.232   1.481  1.4244  0.5167  0.4966
 1756TIP3    H2 5275   3.607   2.124   1.375 -0.6440 -0.1871  1.0964
 1757TIP3   OH2 5276   1.983   5.530   0.731  0.0960  0.1568 -0.3232
 1757TIP3    H1 5277   2.052   5.463   0.734  0.7060  0.7484 -0.9039
 1757TIP3    H2 5278   1.929   5.511   0.807  0.3591 -0.8941 -0.3783
 1758TIP3   OH2 5279   0.513   2.390   4.424 -0.0007  0.3729  0.4394
 1758TIP3    H1 5280   0.541   2.435   4.503 -0.8461  2.5389 -0.4247
 1758TIP3    H2 5281   0.424   2.360   4.443  0.8267 -1.7808  1.2900
 1759TIP3   OH2 5282   0.789   4.003   4.758 -0.3190 -0.3492 -0.4679
 1759TIP3    H1 5283   0.874   4.005   4.714 -0.1283 -1.1632 -0.1622
 1759TIP3    H2 5284   0.784   4.086   4.806  0.6557 -0.6206  0.1387
 1760TIP3   OH2 5285   5.802  -0.011   2.367  0.4730 -0.0358 -0.5802
 1760TIP3    H1 5286   5.716   0.025   2.387 -0.2404 -0.2516 -3.0559
 1760TIP3    H2 5287   5.860   0.033   2.430 -1.6371 -1.5887  2.7829
 1761TIP3   OH2 5288   2.577   2.096   4.503 -0.4982 -0.2559 -0.0311
 1761TIP3    H1 5289   2.526   2.071   4.426  1.8665 -0.7656 -1.5256
 1761TIP3    H2 5290   2.560   2.027   4.567 -0.2282 -1.4401 -1.1988
 1762TIP3   OH2 5291   5.990   0.161   2.495  0.3950 -0.7635  0.5611
 1762TIP3    H1 5292   5.971   0.180   2.403  0.6064 -0.3565  0.5985
 1762TIP3    H2 5293   6.084   0.141   2.496  0.9186  1.4931  1.0221
 1763TIP3   OH2 5294   1.542   2.993   3.860 -0.2196  0.2140  0.1971
 1763TIP3    H1 5295   1.493   2.959   3.935 -2.1281 -2.4166 -2.0156
 1763TIP3    H2 5296   1.620   2.938   3.855  0.2796  0.8708  0.6457
 1764TIP3   OH2 5297   1.950   0.421   0.868  0.2461  0.2656 -0.0582
 1764TIP3    H1 5298   1.934   0.392   0.778  0.7403 -1.8091  0.4752
 1764TIP3    H2 5299   1.911   0.353   0.923  2.4062 -0.0144  1.2553
 1765TIP3   OH2 5300   3.457   0.444   4.202  0.1920 -0.2830  0.4583
 1765TIP3    H1 5301   3.497   0.378   4.145  2.2384  1.1204  0.1973
 1765TIP3    H2 5302   3.497   0.429   4.287 -0.8141 -0.5938  0.8991
 1766TIP3   OH2 5303   5.673   5.220   3.771  0.2095  0.4769  0.7943
 1766TIP3    H1 5304   5.690   5.302   3.725  2.3517 -0.6453 -0.5965
 1766TIP3    H2 5305   5.593   5.236   3.821 -0.2850  2.8893 -0.6244
 1767TIP3   OH2 5306   0.111   1.124   1.287 -0.1236 -0.6925  0.0433
 1767TIP3    H1 5307   0.145   1.187   1.350 -1.5106 -0.5193  0.6550
 1767TIP3    H2 5308   0.153   1.148   1.204 -1.7377  2.0382 -0.0932
 1768TIP3   OH2 5309   4.973   3.654   4.182 -0.3406  0.2439  0.0660
 1768TIP3    H1 5310   4.957   3.745   4.207  1.2937  0.2931  1.0860
 1768TIP3    H2 5311   4.886   3.617   4.169 -1.0555  1.7781  0.2330
 1769TIP3   OH2 5312   1.779   3.347   3.662  0.0580  0.5019  0.6187
 1769TIP3    H1 5313   1.809   3.420   3.716  0.2576  0.3319  0.7359
 1769TIP3    H2 5314   1.769   3.274   3.723 -1.0575  0.6816  0.6680
 1770TIP3   OH2 5315   3.672   0.178   4.379  0.3964  0.3569 -0.0776
 1770TIP3    H1 5316   3.658   0.099   4.326  1.7767 -0.1674  0.3121
 1770TIP3    H2 5317   3.707   0.145   4.462  0.8125  1.3782  0.1561
 1771TIP3   OH2 5318   0.605   2.156   5.091 -0.2171 -0.0834  0.1410
 1771TIP3    H1 5319   0.517   2.136   5.124  0.0550 -2.8433 -0.5266
 1771TIP3    H2 5320   0.617   2.096   5.018  2.0473  0.5970 -0.1119
 1772TIP3   OH2 5321   5.357   2.136   4.955  0.1058 -0.6945  0.3791
 1772TIP3    H1 5322   5.414   2.168   5.025 -1.8508  0.8434  1.3907
 1772TIP3    H2 5323   5.345   2.043   4.975 -1.9178  0.0544  3.3892
 1773TIP3   OH2 5324   2.672   5.539   1.858 -0.4527 -0.5832 -0.2944
 1773TIP3    H1 5325   2.753   5.585   1.883  0.3398 -1.6932 -0.7505
 1773TIP3    H2 5326   2.609   5.610   1.842  1.0791  0.4694 -2.2490
 1774TIP3   OH2 5327   2.458   2.096   4.218 -0.5408  0.1077  0.3226
 1774TIP3    H1 5328   2.533   2.098   4.159  0.8123 -0.4819  1.9272
 1774TIP3    H2 5329   2.429   2.005   4.217  0.0705 -0.1116  1.2188
 1775TIP3   OH2 5330   2.420   5.106   2.623 -0.5814  0.4198 -0.6397
 1775TIP3    H1 5331   2.444   5.124   2.532  0.2415 -1.6314 -0.8875
 1775TIP3    H2 5332   2.329   5.076   2.618 -0.1020 -1.0890 -1.0435
 1776TIP3   OH2 5333   5.285   4.495   0.435 -0.1932 -0.2383 -0.2390
 1776TIP3    H1 5334   5.212   4.505   0.373 -1.5501  0.0943  1.3302
 1776TIP3    H2 5335   5.311   4.404   0.428  0.2595 -0.0172 -1.8794
 1777TIP3   OH2 5336   0.985   0.640   1.939  0.1407 -0.4397 -0.1161
 1777TIP3    H1 5337   1.002   0.579   2.010 -0.7438 -1.7294 -0.9752
 1777TIP3    H2 5338   1.070   0.682   1.923  0.5352 -0.7150  1.1254
 1778TIP3   OH2 5339   1.882   3.190   2.983 -0.3511  0.7150  0.4329
 1778TIP3    H1 5340   1.809   3.251   2.975 -0.2577  0.7889  0.1139
 1778TIP3    H2 5341   1.894   3.155   2.895  0.6937  1.5069  0.2342
 1779TIP3   OH2 5342   4.456   2.655   4.901  0.2746  0.1386  0.1289
 1779TIP3    H1 5343   4.424   2.699   4.980 -1.5570  0.8354 -0.9467
 1779TIP3    H2 5344   4.546   2.631   4.922  0.0897  1.0207  2.1348
 1780TIP3   OH2 5345   3.262   0.646   4.421  0.5399  0.0143  0.2715
 1780TIP3    H1 5346   3.226   0.678   4.338  0.4004 -1.1656 -0.1343
 1780TIP3    H2 5347   3.196   0.670   4.487 -0.2951 -0.8178 -0.2496
 1781TIP3   OH2 5348   2.174   1.144   1.977 -0.0984  0.0462 -0.4241
 1781TIP3    H1 5349   2.266   1.118   1.986  0.5614  1.9472 -1.0779
 1781TIP3    H2 5350   2.160   1.208   2.047 -0.7490  0.1690 -0.6552
 1782TIP3   OH2 5351   2.984   4.067   2.942  0.3124 -0.6512  0.0808
 1782TIP3    H1 5352   2.939   4.068   3.027  1.4477 -0.7063  0.7045
 1782TIP3    H2 5353   2.972   4.155   2.907  0.0880 -0.5365  0.4408
 1783TIP3   OH2 5354   2.247   4.387   1.104  0.4613 -0.2383 -0.5153
 1783TIP3    H1 5355   2.208   4.375   1.191  1.8017 -0.4713  0.0854
 1783TIP3    H2 5356   2.297   4.469   1.112 -0.5683  0.5259 -1.5335
 1784TIP3   OH2 5357   3.829   0.107   0.964  0.3420  0.0426 -0.0757
 1784TIP3    H1 5358   3.762   0.070   0.906 -0.5279  1.1515  0.1779
 1784TIP3    H2 5359   3.868   0.178   0.913  0.4336  0.2273  0.2512
 1785TIP3   OH2 5360   4.360   2.244   0.310  0.0757 -0.1495 -0.0709
 1785TIP3    H1 5361   4.388   2.163   0.353 -0.4582 -0.4367 -0.2474
 1785TIP3    H2 5362   4.266   2.248   0.326 -0.2168 -0.4602 -1.4993
 1786TIP3   OH2 5363   6.240   0.544   2.003  0.2898 -0.0217 -0.3753
 1786TIP3    H1 5364   6.300   0.541   2.078  1.6079 -0.2276 -1.3978
 1786TIP3    H2 5365   6.214   0.636   1.996  1.7868  0.3863 -0.8786
 1787TIP3   OH2 5366   2.476   4.322   2.932 -0.0724 -0.3865  0.2190
 1787TIP3    H1 5367   2.454   4.387   2.998 -0.8672 -0.4649  0.0362
 1787TIP3    H2 5368   2.454   4.364   2.849  1.0087 -0.2523 -0.0156
 1788TIP3   OH2 5369   2.381   2.873   3.731 -0.1439 -0.0976 -0.2129
 1788TIP3    H1 5370   2.385   2.891   3.825 -0.8069  1.0239 -0.3794
 1788TIP3    H2 5371   2.472   2.865   3.704  0.2478  2.7149 -0.0145
 1789TIP3   OH2 5372   2.008   2.946   3.072  0.7860  0.4280 -0.2026
 1789TIP3    H1 5373   1.954   3.017   3.036 -0.1826 -0.7655 -1.1825
 1789TIP3    H2 5374   2.094   2.959   3.032  0.7896  1.3933  0.0963
 1790TIP3   OH2 5375   5.776   2.922   1.459  0.6771 -0.4834 -0.5258
 1790TIP3    H1 5376   5.809   2.930   1.549 -0.2200  0.0992 -0.2340
 1790TIP3    H2 5377   5.853   2.899   1.407  1.5917  0.9989  0.0999
 1791TIP3   OH2 5378   1.188   2.424   0.746 -0.1527  0.1525  0.6716
 1791TIP3    H1 5379   1.256   2.480   0.783 -0.6900  0.7262  0.7967
 1791TIP3    H2 5380   1.162   2.468   0.666  0.3045 -0.5751  0.1126
 1792TIP3   OH2 5381   4.373   2.520   0.209  0.7677  0.3843  0.5916
 1792TIP3    H1 5382   4.336   2.536   0.296 -1.3496  1.3560 -0.4027
 1792TIP3    H2 5383   4.413   2.434   0.215 -1.1688 -0.4947  1.9861
 1793TIP3   OH2 5384   1.120   5.123   1.142  0.3818  0.0036  0.2691
 1793TIP3    H1 5385   1.160   5.113   1.056  0.1027  0.7986  0.0368
 1793TIP3    H2 5386   1.083   5.211   1.141 -0.3514 -0.2824  0.8965
 1794TIP3   OH2 5387   2.267   2.716   3.546 -0.5160 -0.9406  0.3528
 1794TIP3    H1 5388   2.298   2.781   3.609  0.5895 -1.1221  0.0198
 1794TIP3    H2 5389   2.212   2.657   3.597 -1.5378  0.2259  0.6658
 1795TIP3   OH2 5390   6.098   6.002   3.799 -0.3928  0.7804 -0.6024
 1795TIP3    H1 5391   6.027   5.957   3.753  0.0352 -0.9920  0.3685
 1795TIP3    H2 5392   6.171   5.998   3.737 -0.8227  1.6896 -1.1919
 1796TIP3   OH2 5393   2.593   2.939   4.952  0.1264  0.4299 -0.1086
 1796TIP3    H1 5394   2.543   2.886   4.891 -0.1933  3.1035 -2.3783
 1796TIP3    H2 5395   2.633   2.876   5.012 -4.0506 -2.0091  0.4561
 1797TIP3   OH2 5396   0.239   5.899   0.844  0.2880 -0.4093  0.3728
 1797TIP3    H1 5397   0.203   5.962   0.782 -0.9827 -1.3819  0.0678
 1797TIP3    H2 5398   0.196   5.919   0.927  0.9719  0.0226  0.6375
 1798TIP3   OH2 5399   0.980   0.226   1.287  0.5152 -0.0525  0.0817
 1798TIP3    H1 5400   1.045   0.285   1.324 -0.2876  0.9297 -0.0270
 1798TIP3    H2 5401   1.006   0.139   1.317  1.5511  0.3842  0.4896
 1799TIP3   OH2 5402   4.719   3.302   0.547 -0.2247 -0.0840  0.1422
 1799TIP3    H1 5403   4.719   3.341   0.634 -0.1007 -0.3607  0.2692
 1799TIP3    H2 5404   4.653   3.351   0.498  0.7969  1.1223 -0.0826
 1800TIP3   OH2 5405   2.478   5.780   1.581 -0.2854 -0.6858 -0.5411
 1800TIP3    H1 5406   2.573   5.792   1.586  0.2346 -2.2875 -4.1217
 1800TIP3    H2 5407   2.444   5.869   1.569  0.6113 -0.0399  1.2037
 1801TIP3   OH2 5408   5.714   2.621   0.968  0.6675 -0.2086  0.2281
 1801TIP3    H1 5409   5.672   2.643   1.051  2.0627  1.5457  0.5177
 1801TIP3    H2 5410   5.708   2.526   0.963  2.4641 -0.6229  3.4271
 1802TIP3   OH2 5411   3.248   5.937   4.503 -0.7011 -0.2139 -0.4271
 1802TIP3    H1 5412   3.335   5.955   4.539 -0.5617  0.4715 -1.0943
 1802TIP3    H2 5413   3.206   6.022   4.498 -0.7629 -0.3082 -1.7631
 1803TIP3   OH2 5414   0.458   4.361   3.734 -0.0436  0.1088 -0.3584
 1803TIP3    H1 5415   0.466   4.438   3.677 -0.7434  1.0327  0.7447
 1803TIP3    H2 5416   0.546   4.348   3.769 -0.0353  0.7826 -0.1055
 1804TIP3   OH2 5417   5.505   0.492   0.526 -0.2114 -0.1732  0.4249
 1804TIP3    H1 5418   5.581   0.550   0.532 -0.1216 -0.1982 -0.4492
 1804TIP3    H2 5419   5.538   0.407   0.555  0.3578 -0.4175 -0.8784
 1805TIP3   OH2 5420   1.776   5.742   1.468 -0.5240  0.7630  0.2917
 1805TIP3    H1 5421   1.734   5.667   1.509  1.4047 -0.3495  0.3171
 1805TIP3    H2 5422   1.817   5.707   1.390 -1.8920  2.3558 -1.2209
 1806TIP3   OH2 5423   6.145   3.579   2.687 -0.3019  0.2700 -0.2571
 1806TIP3    H1 5424   6.123   3.649   2.748 -1.0066 -0.4635  0.3506
 1806TIP3    H2 5425   6.062   3.558   2.644 -0.2090 -0.5224 -0.0697
 1807TIP3   OH2 5426   4.919   2.900   3.908  0.3848 -0.0870  0.1470
 1807TIP3    H1 5427   4.943   2.895   4.000  0.6489 -0.0535  0.0805
 1807TIP3    H2 5428   4.924   2.809   3.877  0.4194 -0.0810  0.1349
 1808TIP3   OH2 5429   3.392   3.137   5.167  0.3476  0.4995 -0.4266
 1808TIP3    H1 5430   3.384   3.170   5.257  1.4361 -0.0526 -0.1070
 1808TIP3    H2 5431   3.315   3.172   5.122 -1.0701 -0.4599  1.1011
 1809TIP3   OH2 5432   2.991   4.798   0.056 -0.0832 -0.4152 -0.8911
 1809TIP3    H1 5433   3.027   4.851  -0.015  1.8428 -1.3449 -0.6831
 1809TIP3    H2 5434   2.952   4.722   0.013  2.6350 -1.8777 -0.9923
 1810TIP3   OH2 5435   5.757   5.034   1.790  0.2397 -0.8931  0.4824
 1810TIP3    H1 5436   5.797   4.950   1.814  1.5134 -0.3384  0.4055
 1810TIP3    H2 5437   5.827   5.082   1.746 -1.7651 -1.6098 -4.0270
 1811TIP3   OH2 5438   4.968   0.469   1.954  0.3576 -0.2050  0.0827
 1811TIP3    H1 5439   4.910   0.543   1.970 -0.0815 -0.7095  0.8624
 1811TIP3    H2 5440   5.021   0.462   2.034 -1.3202 -2.2704  1.1276
 1812TIP3   OH2 5441   5.617   0.517   3.059  0.3590  0.7324 -0.0041
 1812TIP3    H1 5442   5.584   0.588   3.003 -1.0535  0.5857  0.5935
 1812TIP3    H2 5443   5.691   0.556   3.106 -1.0378  2.1904  1.0993
 1813TIP3   OH2 5444   1.699   0.339   4.606 -0.0144 -0.3480 -0.1222
 1813TIP3    H1 5445   1.762   0.278   4.645 -0.8892  1.1688  4.1505
 1813TIP3    H2 5446   1.616   0.293   4.608 -0.4366  0.3914  1.9320
 1814TIP3   OH2 5447   2.077   0.766   0.301  0.0798 -0.1935  0.3026
 1814TIP3    H1 5448   2.167   0.786   0.278  0.2804  1.2655  2.0612
 1814TIP3    H2 5449   2.026   0.840   0.267 -0.5350 -1.1173 -0.8879
 1815TIP3   OH2 5450   3.053   5.703   4.247 -0.0608  0.2118  0.3759
 1815TIP3    H1 5451   3.084   5.779   4.199  0.2707 -0.7036 -0.9154
 1815TIP3    H2 5452   2.957   5.710   4.245 -0.1163 -0.4619 -1.6016
 1816TIP3   OH2 5453   5.309   3.163   4.942 -0.6529 -0.1011 -0.3062
 1816TIP3    H1 5454   5.347   3.144   5.027  0.8977  0.0150 -0.9403
 1816TIP3    H2 5455   5.351   3.245   4.914 -2.9675  1.2213 -0.1216
 1817TIP3   OH2 5456   2.858   4.151   4.002  0.5899 -0.1799 -0.0725
 1817TIP3    H1 5457   2.764   4.164   3.993  0.7867  1.7493  0.2423
 1817TIP3    H2 5458   2.869   4.055   4.005 -1.4476 -0.4388  0.9309
 1818TIP3   OH2 5459   5.076   2.909   0.766  0.3834 -0.0817 -0.3043
 1818TIP3    H1 5460   5.012   2.880   0.830  1.7946 -0.6188  0.9192
 1818TIP3    H2 5461   5.025   2.957   0.700 -1.3528 -1.2322  0.1568
 1819TIP3   OH2 5462   0.635   5.875   2.233  0.3493 -0.2975 -0.2124
 1819TIP3    H1 5463   0.647   5.828   2.151 -0.7660 -1.2925  0.1703
 1819TIP3    H2 5464   0.648   5.809   2.301  2.0333  0.6730  0.4739
 1820TIP3   OH2 5465   2.996   4.074   1.568 -0.1488  0.0993 -0.4151
 1820TIP3    H1 5466   3.009   4.107   1.657  1.8604 -2.1633  0.2430
 1820TIP3    H2 5467   3.019   4.147   1.512  0.2921  1.0264  0.9241
 1821TIP3   OH2 5468   6.002   4.139   3.433  0.5338  0.6132 -0.4206
 1821TIP3    H1 5469   5.930   4.095   3.478  1.0815 -0.2690 -0.3825
 1821TIP3    H2 5470   5.970   4.152   3.343  0.5591 -0.3526 -0.5735
 1822TIP3   OH2 5471   2.814   4.112   3.144  0.1814  0.4826 -0.1344
 1822TIP3    H1 5472   2.725   4.138   3.117  0.2413  1.4175  0.5198
 1822TIP3    H2 5473   2.813   4.119   3.239  1.4726  2.2543 -0.2086
 1823TIP3   OH2 5474   4.842   2.028   2.181  0.3472 -0.1430  0.2726
 1823TIP3    H1 5475   4.909   1.999   2.119  0.7169 -0.2231  0.7037
 1823TIP3    H2 5476   4.830   2.121   2.161  0.6857 -0.0958  0.2895
 1824TIP3   OH2 5477   4.041   2.508   4.555 -0.0638  0.1144 -0.8114
 1824TIP3    H1 5478   4.023   2.580   4.615  0.4218 -0.7544  0.4140
 1824TIP3    H2 5479   4.063   2.551   4.472 -0.4508  1.3468 -0.2983
 1825TIP3   OH2 5480   5.627   0.277   3.486  0.3918 -0.2729  0.5143
 1825TIP3    H1 5481   5.560   0.285   3.418  0.3455  2.0682  0.7392
 1825TIP3    H2 5482   5.709   0.266   3.437  0.1542 -0.4237  0.1475
 1826TIP3   OH2 5483   3.065   4.944   3.107  0.0112 -0.3989 -0.1885
 1826TIP3    H1 5484   3.028   4.992   3.034 -0.2103 -1.4292 -0.7703
 1826TIP3    H2 5485   3.093   5.012   3.169 -0.5071  0.4551 -0.8736
 1827TIP3   OH2 5486   0.350   4.383   4.107  0.6232  0.6821 -0.3166
 1827TIP3    H1 5487   0.323   4.424   4.189 -1.7649  1.6051 -1.4806
 1827TIP3    H2 5488   0.437   4.418   4.090  0.6504  1.4175  1.1828
 1828TIP3   OH2 5489   3.500   0.398   1.471  0.4252 -0.4318  0.5609
 1828TIP3    H1 5490   3.488   0.416   1.378 -0.3340  0.8338  0.8817
 1828TIP3    H2 5491   3.512   0.303   1.476  2.3950 -0.3201 -0.9995
 1829TIP3   OH2 5492   5.263   4.856   1.208 -0.2658  0.1492  0.0431
 1829TIP3    H1 5493   5.218   4.848   1.123 -1.0542  0.9852  0.3604
 1829TIP3    H2 5494   5.312   4.938   1.201 -0.7710  0.5054  0.5764
 1830TIP3   OH2 5495   1.203   1.218   2.581  0.1379  0.5508 -0.0295
 1830TIP3    H1 5496   1.192   1.299   2.532 -0.5505  0.4883  0.0195
 1830TIP3    H2 5497   1.203   1.245   2.673 -0.1592  0.4842 -0.0112
 1831TIP3   OH2 5498   3.581   2.698   4.155 -0.4529 -0.3256 -0.0116
 1831TIP3    H1 5499   3.655   2.644   4.127  1.3385  1.4136  1.1337
 1831TIP3    H2 5500   3.594   2.709   4.249 -1.4720  1.0599 -0.0056
 1832TIP3   OH2 5501   3.260   4.566  -0.015  0.0793  0.4167 -0.2914
 1832TIP3    H1 5502   3.235   4.619   0.061 -1.9235  0.3922 -0.8881
 1832TIP3    H2 5503   3.259   4.476   0.017  0.8030  0.5141  0.0305
 1833TIP3   OH2 5504   2.641   2.974   0.431 -0.2133 -0.0711 -0.4062
 1833TIP3    H1 5505   2.622   3.068   0.433 -0.8944 -0.2102  1.2180
 1833TIP3    H2 5506   2.630   2.946   0.521 -2.7299 -2.2524 -1.2711
 1834TIP3   OH2 5507   4.403   3.087   4.706  0.5019 -0.0356  0.2052
 1834TIP3    H1 5508   4.434   3.174   4.730 -0.1839  0.2166  0.1807
 1834TIP3    H2 5509   4.483   3.038   4.685  1.0355  0.0887  1.8083
 1835TIP3   OH2 5510   5.049   3.304   2.765 -0.1554  0.2225  0.2710
 1835TIP3    H1 5511   5.008   3.293   2.851 -0.2279  1.0057  0.3444
 1835TIP3    H2 5512   5.142   3.316   2.784  0.2015 -1.8466  0.0864
 1836TIP3   OH2 5513   5.051   4.589   3.241 -0.0640 -0.1188 -0.2422
 1836TIP3    H1 5514   4.962   4.611   3.269 -0.2144 -2.7486  1.7150
 1836TIP3    H2 5515   5.063   4.638   3.159 -3.3858  0.1072 -0.7456
 1837TIP3   OH2 5516   0.914   5.767   3.196 -0.4540 -0.4389 -0.6670
 1837TIP3    H1 5517   0.973   5.695   3.217 -0.7764 -0.9344 -1.4352
 1837TIP3    H2 5518   0.837   5.751   3.251  0.1433  0.2917  0.4501
 1838TIP3   OH2 5519   2.964   2.303   1.542  0.0031 -0.3215 -0.3390
 1838TIP3    H1 5520   2.973   2.239   1.613 -2.9852 -1.4361 -0.8323
 1838TIP3    H2 5521   2.883   2.279   1.498  0.1315  2.2639 -2.2193
 1839TIP3   OH2 5522   1.643   5.238   3.517  0.1200  0.5080  0.8173
 1839TIP3    H1 5523   1.550   5.260   3.524 -0.1392  0.7710 -2.3385
 1839TIP3    H2 5524   1.651   5.189   3.436  2.9647  1.9505  0.0938
 1840TIP3   OH2 5525   0.532   0.405   2.104  0.5076  0.5066 -0.1522
 1840TIP3    H1 5526   0.618   0.373   2.075 -0.6687 -0.7975 -2.3936
 1840TIP3    H2 5527   0.552   0.490   2.145  2.9399 -0.0877  0.0891
 1841TIP3   OH2 5528   4.564   2.198   2.044 -0.0561 -0.2481 -0.2509
 1841TIP3    H1 5529   4.653   2.234   2.040  0.1929 -0.8056 -0.0043
 1841TIP3    H2 5530   4.544   2.173   1.954  0.7243 -1.6745 -0.0694
 1842TIP3   OH2 5531   3.185   5.681   0.907  0.1812  0.4607 -0.1657
 1842TIP3    H1 5532   3.222   5.593   0.911  0.9651  0.7175 -1.1211
 1842TIP3    H2 5533   3.192   5.705   0.814 -1.4007  0.9586 -0.1810
 1843TIP3   OH2 5534   1.569   4.398   2.477 -0.0375  0.4076  0.3590
 1843TIP3    H1 5535   1.608   4.460   2.539  1.8712  0.6359 -0.9637
 1843TIP3    H2 5536   1.588   4.436   2.391 -1.8890 -0.3054 -0.4183
 1844TIP3   OH2 5537   5.647   5.409   2.302  0.2169 -0.7336  0.1082
 1844TIP3    H1 5538   5.582   5.359   2.253 -0.1075  0.7571 -1.0550
 1844TIP3    H2 5539   5.720   5.348   2.314 -0.2961 -1.5937 -0.9306
 1845TIP3   OH2 5540   1.097   5.257   2.604  0.5337 -0.1024 -0.1425
 1845TIP3    H1 5541   1.129   5.337   2.646 -0.5306 -0.0137  0.5389
 1845TIP3    H2 5542   1.046   5.288   2.529  1.8117 -0.2339 -1.0877
 1846TIP3   OH2 5543   2.806   5.648   4.066  0.4289 -0.7820 -0.1936
 1846TIP3    H1 5544   2.855   5.566   4.063  0.8432 -0.5573  0.3575
 1846TIP3    H2 5545   2.721   5.626   4.028  1.6030 -0.6831 -3.2023
 1847TIP3   OH2 5546   1.544   5.580   2.110 -0.3761 -0.3240  0.3874
 1847TIP3    H1 5547   1.480   5.619   2.050 -0.4231  0.0436  0.6781
 1847TIP3    H2 5548   1.628   5.610   2.077 -0.3947 -0.2267  0.4272
 1848TIP3   OH2 5549   0.702   2.331   0.051 -0.5312  0.7364 -0.0771
 1848TIP3    H1 5550   0.729   2.394   0.118  0.1884  0.1108  0.2426
 1848TIP3    H2 5551   0.747   2.359  -0.028  0.6552  0.0436  0.3128
 1849TIP3   OH2 5552   1.466   4.127   4.282  0.3862  0.2774  0.0677
 1849TIP3    H1 5553   1.417   4.096   4.358  0.2120 -3.6408 -1.4318
 1849TIP3    H2 5554   1.553   4.146   4.316 -0.2302  0.5935  1.5580
 1850TIP3   OH2 5555   0.165   4.364   4.463  0.1539  0.1812  0.2331
 1850TIP3    H1 5556   0.213   4.423   4.405 -0.5507 -0.5473 -1.1221
 1850TIP3    H2 5557   0.092   4.416   4.495  0.2964  0.4440  0.1326
 1851TIP3   OH2 5558   3.735   1.869   3.745  0.2254  0.1790 -0.1165
 1851TIP3    H1 5559   3.678   1.853   3.820  0.3612  1.0473  0.1792
 1851TIP3    H2 5560   3.818   1.896   3.783 -0.0292  1.6960 -0.5797
 1852TIP3   OH2 5561   2.839   2.345   1.172 -0.1256 -0.3082 -0.2532
 1852TIP3    H1 5562   2.881   2.259   1.172  2.0498  0.6715 -1.4030
 1852TIP3    H2 5563   2.910   2.406   1.193 -1.5294  1.2597  0.1146
 1853TIP3   OH2 5564   3.017   2.172   0.598  0.2159  0.5622 -0.5886
 1853TIP3    H1 5565   2.980   2.087   0.574  0.0242  0.6234 -0.5165
 1853TIP3    H2 5566   2.967   2.198   0.676  1.7506 -0.2887  0.7669
 1854TIP3   OH2 5567   1.396   4.488   2.808  0.0741 -0.1939 -0.1167
 1854TIP3    H1 5568   1.390   4.409   2.862 -0.6547  0.4297  0.7588
 1854TIP3    H2 5569   1.472   4.535   2.843  0.0685 -0.1589 -0.1512
 1855TIP3   OH2 5570   1.502   0.793   4.389 -0.5102  0.0935 -0.0267
 1855TIP3    H1 5571   1.459   0.869   4.350 -0.4257  0.9872  1.5246
 1855TIP3    H2 5572   1.493   0.724   4.324 -0.8690  1.3409 -1.3461
 1856TIP3   OH2 5573   5.322   3.093   2.867 -0.3137 -1.2642  0.0434
 1856TIP3    H1 5574   5.317   3.106   2.772 -3.4625  1.6495  0.4097
 1856TIP3    H2 5575   5.370   3.169   2.899  0.1996 -1.9151  0.8526
 1857TIP3   OH2 5576   0.969   1.347   0.028 -0.0826 -0.4381 -0.0107
 1857TIP3    H1 5577   0.913   1.425   0.015  0.0039 -0.6728 -2.3485
 1857TIP3    H2 5578   0.916   1.275  -0.005 -0.5290 -1.6097  3.0009
 1858TIP3   OH2 5579   0.436   4.593   3.599 -0.0812 -0.2634  0.4145
 1858TIP3    H1 5580   0.435   4.658   3.528 -0.6924 -0.0203  0.6428
 1858TIP3    H2 5581   0.422   4.644   3.678  0.0523 -0.6067  0.6620
 1859TIP3   OH2 5582   1.200   5.151   2.319 -0.0493 -0.3270  0.4961
 1859TIP3    H1 5583   1.112   5.185   2.336  0.2352  0.7704 -0.1694
 1859TIP3    H2 5584   1.248   5.165   2.401 -0.0536  0.5160  0.3593
 1860TIP3   OH2 5585   1.824   0.988   2.047 -0.1585  0.1076  1.0237
 1860TIP3    H1 5586   1.834   0.946   1.961 -0.2852  1.9478  0.0597
 1860TIP3    H2 5587   1.730   1.007   2.053  0.0659  1.3240  0.8821
 1861TIP3   OH2 5588   1.906   1.586   1.744  0.1349 -0.1205  0.0122
 1861TIP3    H1 5589   1.888   1.492   1.746  3.2174 -0.8034  1.9608
 1861TIP3    H2 5590   1.977   1.595   1.680  0.1121  0.8330  0.1136
 1862TIP3   OH2 5591   4.871   3.884   4.570 -0.1219 -0.1301  0.2766
 1862TIP3    H1 5592   4.900   3.855   4.656 -1.6453  1.3310  1.3609
 1862TIP3    H2 5593   4.858   3.803   4.520 -0.1677 -1.0723  1.7505
 1863TIP3   OH2 5594   4.528   1.591   3.834 -0.4522 -0.7256  0.1765
 1863TIP3    H1 5595   4.554   1.673   3.791  0.6676 -1.3423 -0.3560
 1863TIP3    H2 5596   4.441   1.572   3.798 -0.8799  0.3906  0.5594
 1864TIP3   OH2 5597   4.807   5.416   4.777  0.6563 -0.0277 -0.2036
 1864TIP3    H1 5598   4.866   5.491   4.785  1.1594 -0.2060 -1.9316
 1864TIP3    H2 5599   4.802   5.399   4.683 -1.5120 -0.5354 -0.0618
 1865TIP3   OH2 5600   3.798   5.800   1.980  0.4573 -0.2580 -0.3353
 1865TIP3    H1 5601   3.732   5.848   2.030 -1.0655 -0.4710 -2.0541
 1865TIP3    H2 5602   3.874   5.858   1.978 -1.0699  1.8523 -1.7494
 1866TIP3   OH2 5603   5.748   0.718   4.084 -0.1129 -0.0533 -0.1119
 1866TIP3    H1 5604   5.672   0.687   4.134  0.8804  0.7865  2.0490
 1866TIP3    H2 5605   5.713   0.739   3.997 -1.8369 -2.0328  0.0273
 1867TIP3   OH2 5606   3.316   4.272   5.022  0.2406  0.1549  0.0028
 1867TIP3    H1 5607   3.259   4.224   5.082 -0.8989  2.4682  0.8978
 1867TIP3    H2 5608   3.334   4.355   5.067  2.8502  0.2713 -1.0529
 1868TIP3   OH2 5609   2.830   3.238   2.484  0.5774 -0.7358  0.1611
 1868TIP3    H1 5610   2.880   3.294   2.542  0.5769 -0.4734 -0.0887
 1868TIP3    H2 5611   2.896   3.198   2.426  0.3149  1.8397 -2.1180
 1869TIP3   OH2 5612   3.738   3.931   3.148 -0.3421  0.4807 -0.2874
 1869TIP3    H1 5613   3.706   3.979   3.072 -1.7170 -0.1890 -0.1635
 1869TIP3    H2 5614   3.722   3.839   3.127  0.3552  0.2114  0.3219
 1870TIP3   OH2 5615   3.650   4.921   4.163 -0.1061 -0.4739  0.2803
 1870TIP3    H1 5616   3.651   4.837   4.117  3.0294 -0.7258  0.5741
 1870TIP3    H2 5617   3.690   4.902   4.248 -1.6827  0.8658  1.3739
 1871TIP3   OH2 5618   4.907   0.856   4.042 -0.0869 -0.0959 -0.5741
 1871TIP3    H1 5619   4.978   0.834   4.103 -0.2966 -1.4122 -0.7821
 1871TIP3    H2 5620   4.827   0.830   4.087 -0.3802  0.5644 -0.7010
 1872TIP3   OH2 5621   4.652   1.168   0.620  0.5170 -0.2783  0.3878
 1872TIP3    H1 5622   4.653   1.237   0.554 -4.4916 -1.1604 -1.0880
 1872TIP3    H2 5623   4.576   1.188   0.675  1.1595 -2.6410  2.3213
 1873TIP3   OH2 5624   5.565   3.458   4.166 -0.1566 -0.2993 -0.6134
 1873TIP3    H1 5625   5.494   3.507   4.125  0.3680 -0.4278 -1.7235
 1873TIP3    H2 5626   5.642   3.479   4.114  1.3169  2.1251  2.2542
 1874TIP3   OH2 5627   3.608   0.450   4.959  0.2432  0.3066  0.2138
 1874TIP3    H1 5628   3.622   0.357   4.978 -0.2890  0.1174 -0.3034
 1874TIP3    H2 5629   3.520   0.468   4.992 -0.1492  0.3115 -0.8046
 1875TIP3   OH2 5630   4.973   2.069   4.626 -0.1983  0.1946 -0.2943
 1875TIP3    H1 5631   5.015   2.001   4.573  1.4758  0.7327  0.2670
 1875TIP3    H2 5632   4.888   2.032   4.650 -0.0472 -0.9691 -1.4553
 1876TIP3   OH2 5633   2.893   5.780   3.174 -0.2035  0.6952 -0.1560
 1876TIP3    H1 5634   2.833   5.806   3.104  1.2782  2.3698 -0.9083
 1876TIP3    H2 5635   2.837   5.767   3.250 -1.5633  1.9461 -0.8764
 1877TIP3   OH2 5636   4.562   0.241   2.488  0.0058  0.2849  0.3907
 1877TIP3    H1 5637   4.545   0.241   2.394  1.0806 -0.4601  0.1733
 1877TIP3    H2 5638   4.494   0.184   2.525  2.4225 -3.6219 -0.5881
 1878TIP3   OH2 5639   4.581   2.239   2.398  0.0954 -0.1529  0.0575
 1878TIP3    H1 5640   4.603   2.148   2.377 -0.0265 -0.2184  0.2111
 1878TIP3    H2 5641   4.581   2.241   2.494 -1.0655 -0.2700  0.0678
 1879TIP3   OH2 5642   0.574   4.027   1.060 -0.0896  0.4090 -0.0593
 1879TIP3    H1 5643   0.500   4.030   1.121 -0.0940 -1.5785  0.0824
 1879TIP3    H2 5644   0.627   3.953   1.090 -0.0872 -0.6275 -2.4516
 1880TIP3   OH2 5645   6.087   1.214   3.201 -0.1597  0.1417 -0.4604
 1880TIP3    H1 5646   6.131   1.131   3.184 -0.2064  0.3927 -1.9433
 1880TIP3    H2 5647   6.034   1.198   3.280  1.0680 -0.7312  0.2108
 1881TIP3   OH2 5648   1.890   3.479   2.293 -0.0265  0.2657 -0.4101
 1881TIP3    H1 5649   1.879   3.398   2.343 -0.2963  1.9722  2.5427
 1881TIP3    H2 5650   1.952   3.457   2.224 -1.9163 -3.0189 -1.2564
 1882TIP3   OH2 5651   3.644   4.563   1.715  0.5049 -0.6096 -0.0436
 1882TIP3    H1 5652   3.630   4.628   1.784  2.2171  0.1530 -0.3621
 1882TIP3    H2 5653   3.678   4.613   1.642  0.8513 -1.7290 -0.6700
 1883TIP3   OH2 5654   0.214   3.558   1.242 -0.3579 -0.3344  1.2837
 1883TIP3    H1 5655   0.240   3.482   1.189 -0.0081  1.4103 -1.1919
 1883TIP3    H2 5656   0.183   3.622   1.178 -4.3808  0.2815  3.5220
 1884TIP3   OH2 5657   3.343   2.300   3.713  0.0354 -0.0263  0.2738
 1884TIP3    H1 5658   3.257   2.336   3.689 -0.5398 -0.4639  1.6155
 1884TIP3    H2 5659   3.324   2.225   3.769  1.2990 -0.1347  0.5965
 1885TIP3   OH2 5660   0.438   1.676   0.748 -0.2102  0.4889 -0.4951
 1885TIP3    H1 5661   0.521   1.698   0.705 -0.1114  1.4020  0.1341
 1885TIP3    H2 5662   0.433   1.580   0.742  1.5150  0.2805  0.5581
 1886TIP3   OH2 5663   0.972   4.181   4.198  0.1356  0.0256 -0.6405
 1886TIP3    H1 5664   0.916   4.106   4.219  2.4002 -0.9760  2.6800
 1886TIP3    H2 5665   0.924   4.257   4.234  0.0050 -0.5501  0.4536
 1887TIP3   OH2 5666   3.131   3.979   3.243  0.4045 -0.4867  0.6027
 1887TIP3    H1 5667   3.218   3.938   3.235  0.3160 -0.5438 -0.1412
 1887TIP3    H2 5668   3.109   3.969   3.336  0.5854 -1.7231  0.5372
 1888TIP3   OH2 5669   0.714   0.061   2.479  0.7550 -0.4663 -0.4288
 1888TIP3    H1 5670   0.743   0.147   2.448  0.6768 -0.5784 -0.8166
 1888TIP3    H2 5671   0.756   0.051   2.564  1.3721 -0.3680 -0.7159
 1889TIP3   OH2 5672   3.544   3.578   3.608 -0.3633  0.2709 -0.0256
 1889TIP3    H1 5673   3.567   3.583   3.701 -2.9323  0.0316  0.6985
 1889TIP3    H2 5674   3.450   3.593   3.606 -0.5982 -1.0507 -2.4778
 1890TIP3   OH2 5675   5.706   1.824   2.176 -0.4522 -0.2695  0.1949
 1890TIP3    H1 5676   5.647   1.893   2.206 -1.6532 -1.8073  1.6081
 1890TIP3    H2 5677   5.783   1.870   2.143 -0.9958  1.7149  1.5172
 1891TIP3   OH2 5678   0.032   1.968   4.849 -0.4551  0.3238 -0.1566
 1891TIP3    H1 5679  -0.036   2.017   4.894 -0.1629  1.2379 -0.6815
 1891TIP3    H2 5680   0.027   1.997   4.758 -0.6279 -1.0321 -0.6147
 1892TIP3   OH2 5681   1.659   2.118   4.589 -0.5699 -0.0990 -0.1733
 1892TIP3    H1 5682   1.715   2.123   4.511  1.2966 -1.3680  0.9894
 1892TIP3    H2 5683   1.681   2.196   4.639 -0.5269 -0.1215 -0.1566
 1893TIP3   OH2 5684   1.648   5.440   1.249  0.2267  0.0887  0.3842
 1893TIP3    H1 5685   1.655   5.355   1.292 -0.8238 -0.1222  0.1665
 1893TIP3    H2 5686   1.691   5.428   1.165 -1.0843 -0.6551 -0.2166
 1894TIP3   OH2 5687   0.892   5.023   3.316 -0.1640 -0.0210 -0.3722
 1894TIP3    H1 5688   0.879   4.952   3.253  1.1129 -0.1468 -0.5130
 1894TIP3    H2 5689   0.958   4.989   3.377 -0.5159  0.5535  0.3365
 1895TIP3   OH2 5690   5.151   4.451   1.145 -0.7244 -0.0131 -0.2923
 1895TIP3    H1 5691   5.221   4.474   1.084 -2.3128 -0.2796 -2.2981
 1895TIP3    H2 5692   5.188   4.472   1.231  1.9323 -0.4668 -1.2082
 1896TIP3   OH2 5693   5.925   2.369   3.998 -0.4169  0.1676 -0.2817
 1896TIP3    H1 5694   5.922   2.424   3.920  0.0581  1.8642  0.8225
 1896TIP3    H2 5695   5.900   2.282   3.968  0.6062  0.5665 -2.4687
 1897TIP3   OH2 5696   5.870   4.841   0.901  0.1816  0.2510  0.5845
 1897TIP3    H1 5697   5.915   4.825   0.819 -1.6313  0.7339 -0.5615
 1897TIP3    H2 5698   5.828   4.926   0.890 -2.4959 -0.9121  0.7990
 1898TIP3   OH2 5699   0.207   3.523   0.788  0.4378 -0.1866 -0.2314
 1898TIP3    H1 5700   0.247   3.492   0.869 -0.2807  0.6755  0.4805
 1898TIP3    H2 5701   0.237   3.462   0.721  1.0188 -0.9367  0.6900
 1899TIP3   OH2 5702   2.887   5.699   0.621 -0.1871  0.5854  0.8512
 1899TIP3    H1 5703   2.913   5.634   0.554 -0.2875 -0.9725  2.2601
 1899TIP3    H2 5704   2.795   5.716   0.603 -0.2097  0.1998  0.5743
 1900TIP3   OH2 5705   1.134   1.213   4.976 -0.2726 -0.0993 -0.2317
 1900TIP3    H1 5706   1.170   1.283   4.921 -1.7706  0.0972 -1.0321
 1900TIP3    H2 5707   1.094   1.153   4.913 -3.1886  0.7798  0.6123
 1901TIP3   OH2 5708   1.781   1.692   2.537  0.1521  0.1084 -0.1212
 1901TIP3    H1 5709   1.729   1.735   2.605  1.5135  3.4093 -0.9266
 1901TIP3    H2 5710   1.716   1.654   2.478 -1.1752  0.4104  1.0835
 1902TIP3   OH2 5711   5.897   5.565   4.497  0.2915 -0.1796 -0.1190
 1902TIP3    H1 5712   5.962   5.497   4.515 -0.3627 -0.7567  0.1019
 1902TIP3    H2 5713   5.824   5.545   4.555  0.6842  1.6132  1.0893
 1903TIP3   OH2 5714   5.976   2.895   2.267  0.1516 -0.3853 -0.2926
 1903TIP3    H1 5715   5.923   2.966   2.302 -1.5254 -1.0945 -1.2652
 1903TIP3    H2 5716   6.029   2.866   2.341 -0.6845  0.4846  0.6836
 1904TIP3   OH2 5717   2.138   2.541   2.006  0.0985  0.9817 -0.3072
 1904TIP3    H1 5718   2.191   2.530   2.084 -0.5019  2.1941  0.2846
 1904TIP3    H2 5719   2.064   2.595   2.033 -0.6043  0.6767 -1.4977
 1905TIP3   OH2 5720   2.018   1.106   4.003  0.6884 -0.0269  0.2724
 1905TIP3    H1 5721   2.084   1.091   3.935 -0.6450  0.4200 -1.1860
 1905TIP3    H2 5722   1.934   1.095   3.957 -0.2537  0.4059  1.8340
 1906TIP3   OH2 5723   3.061   0.379   5.156  0.0659  0.2461  0.7315
 1906TIP3    H1 5724   3.018   0.465   5.155 -2.4887 -0.9241  1.3181
 1906TIP3    H2 5725   3.101   0.372   5.069 -0.7529  1.5349  0.2092
 1907TIP3   OH2 5726   1.508   2.951   0.235 -0.2365 -0.4337  0.1374
 1907TIP3    H1 5727   1.460   2.869   0.249 -0.6485 -0.1717  0.2868
 1907TIP3    H2 5728   1.568   2.932   0.162  1.8464 -1.7893  2.0751
 1908TIP3   OH2 5729   4.735   1.649   1.036  0.5697 -0.4430  0.2411
 1908TIP3    H1 5730   4.830   1.655   1.037  0.4717  2.2243 -0.0403
 1908TIP3    H2 5731   4.705   1.738   1.020 -1.9753 -1.3654 -0.7216
 1909TIP3   OH2 5732   3.772   4.922   3.155 -0.2980  0.6408 -0.0842
 1909TIP3    H1 5733   3.769   4.995   3.092 -0.1670 -0.2510 -1.1545
 1909TIP3    H2 5734   3.812   4.850   3.106 -2.4115 -0.8460  0.2224
 1910TIP3   OH2 5735   4.087   6.015   2.402  0.5391  0.0674  0.0543
 1910TIP3    H1 5736   4.060   5.950   2.337 -0.5982  0.8609 -0.3042
 1910TIP3    H2 5737   4.156   5.972   2.452 -0.9800 -1.8579  0.6145
 1911TIP3   OH2 5738   3.759   4.250   4.919 -0.6265  0.0633  0.1229
 1911TIP3    H1 5739   3.744   4.320   4.982 -0.3198  0.2316  0.0078
 1911TIP3    H2 5740   3.697   4.181   4.945 -1.6068  0.7507 -0.3525
 1912TIP3   OH2 5741   2.228   3.358   2.903 -0.5249 -0.6391 -0.2346
 1912TIP3    H1 5742   2.189   3.422   2.843  0.5842 -0.2301 -0.5497
 1912TIP3    H2 5743   2.242   3.280   2.849  1.2114 -0.0062 -0.7602
 1913TIP3   OH2 5744   0.657   1.931   2.897 -0.2204  0.0249  0.0260
 1913TIP3    H1 5745   0.717   1.866   2.934 -0.1664  0.3586  0.5395
 1913TIP3    H2 5746   0.709   2.012   2.895  0.2999 -0.2995 -2.2172
 1914TIP3   OH2 5747   3.028   3.750   2.496 -0.5492 -0.2524  0.4992
 1914TIP3    H1 5748   2.963   3.766   2.427  0.2142  0.2658 -0.1095
 1914TIP3    H2 5749   3.026   3.655   2.507 -2.9397 -0.1215  2.0215
 1915TIP3   OH2 5750   4.911   4.344   1.425 -0.2865  0.1779 -0.3182
 1915TIP3    H1 5751   4.952   4.315   1.344  0.4654 -1.0293  0.4606
 1915TIP3    H2 5752   4.949   4.287   1.493 -0.0871  1.8482  1.0374
 1916TIP3   OH2 5753   4.396   0.397   4.810  0.0164 -0.1606  0.2214
 1916TIP3    H1 5754   4.452   0.471   4.787 -1.2593  0.3943 -1.2895
 1916TIP3    H2 5755   4.455   0.321   4.812  0.7508  0.3032 -1.9200
 1917TIP3   OH2 5756   3.837   1.293   2.925  0.2999  0.3058  0.1879
 1917TIP3    H1 5757   3.929   1.308   2.901  0.3646 -1.5158 -0.8944
 1917TIP3    H2 5758   3.789   1.361   2.878  1.0796  1.3069  0.7947
 1918TIP3   OH2 5759   1.460   0.834   1.039 -0.6208 -0.1809  0.4507
 1918TIP3    H1 5760   1.461   0.930   1.047  0.1696 -0.0620 -0.7657
 1918TIP3    H2 5761   1.551   0.808   1.055 -0.8025 -0.7174  0.6276
 1919TIP3   OH2 5762   2.483   3.430   2.990 -0.3929  0.4759  0.0901
 1919TIP3    H1 5763   2.511   3.510   2.945 -1.1328  1.5328  1.4300
 1919TIP3    H2 5764   2.417   3.392   2.932  0.0324  0.7658 -0.6005
 1920TIP3   OH2 5765   1.472   2.168   0.126  0.3269  0.3221  0.3092
 1920TIP3    H1 5766   1.433   2.117   0.055 -1.2911 -0.0497  1.3902
 1920TIP3    H2 5767   1.431   2.133   0.205  1.6647  1.0950  1.3848
 1921TIP3   OH2 5768   5.287   5.346   0.263  0.0634 -0.1853  0.2411
 1921TIP3    H1 5769   5.339   5.423   0.238 -2.8461  1.2023 -2.1476
 1921TIP3    H2 5770   5.308   5.280   0.197  0.5041 -0.4781  0.6666
 1922TIP3   OH2 5771   1.173   0.919   5.118  0.3986 -0.7459 -0.0752
 1922TIP3    H1 5772   1.175   1.012   5.096  0.2848 -1.3800 -3.2152
 1922TIP3    H2 5773   1.237   0.879   5.059 -0.5237 -2.8160  0.2536
 1923TIP3   OH2 5774   0.549   1.220   3.486  0.0698 -0.0163 -0.0383
 1923TIP3    H1 5775   0.639   1.189   3.498 -0.0902 -0.0161  1.3349
 1923TIP3    H2 5776   0.501   1.180   3.559 -1.0490 -0.0283 -0.7659
 1924TIP3   OH2 5777   4.250   2.669   3.459 -0.4910  0.1103 -0.2296
 1924TIP3    H1 5778   4.302   2.592   3.480 -1.2185 -0.0639  0.9683
 1924TIP3    H2 5779   4.161   2.648   3.487 -1.6243 -0.1551 -3.4989
 1925TIP3   OH2 5780   3.512   1.491   2.567 -0.2435 -0.1574 -0.0855
 1925TIP3    H1 5781   3.518   1.521   2.476 -0.3840  1.6930  0.4796
 1925TIP3    H2 5782   3.451   1.417   2.564  1.3066 -1.4770 -1.7740
 1926TIP3   OH2 5783   3.168   3.180   3.706  0.1637  0.0607  0.2157
 1926TIP3    H1 5784   3.153   3.159   3.614  0.6234  1.7162 -0.2670
 1926TIP3    H2 5785   3.176   3.276   3.708 -2.1937  0.3195  2.3094
 1927TIP3   OH2 5786   4.301   0.296   0.382  0.5794  0.2512 -0.4155
 1927TIP3    H1 5787   4.348   0.365   0.429  2.4118 -1.1349 -0.0991
 1927TIP3    H2 5788   4.370   0.244   0.341 -0.6629 -1.9975  0.2016
 1928TIP3   OH2 5789   0.813   5.035   3.983 -0.5309  0.2764  0.2755
 1928TIP3    H1 5790   0.768   5.061   3.903 -0.6585  0.1090  0.2931
 1928TIP3    H2 5791   0.882   4.975   3.953 -1.4287 -0.8666  0.4154
 1929TIP3   OH2 5792   3.058   2.519   1.123  0.6529 -0.0087 -0.1351
 1929TIP3    H1 5793   3.134   2.577   1.123  0.3625  0.4213  1.1315
 1929TIP3    H2 5794   2.985   2.576   1.146  0.2445 -0.7273  0.4015
 1930TIP3   OH2 5795   0.671   0.527   2.671  0.0986 -0.4149 -0.0872
 1930TIP3    H1 5796   0.757   0.505   2.635  0.0077 -0.8492 -0.0325
 1930TIP3    H2 5797   0.643   0.449   2.718 -1.3640 -1.1761 -2.0699
 1931TIP3   OH2 5798   3.844   5.363   5.029  0.4418 -0.3159  0.3480
 1931TIP3    H1 5799   3.870   5.454   5.014 -0.8077 -0.0338 -0.2172
 1931TIP3    H2 5800   3.773   5.348   4.966 -0.6459 -1.0932  1.7110
 1932TIP3   OH2 5801   0.606   1.354   1.873  0.1202  0.1156  0.1651
 1932TIP3    H1 5802   0.621   1.329   1.965 -1.2163  2.4928  1.1386
 1932TIP3    H2 5803   0.633   1.278   1.823 -2.3761 -2.7131  2.6995
 1933TIP3   OH2 5804   2.072   2.882   3.739  0.3228 -0.1153  0.3146
 1933TIP3    H1 5805   2.152   2.927   3.767  0.4760 -0.2876  0.1588
 1933TIP3    H2 5806   2.032   2.941   3.675 -1.8630  1.9646  3.3339
 1934TIP3   OH2 5807   1.561   1.985   3.627  0.2475  0.0564 -0.1302
 1934TIP3    H1 5808   1.578   2.029   3.711  0.5363 -1.2452  0.5116
 1934TIP3    H2 5809   1.648   1.972   3.590  0.5160 -2.9613  1.2734
 1935TIP3   OH2 5810   3.850   0.537   5.179 -0.2973 -0.1482 -0.6526
 1935TIP3    H1 5811   3.771   0.508   5.133 -0.6134 -0.9051  0.3212
 1935TIP3    H2 5812   3.871   0.621   5.139 -1.5726  0.0435 -0.9859
 1936TIP3   OH2 5813   0.976   2.690   1.415 -0.2225  0.1615  0.3276
 1936TIP3    H1 5814   1.009   2.606   1.444 -0.7875 -0.0401  0.4016
 1936TIP3    H2 5815   1.054   2.745   1.407  0.7274 -1.4121 -3.3806
 1937TIP3   OH2 5816   5.881   3.954   3.631  0.4013  0.2277 -0.0403
 1937TIP3    H1 5817   5.875   3.887   3.562  2.4964  2.1189 -2.2714
 1937TIP3    H2 5818   5.795   3.954   3.672 -0.6987 -1.6146 -2.0785
 1938TIP3   OH2 5819   3.447   3.369   4.439 -0.7546 -0.3225 -0.2582
 1938TIP3    H1 5820   3.535   3.334   4.431 -0.7512 -0.4770  0.3798
 1938TIP3    H2 5821   3.392   3.294   4.462 -0.8446 -0.0285  0.5330
 1939TIP3   OH2 5822   2.382   1.920   3.170  0.2891  0.0013  0.2565
 1939TIP3    H1 5823   2.418   1.897   3.256  0.3622  0.8906  0.4723
 1939TIP3    H2 5824   2.293   1.951   3.188  0.6612  1.1840  0.1487
 1940TIP3   OH2 5825   5.728   0.417   4.296  0.0429  0.1830 -0.1989
 1940TIP3    H1 5826   5.714   0.488   4.360 -0.0304  0.6021 -0.6745
 1940TIP3    H2 5827   5.642   0.378   4.285 -0.3400  1.2874 -1.3991
 1941TIP3   OH2 5828   4.426   5.929   0.221 -0.1384  0.4122  0.2755
 1941TIP3    H1 5829   4.426   5.926   0.125 -0.2264  0.7418  0.2619
 1941TIP3    H2 5830   4.367   6.002   0.242 -1.6498 -0.8502  0.6264
 1942TIP3   OH2 5831   3.258   2.191   0.396 -0.5969  0.5475 -0.5866
 1942TIP3    H1 5832   3.270   2.253   0.468 -1.2046  1.6644 -1.4254
 1942TIP3    H2 5833   3.214   2.116   0.436 -0.6896  1.0404  0.2543
 1943TIP3   OH2 5834   1.826   4.819   0.911  0.4052 -0.1520  0.3984
 1943TIP3    H1 5835   1.780   4.858   0.836 -0.4628 -0.6760  0.6485
 1943TIP3    H2 5836   1.756   4.795   0.972  0.9753 -1.4625  0.5583
 1944TIP3   OH2 5837   0.607   5.682   0.895 -0.1257  0.1142 -0.5716
 1944TIP3    H1 5838   0.693   5.667   0.933 -1.0473  0.1225  1.6944
 1944TIP3    H2 5839   0.620   5.675   0.800  2.0756 -1.2816 -0.2275
 1945TIP3   OH2 5840   2.246   2.864   0.155  0.0694 -0.2083  0.0692
 1945TIP3    H1 5841   2.227   2.897   0.243  1.2512  0.1576  0.2058
 1945TIP3    H2 5842   2.324   2.913   0.128  1.2071 -2.0862 -0.1930
 1946TIP3   OH2 5843   5.748   2.655   3.808 -0.3488  0.3466 -0.2554
 1946TIP3    H1 5844   5.800   2.627   3.883 -1.9572  0.7968  1.0739
 1946TIP3    H2 5845   5.709   2.738   3.835 -1.0956  0.4329 -1.5243
 1947TIP3   OH2 5846   5.886   4.831   5.169 -0.3342  0.6895 -0.6536
 1947TIP3    H1 5847   5.929   4.857   5.087  0.2140  0.5270 -0.4199
 1947TIP3    H2 5848   5.902   4.737   5.176  2.4824  1.1898  1.2655
 1948TIP3   OH2 5849   2.428   5.653   2.423  0.1480  0.0132  0.5045
 1948TIP3    H1 5850   2.368   5.673   2.350  2.2879 -1.7036 -1.9390
 1948TIP3    H2 5851   2.394   5.571   2.459  0.4987 -0.5161 -0.3274
 1949TIP3   OH2 5852   5.801   1.934   2.985  0.4199 -0.4771 -0.3510
 1949TIP3    H1 5853   5.706   1.928   2.985  0.4185 -0.6687  1.1077
 1949TIP3    H2 5854   5.822   1.987   2.908 -0.8591 -0.4426 -0.6828
 1950TIP3   OH2 5855   3.322   5.641   4.095 -0.3720 -0.0729 -0.2719
 1950TIP3    H1 5856   3.356   5.689   4.019  1.7577  0.3766  0.8801
 1950TIP3    H2 5857   3.329   5.702   4.168  3.2386 -2.1840  1.4271
 1951TIP3   OH2 5858   5.568   1.761   2.825  0.2776 -0.0711  0.0023
 1951TIP3    H1 5859   5.533   1.674   2.847 -0.6105  0.4814  0.8155
 1951TIP3    H2 5860   5.546   1.816   2.901 -2.0103  1.6591 -1.7713
 1952TIP3   OH2 5861   2.916   2.426   3.420 -0.2073  0.5103  0.3864
 1952TIP3    H1 5862   2.978   2.367   3.463  0.6744  1.4263  0.3982
 1952TIP3    H2 5863   2.957   2.446   3.336 -0.7600  0.6791  0.1513
 1953TIP3   OH2 5864   6.344   2.026   1.197  0.0632 -0.1869  0.0688
 1953TIP3    H1 5865   6.307   1.953   1.148  0.5915  0.0965 -0.7786
 1953TIP3    H2 5866   6.312   2.014   1.286 -1.8248 -0.1014 -0.5556
 1954TIP3   OH2 5867   4.767   5.439   1.705 -0.2785 -0.4279 -0.1276
 1954TIP3    H1 5868   4.767   5.479   1.618  1.6616  0.5751  0.2656
 1954TIP3    H2 5869   4.743   5.347   1.689  1.0178 -0.5245 -1.8870
 1955TIP3   OH2 5870   4.842   2.618   0.041 -0.3530  1.1358  0.2460
 1955TIP3    H1 5871   4.923   2.628   0.091  0.9662  1.4798 -1.8399
 1955TIP3    H2 5872   4.796   2.701   0.053  1.1072  2.1913 -0.9666
 1956TIP3   OH2 5873   4.164   2.859   2.479  0.1411 -0.5307  0.3673
 1956TIP3    H1 5874   4.238   2.834   2.535  0.1203 -1.2667  0.0841
 1956TIP3    H2 5875   4.102   2.899   2.539  1.0800  0.8236  0.4833
 1957TIP3   OH2 5876   0.863   5.382   2.859 -0.2701  0.1683 -0.0605
 1957TIP3    H1 5877   0.929   5.429   2.808  0.0209 -0.0714  0.0944
 1957TIP3    H2 5878   0.830   5.447   2.921 -1.9074  1.0064 -1.6914
 1958TIP3   OH2 5879   6.006   3.937   2.692  0.3991  0.3233 -0.1927
 1958TIP3    H1 5880   6.096   3.916   2.714  0.4253 -0.1507 -0.7384
 1958TIP3    H2 5881   5.967   3.854   2.665 -0.2776  0.4705  0.2902
 1959TIP3   OH2 5882   0.596   5.892   3.364 -0.7622 -0.0915 -0.3102
 1959TIP3    H1 5883   0.628   5.834   3.433  0.8691 -0.3150 -1.2189
 1959TIP3    H2 5884   0.657   5.966   3.364  0.4487 -1.0154 -2.7575
 1960TIP3   OH2 5885   2.144   4.661   1.883  0.5595  0.9428 -0.1343
 1960TIP3    H1 5886   2.143   4.566   1.872 -0.6311  0.9720 -0.4176
 1960TIP3    H2 5887   2.236   4.682   1.895  0.9934 -0.1002 -1.3317
 1961TIP3   OH2 5888   3.488   2.554   0.824 -0.0212 -0.4391 -0.2586
 1961TIP3    H1 5889   3.478   2.472   0.776  0.7265 -0.2784 -0.7120
 1961TIP3    H2 5890   3.528   2.528   0.907 -1.0476 -0.6825  0.1787
 1962TIP3   OH2 5891   2.480   5.592   3.248 -0.5902 -0.1090 -0.2635
 1962TIP3    H1 5892   2.428   5.542   3.186  1.0129 -0.5551 -1.3138
 1962TIP3    H2 5893   2.570   5.563   3.232 -0.1666 -0.9254  2.8713
 1963TIP3   OH2 5894   3.610   5.628   4.712 -0.1108 -0.4459  0.2296
 1963TIP3    H1 5895   3.682   5.653   4.654 -1.4564 -1.5240 -2.0596
 1963TIP3    H2 5896   3.646   5.558   4.765  1.0050  0.1571  0.2965
 1964TIP3   OH2 5897   0.982   1.463   2.966 -0.0020 -0.1605 -0.4172
 1964TIP3    H1 5898   1.050   1.527   2.946  0.6650 -1.0666 -1.1235
 1964TIP3    H2 5899   1.025   1.378   2.956 -0.5857 -0.7277  1.4716
 1965TIP3   OH2 5900   2.298   4.455   2.208  0.2813  0.5485 -0.1554
 1965TIP3    H1 5901   2.344   4.409   2.138 -0.9750 -0.5219 -0.3078
 1965TIP3    H2 5902   2.327   4.546   2.199 -0.3186  0.5667 -2.4800
 1966TIP3   OH2 5903   3.321   2.966   0.059 -0.0640 -0.2687 -0.1928
 1966TIP3    H1 5904   3.352   2.894   0.002 -0.0129  0.6497 -1.3712
 1966TIP3    H2 5905   3.393   3.029   0.058 -0.5084  0.2425  0.0310
 1967TIP3   OH2 5906   4.226   1.571   4.424 -0.0223  0.5225  0.2645
 1967TIP3    H1 5907   4.302   1.525   4.463 -0.1256  1.1481  1.2377
 1967TIP3    H2 5908   4.239   1.562   4.330 -0.2597 -1.8922  0.3863
 1968TIP3   OH2 5909   3.923   1.667   2.623 -0.3512  0.1195 -0.4684
 1968TIP3    H1 5910   3.918   1.668   2.527  0.2860  0.6879 -0.5025
 1968TIP3    H2 5911   4.003   1.619   2.642 -0.0627  0.6840 -0.2437
 1969TIP3   OH2 5912   0.113   4.869   3.046 -0.0492 -0.0490 -0.3366
 1969TIP3    H1 5913   0.083   4.946   3.095  0.2017 -0.1145 -0.0737
 1969TIP3    H2 5914   0.207   4.864   3.065 -0.4374 -1.6991  1.4344
 1970TIP3   OH2 5915   4.528   0.233   4.526  0.0313 -0.2596  0.0646
 1970TIP3    H1 5916   4.570   0.318   4.523  0.3085 -0.4102 -0.4273
 1970TIP3    H2 5917   4.482   0.225   4.442  2.5216 -1.8512 -1.2746
 1971TIP3   OH2 5918   4.735   0.065   3.124 -0.4073 -0.5464  0.6119
 1971TIP3    H1 5919   4.641   0.052   3.123 -0.1184 -3.2135  1.1054
 1971TIP3    H2 5920   4.763   0.052   3.034 -0.2866 -2.2334  0.8630
 1972TIP3   OH2 5921   4.209   0.586   4.835  0.0870 -0.5751  0.6031
 1972TIP3    H1 5922   4.133   0.531   4.817 -0.2757 -0.3404  1.3568
 1972TIP3    H2 5923   4.283   0.525   4.838 -0.3033 -1.0241  1.3932
 1973TIP3   OH2 5924   2.068   3.620   4.526  0.9149 -0.1333 -0.3497
 1973TIP3    H1 5925   2.109   3.671   4.596 -0.6673  0.3096  0.3139
 1973TIP3    H2 5926   2.050   3.534   4.566 -1.2492  0.5589  0.3159
 1974TIP3   OH2 5927   4.505   3.412   0.947  0.2627  0.2221 -0.0196
 1974TIP3    H1 5928   4.426   3.370   0.911 -0.4511  1.0129  0.5915
 1974TIP3    H2 5929   4.526   3.360   1.025  1.5664 -1.2365 -1.2863
 1975TIP3   OH2 5930   6.301   4.620   0.667  0.4629 -0.6066  0.4752
 1975TIP3    H1 5931   6.305   4.691   0.731  0.1642  1.2139 -1.4326
 1975TIP3    H2 5932   6.227   4.566   0.695  0.0940  0.3672  1.4346
 1976TIP3   OH2 5933   2.637   5.785   0.573 -0.1780 -0.9369 -0.8590
 1976TIP3    H1 5934   2.591   5.707   0.602 -0.3429 -0.8240 -0.8133
 1976TIP3    H2 5935   2.567   5.848   0.553 -0.0148 -0.1929  0.7900
 1977TIP3   OH2 5936   1.702   2.053   1.052  0.4016 -0.5506  0.2046
 1977TIP3    H1 5937   1.641   2.036   1.123  0.3260  0.2473  0.3327
 1977TIP3    H2 5938   1.720   1.966   1.015 -0.1922 -0.8767  0.6661
 1978TIP3   OH2 5939   4.641   5.558   0.366 -0.3592  0.1658  0.7233
 1978TIP3    H1 5940   4.731   5.589   0.374  0.2617 -1.0371 -0.9073
 1978TIP3    H2 5941   4.587   5.634   0.388  1.0607  1.2574  0.5930
 1979TIP3   OH2 5942   1.543   2.093   4.832 -0.3040 -0.0761  0.2878
 1979TIP3    H1 5943   1.573   2.070   4.744 -0.0195  0.9153  0.1177
 1979TIP3    H2 5944   1.457   2.133   4.818  0.2127  1.0726  0.3477
 1980TIP3   OH2 5945   3.041   0.146   2.850 -0.0072 -0.3355 -0.5785
 1980TIP3    H1 5946   3.125   0.100   2.848  0.6481  0.6222  1.8272
 1980TIP3    H2 5947   2.988   0.098   2.913  0.1097  1.1582  0.7346
 1981TIP3   OH2 5948   1.855   1.524   2.290  0.3054  0.0366 -0.4641
 1981TIP3    H1 5949   1.787   1.586   2.315  0.7804  1.0085 -1.4636
 1981TIP3    H2 5950   1.925   1.579   2.255  1.0112 -1.0343 -0.7732
 1982TIP3   OH2 5951   1.980   1.571   5.049 -0.3792  0.3912  0.0099
 1982TIP3    H1 5952   1.913   1.616   4.998 -0.7775 -0.1360  0.0604
 1982TIP3    H2 5953   2.010   1.636   5.112  0.6425  1.2974 -1.3540
 1983TIP3   OH2 5954  -0.006   2.650   2.634 -0.1257 -0.2918 -0.4677
 1983TIP3    H1 5955  -0.043   2.668   2.720 -2.2834 -0.9809 -1.2043
 1983TIP3    H2 5956   0.086   2.629   2.652 -0.6572 -1.0089  1.7256
 1984TIP3   OH2 5957   4.979   5.194   0.065  0.3230 -0.6968  0.2726
 1984TIP3    H1 5958   4.987   5.245   0.145  0.4730 -1.2412  0.6156
 1984TIP3    H2 5959   5.069   5.185   0.033  0.3491 -1.0951  0.4462
 1985TIP3   OH2 5960   1.434   5.720   2.477  0.4162 -0.3460 -0.4542
 1985TIP3    H1 5961   1.478   5.638   2.454 -0.6971 -1.2274  0.4412
 1985TIP3    H2 5962   1.341   5.700   2.466  0.0767  0.4380  0.9028
 1986TIP3   OH2 5963   2.012   5.127   0.948  0.1736 -0.9046 -0.3789
 1986TIP3    H1 5964   1.938   5.108   0.890 -0.3304 -2.3000  0.6633
 1986TIP3    H2 5965   2.044   5.041   0.975  1.2212 -0.3004  0.3961
 1987TIP3   OH2 5966   0.998   1.860   3.195 -0.2799  0.5447 -0.0828
 1987TIP3    H1 5967   0.924   1.889   3.249 -1.3401  0.1001 -1.2660
 1987TIP3    H2 5968   1.036   1.787   3.244 -1.7116 -0.3668 -0.2911
 1988TIP3   OH2 5969   5.699   1.004   2.635  0.4909 -0.1705  0.2540
 1988TIP3    H1 5970   5.771   1.067   2.646  0.2033 -0.0946  1.8605
 1988TIP3    H2 5971   5.652   1.034   2.557  1.1978  0.7615  0.1772
 1989TIP3   OH2 5972   1.357   5.764   4.745  0.1635  0.4178 -0.4295
 1989TIP3    H1 5973   1.353   5.860   4.742  0.0765  0.3897 -2.0156
 1989TIP3    H2 5974   1.268   5.738   4.770 -0.2632  0.7241 -1.5661
 1990TIP3   OH2 5975   5.021   5.820   1.481  0.6986  0.9959 -0.9215
 1990TIP3    H1 5976   5.092   5.882   1.466  0.8660  1.1669  0.4394
 1990TIP3    H2 5977   4.959   5.867   1.536  0.5827  0.1378 -0.3021
 1991TIP3   OH2 5978   3.094   1.630   4.249  0.3945 -0.1752  0.6652
 1991TIP3    H1 5979   3.183   1.631   4.285  0.5556 -3.9529  0.7485
 1991TIP3    H2 5980   3.038   1.619   4.326  0.0354  0.0519  0.4355
 1992TIP3   OH2 5981   2.577   3.571   1.087  0.4128  0.0828 -0.1187
 1992TIP3    H1 5982   2.568   3.652   1.138 -0.0152  0.4050 -0.6936
 1992TIP3    H2 5983   2.530   3.505   1.139 -0.5922  0.5507 -0.3977
 1993TIP3   OH2 5984   1.062   3.922   1.426  0.3476 -0.3537  0.9815
 1993TIP3    H1 5985   1.074   3.884   1.513  0.8163 -1.5073  0.4314
 1993TIP3    H2 5986   1.143   3.971   1.411 -0.0930  0.5609  1.5331
 1994TIP3   OH2 5987   3.528   5.394   5.178 -0.4620 -0.1939  0.1224
 1994TIP3    H1 5988   3.568   5.480   5.163  0.0337 -0.3644  0.4439
 1994TIP3    H2 5989   3.601   5.338   5.201 -0.9072 -0.4824  0.8573
 1995TIP3   OH2 5990   0.267   5.838   2.498  0.2075  0.1185  0.4098
 1995TIP3    H1 5991   0.193   5.815   2.441  0.6088 -1.2560  0.3960
 1995TIP3    H2 5992   0.327   5.886   2.442 -1.4218  2.8880  0.8460
 1996TIP3   OH2 5993   6.073   4.212   2.963 -0.2058 -0.1788  0.3077
 1996TIP3    H1 5994   6.018   4.262   2.903  0.6852  1.6531  0.9502
 1996TIP3    H2 5995   6.161   4.217   2.925  0.0511 -0.5511  0.8349
 1997TIP3   OH2 5996   5.072   2.449   4.760  0.0271 -0.1548 -0.1278
 1997TIP3    H1 5997   5.140   2.392   4.724 -0.2228 -0.2522 -0.4530
 1997TIP3    H2 5998   4.995   2.431   4.706 -0.4244 -0.4719  0.6088
 1998TIP3   OH2 5999   3.219   0.213   2.336 -0.1675  0.4660  0.5257
 1998TIP3    H1 6000   3.130   0.232   2.368 -1.5465 -0.4665 -2.4115
 1998TIP3    H2 6001   3.224   0.118   2.335  0.2944  0.4900 -0.6807
 1999TIP3   OH2 6002   2.118   5.177   0.285  0.5807  0.8164  0.1976
 1999TIP3    H1 6003   2.072   5.093   0.285  0.0158  1.1251  0.2804
 1999TIP3    H2 6004   2.147   5.189   0.194 -0.5157  1.1688 -0.1197
 2000TIP3   OH2 6005   2.884   1.918   2.753  0.5835 -0.1777 -0.0497
 2000TIP3    H1 6006   2.865   1.922   2.846 -1.3770 -1.3197 -0.3357
 2000TIP3    H2 6007   2.961   1.861   2.747  1.6914  1.1590  0.9293
 2001TIP3   OH2 6008   4.253   5.002   3.766  0.0306  0.2707 -0.1875
 2001TIP3    H1 6009   4.162   5.018   3.791 -0.3336 -2.1549  0.3040
 2001TIP3    H2 6010   4.260   5.039   3.678 -1.1121  1.4187  0.1689
 2002TIP3   OH2 6011   5.757   5.772   4.135 -0.0856 -0.5871  0.0334
 2002TIP3    H1 6012   5.674   5.740   4.100 -0.1194 -0.5420  0.0722
 2002TIP3    H2 6013   5.823   5.742   4.072 -0.0379 -1.3450  0.4403
 2003TIP3   OH2 6014   4.346   5.271   3.099 -0.3876 -0.4308  0.2643
 2003TIP3    H1 6015   4.435   5.269   3.063  0.2056 -1.1611  1.7047
 2003TIP3    H2 6016   4.342   5.351   3.150 -0.7135 -0.1784 -0.1506
 2004TIP3   OH2 6017   6.054   2.463   4.290 -0.2347  0.1812  0.2452
 2004TIP3    H1 6018   5.991   2.421   4.231  0.5624  1.4055 -1.5468
 2004TIP3    H2 6019   6.106   2.390   4.325 -1.0392 -0.6065 -0.1512
 2005TIP3   OH2 6020   3.562   1.768   3.947  0.5078 -0.1918  0.0796
 2005TIP3    H1 6021   3.640   1.777   4.002 -0.2551 -4.0284  2.1491
 2005TIP3    H2 6022   3.491   1.750   4.009 -1.4410  0.1241 -1.9339
 2006TIP3   OH2 6023   4.934   1.737   2.592  0.0831 -0.3932 -0.2736
 2006TIP3    H1 6024   4.888   1.660   2.559  0.0910 -0.5095 -0.0138
 2006TIP3    H2 6025   4.987   1.766   2.518  1.5229 -1.7420  0.1719
 2007TIP3   OH2 6026   5.400   3.626   3.998 -0.5812  0.5763 -0.5697
 2007TIP3    H1 6027   5.415   3.643   3.905  0.3189  1.0604 -0.3522
 2007TIP3    H2 6028   5.308   3.600   4.003 -0.5458  0.1784 -1.6363
 2008TIP3   OH2 6029   1.668   0.890   5.115 -0.1397 -0.2510  0.1735
 2008TIP3    H1 6030   1.709   0.915   5.198 -0.6228  1.3329 -0.0293
 2008TIP3    H2 6031   1.607   0.962   5.096 -0.1221 -0.6415 -1.4859
 2009TIP3   OH2 6032   0.296   1.231   2.563 -0.2106 -0.3290 -1.2194
 2009TIP3    H1 6033   0.244   1.291   2.509 -0.6940 -0.5800 -1.0375
 2009TIP3    H2 6034   0.387   1.260   2.550 -0.5250  1.2464 -0.1360
 2010TIP3   OH2 6035   4.852   3.941   5.209 -0.6935 -0.0211  0.4777
 2010TIP3    H1 6036   4.915   3.970   5.143  1.7703 -0.2955  2.5584
 2010TIP3    H2 6037   4.790   3.887   5.160 -0.4244  1.7321 -1.9915
 2011TIP3   OH2 6038   1.858   1.518   3.395  0.1833 -0.6831  0.0980
 2011TIP3    H1 6039   1.788   1.479   3.448  0.3084 -0.4670  0.4282
 2011TIP3    H2 6040   1.814   1.583   3.341 -0.3747 -2.7437 -2.0379
 2012TIP3   OH2 6041   5.732   5.820   2.436  0.0108  0.7896 -0.0429
 2012TIP3    H1 6042   5.710   5.797   2.346 -3.7378  0.5463  0.7635
 2012TIP3    H2 6043   5.801   5.759   2.461 -0.3236 -0.5330 -2.1285
 2013TIP3   OH2 6044   1.645   1.811   0.935  0.5600  0.0180 -0.1062
 2013TIP3    H1 6045   1.698   1.773   1.006 -0.0825 -0.6551  0.0269
 2013TIP3    H2 6046   1.563   1.763   0.939  0.0840  0.7835 -0.5688
 2014TIP3   OH2 6047   6.221   3.088   3.845 -0.1493 -0.4693  0.3715
 2014TIP3    H1 6048   6.208   3.008   3.794  2.1079 -0.1065 -0.8996
 2014TIP3    H2 6049   6.310   3.081   3.880  0.1452  1.4951  0.1671
 2015TIP3   OH2 6050   4.991   1.452   1.293 -0.2012 -0.6354 -0.0784
 2015TIP3    H1 6051   4.963   1.480   1.380 -3.0686 -1.6422 -0.5619
 2015TIP3    H2 6052   4.972   1.358   1.290 -0.2152 -0.6184 -1.7823
 2016TIP3   OH2 6053   1.980   3.690   2.468  0.0545 -0.2867  0.3567
 2016TIP3    H1 6054   1.914   3.721   2.530 -0.6553 -1.3998  0.1836
 2016TIP3    H2 6055   1.946   3.606   2.437  1.0932 -0.4206 -0.4653
 2017TIP3   OH2 6056   4.556   2.320   4.156 -0.1515  0.0074  0.4352
 2017TIP3    H1 6057   4.512   2.379   4.217  0.7479  2.2059 -0.9377
 2017TIP3    H2 6058   4.630   2.370   4.123 -1.1668 -0.6248 -3.2133
 2018TIP3   OH2 6059   3.748   3.592   5.073 -0.2614  0.0999 -0.5187
 2018TIP3    H1 6060   3.721   3.523   5.134 -0.6209  1.2380  0.6349
 2018TIP3    H2 6061   3.823   3.554   5.027  1.0296 -0.2433  1.7305
 2019TIP3   OH2 6062   5.636   5.066   3.471  0.2781  0.8323  0.2485
 2019TIP3    H1 6063   5.695   4.998   3.438 -4.0476 -2.9226 -0.7780
 2019TIP3    H2 6064   5.660   5.076   3.563  1.8930 -1.1802  0.1311
 2020TIP3   OH2 6065   4.980   5.224   5.123 -0.1362 -0.0422 -0.0034
 2020TIP3    H1 6066   4.923   5.194   5.053  0.5295  0.0780 -0.6160
 2020TIP3    H2 6067   4.966   5.162   5.195 -1.7482  0.5519  0.2369
 2021TIP3   OH2 6068   3.955   1.472   3.730  0.5131 -0.4522 -0.5447
 2021TIP3    H1 6069   3.995   1.397   3.685  0.2320 -0.2912 -1.0722
 2021TIP3    H2 6070   3.862   1.448   3.738  0.3311  0.0312 -1.1321
 2022TIP3   OH2 6071   1.297   2.088   2.006 -0.0866  0.0833  0.4030
 2022TIP3    H1 6072   1.307   1.997   1.979 -1.5881  0.2016 -0.6693
 2022TIP3    H2 6073   1.224   2.088   2.068  0.7888  0.3837  1.4591
 2023TIP3   OH2 6074   0.988   4.715   3.218  0.0684  0.4990 -0.1481
 2023TIP3    H1 6075   1.023   4.667   3.144  2.2953  0.4112  0.8879
 2023TIP3    H2 6076   1.065   4.740   3.270 -1.3238  1.4388  1.5977
 2024TIP3   OH2 6077   1.313   5.333   1.440 -0.0509  0.3432 -0.5808
 2024TIP3    H1 6078   1.261   5.256   1.461 -0.1763  0.4413 -0.5294
 2024TIP3    H2 6079   1.396   5.321   1.486  0.0506  0.0867 -0.8305
 2025TIP3   OH2 6080   2.347   1.282   4.197  0.2907  0.0837 -0.3506
 2025TIP3    H1 6081   2.407   1.272   4.123  0.2696  0.5926 -0.4475
 2025TIP3    H2 6082   2.260   1.286   4.156  0.1051 -1.4447 -0.1516
 2026TIP3   OH2 6083   1.281   4.366   1.457 -0.2735 -0.0310  0.0823
 2026TIP3    H1 6084   1.210   4.421   1.491  0.9180  1.3039  0.5003
 2026TIP3    H2 6085   1.320   4.326   1.535  0.1296  0.1124 -0.0447
 2027TIP3   OH2 6086   1.374   2.081   2.908 -0.0940  0.0389  0.3447
 2027TIP3    H1 6087   1.350   2.002   2.860 -1.0599  0.2269  0.5085
 2027TIP3    H2 6088   1.314   2.082   2.983 -1.2459  1.8189 -0.5494
 2028TIP3   OH2 6089   3.617   1.707   1.400 -0.1067 -0.1011 -0.3589
 2028TIP3    H1 6090   3.597   1.648   1.327  2.6555 -0.3467 -1.0380
 2028TIP3    H2 6091   3.672   1.654   1.459 -0.7957  0.6461  0.9906
 2029TIP3   OH2 6092   1.421   5.554   4.118  0.1997 -0.6318 -0.3684
 2029TIP3    H1 6093   1.383   5.641   4.131  0.4307 -0.3295 -1.5236
 2029TIP3    H2 6094   1.497   5.552   4.176 -0.0495 -0.2229 -0.0231
 2030TIP3   OH2 6095   2.512   3.112   3.217 -0.5679  0.2516  0.1948
 2030TIP3    H1 6096   2.543   3.022   3.228 -0.1133  0.3001 -0.5732
 2030TIP3    H2 6097   2.423   3.111   3.251  0.2970  0.1358  2.6069
 2031TIP3   OH2 6098   1.373   5.104   4.886  0.0449  0.4593 -0.2183
 2031TIP3    H1 6099   1.452   5.073   4.931 -0.2922 -0.0331  0.0399
 2031TIP3    H2 6100   1.301   5.060   4.932 -0.5701  2.6567  1.0840
 2032TIP3   OH2 6101   3.406   4.816   1.215 -0.1340  0.0540  0.0256
 2032TIP3    H1 6102   3.399   4.909   1.236 -1.1184 -0.3865  1.7645
 2032TIP3    H2 6103   3.383   4.771   1.296  0.0497 -1.7179 -0.8686
 2033TIP3   OH2 6104   5.125   1.846   4.542 -0.2833 -0.0047 -0.4483
 2033TIP3    H1 6105   5.085   1.761   4.557 -0.1357 -0.0354 -0.2261
 2033TIP3    H2 6106   5.202   1.847   4.599  0.2116 -0.0731 -1.1125
 2034TIP3   OH2 6107   0.808   1.360   2.755  0.4471  0.0204  0.7233
 2034TIP3    H1 6108   0.841   1.363   2.845 -0.6017 -1.3945  1.1986
 2034TIP3    H2 6109   0.775   1.449   2.739  0.1667  0.1578  1.9296
 2035TIP3   OH2 6110   4.238   5.403   1.162  0.0893  0.0478  0.2505
 2035TIP3    H1 6111   4.311   5.458   1.191 -1.1036  0.9678  1.6132
 2035TIP3    H2 6112   4.160   5.455   1.180 -1.0468 -1.8310  1.0129
 2036TIP3   OH2 6113   0.608   1.056   0.467  0.2601  0.5781 -0.0488
 2036TIP3    H1 6114   0.568   1.143   0.459 -2.8215 -0.5264  1.6885
 2036TIP3    H2 6115   0.614   1.042   0.561  1.2995 -0.8713 -0.3102
 2037TIP3   OH2 6116   1.762   1.262   2.331  0.1524 -0.6156 -0.0200
 2037TIP3    H1 6117   1.782   1.353   2.308 -1.8683 -0.4653 -1.4269
 2037TIP3    H2 6118   1.847   1.223   2.351  1.4200  0.8775 -2.0707
 2038TIP3   OH2 6119   2.399   0.742   2.616 -0.0101 -0.0499  0.4671
 2038TIP3    H1 6120   2.361   0.655   2.607  0.0857 -0.2252  1.6278
 2038TIP3    H2 6121   2.342   0.799   2.565 -0.5700 -0.6491  0.4164
 2039TIP3   OH2 6122   5.570   0.393   1.645  0.6017 -0.2204 -0.1751
 2039TIP3    H1 6123   5.651   0.405   1.596 -0.1616 -0.5548 -1.5650
 2039TIP3    H2 6124   5.507   0.361   1.581 -0.8350  0.6761  0.7168
 2040TIP3   OH2 6125   5.297   4.056   4.112  0.2353 -0.5411  0.4467
 2040TIP3    H1 6126   5.241   4.101   4.175  0.9947  1.7206 -0.3754
 2040TIP3    H2 6127   5.324   3.976   4.156 -2.7744 -1.2167  1.2454
 2041TIP3   OH2 6128   2.031   5.869   3.549  0.2102 -0.0589 -0.1481
 2041TIP3    H1 6129   1.964   5.928   3.516  0.8433  0.0448 -1.3137
 2041TIP3    H2 6130   1.983   5.800   3.595 -0.6581  0.2957 -0.5061
 2042TIP3   OH2 6131   6.085   0.013   3.554  0.3083  0.3142  0.9210
 2042TIP3    H1 6132   6.136   0.024   3.473  0.7344 -0.2919  1.1009
 2042TIP3    H2 6133   5.997  -0.009   3.524  0.6753 -0.7853  0.6182
 2043TIP3   OH2 6134   6.363   4.521   4.194  0.0632 -0.2514  0.1600
 2043TIP3    H1 6135   6.338   4.440   4.240 -1.9675  0.3439  0.1923
 2043TIP3    H2 6136   6.336   4.591   4.254 -1.4572  0.5152 -1.3548
 2044TIP3   OH2 6137   3.053   3.413   2.555  0.2831 -0.1299  0.2964
 2044TIP3    H1 6138   3.108   3.334   2.557  1.1952  0.4779 -0.2506
 2044TIP3    H2 6139   3.069   3.452   2.470  0.0831  0.8281  0.6820
 2045TIP3   OH2 6140   3.115   0.692   4.185  0.0180  0.2862  0.7813
 2045TIP3    H1 6141   3.155   0.635   4.119 -0.9542  1.1931 -0.6706
 2045TIP3    H2 6142   3.021   0.680   4.172 -0.2497  2.5457  0.0428
 2046TIP3   OH2 6143   4.100   3.787   0.672  0.1421  0.2585  0.3792
 2046TIP3    H1 6144   4.042   3.833   0.610  0.5151  1.3045  0.7768
 2046TIP3    H2 6145   4.044   3.763   0.745 -0.0240  0.2225  0.2403
 2047TIP3   OH2 6146   2.339   3.843   2.486 -0.2738  0.1809  0.1071
 2047TIP3    H1 6147   2.252   3.866   2.518 -1.1526 -1.8791 -0.6016
 2047TIP3    H2 6148   2.399   3.896   2.538 -1.9781  2.8027 -0.4385
 2048TIP3   OH2 6149   4.558   0.018   4.180 -1.0166  0.1581 -1.1960
 2048TIP3    H1 6150   4.512   0.102   4.180 -1.9686 -0.3274  0.1527
 2048TIP3    H2 6151   4.490  -0.047   4.198  0.0040 -0.7007 -0.2454
 2049TIP3   OH2 6152   3.323   2.217   2.477  0.1598 -0.2596 -0.1291
 2049TIP3    H1 6153   3.270   2.290   2.510  1.5610  0.3539  0.8419
 2049TIP3    H2 6154   3.290   2.140   2.522  0.4205  0.1998  0.8712
 2050TIP3   OH2 6155   3.363   0.963   4.670  0.5328 -0.7004 -0.0546
 2050TIP3    H1 6156   3.274   0.960   4.635  0.2378 -1.3577  0.7034
 2050TIP3    H2 6157   3.373   0.880   4.717  0.7837  0.2242  1.6396
 2051TIP3   OH2 6158   4.552   4.473   3.597  0.4191 -0.2196  0.6021
 2051TIP3    H1 6159   4.463   4.501   3.578  0.0709 -1.3218  0.5563
 2051TIP3    H2 6160   4.570   4.506   3.685  0.3282  0.8366  0.2337
 2052TIP3   OH2 6161   1.195   2.444   0.158 -0.1034  0.0372  0.4597
 2052TIP3    H1 6162   1.228   2.410   0.241  0.6177  1.2237  0.6665
 2052TIP3    H2 6163   1.262   2.421   0.094 -0.3371 -0.2640  0.3173
 2053TIP3   OH2 6164   5.219   4.842   0.056  0.2146  0.1331  0.0627
 2053TIP3    H1 6165   5.271   4.817  -0.020  0.1522  0.6054 -0.1384
 2053TIP3    H2 6166   5.128   4.832   0.026  0.1906  0.0377  0.1688
 2054TIP3   OH2 6167   2.883   0.916   3.204  0.0320  0.1279  0.2369
 2054TIP3    H1 6168   2.954   0.854   3.185  1.1160  1.0747  1.0463
 2054TIP3    H2 6169   2.858   0.951   3.119 -1.4803 -2.2936 -0.4156
 2055TIP3   OH2 6170   2.377   2.741   4.406 -0.7453  0.4924  0.3309
 2055TIP3    H1 6171   2.350   2.709   4.492 -1.5065 -0.1373 -0.1331
 2055TIP3    H2 6172   2.301   2.787   4.371 -0.2640  1.2225  0.2123
 2056TIP3   OH2 6173   5.658   0.605   1.789 -0.2268 -0.3753 -0.2127
 2056TIP3    H1 6174   5.738   0.557   1.767 -1.2896 -2.0590 -0.6470
 2056TIP3    H2 6175   5.588   0.551   1.753 -1.4721  2.5220 -2.5997
 2057TIP3   OH2 6176   3.693   1.481   3.517 -0.7613  0.1307  0.5687
 2057TIP3    H1 6177   3.710   1.525   3.434 -3.4957  0.9432  0.3333
 2057TIP3    H2 6178   3.765   1.418   3.527  1.1746  1.9643 -0.9799
 2058TIP3   OH2 6179   0.511   2.607   0.648  0.0023 -0.2685  0.1107
 2058TIP3    H1 6180   0.544   2.652   0.571  0.3969  1.4953  1.2459
 2058TIP3    H2 6181   0.423   2.644   0.661  0.0006 -0.4253  0.5769
 2059TIP3   OH2 6182   5.614   3.122   3.215 -0.6589 -0.1608  0.2904
 2059TIP3    H1 6183   5.621   3.203   3.266 -0.1382  1.4924 -2.2459
 2059TIP3    H2 6184   5.525   3.092   3.233 -0.3178 -0.0211  2.5945
 2060TIP3   OH2 6185   0.931   5.929   0.072  0.1807  0.1624 -0.4467
 2060TIP3    H1 6186   0.910   5.919   0.165  2.4281 -0.0241  0.1131
 2060TIP3    H2 6187   0.854   5.970   0.034 -0.4052  1.2472  1.7196
 2061TIP3   OH2 6188   2.207   3.421   1.267 -0.5322 -0.6387 -0.4616
 2061TIP3    H1 6189   2.224   3.495   1.326  0.0681 -1.1088 -0.0268
 2061TIP3    H2 6190   2.179   3.461   1.185  0.7034  0.1263 -0.5448
 2062TIP3   OH2 6191   0.504   2.607   3.919  0.6029 -0.1654  0.0303
 2062TIP3    H1 6192   0.530   2.566   4.001 -1.8495 -0.1656  0.8676
 2062TIP3    H2 6193   0.427   2.558   3.890 -0.0895  1.4033 -0.9367
 2063TIP3   OH2 6194   3.095   4.960   2.003  0.0000 -0.0714 -0.2596
 2063TIP3    H1 6195   3.057   5.013   1.933 -2.4110 -0.7664  0.3926
 2063TIP3    H2 6196   3.071   5.007   2.083  2.7385  0.7315  0.1793
 2064TIP3   OH2 6197   6.101   0.822   3.955 -0.0725 -0.8601 -0.1701
 2064TIP3    H1 6198   6.144   0.737   3.953 -0.8989 -1.2759 -0.6517
 2064TIP3    H2 6199   6.047   0.824   3.877  1.4510  0.9335 -1.2804
 2065TIP3   OH2 6200   1.449   3.303   2.142  0.7163  0.1823 -0.1285
 2065TIP3    H1 6201   1.534   3.287   2.184  2.1223  0.4255 -2.6480
 2065TIP3    H2 6202   1.409   3.216   2.135  0.6987  0.0696  1.1359
 2066TIP3   OH2 6203   2.278   4.935   5.144  0.2549  0.2178  0.5818
 2066TIP3    H1 6204   2.213   5.005   5.148 -0.8045 -0.7399  0.5100
 2066TIP3    H2 6205   2.264   4.893   5.060 -0.1217 -0.9892  1.2150
 2067TIP3   OH2 6206   2.353   3.740   1.499  0.0545 -0.0238  0.0237
 2067TIP3    H1 6207   2.397   3.765   1.580  3.0289 -2.6209 -0.5965
 2067TIP3    H2 6208   2.284   3.680   1.527  0.7853 -0.5697  0.7089
 2068TIP3   OH2 6209   3.482   3.647   0.357  0.7707  0.3168 -0.5124
 2068TIP3    H1 6210   3.470   3.570   0.301  1.3754  1.0771 -1.7461
 2068TIP3    H2 6211   3.419   3.711   0.324  1.4535  0.9365 -0.6499
 2069TIP3   OH2 6212   2.801   2.979   3.628 -0.1405 -0.8394 -0.0023
 2069TIP3    H1 6213   2.862   3.039   3.585 -0.8779  1.1186  1.5549
 2069TIP3    H2 6214   2.744   2.948   3.557  0.1958  0.3943 -0.8447
 2070TIP3   OH2 6215   3.271   2.139   4.542  0.0017 -0.0274  0.8676
 2070TIP3    H1 6216   3.191   2.086   4.543 -0.5881  0.6931 -1.4542
 2070TIP3    H2 6217   3.253   2.210   4.603 -1.6562  0.7506 -0.4342
 2071TIP3   OH2 6218   1.040   4.792   0.379 -0.0597  0.3968  0.0431
 2071TIP3    H1 6219   1.003   4.794   0.467  1.2481  2.8837  0.6262
 2071TIP3    H2 6220   0.974   4.836   0.325 -0.4169 -0.2510 -0.0685
 2072TIP3   OH2 6221   4.181   1.412   3.969  0.2467 -0.0845 -0.1502
 2072TIP3    H1 6222   4.228   1.475   3.915  0.1604 -1.1206 -1.5035
 2072TIP3    H2 6223   4.094   1.408   3.931 -0.5179  0.7553  1.4463
 2073TIP3   OH2 6224   5.880   3.368   2.251 -0.0588  0.0540  0.2438
 2073TIP3    H1 6225   5.935   3.361   2.174 -0.2175  0.0735  0.1276
 2073TIP3    H2 6226   5.862   3.462   2.259 -1.8499 -0.1212 -0.9897
 2074TIP3   OH2 6227   2.217   4.584   0.774  0.1807 -0.3794 -0.3391
 2074TIP3    H1 6228   2.193   4.617   0.687  1.5021 -2.1377 -1.4386
 2074TIP3    H2 6229   2.139   4.538   0.805 -0.1733 -0.0642 -0.7383
 2075TIP3   OH2 6230   4.816   4.927   1.865 -0.4184 -0.0936 -0.2301
 2075TIP3    H1 6231   4.857   4.896   1.784 -1.6053 -3.5010  0.3162
 2075TIP3    H2 6232   4.881   4.908   1.933  0.3984  2.3563 -0.2548
 2076TIP3   OH2 6233   5.658   4.098   3.483 -0.2470 -0.0893 -0.6593
 2076TIP3    H1 6234   5.660   4.007   3.454 -1.3550 -0.4598  0.3486
 2076TIP3    H2 6235   5.568   4.112   3.512 -0.0402  1.2744 -0.6327
 2077TIP3   OH2 6236   5.344   5.522   3.432 -0.4555  0.0258 -0.6003
 2077TIP3    H1 6237   5.336   5.430   3.458 -0.2694 -0.0691 -0.8735
 2077TIP3    H2 6238   5.430   5.527   3.389 -0.4309  0.3442 -0.5170
 2078TIP3   OH2 6239   5.311   0.287   3.695 -0.0374  0.0272  0.0925
 2078TIP3    H1 6240   5.240   0.226   3.719  1.0175 -1.0085  0.7239
 2078TIP3    H2 6241   5.288   0.317   3.608 -0.2357 -1.8749 -0.5665
 2079TIP3   OH2 6242   0.475   5.129   2.797 -0.4826  0.4809  0.6975
 2079TIP3    H1 6243   0.533   5.185   2.848 -0.0741 -0.7473  1.6174
 2079TIP3    H2 6244   0.532   5.087   2.733 -0.6194  0.3872  0.6350
 2080TIP3   OH2 6245   2.849   5.309   3.409  0.2320  0.4447  0.3162
 2080TIP3    H1 6246   2.782   5.326   3.475 -1.0710 -0.4573 -0.7255
 2080TIP3    H2 6247   2.931   5.330   3.453 -0.6612  0.7865  1.9080
 2081TIP3   OH2 6248   2.296   0.069   2.865  0.0905  0.0604  0.4763
 2081TIP3    H1 6249   2.300  -0.018   2.825  0.5988  0.2969  0.0074
 2081TIP3    H2 6250   2.335   0.056   2.952  3.2680  0.4510 -0.7474
 2082TIP3   OH2 6251   6.258   1.528   0.278 -0.2240 -0.0766 -0.1974
 2082TIP3    H1 6252   6.342   1.560   0.244 -0.3051 -0.0543 -0.3799
 2082TIP3    H2 6253   6.207   1.607   0.293 -0.2429 -0.0946 -0.1678
 2083TIP3   OH2 6254   3.394   5.747   5.097  0.1946 -0.0702  0.1997
 2083TIP3    H1 6255   3.331   5.697   5.150  0.2311 -1.0868 -0.6714
 2083TIP3    H2 6256   3.354   5.751   5.010  1.5857 -1.3003 -0.5490
 2084TIP3   OH2 6257   3.733   1.159   3.365 -0.0944  0.2168 -0.1577
 2084TIP3    H1 6258   3.780   1.198   3.291 -1.0919  1.2094 -0.2957
 2084TIP3    H2 6259   3.799   1.105   3.409  0.7264  0.2416 -1.2987
 2085TIP3   OH2 6260   4.099   2.494   0.958 -0.1581 -0.2703 -0.4810
 2085TIP3    H1 6261   4.027   2.475   1.017  1.5711 -0.7408  1.6240
 2085TIP3    H2 6262   4.093   2.428   0.890 -0.4230 -1.7665  0.9205
 2086TIP3   OH2 6263   2.331   1.571   3.732 -0.9237 -0.3520 -0.4898
 2086TIP3    H1 6264   2.385   1.555   3.809 -0.7317  2.1491 -0.0286
 2086TIP3    H2 6265   2.355   1.502   3.671  2.1966  0.1308  0.0279
 2087TIP3   OH2 6266   2.510   2.345   3.405  0.7389  0.0993  0.0432
 2087TIP3    H1 6267   2.548   2.273   3.455  0.4558  0.0051  0.1225
 2087TIP3    H2 6268   2.416   2.338   3.421  0.7776  1.0208  0.7769
 2088TIP3   OH2 6269   0.961   5.322   1.819  0.8946  0.1845  0.1556
 2088TIP3    H1 6270   1.033   5.293   1.876  3.4926  0.0476 -2.8983
 2088TIP3    H2 6271   0.955   5.416   1.835 -0.1957 -0.1840  2.3589
 2089TIP3   OH2 6272   4.690   2.813   4.136  0.8677 -0.4095  0.0068
 2089TIP3    H1 6273   4.691   2.788   4.044  0.0162 -0.7274  0.0771
 2089TIP3    H2 6274   4.602   2.848   4.150  0.9111 -0.6021  0.7655
 2090TIP3   OH2 6275   3.206   1.190   3.331  0.3662  0.6739 -0.1504
 2090TIP3    H1 6276   3.192   1.096   3.341 -0.6337  0.7592 -0.6807
 2090TIP3    H2 6277   3.293   1.205   3.369 -0.1423 -0.1944  1.4772
 2091TIP3   OH2 6278   5.690   3.103   4.898  0.1348  0.0826 -0.2440
 2091TIP3    H1 6279   5.733   3.076   4.979  0.2188 -1.1558 -0.6871
 2091TIP3    H2 6280   5.746   3.173   4.863  0.7336 -0.1884  0.1620
 2092TIP3   OH2 6281   2.995   5.568   2.821 -0.1987  0.3887  0.4154
 2092TIP3    H1 6282   3.075   5.531   2.784 -1.1311 -0.5179 -0.7634
 2092TIP3    H2 6283   3.011   5.662   2.823  1.1099  0.1879  0.7514
 2093TIP3   OH2 6284   5.608   1.050   3.482 -0.0851 -0.3954 -0.5196
 2093TIP3    H1 6285   5.688   1.031   3.432  0.4280 -1.4216  0.6419
 2093TIP3    H2 6286   5.543   1.071   3.416  0.6232 -1.5290 -1.6145
 2094TIP3   OH2 6287   1.759   5.842   0.298 -0.0299  0.7530  0.1860
 2094TIP3    H1 6288   1.808   5.768   0.263  0.3069  1.6764 -1.3961
 2094TIP3    H2 6289   1.826   5.905   0.325 -0.2677  1.7958 -1.4831
 2095TIP3   OH2 6290   1.544   3.110   0.994 -0.1077  0.3749  0.0869
 2095TIP3    H1 6291   1.599   3.123   1.071  0.3656  2.1508 -0.4913
 2095TIP3    H2 6292   1.458   3.088   1.029 -0.0662  1.8139  1.1654
 2096TIP3   OH2 6293   3.247   1.599   3.802 -0.1163 -0.8103  0.0930
 2096TIP3    H1 6294   3.271   1.641   3.719 -0.6953 -0.6673 -0.0064
 2096TIP3    H2 6295   3.235   1.672   3.863 -1.3440 -0.7962 -0.1363
 2097TIP3   OH2 6296   1.144   4.103   2.047 -0.3701  0.2660  0.3902
 2097TIP3    H1 6297   1.101   4.018   2.059 -1.8630  0.9077 -0.1743
 2097TIP3    H2 6298   1.148   4.114   1.952 -1.6781  1.5392  0.4667
 2098TIP3   OH2 6299   4.195   2.972   4.562  0.6161 -0.1498  0.0221
 2098TIP3    H1 6300   4.210   2.883   4.531  1.0848  0.0419 -0.3033
 2098TIP3    H2 6301   4.252   2.981   4.638 -0.4223 -0.5693  0.8717
 2099TIP3   OH2 6302   4.686   4.895   3.883  0.5337  0.3795 -0.1308
 2099TIP3    H1 6303   4.746   4.919   3.813  0.4360 -0.1317 -0.4008
 2099TIP3    H2 6304   4.670   4.801   3.869  2.0202 -0.2155  1.7141
 2100TIP3   OH2 6305   4.206   0.437   2.879  0.5795  0.6928  0.1555
 2100TIP3    H1 6306   4.190   0.344   2.863 -0.4053  0.5929  1.5208
 2100TIP3    H2 6307   4.187   0.479   2.795 -1.8863 -0.0471  0.2456
 2101TIP3   OH2 6308   6.073   0.570   4.611  0.6889 -0.3377 -0.3308
 2101TIP3    H1 6309   6.078   0.539   4.520  1.5254  0.0426 -0.4198
 2101TIP3    H2 6310   6.152   0.535   4.652 -0.9470 -2.7908  1.0003
 2102TIP3   OH2 6311   2.385   4.268   1.895 -0.1254  0.3256  0.2449
 2102TIP3    H1 6312   2.389   4.361   1.873 -2.1442  0.3617 -0.1187
 2102TIP3    H2 6313   2.450   4.228   1.838  0.1913  1.4093 -0.1919
 2103TIP3   OH2 6314   3.787   4.858   2.532 -0.0077  0.4672  0.3069
 2103TIP3    H1 6315   3.862   4.799   2.523  0.3652  1.0890 -0.9222
 2103TIP3    H2 6316   3.760   4.848   2.623  1.3952  0.0312  0.7093
 2104TIP3   OH2 6317   3.943   3.193   0.145 -1.3460  0.1780  0.1685
 2104TIP3    H1 6318   3.968   3.284   0.161  0.0471 -0.2721  0.7216
 2104TIP3    H2 6319   3.923   3.158   0.232  1.1104 -0.8372  0.4125
 2105TIP3   OH2 6320   2.990   0.935   4.346 -0.3419  0.4123 -0.4043
 2105TIP3    H1 6321   2.919   0.995   4.369 -0.3307  0.0886  0.5270
 2105TIP3    H2 6322   2.948   0.850   4.335 -0.1219  0.2330  0.0835
 2106TIP3   OH2 6323   0.209   3.800   0.337 -0.5284 -0.9952  0.1015
 2106TIP3    H1 6324   0.118   3.791   0.309 -0.9459 -0.9370  1.3492
 2106TIP3    H2 6325   0.203   3.843   0.423  0.6217 -1.8562  0.6381
 2107TIP3   OH2 6326   3.159   0.226   1.599  0.2065  0.1509 -0.2447
 2107TIP3    H1 6327   3.125   0.137   1.595  1.0596 -0.2362  0.7241
 2107TIP3    H2 6328   3.168   0.244   1.693  1.7398  0.5811 -0.4435
 2108TIP3   OH2 6329   0.365   1.814   1.349 -0.1199  0.0884  0.0791
 2108TIP3    H1 6330   0.336   1.902   1.374 -0.0542 -0.4378  2.1527
 2108TIP3    H2 6331   0.448   1.802   1.395 -0.7376 -1.5153  0.8370
 2109TIP3   OH2 6332   4.298   5.553   4.163  0.3660  0.1629 -0.3575
 2109TIP3    H1 6333   4.312   5.471   4.210 -0.4387  0.6026  0.7025
 2109TIP3    H2 6334   4.386   5.586   4.145  0.6946 -0.2620  0.4221
 2110TIP3   OH2 6335   4.782   1.769   3.804  0.4545 -0.0784  0.0127
 2110TIP3    H1 6336   4.709   1.809   3.756 -0.3146  0.0840  1.2455
 2110TIP3    H2 6337   4.769   1.798   3.895  0.6597 -2.0033  0.7001
 2111TIP3   OH2 6338   0.355   1.907   1.892 -0.0891 -0.4199 -0.4926
 2111TIP3    H1 6339   0.319   1.968   1.955  0.1039 -0.7061 -0.0973
 2111TIP3    H2 6340   0.366   1.825   1.941 -0.4894 -0.8178 -1.0521
 2112TIP3   OH2 6341   1.549   4.654   1.595 -0.4411 -0.1108 -0.4748
 2112TIP3    H1 6342   1.581   4.564   1.602  2.0074  0.5040 -2.2375
 2112TIP3    H2 6343   1.528   4.665   1.502  3.6076  2.2674 -1.3632
 2113TIP3   OH2 6344   5.432   3.404   1.691 -0.3036 -0.8631 -0.0951
 2113TIP3    H1 6345   5.504   3.404   1.627  0.3556 -2.2002  0.6012
 2113TIP3    H2 6346   5.357   3.437   1.642  0.9733  1.5647 -0.5749
 2114TIP3   OH2 6347   2.159   0.295   4.992  0.7519  0.3494 -0.1401
 2114TIP3    H1 6348   2.108   0.344   4.928 -0.5588 -0.2288  0.4209
 2114TIP3    H2 6349   2.210   0.233   4.941 -2.7428 -2.4493 -0.5979
 2115TIP3   OH2 6350   1.572   5.906   5.106  0.0186  0.6664  0.3638
 2115TIP3    H1 6351   1.632   5.875   5.039 -0.7721  0.0144 -0.0635
 2115TIP3    H2 6352   1.537   5.827   5.146 -1.2838  0.9915 -0.0652
 2116TIP3   OH2 6353   4.944   3.297   2.097  0.9179  0.2760  0.0371
 2116TIP3    H1 6354   4.975   3.241   2.168  2.8158 -1.0697 -1.7540
 2116TIP3    H2 6355   4.877   3.244   2.053  2.6716 -0.6912 -1.6204
 2117TIP3   OH2 6356   6.107   3.710   3.303 -0.1878  0.2110 -0.8098
 2117TIP3    H1 6357   6.093   3.682   3.394 -0.5103 -1.0378 -1.2204
 2117TIP3    H2 6358   6.201   3.698   3.289 -0.5055 -2.1302 -1.3940
 2118TIP3   OH2 6359   3.467   1.145   3.400 -0.8158  0.1893 -0.4952
 2118TIP3    H1 6360   3.562   1.151   3.387 -0.9344 -0.3891 -1.7754
 2118TIP3    H2 6361   3.457   1.139   3.495  0.5422 -1.3305 -0.3977
 2119TIP3   OH2 6362   4.001   5.745   2.247  0.2262 -0.2910  0.1089
 2119TIP3    H1 6363   3.964   5.689   2.315 -1.6455 -0.6173 -1.0877
 2119TIP3    H2 6364   3.971   5.705   2.165  0.3614  1.4445 -0.8350
 2120TIP3   OH2 6365   0.987   5.065   4.689  0.1344 -0.3509  0.2399
 2120TIP3    H1 6366   0.924   5.076   4.761  1.2923  0.6115  1.1507
 2120TIP3    H2 6367   0.950   5.117   4.618 -0.1846  0.0807  0.7101
 2121TIP3   OH2 6368   0.296   0.304   0.498 -0.3043  0.9949 -0.4945
 2121TIP3    H1 6369   0.257   0.282   0.413  0.0163 -0.0958 -0.3755
 2121TIP3    H2 6370   0.364   0.368   0.477 -1.5361  2.2481 -0.8054
 2122TIP3   OH2 6371   4.294   3.855   2.177  0.1106 -0.2539 -0.2565
 2122TIP3    H1 6372   4.283   3.867   2.272 -0.2536  0.5082 -0.3885
 2122TIP3    H2 6373   4.238   3.780   2.156 -1.8516  1.1571 -0.2696
 2123TIP3   OH2 6374   2.982   4.532   2.599  0.2468  0.2503 -0.3007
 2123TIP3    H1 6375   2.888   4.516   2.606  0.3727 -0.8166 -0.8337
 2123TIP3    H2 6376   3.014   4.530   2.689  0.0006 -1.1217 -0.2126
 2124TIP3   OH2 6377   1.204   4.165   3.232  0.1551  0.4111  0.1850
 2124TIP3    H1 6378   1.166   4.206   3.309  0.9581  0.0259  0.8079
 2124TIP3    H2 6379   1.164   4.210   3.158 -2.1950 -0.5944  0.7677
 2125TIP3   OH2 6380   4.600   1.401   1.509  0.2804 -0.3354 -0.2142
 2125TIP3    H1 6381   4.677   1.356   1.472 -0.9824 -2.0575 -0.9193
 2125TIP3    H2 6382   4.546   1.421   1.433 -1.2945 -1.8292  0.4430
 2126TIP3   OH2 6383   1.747   3.968   0.084 -0.4221  0.3375  0.1746
 2126TIP3    H1 6384   1.654   3.951   0.065 -0.5283  0.5254  0.5108
 2126TIP3    H2 6385   1.791   3.959  -0.000 -0.6756 -0.2407  0.0975
 2127TIP3   OH2 6386   6.012   2.441   0.214 -0.1186 -0.5156 -0.2466
 2127TIP3    H1 6387   6.015   2.364   0.158  0.5034  0.6389 -1.8631
 2127TIP3    H2 6388   6.096   2.441   0.260  0.0798 -0.5320 -0.6111
 2128TIP3   OH2 6389   4.444   5.032   3.188  0.0680 -0.3413  0.4133
 2128TIP3    H1 6390   4.415   5.123   3.179 -1.6392 -0.8274  0.5249
 2128TIP3    H2 6391   4.405   4.986   3.113  0.0571 -1.1597  0.9014
 2129TIP3   OH2 6392   2.408   4.053   3.704  0.5529  0.3119 -0.2698
 2129TIP3    H1 6393   2.368   4.114   3.641  1.1239  1.8612  0.8050
 2129TIP3    H2 6394   2.406   3.969   3.659 -2.5984  0.5382 -0.8561
 2130TIP3   OH2 6395   4.591   2.136   1.386  0.2036 -0.5785  0.3119
 2130TIP3    H1 6396   4.595   2.190   1.465  2.0526 -0.2979  0.0804
 2130TIP3    H2 6397   4.664   2.075   1.395  1.1475  0.1678 -1.6292
 2131TIP3   OH2 6398   5.357   5.679   2.153 -0.6833 -0.7073  0.4115
 2131TIP3    H1 6399   5.444   5.651   2.124 -1.3755 -1.7089 -0.8201
 2131TIP3    H2 6400   5.297   5.615   2.113 -1.9191 -0.5749  1.9768
 2132TIP3   OH2 6401   5.220   0.297   0.944 -0.4404  0.2979 -0.0462
 2132TIP3    H1 6402   5.252   0.292   0.854  2.2940  1.6369  0.7340
 2132TIP3    H2 6403   5.217   0.391   0.963 -1.1951  0.0446  1.1997
 2133TIP3   OH2 6404   3.469   3.776   2.995 -0.1872  0.1760  0.2801
 2133TIP3    H1 6405   3.380   3.755   2.965  0.6126 -0.0619 -2.1204
 2133TIP3    H2 6406   3.510   3.691   3.011  0.2458  0.1894 -0.6900
 2134TIP3   OH2 6407   1.013   4.600   4.754  0.3836 -0.3307  0.0837
 2134TIP3    H1 6408   1.087   4.649   4.791 -0.0852  0.4900 -0.0443
 2134TIP3    H2 6409   1.032   4.596   4.660 -0.5307  1.3378 -0.2065
 2135TIP3   OH2 6410   2.420   0.598   4.847 -0.4178 -0.1313  0.2621
 2135TIP3    H1 6411   2.371   0.523   4.815  1.7057 -0.8899 -1.5128
 2135TIP3    H2 6412   2.379   0.674   4.806  0.0442 -0.7836 -1.4993
 2136TIP3   OH2 6413   3.563   1.390   4.822 -0.4582 -0.3677  0.0087
 2136TIP3    H1 6414   3.601   1.478   4.828 -2.0083  0.2257  2.6071
 2136TIP3    H2 6415   3.498   1.396   4.752 -1.6430  1.0653  1.1666
 2137TIP3   OH2 6416   5.361   4.083   3.624  0.6498 -0.0436  0.3307
 2137TIP3    H1 6417   5.303   4.111   3.695 -0.9480 -0.1871 -0.8512
 2137TIP3    H2 6418   5.353   4.152   3.558  0.9845 -0.5991 -0.3026
 2138TIP3   OH2 6419   5.446   4.775   3.510  0.2929 -0.0936 -0.0814
 2138TIP3    H1 6420   5.509   4.817   3.569 -1.3435  1.5008  0.6344
 2138TIP3    H2 6421   5.466   4.810   3.424  1.1607 -0.5655 -0.0769
 2139TIP3   OH2 6422   4.012   0.910   3.930 -0.3781 -0.3350 -0.7117
 2139TIP3    H1 6423   3.993   0.838   3.991 -0.5090  0.4286  0.1798
 2139TIP3    H2 6424   3.950   0.898   3.858 -1.2545 -0.4018  0.0314
 2140TIP3   OH2 6425   2.834   3.448   2.911  1.0640 -0.0622  0.5922
 2140TIP3    H1 6426   2.777   3.525   2.907 -0.1396 -0.9892 -1.0506
 2140TIP3    H2 6427   2.833   3.423   3.004 -0.5555  0.4156  0.7351
 2141TIP3   OH2 6428   2.749   1.438   1.237  0.6985 -0.2138  0.4639
 2141TIP3    H1 6429   2.746   1.480   1.151 -0.6461 -0.8996  0.1430
 2141TIP3    H2 6430   2.677   1.479   1.285  0.6863 -0.6894  0.8499
 2142TIP3   OH2 6431   3.161   1.685   4.539  0.4071  0.2258 -0.4072
 2142TIP3    H1 6432   3.245   1.641   4.548  1.8619  2.7729 -0.4197
 2142TIP3    H2 6433   3.156   1.744   4.615 -1.8880 -0.5699  0.1645
 2143TIP3   OH2 6434   6.058   5.634   3.322  0.1591  0.4268 -0.0101
 2143TIP3    H1 6435   6.060   5.642   3.417  0.5940 -2.0886  0.2658
 2143TIP3    H2 6436   6.150   5.636   3.295  0.0411  1.0889 -0.3872
 2144TIP3   OH2 6437   4.869   0.293   4.479  0.6947  0.6002 -0.0106
 2144TIP3    H1 6438   4.805   0.351   4.521  1.0917  1.2967 -0.3355
 2144TIP3    H2 6439   4.848   0.298   4.385  1.7335  1.5206 -0.2253
 2145TIP3   OH2 6440   4.346   3.934   0.126  0.4686  0.2921 -0.4813
 2145TIP3    H1 6441   4.385   3.916   0.040  2.0312  1.2632 -0.0246
 2145TIP3    H2 6442   4.347   4.030   0.132 -3.1177  0.4831 -0.8853
 2146TIP3   OH2 6443   0.831   5.651   0.435  0.2774 -0.3350 -0.1805
 2146TIP3    H1 6444   0.863   5.608   0.514  1.5940 -0.6442 -0.8604
 2146TIP3    H2 6445   0.781   5.726   0.468  0.5039 -0.6491  0.9445
 2147TIP3   OH2 6446   4.002   5.549   1.236  0.5053 -0.2261 -0.4633
 2147TIP3    H1 6447   4.008   5.643   1.221 -2.6676  0.4543  1.5290
 2147TIP3    H2 6448   3.918   5.524   1.197  0.4530 -1.8684  0.6206
 2148TIP3   OH2 6449   4.233   0.894   1.885 -0.0008 -0.0050 -0.3803
 2148TIP3    H1 6450   4.190   0.977   1.905 -1.0084 -0.0973 -1.9904
 2148TIP3    H2 6451   4.289   0.912   1.809 -0.9477 -0.9619 -1.3532
 2149TIP3   OH2 6452   4.279   0.152   2.357 -0.0811 -0.5657 -0.3493
 2149TIP3    H1 6453   4.349   0.182   2.298 -1.0997 -0.5039 -1.5584
 2149TIP3    H2 6454   4.224   0.230   2.369 -0.8711 -1.0514 -0.7725
 2150TIP3   OH2 6455   4.020   3.793   2.412 -0.2762 -0.3078 -0.8410
 2150TIP3    H1 6456   3.961   3.777   2.485 -0.6460  0.2091 -1.0199
 2150TIP3    H2 6457   3.962   3.806   2.336  0.0248  0.8512 -0.8936
 2151TIP3   OH2 6458   5.539   0.545   4.706 -0.1038 -0.3287  0.0342
 2151TIP3    H1 6459   5.582   0.473   4.752 -0.0294  0.5239  1.3569
 2151TIP3    H2 6460   5.456   0.508   4.676  0.2360 -1.1495  0.0811
 2152TIP3   OH2 6461   0.167   2.547   3.484  0.0207  0.0213  0.0133
 2152TIP3    H1 6462   0.143   2.466   3.528  1.7121 -0.7394 -0.3748
 2152TIP3    H2 6463   0.108   2.552   3.408  0.2216 -1.1117 -0.2298
 2153TIP3   OH2 6464   4.716   4.720   2.628  0.2156  0.5297 -0.4376
 2153TIP3    H1 6465   4.624   4.740   2.645 -0.1169 -1.3168  0.2595
 2153TIP3    H2 6466   4.716   4.676   2.543  0.3129 -0.1635 -0.0937
 2154TIP3   OH2 6467   4.108   4.390   0.679 -0.1737 -0.1095  0.4203
 2154TIP3    H1 6468   4.077   4.423   0.763  1.1331 -0.1899  0.9579
 2154TIP3    H2 6469   4.161   4.462   0.643 -1.4631  0.2818 -0.7825
 2155TIP3   OH2 6470   0.147   2.668   4.624 -0.3557  0.1729  0.1056
 2155TIP3    H1 6471   0.176   2.743   4.572 -1.0107  0.1171 -0.3508
 2155TIP3    H2 6472   0.185   2.683   4.710 -0.5423  1.0761  0.0434
 2156TIP3   OH2 6473   3.423   2.839   3.643 -0.5584  0.2959  0.0441
 2156TIP3    H1 6474   3.493   2.784   3.680 -0.6544 -0.4647 -0.8462
 2156TIP3    H2 6475   3.459   2.870   3.559 -2.1550 -2.2497 -1.7410
 2157TIP3   OH2 6476   4.843   3.935   2.022 -0.6038  0.7181 -0.0348
 2157TIP3    H1 6477   4.757   3.933   2.064 -1.3738  0.8909 -1.5542
 2157TIP3    H2 6478   4.863   3.842   2.005 -0.5353  0.6841  0.2321
 2158TIP3   OH2 6479   4.737   4.616   0.003 -0.4339  0.5740  0.9997
 2158TIP3    H1 6480   4.722   4.698   0.048 -0.7213  1.6966 -1.0277
 2158TIP3    H2 6481   4.832   4.604   0.004 -0.1987  2.0177 -0.4266
 2159TIP3   OH2 6482   1.807   1.494   3.032  0.5534 -0.0588  0.1894
 2159TIP3    H1 6483   1.838   1.443   2.957 -0.0102 -1.0241  0.6083
 2159TIP3    H2 6484   1.743   1.438   3.075  0.3716  0.7606  1.0116
 2160TIP3   OH2 6485   3.337   5.718   3.660  0.2210 -0.2659 -0.2445
 2160TIP3    H1 6486   3.346   5.785   3.728 -2.5241  1.2277 -1.1805
 2160TIP3    H2 6487   3.345   5.635   3.707  1.0970  0.7171  1.4222
 2161TIP3   OH2 6488   0.016   0.844   1.333  0.0091  0.3445 -0.1558
 2161TIP3    H1 6489   0.034   0.750   1.326 -1.4727  0.0645 -0.4483
 2161TIP3    H2 6490   0.058   0.882   1.256 -0.4749 -0.2578 -0.7286
 2162TIP3   OH2 6491   5.918   2.245   2.806 -0.0400  0.0908  0.6710
 2162TIP3    H1 6492   5.997   2.280   2.766 -0.4417 -1.0484 -1.2736
 2162TIP3    H2 6493   5.846   2.290   2.761 -0.5064 -1.4253 -0.2070
 2163TIP3   OH2 6494   3.684   3.618   1.979 -0.5622 -0.3578  0.0332
 2163TIP3    H1 6495   3.735   3.580   2.051 -1.4611 -2.2421 -0.2674
 2163TIP3    H2 6496   3.601   3.572   1.982 -2.3556  2.6453  0.5332
 2164TIP3   OH2 6497   6.269   1.101   1.720 -0.1280  0.1440  0.1086
 2164TIP3    H1 6498   6.180   1.076   1.695  0.4338 -1.6934 -0.2107
 2164TIP3    H2 6499   6.322   1.077   1.644  0.9267 -0.8654  1.1283
 2165TIP3   OH2 6500   0.191   1.221   4.491 -0.6425 -0.3725  0.2327
 2165TIP3    H1 6501   0.226   1.135   4.510 -0.3304 -0.1427  0.7056
 2165TIP3    H2 6502   0.114   1.230   4.547 -1.4597 -0.8601 -0.7730
 2166TIP3   OH2 6503   5.904   0.174   0.993  0.1553  0.1246  0.1597
 2166TIP3    H1 6504   5.851   0.224   0.931 -0.7232  0.2199  0.9603
 2166TIP3    H2 6505   5.992   0.174   0.955 -0.5881 -0.8488 -1.6749
 2167TIP3   OH2 6506   0.907   2.451   0.242  0.0703 -0.4707  0.5610
 2167TIP3    H1 6507   0.873   2.538   0.220  0.3713 -0.5116 -0.1150
 2167TIP3    H2 6508   0.999   2.454   0.214  0.0489 -1.0423  0.4201
 2168TIP3   OH2 6509   1.439   2.396   1.201 -0.1865  0.7814 -0.2471
 2168TIP3    H1 6510   1.533   2.409   1.188 -0.1001  2.6476  1.7580
 2168TIP3    H2 6511   1.430   2.302   1.216  1.6155  0.7784  1.1813
 2169TIP3   OH2 6512   2.142   5.777   2.622 -0.0792 -0.1247 -0.4539
 2169TIP3    H1 6513   2.102   5.690   2.624 -1.1868  0.3824  0.5768
 2169TIP3    H2 6514   2.090   5.825   2.558 -0.5260  0.2657  0.2013
 2170TIP3   OH2 6515   0.742   1.108   3.185  0.3841  0.4920 -0.1929
 2170TIP3    H1 6516   0.706   1.061   3.260 -0.1578 -0.2005 -0.8716
 2170TIP3    H2 6517   0.679   1.092   3.115  1.0952  0.7790 -0.9045
 2171TIP3   OH2 6518   2.067   0.094   3.102 -0.2151  0.7563 -0.0379
 2171TIP3    H1 6519   2.069   0.152   3.026  2.2913  0.5560 -0.2125
 2171TIP3    H2 6520   2.073   0.006   3.066  0.7470  0.6485  0.3543
 2172TIP3   OH2 6521   5.507   5.728   5.095  0.1912 -0.3017 -0.0198
 2172TIP3    H1 6522   5.536   5.641   5.125 -0.0726 -0.2796  0.3114
 2172TIP3    H2 6523   5.434   5.710   5.036  3.1458 -0.6257 -4.0014
 2173TIP3   OH2 6524   0.502   2.276   1.276 -0.2303 -0.2741  0.1872
 2173TIP3    H1 6525   0.541   2.340   1.337  1.7139 -0.7094 -0.5082
 2173TIP3    H2 6526   0.479   2.328   1.199 -2.3092  0.2072  1.0859
 2174TIP3   OH2 6527   3.187   3.762   4.086 -0.0399  0.0123  0.4016
 2174TIP3    H1 6528   3.165   3.670   4.101  0.2584 -0.0064  0.7538
 2174TIP3    H2 6529   3.255   3.781   4.151 -1.2956  0.9505  1.5117
 2175TIP3   OH2 6530   5.373   4.467   0.985  0.1764  0.6412 -0.1261
 2175TIP3    H1 6531   5.432   4.485   0.911  1.2874 -1.5899  0.1040
 2175TIP3    H2 6532   5.431   4.462   1.061 -0.0229 -2.6180 -0.0411
 2176TIP3   OH2 6533   3.731   4.021   2.756 -0.2710 -0.5547  0.0317
 2176TIP3    H1 6534   3.731   4.116   2.761 -3.2122 -0.4742  0.1255
 2176TIP3    H2 6535   3.639   3.997   2.752  0.3990 -3.3927 -0.6394
 2177TIP3   OH2 6536   5.512   1.634   2.125 -0.8946 -0.0909 -0.2063
 2177TIP3    H1 6537   5.588   1.690   2.143  0.1339 -1.5334  0.1481
 2177TIP3    H2 6538   5.538   1.583   2.047 -1.6323 -0.3640 -0.2798
 2178TIP3   OH2 6539   0.590   1.270   2.549 -1.0155 -0.1876 -0.4973
 2178TIP3    H1 6540   0.652   1.316   2.607 -1.7240  1.0962 -0.7156
 2178TIP3    H2 6541   0.644   1.208   2.500 -0.0257  0.3657 -0.1382
 2179TIP3   OH2 6542   2.829   1.767   4.770 -0.4601  0.3433  0.6122
 2179TIP3    H1 6543   2.888   1.787   4.843  1.0308 -0.8424 -0.1996
 2179TIP3    H2 6544   2.790   1.683   4.793  2.4802 -1.7037 -1.2879
 2180TIP3   OH2 6545   1.110   2.216   1.713  0.4080 -0.1354 -0.1386
 2180TIP3    H1 6546   1.052   2.145   1.684 -0.1138 -0.0579  0.6787
 2180TIP3    H2 6547   1.194   2.196   1.673  0.6902 -2.0608  1.2590
 2181TIP3   OH2 6548   0.280   4.578   4.315 -0.7052 -0.5190  0.2065
 2181TIP3    H1 6549   0.364   4.623   4.309 -0.8963 -0.3494 -2.3805
 2181TIP3    H2 6550   0.227   4.615   4.245 -1.2071 -3.9662 -1.4935
 2182TIP3   OH2 6551   4.063   2.027   4.470 -0.2168  0.3531  0.0903
 2182TIP3    H1 6552   3.968   2.015   4.480  0.0328 -0.6257  1.6397
 2182TIP3    H2 6553   4.085   1.976   4.393 -1.1057  1.6724 -1.1131
 2183TIP3   OH2 6554   4.650   4.828   0.861  0.3443  0.4004  0.6494
 2183TIP3    H1 6555   4.561   4.841   0.832 -0.1168 -1.6757  0.9355
 2183TIP3    H2 6556   4.678   4.747   0.818  1.1954 -0.3247  2.4534
 2184TIP3   OH2 6557   0.892   3.503   4.012  0.1175  0.3853  0.4656
 2184TIP3    H1 6558   0.924   3.590   4.035  0.8226  0.7885 -1.7855
 2184TIP3    H2 6559   0.839   3.517   3.934  2.0704 -1.4143 -1.3225
 2185TIP3   OH2 6560   4.441   0.372   3.628 -0.1406 -0.3871 -0.7145
 2185TIP3    H1 6561   4.478   0.293   3.588  1.2193  0.9237 -2.2012
 2185TIP3    H2 6562   4.511   0.406   3.683 -0.9462 -0.5223  0.4249
 2186TIP3   OH2 6563   6.088   0.012   2.022 -0.9101 -0.0336 -0.1559
 2186TIP3    H1 6564   6.025   0.065   2.070 -0.7522  0.6436 -0.6783
 2186TIP3    H2 6565   6.163   0.005   2.081 -0.2496  1.7743 -0.7207
 2187TIP3   OH2 6566   0.663   0.728   2.455 -0.1782  0.1765  0.1752
 2187TIP3    H1 6567   0.748   0.771   2.467  0.6711 -1.4519  0.2722
 2187TIP3    H2 6568   0.669   0.649   2.509 -1.2610 -0.6460 -0.8756
 2188TIP3   OH2 6569   4.327   5.455   1.542 -0.7324  0.2830 -0.1599
 2188TIP3    H1 6570   4.330   5.420   1.631  0.0358 -0.5139 -0.4924
 2188TIP3    H2 6571   4.319   5.378   1.486 -0.3946  0.7299 -0.8335
 2189TIP3   OH2 6572   0.250   4.025   0.908  0.1034 -0.6024  0.2743
 2189TIP3    H1 6573   0.303   4.097   0.874  0.0587 -0.1050  1.2258
 2189TIP3    H2 6574   0.286   3.947   0.866 -0.1895  0.0238 -1.1744
 2190TIP3   OH2 6575   1.730   3.751   5.187 -0.2925 -0.1913 -0.5007
 2190TIP3    H1 6576   1.676   3.814   5.139 -1.4355 -1.0398 -0.3702
 2190TIP3    H2 6577   1.673   3.676   5.200  0.3747 -0.4361  1.1994
 2191TIP3   OH2 6578   0.396   1.136   0.219 -0.3014 -0.0461  0.0240
 2191TIP3    H1 6579   0.344   1.059   0.196  0.4247 -0.5388  0.0087
 2191TIP3    H2 6580   0.389   1.142   0.314 -3.1355  1.8721 -0.1634
 2192TIP3   OH2 6581   2.844   3.876   4.049  0.0392  0.0484 -0.1474
 2192TIP3    H1 6582   2.904   3.808   4.021  0.7516  1.2284 -1.5886
 2192TIP3    H2 6583   2.784   3.832   4.109  0.6755 -1.7520 -0.7918
 2193TIP3   OH2 6584   1.177   2.967   2.857 -0.0016  0.1641  0.2760
 2193TIP3    H1 6585   1.237   3.038   2.834 -0.8599  0.8563  0.1164
 2193TIP3    H2 6586   1.227   2.911   2.916  0.7218  0.8589  0.3325
 2194TIP3   OH2 6587   4.086   1.262   3.587  0.3111  0.6102 -0.2194
 2194TIP3    H1 6588   4.145   1.193   3.617  1.0248  1.8307  1.3310
 2194TIP3    H2 6589   4.066   1.238   3.496  1.1612 -1.1802  0.0148
 2195TIP3   OH2 6590   0.398   5.725   1.680 -0.0967 -0.2744  0.9769
 2195TIP3    H1 6591   0.347   5.709   1.759 -1.2084 -0.9999  0.1352
 2195TIP3    H2 6592   0.343   5.782   1.626 -0.1287 -1.2192 -0.0282
 2196TIP3   OH2 6593   3.019   2.161   3.294 -0.5270 -0.5420  0.0233
 2196TIP3    H1 6594   3.044   2.242   3.248  0.3591 -0.9282 -0.1905
 2196TIP3    H2 6595   3.018   2.094   3.226 -0.9017 -0.7901  0.2670
 2197TIP3   OH2 6596   0.782   2.172   1.020  0.3937  0.0315  0.2542
 2197TIP3    H1 6597   0.855   2.229   0.997  0.6349 -0.6387 -0.7142
 2197TIP3    H2 6598   0.714   2.192   0.955  0.5000 -0.7951 -0.1263
 2198TIP3   OH2 6599   3.748   1.453   0.172 -0.4134  0.0268 -0.1603
 2198TIP3    H1 6600   3.835   1.473   0.208 -0.5586  0.8190 -0.2441
 2198TIP3    H2 6601   3.761   1.455   0.077 -0.5848  0.4364 -0.1766
 2199TIP3   OH2 6602   2.266   2.591   3.319  0.2991 -0.4149 -0.7898
 2199TIP3    H1 6603   2.271   2.631   3.405 -0.1540 -1.1726 -0.3946
 2199TIP3    H2 6604   2.173   2.571   3.307  0.4745 -1.1040 -1.0782
 2200TIP3   OH2 6605   0.917   5.449   4.781 -0.3313  0.1508  0.3186
 2200TIP3    H1 6606   0.987   5.399   4.739 -1.8588 -1.0951 -0.8806
 2200TIP3    H2 6607   0.867   5.383   4.830 -1.1082  0.8662  0.5133
 2201TIP3   OH2 6608   1.665   3.295   4.490  0.5766 -0.0822  0.1798
 2201TIP3    H1 6609   1.572   3.281   4.508  0.4682 -0.6390 -0.7500
 2201TIP3    H2 6610   1.667   3.347   4.410  1.0665 -0.1007  0.1753
 2202TIP3   OH2 6611   3.177   1.687   2.204  0.1535  0.5442  0.6732
 2202TIP3    H1 6612   3.249   1.673   2.142  0.0170 -0.1118  0.6526
 2202TIP3    H2 6613   3.102   1.643   2.164  0.0424  0.1895  1.2646
 2203TIP3   OH2 6614   4.127   1.595   4.156 -0.0625  0.8255  0.0781
 2203TIP3    H1 6615   4.134   1.507   4.118  1.1735  1.3905 -1.1107
 2203TIP3    H2 6616   4.184   1.649   4.101  0.9930  1.9279  2.1162
 2204TIP3   OH2 6617   3.503   5.030   0.283 -0.0848 -0.0034  0.0709
 2204TIP3    H1 6618   3.507   4.937   0.306  1.0913  0.2406  0.9733
 2204TIP3    H2 6619   3.415   5.057   0.310  0.4543 -0.2782  2.3290
 2205TIP3   OH2 6620   3.436   3.563   1.885 -0.0926 -0.2987  0.2079
 2205TIP3    H1 6621   3.449   3.587   1.794  1.3429  0.3611  0.5584
 2205TIP3    H2 6622   3.353   3.604   1.909 -0.2871 -0.1513 -0.6862
 2206TIP3   OH2 6623   2.311   1.403   1.086 -0.5244 -0.4179  0.3211
 2206TIP3    H1 6624   2.314   1.489   1.128  1.2713  0.5357 -1.6014
 2206TIP3    H2 6625   2.356   1.345   1.147 -1.0586  0.1461  1.2783
 2207TIP3   OH2 6626   4.051   5.463   2.470 -0.3212  0.0078 -0.3787
 2207TIP3    H1 6627   3.989   5.536   2.468  0.1198  0.3953 -0.1477
 2207TIP3    H2 6628   3.999   5.387   2.445 -0.7315  0.4399 -0.8614
 2208TIP3   OH2 6629   0.643   5.097   4.786 -0.9982 -0.0996  0.2497
 2208TIP3    H1 6630   0.550   5.074   4.786 -2.0857  3.5230 -1.6159
 2208TIP3    H2 6631   0.675   5.068   4.701 -0.3498 -1.3454  0.8910
 2209TIP3   OH2 6632   2.859   0.047   3.031  0.5260 -0.7511 -0.6581
 2209TIP3    H1 6633   2.789  -0.017   3.048 -0.2995  0.0822 -0.8107
 2209TIP3    H2 6634   2.856   0.106   3.107 -1.4880  1.4950 -2.2922
 2210TIP3   OH2 6635   3.833   3.810   0.332  0.1323  0.9594 -0.0182
 2210TIP3    H1 6636   3.830   3.866   0.409  0.3941 -0.8532  1.3836
 2210TIP3    H2 6637   3.924   3.814   0.302 -0.0769  2.0365 -0.5583
 2211TIP3   OH2 6638   2.121   4.651   3.273 -0.1387  0.1740  0.2061
 2211TIP3    H1 6639   2.212   4.623   3.287 -0.2905 -0.5499 -0.2077
 2211TIP3    H2 6640   2.072   4.609   3.344 -0.3987 -0.8140 -0.5324
 2212TIP3   OH2 6641   0.670   1.422   0.229 -0.3766  0.5543 -0.2457
 2212TIP3    H1 6642   0.725   1.346   0.250  0.1762  1.3348  1.2896
 2212TIP3    H2 6643   0.699   1.451   0.143  1.7802  1.0711  0.6154
 2213TIP3   OH2 6644   5.149   1.078   3.119  0.1559  0.1624  0.1557
 2213TIP3    H1 6645   5.124   1.165   3.150  0.1065  0.3085 -0.2911
 2213TIP3    H2 6646   5.205   1.095   3.044  1.2677 -0.1703  0.8940
 2214TIP3   OH2 6647   0.884   5.986   1.595  0.4686  0.3912 -0.0176
 2214TIP3    H1 6648   0.946   5.919   1.568  1.2845  0.9885  0.3193
 2214TIP3    H2 6649   0.839   6.012   1.515  0.6135 -0.0906 -0.2541
 2215TIP3   OH2 6650   0.249   2.717   0.740 -1.1284  0.8077  0.1076
 2215TIP3    H1 6651   0.178   2.742   0.680 -0.7752  1.0887 -0.1991
 2215TIP3    H2 6652   0.311   2.790   0.735  0.5631 -0.6470 -1.7872
 2216TIP3   OH2 6653   1.252   1.869   2.737  0.2850  0.5103 -0.3831
 2216TIP3    H1 6654   1.160   1.853   2.719  0.1457  2.3233 -1.4662
 2216TIP3    H2 6655   1.291   1.889   2.652  1.3621  1.2048  0.2480
 2217TIP3   OH2 6656   3.985   4.895   2.008 -0.0812 -0.4408  0.2679
 2217TIP3    H1 6657   3.940   4.979   2.017  1.8565  0.7931 -0.9192
 2217TIP3    H2 6658   3.956   4.862   1.923 -0.1773 -0.5464  0.3422
 2218TIP3   OH2 6659   2.017   4.393   0.916  0.0349 -0.1621 -0.0377
 2218TIP3    H1 6660   2.086   4.387   0.983  1.9462  0.7699 -1.8249
 2218TIP3    H2 6661   1.952   4.329   0.945  0.4310  0.6329  3.0537
 2219TIP3   OH2 6662   2.704   5.881   4.469 -0.0247 -0.2288 -0.3360
 2219TIP3    H1 6663   2.620   5.912   4.504 -0.0663 -0.9098  0.2118
 2219TIP3    H2 6664   2.762   5.881   4.545  0.3861 -0.0695 -0.6474
 2220TIP3   OH2 6665   3.747   1.071   0.363 -0.0499 -0.3414  0.2420
 2220TIP3    H1 6666   3.692   1.002   0.326  0.9430 -0.7948 -0.4052
 2220TIP3    H2 6667   3.712   1.152   0.326 -1.2046 -0.4775  0.9862
 2221TIP3   OH2 6668   2.103   1.478   2.905 -0.3495 -0.1625 -0.5569
 2221TIP3    H1 6669   2.181   1.439   2.865  0.6732  1.7383 -0.5091
 2221TIP3    H2 6670   2.049   1.506   2.830 -0.4233 -0.3609 -0.5808
 2222TIP3   OH2 6671   1.854   0.147   4.217 -0.0317  0.2965 -0.4742
 2222TIP3    H1 6672   1.773   0.135   4.266 -1.3626  0.4185 -2.5321
 2222TIP3    H2 6673   1.909   0.073   4.241 -0.4724  0.5439  1.4215
 2223TIP3   OH2 6674   2.131   0.899   2.464  0.5839 -0.7845 -0.4717
 2223TIP3    H1 6675   2.167   0.986   2.479 -1.7429 -0.0732  1.6535
 2223TIP3    H2 6676   2.122   0.891   2.369  2.9422  0.3218 -0.8470
 2224TIP3   OH2 6677   5.560   1.564   0.084  0.0875 -0.2130  0.1163
 2224TIP3    H1 6678   5.514   1.521   0.012 -0.1089 -1.6328  1.0477
 2224TIP3    H2 6679   5.644   1.590   0.046 -0.4619  0.0837 -0.9198
 2225TIP3   OH2 6680   4.264   0.749   0.850  0.0822  0.4883  0.6662
 2225TIP3    H1 6681   4.345   0.704   0.827  0.4841  1.2022  0.6616
 2225TIP3    H2 6682   4.292   0.834   0.885 -0.7229  1.7234 -1.4753
 2226TIP3   OH2 6683   1.356   4.923   0.672  0.3443  0.1086 -0.0398
 2226TIP3    H1 6684   1.320   4.973   0.598 -1.8157  0.5282  1.2018
 2226TIP3    H2 6685   1.325   4.834   0.658 -1.1148  0.4317  0.9349
 2227TIP3   OH2 6686   2.526   1.241   2.824 -0.2325  0.1386 -0.3781
 2227TIP3    H1 6687   2.563   1.157   2.795 -0.2287 -1.3099  3.3118
 2227TIP3    H2 6688   2.601   1.297   2.840  0.0462 -0.5628  0.8847
 2228TIP3   OH2 6689   2.069   3.799   0.286  0.1811  0.3206 -0.9737
 2228TIP3    H1 6690   1.995   3.743   0.309  1.3157 -0.4491  1.0626
 2228TIP3    H2 6691   2.039   3.888   0.302 -0.7877  0.1236 -1.6617
 2229TIP3   OH2 6692   0.635   2.519   0.967  0.1662  0.3574 -0.4237
 2229TIP3    H1 6693   0.678   2.535   1.051 -1.8233  2.0470  0.3661
 2229TIP3    H2 6694   0.561   2.462   0.988  0.7088 -0.7521 -1.3877
 2230TIP3   OH2 6695   0.640   4.443   2.133  0.7843  0.2686 -0.7039
 2230TIP3    H1 6696   0.689   4.521   2.159  0.1606  0.3424  0.3238
 2230TIP3    H2 6697   0.574   4.432   2.202  0.4018 -0.7561 -1.2071
 2231TIP3   OH2 6698   4.586   5.713   3.562  0.1995  0.4357 -0.1005
 2231TIP3    H1 6699   4.561   5.796   3.601 -1.0495 -0.6812  1.6319
 2231TIP3    H2 6700   4.681   5.709   3.572  0.1041  1.0123  1.2030
 2232TIP3   OH2 6701   4.446   5.620   0.675  0.0815  0.6751 -0.0558
 2232TIP3    H1 6702   4.446   5.712   0.649  1.4053  1.0330  1.1125
 2232TIP3    H2 6703   4.532   5.606   0.715  0.5023 -1.4706 -1.5604
 2233TIP3   OH2 6704   4.068   1.678   3.068  0.0095 -0.5796  0.3437
 2233TIP3    H1 6705   4.049   1.752   3.010  0.6374 -0.7757 -0.1205
 2233TIP3    H2 6706   4.163   1.672   3.070 -0.0297 -1.7861 -0.1648
 2234TIP3   OH2 6707   1.805   4.427   4.152 -0.3286 -0.3351  0.0538
 2234TIP3    H1 6708   1.750   4.500   4.126 -0.3380 -0.4040 -0.1219
 2234TIP3    H2 6709   1.882   4.468   4.193 -0.3010 -0.2263 -0.1096
 2235TIP3   OH2 6710   5.971   4.688   4.716 -0.3726  0.1779  0.0945
 2235TIP3    H1 6711   5.977   4.744   4.793 -1.9053  0.7251 -0.1309
 2235TIP3    H2 6712   5.887   4.643   4.726 -0.6928  0.3948 -1.3112
 2236TIP3   OH2 6713   0.078   4.828   1.112 -0.1745  0.0901 -0.7458
 2236TIP3    H1 6714   0.053   4.755   1.169  0.4696  0.9728  0.7271
 2236TIP3    H2 6715   0.164   4.854   1.143  0.1206  0.7279 -2.0322
 2237TIP3   OH2 6716   5.537   1.146   3.996  0.4057 -0.5226  0.0524
 2237TIP3    H1 6717   5.500   1.212   4.056 -2.1560 -2.8154  1.2380
 2237TIP3    H2 6718   5.604   1.102   4.048 -0.0285 -0.8246  0.3700
 2238TIP3   OH2 6719   1.515   3.021   3.582 -0.1577 -0.7359 -0.3956
 2238TIP3    H1 6720   1.488   3.041   3.672 -3.4072  0.8598 -1.5543
 2238TIP3    H2 6721   1.525   3.107   3.541  1.4447 -1.4326 -1.5781
 2239TIP3   OH2 6722   3.093   5.488   4.461 -0.5502  0.4215 -0.6677
 2239TIP3    H1 6723   3.112   5.495   4.367  1.8933 -0.5813 -0.3222
 2239TIP3    H2 6724   3.055   5.573   4.484  0.4603  1.3463 -2.2281
 2240TIP3   OH2 6725   4.926   1.814   3.324 -0.0012 -0.0555 -0.7096
 2240TIP3    H1 6726   4.836   1.796   3.294  0.2936 -0.9945 -1.0534
 2240TIP3    H2 6727   4.952   1.893   3.276 -0.9909  0.8306  0.1442
 2241TIP3   OH2 6728   2.823   2.853   0.267  0.1726  0.1355  0.8623
 2241TIP3    H1 6729   2.891   2.813   0.321 -0.1744  0.7599  1.8008
 2241TIP3    H2 6730   2.766   2.897   0.330 -1.4708 -0.8893  0.1649
 2242TIP3   OH2 6731   5.414   5.854   0.760  0.4182  0.0612  0.2806
 2242TIP3    H1 6732   5.361   5.775   0.769 -1.2760  1.3172  2.3418
 2242TIP3    H2 6733   5.391   5.890   0.675 -0.8874 -0.2433  0.4907
 2243TIP3   OH2 6734   6.053   1.159   1.527  0.1409  0.3206 -0.0928
 2243TIP3    H1 6735   6.058   1.251   1.504 -0.2377  0.7864  1.5674
 2243TIP3    H2 6736   6.073   1.112   1.445  0.4501  1.8522 -0.9205
 2244TIP3   OH2 6737   5.986   1.263   4.881  0.7388  0.0408  0.4338
 2244TIP3    H1 6738   6.032   1.255   4.798  1.7646  0.5501  0.9313
 2244TIP3    H2 6739   6.026   1.195   4.937  1.1939  0.7555  0.9975
 2245TIP3   OH2 6740   5.249   1.107   2.078  0.7052 -0.0060  0.3425
 2245TIP3    H1 6741   5.255   1.040   2.146  0.4022  0.1161  0.4915
 2245TIP3    H2 6742   5.254   1.058   1.996  0.9985 -0.1608  0.4521
 2246TIP3   OH2 6743   5.310   1.581   1.485  0.1767 -0.2616  0.2665
 2246TIP3    H1 6744   5.245   1.511   1.480  2.0010 -1.9819 -2.0987
 2246TIP3    H2 6745   5.363   1.560   1.562  1.3737 -2.2464 -1.0129
 2247TIP3   OH2 6746   6.214   2.856   3.686 -0.0041 -0.2913  0.0541
 2247TIP3    H1 6747   6.168   2.904   3.617  0.2321 -1.9373 -1.3148
 2247TIP3    H2 6748   6.237   2.773   3.646  1.7719 -0.5907  1.5681
 2248TIP3   OH2 6749   1.343   3.224   3.042 -0.5582 -0.5537  0.2731
 2248TIP3    H1 6750   1.311   3.306   3.079 -0.0117 -0.5467  0.7514
 2248TIP3    H2 6751   1.289   3.157   3.082 -0.5256 -0.4790  0.4448
 2249TIP3   OH2 6752   0.659   5.096   0.690  0.3737  0.0666 -0.4391
 2249TIP3    H1 6753   0.589   5.127   0.633 -0.0777  2.1428  1.1272
 2249TIP3    H2 6754   0.632   5.008   0.716 -0.8974  0.2495 -1.0566
 2250TIP3   OH2 6755   3.003   1.275   0.671  0.1829  0.6929 -0.1066
 2250TIP3    H1 6756   2.984   1.185   0.644  1.3159  0.2990  0.3544
 2250TIP3    H2 6757   2.919   1.321   0.663  0.1085  0.2201 -2.7265
 2251TIP3   OH2 6758   5.019   3.904   2.869 -0.9649 -0.1708 -0.3744
 2251TIP3    H1 6759   5.033   3.973   2.933  0.1124  0.1935 -0.9758
 2251TIP3    H2 6760   5.054   3.825   2.911 -1.3881 -0.1830 -0.0367
 2252TIP3   OH2 6761   5.741   2.742   3.379  0.2918 -0.2320 -0.3284
 2252TIP3    H1 6762   5.707   2.775   3.462  2.0433 -0.1926  0.4203
 2252TIP3    H2 6763   5.797   2.668   3.403  1.8851  0.5815 -1.3033
 2253TIP3   OH2 6764   2.312   0.998   2.751 -0.3182 -0.3458  0.3869
 2253TIP3    H1 6765   2.311   1.082   2.704 -1.0825 -0.7763 -0.3819
 2253TIP3    H2 6766   2.324   0.932   2.683 -1.9363 -1.0205  0.7186
 2254TIP3   OH2 6767   5.696   2.160   3.523 -0.3071  0.5272  0.3527
 2254TIP3    H1 6768   5.754   2.205   3.585 -0.9540 -2.2149  3.2075
 2254TIP3    H2 6769   5.739   2.076   3.507 -1.0056  0.5041 -1.7070
 2255TIP3   OH2 6770   1.924   2.752   1.512 -0.4469 -0.3396  0.2543
 2255TIP3    H1 6771   1.967   2.796   1.439  0.7126  0.3412  1.2957
 2255TIP3    H2 6772   1.975   2.780   1.589  0.0693 -3.1459  1.0317
 2256TIP3   OH2 6773   0.875   3.505   1.447 -0.2510 -0.2147  0.3024
 2256TIP3    H1 6774   0.815   3.482   1.376 -0.5095  0.2097  0.3842
 2256TIP3    H2 6775   0.960   3.469   1.420 -0.0041  1.1946 -0.9096
 2257TIP3   OH2 6776   2.204   4.588   4.374 -0.0415  0.7776  0.2122
 2257TIP3    H1 6777   2.202   4.570   4.280 -0.6993 -0.7293  0.4865
 2257TIP3    H2 6778   2.289   4.554   4.403 -0.3359  0.1287  0.3439
 2258TIP3   OH2 6779   6.024   3.380   1.383 -1.0462  0.4707 -0.6001
 2258TIP3    H1 6780   5.989   3.322   1.315  0.4548  0.6986 -1.6127
 2258TIP3    H2 6781   5.971   3.360   1.460  0.4883 -3.6206 -0.3189
 2259TIP3   OH2 6782   3.874   1.656   2.338 -0.1402  0.3048  0.0609
 2259TIP3    H1 6783   3.932   1.584   2.312 -1.1153 -0.4532 -0.0977
 2259TIP3    H2 6784   3.787   1.629   2.307 -0.6243  1.2935  0.5071
 2260TIP3   OH2 6785   3.175   5.472   0.502 -0.1875 -0.5442 -0.3914
 2260TIP3    H1 6786   3.102   5.473   0.440 -0.3202 -2.1584 -0.2990
 2260TIP3    H2 6787   3.154   5.401   0.563  0.5483  0.2048  0.7682
 2261TIP3   OH2 6788   1.340   4.311   3.608  0.5805  0.5268  0.4188
 2261TIP3    H1 6789   1.298   4.365   3.675 -1.5789 -0.4999 -0.0134
 2261TIP3    H2 6790   1.347   4.369   3.532  1.0397  1.0580  0.8596
 2262TIP3   OH2 6791   5.688   3.165   2.923 -0.5553  0.2293  0.0013
 2262TIP3    H1 6792   5.708   3.073   2.908 -1.2970 -0.0990  0.9641
 2262TIP3    H2 6793   5.694   3.177   3.017  0.3305  1.3711 -0.1684
 2263TIP3   OH2 6794   1.241   1.276   4.193  0.7770 -0.3575 -0.1563
 2263TIP3    H1 6795   1.183   1.340   4.153 -0.0913 -0.2014  1.2731
 2263TIP3    H2 6796   1.196   1.192   4.182  1.0943 -0.4844 -0.5195
 2264TIP3   OH2 6797   2.067   3.237   5.023 -0.2245  0.0101  0.5431
 2264TIP3    H1 6798   2.047   3.330   5.028 -2.2759 -0.3610  0.3452
 2264TIP3    H2 6799   2.144   3.231   4.967  0.4783  1.6323  1.3045
 2265TIP3   OH2 6800   5.550   4.932   1.426  0.5712 -0.0965  0.2520
 2265TIP3    H1 6801   5.549   4.863   1.492  0.8283 -1.0564 -0.7022
 2265TIP3    H2 6802   5.606   5.000   1.462  2.2293 -1.4011  0.2757
 2266TIP3   OH2 6803   2.913   0.865   2.571 -0.2336  0.2892 -0.6259
 2266TIP3    H1 6804   2.828   0.824   2.588 -1.3573  0.7346 -4.3051
 2266TIP3    H2 6805   2.911   0.947   2.621 -1.3177 -0.3677  0.4749
 2267TIP3   OH2 6806   2.699   5.143   4.100  0.1332 -0.1284  0.0172
 2267TIP3    H1 6807   2.726   5.105   4.184 -0.3131  0.1920  0.3098
 2267TIP3    H2 6808   2.604   5.130   4.097 -0.1947  1.8177  0.5877
 2268TIP3   OH2 6809   1.724   5.376   3.760 -0.1071 -0.5115 -0.4333
 2268TIP3    H1 6810   1.655   5.372   3.826  0.0387 -1.2047 -0.3133
 2268TIP3    H2 6811   1.685   5.336   3.683 -0.1433 -0.0623 -0.6527
 2269TIP3   OH2 6812   3.445   5.146   5.040  0.3981  0.2518  0.7411
 2269TIP3    H1 6813   3.457   5.241   5.038 -0.6633  0.4031 -1.8243
 2269TIP3    H2 6814   3.508   5.112   4.978 -0.6350 -0.5052  0.0728
 2270TIP3   OH2 6815   3.630   2.261   0.995  0.0891  1.0610  0.4142
 2270TIP3    H1 6816   3.617   2.272   0.901  1.8630  1.6732  0.1947
 2270TIP3    H2 6817   3.659   2.170   1.005 -0.7095  0.8047  0.4619
 2271TIP3   OH2 6818   3.394   1.797   2.397  0.0018 -0.2147 -0.1418
 2271TIP3    H1 6819   3.347   1.735   2.342 -1.2013  0.6546 -0.1328
 2271TIP3    H2 6820   3.472   1.821   2.346 -0.7836  0.1165 -1.2112
 2272TIP3   OH2 6821   5.219   2.114   3.584 -0.2378  0.0284  0.6554
 2272TIP3    H1 6822   5.134   2.075   3.567  0.4327 -1.5382  0.7689
 2272TIP3    H2 6823   5.275   2.082   3.514 -0.1152  2.4664 -0.4606
 2273TIP3   OH2 6824   1.873   2.051   1.642  0.3827 -0.3138 -0.3451
 2273TIP3    H1 6825   1.853   2.129   1.694  2.1708  0.0737 -0.1691
 2273TIP3    H2 6826   1.937   2.003   1.695 -0.4282 -1.7638 -0.6051
 2274TIP3   OH2 6827   0.819   0.959   0.117  0.6229 -0.3568  0.0734
 2274TIP3    H1 6828   0.724   0.955   0.127  0.6650 -0.1803  0.5874
 2274TIP3    H2 6829   0.841   0.887   0.058  0.2713 -1.0082  0.7213
 2275TIP3   OH2 6830   2.298   3.475   3.803  0.2303  0.6986 -0.5084
 2275TIP3    H1 6831   2.279   3.530   3.880  2.5023  0.6710  0.1489
 2275TIP3    H2 6832   2.212   3.447   3.772 -0.8028  1.4254  1.5003
 2276TIP3   OH2 6833   6.116   5.259   4.335  0.0246 -0.4310 -0.7048
 2276TIP3    H1 6834   6.097   5.308   4.415  1.5366  0.4462 -0.8289
 2276TIP3    H2 6835   6.030   5.233   4.302 -0.8494  1.8399 -0.4310
 2277TIP3   OH2 6836   1.095   2.893   0.654 -0.4599  0.4059 -0.2547
 2277TIP3    H1 6837   1.167   2.900   0.591 -0.4488 -0.6091 -0.3739
 2277TIP3    H2 6838   1.019   2.927   0.607 -0.4758 -0.4516 -0.8806
 2278TIP3   OH2 6839   5.127   3.578   0.827  0.3642  0.0842  0.7959
 2278TIP3    H1 6840   5.042   3.615   0.805  1.6413  2.8718  0.1551
 2278TIP3    H2 6841   5.161   3.545   0.744  0.5276  0.3291  0.7655
 2279TIP3   OH2 6842   4.294   4.411   2.009  0.5045 -0.7781  0.7482
 2279TIP3    H1 6843   4.271   4.504   2.012  1.7116 -0.4636  1.0350
 2279TIP3    H2 6844   4.312   4.394   1.916  0.2543 -0.7306  0.6908
 2280TIP3   OH2 6845   0.702   5.413   4.194 -0.2172 -0.4319  0.0021
 2280TIP3    H1 6846   0.641   5.395   4.266 -0.2463  0.3610  0.1950
 2280TIP3    H2 6847   0.788   5.408   4.235 -0.2795  1.7573  0.5636
 2281TIP3   OH2 6848   3.606   3.880   1.581 -0.1085 -0.7350 -0.1661
 2281TIP3    H1 6849   3.643   3.927   1.506 -0.1694 -1.9750 -1.0140
 2281TIP3    H2 6850   3.557   3.946   1.629  1.0749  0.3884 -0.4507
 2282TIP3   OH2 6851   1.793   0.049   0.614  0.8083 -0.5090  0.4261
 2282TIP3    H1 6852   1.755   0.101   0.684  0.8097 -1.0886  0.8663
 2282TIP3    H2 6853   1.878   0.020   0.649  0.9817 -0.4824  0.0373
 2283TIP3   OH2 6854   6.097   5.584   1.438 -0.1961  0.2708  0.3456
 2283TIP3    H1 6855   6.139   5.669   1.422 -0.7763  0.1144 -2.4762
 2283TIP3    H2 6856   6.025   5.604   1.498 -0.2440  1.7665 -0.1552
 2284TIP3   OH2 6857   4.174   0.763   0.481 -0.4354 -0.1848  0.4117
 2284TIP3    H1 6858   4.203   0.846   0.520 -3.9026  1.4341 -0.1228
 2284TIP3    H2 6859   4.115   0.725   0.546  0.5917 -1.9910  0.3689
 2285TIP3   OH2 6860   1.232   3.391   5.164  0.1238  0.0540 -0.0791
 2285TIP3    H1 6861   1.187   3.368   5.083 -1.9229  2.3039  0.2826
 2285TIP3    H2 6862   1.177   3.355   5.233  1.2598 -0.8912  0.3635
 2286TIP3   OH2 6863   2.785   1.909   1.478 -0.3464  0.0946  0.6470
 2286TIP3    H1 6864   2.730   1.935   1.552 -2.1225 -1.1349 -0.1825
 2286TIP3    H2 6865   2.862   1.868   1.518 -0.8197  0.3237  1.8167
 2287TIP3   OH2 6866   0.548   1.142   1.392 -0.4596  0.1234  0.2607
 2287TIP3    H1 6867   0.588   1.084   1.457  0.2572 -0.0539 -0.3192
 2287TIP3    H2 6868   0.479   1.089   1.352 -0.4274 -0.0101  0.3810
 2288TIP3   OH2 6869   1.436   5.537   3.319  0.2557 -0.1687  0.6361
 2288TIP3    H1 6870   1.444   5.459   3.264 -0.3925  1.6948 -2.3226
 2288TIP3    H2 6871   1.343   5.541   3.342  0.1667  0.0624  0.2422
 2289TIP3   OH2 6872   2.902   0.503   1.073 -0.2177  0.3618 -0.3837
 2289TIP3    H1 6873   2.829   0.565   1.082  0.2600  1.3528 -2.6138
 2289TIP3    H2 6874   2.974   0.556   1.040  1.1930 -0.8329  0.6897
 2290TIP3   OH2 6875   4.370   0.372   1.340 -0.4200 -0.6127  0.2295
 2290TIP3    H1 6876   4.351   0.433   1.269 -1.8748  0.7609  1.7288
 2290TIP3    H2 6877   4.420   0.302   1.298 -0.5655  0.5147 -1.9771
 2291TIP3   OH2 6878   4.299   0.637   3.167 -0.1398 -0.3497 -0.2085
 2291TIP3    H1 6879   4.295   0.630   3.262 -1.6187 -0.6926 -0.2770
 2291TIP3    H2 6880   4.344   0.557   3.139 -2.5865 -1.9103  0.0376
 2292TIP3   OH2 6881   0.232   0.135   2.569  0.4886  0.3505 -0.1149
 2292TIP3    H1 6882   0.312   0.117   2.620  1.3085  0.3553 -1.3587
 2292TIP3    H2 6883   0.203   0.049   2.538 -1.7585 -0.0902  2.7568
 2293TIP3   OH2 6884   5.026   2.393   1.576 -0.3509 -0.1806 -0.2360
 2293TIP3    H1 6885   5.039   2.486   1.557  0.7328 -0.4378 -0.8778
 2293TIP3    H2 6886   5.081   2.377   1.653  0.1821 -0.4720 -0.6706
 2294TIP3   OH2 6887   5.738   0.780   3.058  0.3209  0.3947 -0.0400
 2294TIP3    H1 6888   5.823   0.813   3.087  0.4735  3.0646 -2.8974
 2294TIP3    H2 6889   5.743   0.783   2.962 -3.6272  2.8976 -0.4206
 2295TIP3   OH2 6890   3.271   5.315   1.782  0.3023  0.0295 -0.5780
 2295TIP3    H1 6891   3.315   5.399   1.774 -1.2724  0.8625 -1.0282
 2295TIP3    H2 6892   3.339   5.254   1.809  1.3047  1.6188  0.6496
 2296TIP3   OH2 6893   1.538   0.028   3.632 -0.5693  0.1476 -0.6227
 2296TIP3    H1 6894   1.543   0.095   3.701 -1.5791 -0.5424  0.1425
 2296TIP3    H2 6895   1.612  -0.030   3.651 -0.5191  0.2678 -0.4399
 2297TIP3   OH2 6896   3.801   0.127   3.747 -0.1181  0.0292 -0.0447
 2297TIP3    H1 6897   3.760   0.210   3.725  0.1165  0.5400  1.3092
 2297TIP3    H2 6898   3.758   0.063   3.691  0.3921  1.1936 -1.8303
 2298TIP3   OH2 6899   2.258   2.378   0.489  0.2300  0.5001 -0.0864
 2298TIP3    H1 6900   2.324   2.321   0.451  1.0467  1.3894 -0.0352
 2298TIP3    H2 6901   2.265   2.460   0.439  1.0023  1.5285  1.6268
 2299TIP3   OH2 6902   5.480   2.271   1.068 -0.5592  0.7218  0.0049
 2299TIP3    H1 6903   5.429   2.352   1.063 -1.1203  0.3487 -0.3939
 2299TIP3    H2 6904   5.568   2.297   1.039 -0.8888  1.0725 -0.7142
 2300TIP3   OH2 6905   6.211   0.475   0.597  0.0189 -0.2504  0.0109
 2300TIP3    H1 6906   6.243   0.391   0.629  0.3969 -0.0330  0.2116
 2300TIP3    H2 6907   6.256   0.540   0.650  1.0379  0.1327 -1.2573
 2301TIP3   OH2 6908   6.130   0.731   3.006 -0.1381 -0.1074  0.2723
 2301TIP3    H1 6909   6.121   0.653   3.061 -2.0661 -1.0592 -1.2448
 2301TIP3    H2 6910   6.195   0.707   2.940 -1.3336 -0.8032 -0.6944
 2302TIP3   OH2 6911   2.348   2.425   3.977 -0.0899  0.5032  0.4169
 2302TIP3    H1 6912   2.385   2.471   4.052 -1.0974  0.6340  0.8603
 2302TIP3    H2 6913   2.298   2.352   4.015 -0.2608  0.3164 -0.1459
 2303TIP3   OH2 6914   0.365   0.797   1.590  0.5322  0.0107 -0.2546
 2303TIP3    H1 6915   0.350   0.849   1.510 -1.6278 -1.8539 -1.1864
 2303TIP3    H2 6916   0.351   0.859   1.661 -0.4345  1.0942 -1.3265
 2304TIP3   OH2 6917   2.635   2.026   2.113  0.8476  0.0501 -0.0095
 2304TIP3    H1 6918   2.692   1.963   2.156  1.8327  0.9356  0.0270
 2304TIP3    H2 6919   2.620   2.094   2.179  1.8433  1.0924 -0.8196
 2305TIP3   OH2 6920   4.251   4.272   4.874 -0.2205  0.1063 -0.3254
 2305TIP3    H1 6921   4.270   4.365   4.862 -0.2744  0.1467 -0.0956
 2305TIP3    H2 6922   4.265   4.257   4.967 -2.0159  0.2907  0.0049
 2306TIP3   OH2 6923   0.344   2.647   1.042  0.2621  0.4177 -0.4246
 2306TIP3    H1 6924   0.347   2.663   0.947 -1.2332  1.5654 -0.3199
 2306TIP3    H2 6925   0.274   2.704   1.073 -0.8007 -1.5638  1.0582
 2307TIP3   OH2 6926   0.721   3.892   1.681 -0.1786  0.7591  0.1957
 2307TIP3    H1 6927   0.652   3.840   1.723 -0.1497 -0.1604 -0.8322
 2307TIP3    H2 6928   0.734   3.849   1.596  0.7276  1.7257 -0.1702
 2308TIP3   OH2 6929   0.505   5.570   2.204  0.4027  0.0412 -0.7858
 2308TIP3    H1 6930   0.429   5.625   2.222 -0.7094 -1.5522 -0.3581
 2308TIP3    H2 6931   0.533   5.596   2.116 -1.3697 -0.1022 -1.4356
 2309TIP3   OH2 6932   1.586   0.073   4.340 -0.3727  0.3208 -0.0356
 2309TIP3    H1 6933   1.508   0.094   4.288  0.0226  2.4039  0.1679
 2309TIP3    H2 6934   1.605  -0.019   4.317 -2.2197  0.1078 -0.9170
 2310TIP3   OH2 6935   2.001   3.841   2.233  0.1892  0.4572  0.6463
 2310TIP3    H1 6936   1.939   3.911   2.256 -0.5820  0.4129 -1.1577
 2310TIP3    H2 6937   2.020   3.799   2.317 -0.8068  1.6186  1.5096
 2311TIP3   OH2 6938   1.555   5.659   4.537 -0.5208  0.1982 -0.0366
 2311TIP3    H1 6939   1.473   5.622   4.504  0.0233 -1.1247 -0.0051
 2311TIP3    H2 6940   1.529   5.725   4.600 -1.5871 -1.3238  1.1891
 2312TIP3   OH2 6941   3.879   0.685   3.424 -0.1832 -0.0708  0.2064
 2312TIP3    H1 6942   3.877   0.769   3.379  1.4841  0.5448  1.1787
 2312TIP3    H2 6943   3.799   0.683   3.476 -0.2621  0.8998  0.1282
 2313TIP3   OH2 6944   0.585   2.377   2.836  0.5880 -0.4216  0.6819
 2313TIP3    H1 6945   0.520   2.366   2.905 -0.0049  0.3526  0.2706
 2313TIP3    H2 6946   0.638   2.451   2.865  0.4582 -0.2187  0.4143
 2314TIP3   OH2 6947   5.034   3.725   1.264  0.5724 -0.5088 -0.4005
 2314TIP3    H1 6948   5.034   3.817   1.290  2.1724 -0.5936  0.0025
 2314TIP3    H2 6949   5.002   3.726   1.173 -1.3481  0.1944  0.2269
 2315TIP3   OH2 6950   0.826   0.291   2.368 -0.4591  0.3724  0.6324
 2315TIP3    H1 6951   0.822   0.326   2.279  1.1849 -2.5968 -0.7725
 2315TIP3    H2 6952   0.857   0.365   2.421  0.3214  1.7666 -1.6062
 2316TIP3   OH2 6953   0.102   3.175   3.137 -0.1027  0.0710  0.2875
 2316TIP3    H1 6954   0.047   3.118   3.190  0.1053  0.0422  0.4758
 2316TIP3    H2 6955   0.179   3.191   3.192 -1.0103  2.1199  1.0657
 2317TIP3   OH2 6956   4.841   3.638   4.471  0.7944 -0.5548  0.2610
 2317TIP3    H1 6957   4.753   3.618   4.504 -0.4145  0.9786 -1.7818
 2317TIP3    H2 6958   4.874   3.554   4.439 -0.3358 -1.0085  0.2266
 2318TIP3   OH2 6959   2.446   1.727   3.391  0.4430  0.2368  0.1980
 2318TIP3    H1 6960   2.537   1.701   3.376  0.9518  0.4099  2.5258
 2318TIP3    H2 6961   2.394   1.663   3.343  1.7926 -0.4160 -0.4371
 2319TIP3   OH2 6962   0.846   5.147   0.932 -1.4800 -0.6807 -0.1559
 2319TIP3    H1 6963   0.790   5.211   0.888 -3.0428 -2.2100 -0.5054
 2319TIP3    H2 6964   0.785   5.079   0.963  0.2059 -2.8025 -1.1898
 2320TIP3   OH2 6965   2.809   3.537   3.379  0.8157 -0.1447  0.4050
 2320TIP3    H1 6966   2.760   3.458   3.404  2.0814 -0.5187  1.8969
 2320TIP3    H2 6967   2.834   3.521   3.288 -0.6439 -0.5422  0.0461
 2321TIP3   OH2 6968   3.408   0.428   0.195 -0.4160 -0.1104 -0.0058
 2321TIP3    H1 6969   3.399   0.415   0.289  0.0569  1.8790  0.3543
 2321TIP3    H2 6970   3.342   0.495   0.173  0.5952  0.6768 -0.7604
 2322TIP3   OH2 6971   3.397   5.278   3.994 -0.8906 -0.1729  0.5707
 2322TIP3    H1 6972   3.453   5.291   4.071  0.9801  1.0024 -0.8887
 2322TIP3    H2 6973   3.350   5.197   4.012 -0.1222 -0.2187  2.7010
 2323TIP3   OH2 6974   4.776   5.999   3.993 -0.2704 -0.1634 -0.1489
 2323TIP3    H1 6975   4.820   5.915   3.974  0.8959 -0.1745  2.2427
 2323TIP3    H2 6976   4.758   5.996   4.087  0.2191  2.4526  0.1066
 2324TIP3   OH2 6977   1.658   3.791   1.684  0.1706  0.4072 -0.0264
 2324TIP3    H1 6978   1.738   3.798   1.738  0.2102  0.1477 -0.0502
 2324TIP3    H2 6979   1.587   3.789   1.747  0.2985 -1.4969  0.1203
 2325TIP3   OH2 6980   0.114   1.616   1.817  0.3996  0.0710  0.0129
 2325TIP3    H1 6981   0.162   1.536   1.795  0.3884 -0.0284  0.3429
 2325TIP3    H2 6982   0.041   1.586   1.870 -0.4394  0.1478 -1.0713
 2326TIP3   OH2 6983   6.132   5.864   2.414 -0.0950  0.3339 -0.0571
 2326TIP3    H1 6984   6.069   5.802   2.451  0.1600 -0.0136 -0.2008
 2326TIP3    H2 6985   6.082   5.913   2.349 -1.2550  2.6616  2.3773
 2327TIP3   OH2 6986   3.354   2.573   3.877  0.0713  0.6615 -0.3030
 2327TIP3    H1 6987   3.385   2.493   3.836 -2.0095 -0.1829 -0.3557
 2327TIP3    H2 6988   3.423   2.597   3.939 -0.7105 -3.2442  2.4572
 2328TIP3   OH2 6989   2.250   0.894   1.033 -0.2574 -0.4108  0.2211
 2328TIP3    H1 6990   2.242   0.987   1.011  0.9607 -0.0058  1.3812
 2328TIP3    H2 6991   2.170   0.874   1.081 -0.1565  0.2665  0.6901
 2329TIP3   OH2 6992   3.501   0.264   1.758 -0.3497  0.0968  0.2526
 2329TIP3    H1 6993   3.466   0.281   1.671  0.3609  1.1456  0.1488
 2329TIP3    H2 6994   3.546   0.180   1.750  1.8948  1.3270 -1.1180
 2330TIP3   OH2 6995   1.434   1.433   4.236  0.0642  0.3687 -0.4286
 2330TIP3    H1 6996   1.376   1.358   4.218  0.5303 -0.0646 -0.1352
 2330TIP3    H2 6997   1.493   1.435   4.161 -0.7014  1.1876 -1.0334
 2331TIP3   OH2 6998   2.309   2.955   5.056 -0.4012  0.1555  0.2141
 2331TIP3    H1 6999   2.402   2.968   5.041  0.8125 -1.1858  4.9523
 2331TIP3    H2 7000   2.295   2.861   5.043 -0.5885  0.0072  1.3431
 2332TIP3   OH2 7001   4.653   3.842   4.087 -0.1440 -0.0090 -0.2140
 2332TIP3    H1 7002   4.716   3.907   4.056  0.9543 -2.2980 -3.2063
 2332TIP3    H2 7003   4.578   3.853   4.028  0.3524 -1.8397 -1.2429
 2333TIP3   OH2 7004   4.394   0.794   2.936  0.0102  0.1634  0.1483
 2333TIP3    H1 7005   4.339   0.782   2.859  0.0688  0.4616  0.0585
 2333TIP3    H2 7006   4.353   0.740   3.004 -0.1648  0.0723 -0.0288
 2334TIP3   OH2 7007   2.112   3.729   1.138 -0.4742 -0.3673  0.5197
 2334TIP3    H1 7008   2.171   3.733   1.063  1.1631 -0.4467  1.7621
 2334TIP3    H2 7009   2.032   3.773   1.108  1.0269  1.8358 -0.4833
 2335TIP3   OH2 7010   1.823   3.340   2.624  0.3553 -0.7583 -0.4253
 2335TIP3    H1 7011   1.833   3.254   2.665 -0.8190 -0.4270  0.6302
 2335TIP3    H2 7012   1.764   3.325   2.550 -1.2247 -0.6161  0.7555
 2336TIP3   OH2 7013   1.997   0.645   3.016  0.0152  0.2370  0.0057
 2336TIP3    H1 7014   2.013   0.635   2.922 -0.4885  2.1795 -0.3343
 2336TIP3    H2 7015   1.978   0.556   3.046 -1.4570 -0.2290 -2.0580
 2337TIP3   OH2 7016   2.715   3.519   2.041  0.2161  0.2782 -0.3973
 2337TIP3    H1 7017   2.754   3.499   1.955 -0.0318  0.7656 -0.6254
 2337TIP3    H2 7018   2.621   3.504   2.029  0.3980 -1.9275  0.4426
 2338TIP3   OH2 7019   2.121   2.928   4.220 -0.0781 -0.1890 -0.2740
 2338TIP3    H1 7020   2.078   3.012   4.235  0.7956  0.4421 -1.2086
 2338TIP3    H2 7021   2.057   2.863   4.250 -1.6755  0.7091 -1.5815
 2339TIP3   OH2 7022   5.955   3.230   1.171 -0.5368 -0.0490  0.2000
 2339TIP3    H1 7023   5.897   3.280   1.114  1.3524  1.5943 -0.3856
 2339TIP3    H2 7024   5.965   3.146   1.125 -0.3355  0.6470 -1.1011
 2340TIP3   OH2 7025   0.378   4.977   4.795  0.4301  0.4346 -0.6738
 2340TIP3    H1 7026   0.369   4.882   4.788  1.1500  0.3815 -0.9530
 2340TIP3    H2 7027   0.296   5.006   4.835 -0.4109 -0.1502 -1.8937
 2341TIP3   OH2 7028   1.938   4.145   1.930 -0.4205  0.2663 -0.2759
 2341TIP3    H1 7029   1.926   4.231   1.890  2.2856 -0.4220 -2.9435
 2341TIP3    H2 7030   2.033   4.133   1.931 -0.7129 -2.5555  0.3930
 2342TIP3   OH2 7031   3.923   0.801   1.171  0.0423 -0.3388  0.1074
 2342TIP3    H1 7032   3.958   0.885   1.199 -0.5081 -0.1194  0.1465
 2342TIP3    H2 7033   3.971   0.736   1.222  0.0788 -0.0181  0.4809
 2343TIP3   OH2 7034   5.508   5.362   0.887  0.4323  0.8891 -0.3892
 2343TIP3    H1 7035   5.580   5.424   0.874  0.1323  1.0264 -1.5410
 2343TIP3    H2 7036   5.505   5.348   0.981  1.0509  1.9809 -0.1863
 2344TIP3   OH2 7037   3.918   2.897   3.419 -0.0444  0.1004  0.3401
 2344TIP3    H1 7038   3.857   2.961   3.384 -0.6383  0.1596  1.4432
 2344TIP3    H2 7039   3.904   2.819   3.367 -0.8365  0.2175  0.3687
 2345TIP3   OH2 7040   2.012   2.899   1.298  0.1561  0.1933  0.1842
 2345TIP3    H1 7041   2.055   2.957   1.236  0.9344  0.9520  1.3955
 2345TIP3    H2 7042   1.956   2.843   1.244 -0.5248  1.9600 -1.0497
 2346TIP3   OH2 7043   3.894   3.504   2.523  0.1784  0.1620  0.5005
 2346TIP3    H1 7044   3.983   3.504   2.488  0.6736  0.9115  1.7232
 2346TIP3    H2 7045   3.858   3.419   2.495  0.7261  0.4857 -1.3129
 2347TIP3   OH2 7046   5.015   0.509   2.444  0.6050  0.9804 -0.9617
 2347TIP3    H1 7047   4.925   0.480   2.455  1.3359 -1.1225  0.1031
 2347TIP3    H2 7048   5.014   0.602   2.468 -0.8934  0.4748  1.2112
 2348TIP3   OH2 7049   3.622   0.928   4.978 -0.0929 -0.2295  0.4549
 2348TIP3    H1 7050   3.536   0.970   4.989 -0.4099 -0.5399 -0.7231
 2348TIP3    H2 7051   3.674   0.992   4.930 -1.0055 -1.6037 -2.6038
 2349TIP3   OH2 7052   4.362   3.455   1.723 -0.3992  0.1604 -0.8685
 2349TIP3    H1 7053   4.444   3.412   1.747  0.4351  0.5115 -2.8585
 2349TIP3    H2 7054   4.315   3.390   1.671 -0.5551  0.5497 -1.2289
 2350TIP3   OH2 7055   2.267   3.524   2.076 -0.3234 -0.5261 -0.1004
 2350TIP3    H1 7056   2.188   3.470   2.084 -0.1165 -1.0044 -1.1153
 2350TIP3    H2 7057   2.338   3.466   2.105 -0.5014  0.5176  2.7258
 2351TIP3   OH2 7058   0.217   2.026   3.340 -0.0104 -0.0894 -0.0435
 2351TIP3    H1 7059   0.148   2.091   3.358 -1.0519 -1.8534  3.1464
 2351TIP3    H2 7060   0.199   1.955   3.402  4.2965 -0.9905  0.4452
 2352TIP3   OH2 7061   5.377   2.587   2.619 -0.2877 -0.2954  0.1795
 2352TIP3    H1 7062   5.296   2.613   2.576  0.2075  0.0207 -0.5706
 2352TIP3    H2 7063   5.408   2.512   2.569 -1.1615 -1.7484  1.6975
 2353TIP3   OH2 7064   0.244   3.349   2.477 -0.7961 -0.7137  0.1161
 2353TIP3    H1 7065   0.335   3.374   2.495 -0.1925 -1.6690 -1.4322
 2353TIP3    H2 7066   0.198   3.370   2.558  0.7875 -0.1659  0.9337
 2354TIP3   OH2 7067   4.592   0.578   4.853  0.1931 -0.5746  0.5240
 2354TIP3    H1 7068   4.651   0.538   4.916  0.9909  0.8418  0.7174
 2354TIP3    H2 7069   4.587   0.670   4.879 -0.4416 -0.2192 -0.7395
 2355TIP3   OH2 7070   2.823   4.969   0.884 -0.5994 -0.0785  0.1453
 2355TIP3    H1 7071   2.800   4.876   0.895  0.6093 -0.3675  0.3593
 2355TIP3    H2 7072   2.776   5.014   0.955  1.6376 -1.0228  2.3680
 2356TIP3   OH2 7073   6.195   4.455   1.325 -0.0710  0.0644 -0.6295
 2356TIP3    H1 7074   6.164   4.451   1.416 -1.2183 -0.4522 -1.0268
 2356TIP3    H2 7075   6.125   4.501   1.278  0.4778  0.2573 -1.2672
 2357TIP3   OH2 7076   0.128   4.617   2.935  0.0949  0.5506 -0.4934
 2357TIP3    H1 7077   0.127   4.705   2.975  0.9162  0.1733  0.3961
 2357TIP3    H2 7078   0.054   4.572   2.976  1.1916  0.0234  0.9985
 2358TIP3   OH2 7079   2.535   4.097   3.059 -0.6976 -0.6235  0.4566
 2358TIP3    H1 7080   2.501   4.182   3.030  1.0257  0.4448  1.3702
 2358TIP3    H2 7081   2.534   4.043   2.980  0.2723  0.9820 -0.7385
 2359TIP3   OH2 7082   2.166   5.043   2.605 -0.3808 -0.4488 -0.4052
 2359TIP3    H1 7083   2.121   5.049   2.690  0.4616 -2.7681  0.2755
 2359TIP3    H2 7084   2.097   5.018   2.543 -0.4938 -1.7491  0.2054
 2360TIP3   OH2 7085   1.415   1.514   2.696  0.0508 -0.0525  0.5322
 2360TIP3    H1 7086   1.342   1.523   2.635 -2.3793  0.5923  3.3360
 2360TIP3    H2 7087   1.469   1.444   2.658 -1.8865 -0.4554 -1.7427
 2361TIP3   OH2 7088   5.911   2.168   4.868 -0.0259  0.3940  0.3869
 2361TIP3    H1 7089   5.824   2.162   4.828  0.1847 -0.9053  0.0928
 2361TIP3    H2 7090   5.925   2.083   4.908  0.9753  0.7165  0.7468
 2362TIP3   OH2 7091   0.378   4.593   0.222 -0.4396 -0.0977 -0.1190
 2362TIP3    H1 7092   0.295   4.563   0.258  0.4961 -2.5662  0.1700
 2362TIP3    H2 7093   0.385   4.549   0.137 -0.5726  2.1440 -1.3556
 2363TIP3   OH2 7094   5.348   3.162   1.784 -0.2137 -0.3156  0.2743
 2363TIP3    H1 7095   5.362   3.233   1.721 -0.0961 -1.3437 -0.8683
 2363TIP3    H2 7096   5.268   3.187   1.830 -0.2452  0.4981 -0.2034
 2364TIP3   OH2 7097   6.113   3.455   3.775  0.0944  0.3453 -0.0608
 2364TIP3    H1 7098   6.200   3.440   3.811  0.3004  0.3380 -0.5577
 2364TIP3    H2 7099   6.076   3.525   3.829  1.2422  1.8855 -1.1918
 2365TIP3   OH2 7100   2.268   0.694   3.977  0.0319 -0.2245  0.2943
 2365TIP3    H1 7101   2.339   0.718   3.917 -1.2662  0.7054 -0.9625
 2365TIP3    H2 7102   2.259   0.599   3.966 -0.2932 -0.0585 -1.1876
 2366TIP3   OH2 7103   3.083   4.910   1.456 -0.2231  0.1103  0.1516
 2366TIP3    H1 7104   3.095   4.989   1.508 -4.9646  1.2125 -0.0231
 2366TIP3    H2 7105   3.143   4.921   1.382  3.4382  0.5958  2.9064
 2367TIP3   OH2 7106   4.602   5.423   0.141 -0.3088 -0.3683  0.2393
 2367TIP3    H1 7107   4.651   5.342   0.153 -0.9462 -0.7840  0.0689
 2367TIP3    H2 7108   4.602   5.464   0.228  0.4273 -0.3012  0.2179
 2368TIP3   OH2 7109   4.264   2.084   3.407 -0.4580  0.8663 -0.0791
 2368TIP3    H1 7110   4.261   2.030   3.328  1.1508 -0.1594  0.5003
 2368TIP3    H2 7111   4.203   2.041   3.467  0.4701 -0.0876  0.2154
 2369TIP3   OH2 7112   0.146   5.656   4.330  0.2915 -0.2693  0.3058
 2369TIP3    H1 7113   0.093   5.660   4.251 -1.2807 -0.8843  1.2784
 2369TIP3    H2 7114   0.099   5.710   4.394  2.0291  1.0128  0.5871
 2370TIP3   OH2 7115   5.728   2.341   1.705 -0.4210 -0.3556 -0.4371
 2370TIP3    H1 7116   5.773   2.394   1.639 -0.3931  0.5429  0.2950
 2370TIP3    H2 7117   5.733   2.252   1.671  1.5747 -0.2323 -0.5796
 2371TIP3   OH2 7118   0.262   0.792   1.136 -0.0264  0.0708 -0.2147
 2371TIP3    H1 7119   0.198   0.722   1.120  0.6519 -0.7095  0.4221
 2371TIP3    H2 7120   0.324   0.785   1.063 -0.6084  0.7907 -0.8008
 2372TIP3   OH2 7121   3.347   0.974   1.575  1.0083 -0.6150 -0.0975
 2372TIP3    H1 7122   3.345   1.022   1.657 -0.7874  0.3109 -0.6178
 2372TIP3    H2 7123   3.412   0.905   1.588  0.3707 -0.8361  2.2818
 2373TIP3   OH2 7124   5.808   1.970   3.258  0.1108 -0.0340  0.9884
 2373TIP3    H1 7125   5.824   1.977   3.164 -1.4706  0.1480  0.7020
 2373TIP3    H2 7126   5.877   2.022   3.298 -0.2746  1.4476 -0.1802
 2374TIP3   OH2 7127   4.485   1.347   4.963 -0.3509  0.2885  0.1945
 2374TIP3    H1 7128   4.390   1.341   4.952 -0.3092  1.0628 -0.6447
 2374TIP3    H2 7129   4.509   1.432   4.927  0.5011  0.6947  1.6359
 2375TIP3   OH2 7130   3.609   1.744   0.693 -0.0100 -0.3977 -0.6144
 2375TIP3    H1 7131   3.562   1.665   0.667 -0.0244 -0.7701  0.4972
 2375TIP3    H2 7132   3.701   1.724   0.674 -0.1299 -0.2070 -1.4585
 2376TIP3   OH2 7133   0.281   2.433   0.735 -0.0017  0.0458  0.2993
 2376TIP3    H1 7134   0.373   2.431   0.708  0.6554  0.3394  2.2832
 2376TIP3    H2 7135   0.269   2.522   0.769 -1.3233  0.3219 -0.8322
 2377TIP3   OH2 7136   4.566   0.325   0.674 -0.0203 -0.4590 -0.1520
 2377TIP3    H1 7137   4.651   0.356   0.705 -0.7390  0.8160  0.6226
 2377TIP3    H2 7138   4.542   0.387   0.605 -1.0177  0.1512  0.7189
 2378TIP3   OH2 7139   0.988   2.972   2.666  0.2386  0.0360  0.1625
 2378TIP3    H1 7140   0.920   3.034   2.695  0.7459  0.9219 -0.4921
 2378TIP3    H2 7141   1.045   2.962   2.742  0.0596  0.2420  0.3263
 2379TIP3   OH2 7142   5.060   0.985   3.377 -0.4945 -0.4412  0.2297
 2379TIP3    H1 7143   5.142   0.975   3.424 -0.4817  1.4283  0.6824
 2379TIP3    H2 7144   5.085   0.982   3.285  0.1395  0.4056  0.3614
 2380TIP3   OH2 7145   5.772   1.605   4.433 -0.6601 -0.2647  0.2432
 2380TIP3    H1 7146   5.819   1.577   4.354 -1.3708  0.1902 -0.3522
 2380TIP3    H2 7147   5.804   1.546   4.501  0.1669 -0.4972 -0.3197
 2381TIP3   OH2 7148   1.402   1.856   1.607  0.0990 -0.3136  0.5125
 2381TIP3    H1 7149   1.327   1.811   1.568 -0.4744  0.6606  0.4306
 2381TIP3    H2 7150   1.390   1.845   1.701 -0.6128  0.5120  0.5355
 2382TIP3   OH2 7151   4.730   1.941   0.463 -0.3895 -1.0949 -0.2573
 2382TIP3    H1 7152   4.706   1.911   0.551  0.4903  2.2943  1.3039
 2382TIP3    H2 7153   4.825   1.930   0.459 -0.3782 -0.8699 -0.6152
 2383TIP3   OH2 7154   0.652   1.670   3.186 -0.4623 -0.5059  0.3685
 2383TIP3    H1 7155   0.601   1.591   3.203 -1.0930 -0.3924 -0.8622
 2383TIP3    H2 7156   0.673   1.704   3.273 -0.6348 -1.7273  0.9180
 2384TIP3   OH2 7157   4.513   3.811   3.251 -0.5295  0.0889 -0.1850
 2384TIP3    H1 7158   4.462   3.771   3.321 -2.6350  0.6636 -1.3126
 2384TIP3    H2 7159   4.510   3.905   3.269  1.4353  0.0555  0.5334
 2385TIP3   OH2 7160   5.286   4.745   1.485 -0.0044  0.1542  0.0694
 2385TIP3    H1 7161   5.287   4.809   1.414 -0.0579  0.5346  0.4061
 2385TIP3    H2 7162   5.205   4.764   1.532  0.3611  0.3435  0.6272
 2386TIP3   OH2 7163   1.101   5.331   3.600  0.6144  0.2508 -0.2229
 2386TIP3    H1 7164   1.153   5.400   3.642 -1.3017  2.0490 -0.6810
 2386TIP3    H2 7165   1.023   5.323   3.655  0.0446 -0.3840 -1.0983
 2387TIP3   OH2 7166   0.957   2.656   3.334  0.2544 -0.0522  0.8751
 2387TIP3    H1 7167   1.002   2.607   3.264 -0.2999 -0.1069  0.5511
 2387TIP3    H2 7168   0.949   2.594   3.406 -0.5303 -0.4798  0.4318
 2388TIP3   OH2 7169   0.938   4.151   1.594  0.0090  0.1823 -0.1537
 2388TIP3    H1 7170   0.975   4.142   1.507  0.4228  0.4758 -0.0135
 2388TIP3    H2 7171   0.915   4.062   1.621 -0.4972  0.1365 -0.7194
 2389TIP3   OH2 7172   0.688   5.196   3.360  0.0463  0.4853  0.0459
 2389TIP3    H1 7173   0.643   5.119   3.395 -1.0805 -0.5949 -3.4254
 2389TIP3    H2 7174   0.773   5.162   3.330  0.2583  0.9904  0.0719
 2390TIP3   OH2 7175   6.109   5.945   3.278 -0.2914 -0.2237 -0.0881
 2390TIP3    H1 7176   6.136   5.956   3.186 -0.7299  1.0038 -0.1019
 2390TIP3    H2 7177   6.185   5.971   3.329 -0.7372  1.2624 -0.1276
 2391TIP3   OH2 7178   0.640   3.804   0.311  0.5255  0.7832  0.4471
 2391TIP3    H1 7179   0.587   3.874   0.274  1.1544  1.6593  1.1751
 2391TIP3    H2 7180   0.700   3.847   0.371  1.2745 -0.3168  0.5376
 2392TIP3   OH2 7181   6.237   3.946   2.203 -0.1697  0.3391  0.2510
 2392TIP3    H1 7182   6.272   3.895   2.276  1.1395  0.7421 -0.0640
 2392TIP3    H2 7183   6.178   4.010   2.243 -1.0199 -0.7181  0.7457
 2393TIP3   OH2 7184   0.370   3.609   1.988  0.1193  0.3198 -0.5337
 2393TIP3    H1 7185   0.322   3.584   1.909 -0.3132  3.5667 -1.4384
 2393TIP3    H2 7186   0.319   3.573   2.060 -0.4291 -1.2341 -1.6301
 2394TIP3   OH2 7187   3.638   3.920   0.614 -0.5504 -0.0613  0.2065
 2394TIP3    H1 7188   3.618   3.996   0.561  1.4029  1.8811  2.0414
 2394TIP3    H2 7189   3.552   3.888   0.645 -1.4256  1.0883 -0.9641
 2395TIP3   OH2 7190   2.487   4.126   3.325 -0.5754 -0.7573  0.8687
 2395TIP3    H1 7191   2.571   4.108   3.368  0.0156 -0.0305  0.0418
 2395TIP3    H2 7192   2.503   4.106   3.233 -0.9175  0.6367  0.4922
 2396TIP3   OH2 7193   2.083   2.514   2.794  0.1808 -0.2511  0.0180
 2396TIP3    H1 7194   1.992   2.495   2.813  0.3574 -0.3677  0.7842
 2396TIP3    H2 7195   2.101   2.468   2.713 -0.1042 -1.2481  0.5050
 2397TIP3   OH2 7196   2.278   3.832   0.578 -0.0756  0.0748 -0.9778
 2397TIP3    H1 7197   2.243   3.758   0.528 -1.4087 -0.3849  0.5441
 2397TIP3    H2 7198   2.207   3.897   0.578  0.0272  0.1974  0.0238
 2398TIP3   OH2 7199   4.096   2.249   0.375  0.0807  0.0374  0.2418
 2398TIP3    H1 7200   4.069   2.223   0.463  1.3470 -1.3116  0.2855
 2398TIP3    H2 7201   4.061   2.181   0.318  2.4980 -1.2969  0.2093
 2399TIP3   OH2 7202   4.011   2.825   0.954 -0.2196 -0.0790  0.1519
 2399TIP3    H1 7203   4.090   2.848   0.905 -0.6606  0.4099 -0.3389
 2399TIP3    H2 7204   3.953   2.787   0.889 -0.7991  0.5478  0.2896
 2400TIP3   OH2 7205   2.095   1.777   0.916  0.1658 -0.2582  0.3451
 2400TIP3    H1 7206   2.181   1.818   0.917 -1.0311  2.4758  1.1860
 2400TIP3    H2 7207   2.060   1.797   0.829  0.3526 -1.3954 -0.0087
 2401TIP3   OH2 7208   0.692   3.284   4.064  0.0713 -0.6665 -0.4128
 2401TIP3    H1 7209   0.752   3.356   4.084 -2.0210  0.6161  1.7311
 2401TIP3    H2 7210   0.632   3.320   3.999  0.0052 -1.0152 -0.5454
 2402TIP3   OH2 7211   5.892   3.418   2.530  0.1268 -0.3145  0.0477
 2402TIP3    H1 7212   5.911   3.408   2.437  0.5979 -0.8295  0.1990
 2402TIP3    H2 7213   5.905   3.331   2.568 -0.4000 -0.1894  0.5391
 2403TIP3   OH2 7214   1.418   4.512   1.277  0.3576  0.0162  0.1541
 2403TIP3    H1 7215   1.358   4.499   1.203 -0.0289 -0.0053  0.4684
 2403TIP3    H2 7216   1.382   4.457   1.346  0.3796  0.4948  0.5509
 2404TIP3   OH2 7217   0.606   3.365   3.796  0.3877  0.2220  0.2341
 2404TIP3    H1 7218   0.649   3.450   3.791 -0.6390  0.6990 -1.1406
 2404TIP3    H2 7219   0.602   3.335   3.705 -1.5844 -0.0978  0.3893
 2405TIP3   OH2 7220   0.751   5.474   2.292  0.3425 -0.2935 -0.0015
 2405TIP3    H1 7221   0.669   5.507   2.256  0.8964  1.3301  0.1509
 2405TIP3    H2 7222   0.758   5.517   2.378  0.8089 -1.2965  0.4809
 2406TIP3   OH2 7223   4.288   5.407   0.626 -0.2788  0.2194  0.2633
 2406TIP3    H1 7224   4.336   5.485   0.654 -0.9348  0.8432 -0.2750
 2406TIP3    H2 7225   4.282   5.352   0.704  2.2793 -0.4264  0.0727
 2407TIP3   OH2 7226   3.638   1.561   3.260  0.1495  0.4666  0.1252
 2407TIP3    H1 7227   3.669   1.476   3.228  1.0992  1.2205 -1.0543
 2407TIP3    H2 7228   3.549   1.569   3.225 -0.5632 -0.6790  1.5411
 2408TIP3   OH2 7229   1.053   0.503   0.631 -0.1242 -0.4481 -0.4234
 2408TIP3    H1 7230   1.075   0.577   0.686  1.3264 -1.2123  0.0702
 2408TIP3    H2 7231   1.070   0.533   0.542  2.1956 -0.6952 -0.1311
 2409TIP3   OH2 7232   3.300   1.092   0.570 -0.5095  0.3796 -0.3172
 2409TIP3    H1 7233   3.324   1.015   0.519 -1.5427  0.5155 -1.0284
 2409TIP3    H2 7234   3.378   1.148   0.569  0.4901 -0.9270  0.7768
 2410TIP3   OH2 7235   3.326   3.816   0.872 -0.0806 -0.0465 -0.2301
 2410TIP3    H1 7236   3.315   3.864   0.789  1.8563  0.7959 -0.0315
 2410TIP3    H2 7237   3.353   3.728   0.845  0.8405  0.3130 -0.4924
 2411TIP3   OH2 7238   3.230   1.361   0.521 -0.3180 -0.3275 -0.3011
 2411TIP3    H1 7239   3.144   1.387   0.556  0.4265  1.0264  0.6322
 2411TIP3    H2 7240   3.251   1.280   0.567  0.9743  1.7742  3.1899
 2412TIP3   OH2 7241   2.922   4.621   3.577 -0.2801 -0.1710 -0.2247
 2412TIP3    H1 7242   2.976   4.673   3.638 -2.2437  0.3940  1.1388
 2412TIP3    H2 7243   2.927   4.669   3.495  0.3500  0.5294  0.2059
 2413TIP3   OH2 7244   4.992   6.006   2.035  1.2165 -0.1286  0.0625
 2413TIP3    H1 7245   5.039   5.923   2.032  0.5885 -0.6363  2.3581
 2413TIP3    H2 7246   4.909   5.989   1.990  1.2567 -0.6103  0.1732
 2414TIP3   OH2 7247   1.893   0.792   4.256 -0.0265  0.2408  0.2333
 2414TIP3    H1 7248   1.809   0.779   4.212  0.3919 -1.4484 -0.1125
 2414TIP3    H2 7249   1.880   0.873   4.307 -0.4965  2.3688 -2.9740
 2415TIP3   OH2 7250   5.041   4.044   0.108 -0.4171  0.0352 -0.5410
 2415TIP3    H1 7251   5.057   4.108   0.039  0.4064  0.0421 -0.3639
 2415TIP3    H2 7252   5.008   3.967   0.062 -2.2353  0.8533 -0.6597
 2416TIP3   OH2 7253   3.288   2.504   0.315 -0.4279 -0.2161  0.4449
 2416TIP3    H1 7254   3.375   2.542   0.329  0.4302 -1.3773 -1.4008
 2416TIP3    H2 7255   3.252   2.495   0.404  0.5315  2.0137  1.1376
 2417TIP3   OH2 7256   0.590   3.128   2.317 -0.1561  0.2718  0.4819
 2417TIP3    H1 7257   0.571   3.221   2.328 -0.1173  0.2335  0.8658
 2417TIP3    H2 7258   0.505   3.087   2.305 -0.0906  0.5562 -1.2710
 2418TIP3   OH2 7259   1.094   4.890   2.088 -0.7337 -0.4141  0.0359
 2418TIP3    H1 7260   1.010   4.848   2.068 -1.2617 -0.2854  1.8224
 2418TIP3    H2 7261   1.149   4.870   2.012 -2.0901 -1.2678 -0.7702
 2419TIP3   OH2 7262   1.508   0.415   1.202  0.6841  0.1719  0.5106
 2419TIP3    H1 7263   1.466   0.334   1.232 -0.8059  1.0808  1.0084
 2419TIP3    H2 7264   1.499   0.475   1.276  0.4622  1.2406 -0.3566
 2420TIP3   OH2 7265   2.359   5.551   0.922  0.5370 -0.1342 -0.2153
 2420TIP3    H1 7266   2.303   5.604   0.864 -0.2251 -0.6089  0.0871
 2420TIP3    H2 7267   2.418   5.615   0.962  0.2589  0.3652 -0.5867
 2421TIP3   OH2 7268   2.336   3.227   1.625 -0.0044  0.3213 -0.4676
 2421TIP3    H1 7269   2.318   3.309   1.671  1.1398  0.0651  0.4848
 2421TIP3    H2 7270   2.252   3.203   1.585 -1.1724  0.3691  1.8094
 2422TIP3   OH2 7271   2.129   4.656   0.322  0.2352 -0.0526 -0.0188
 2422TIP3    H1 7272   2.052   4.692   0.366 -0.1244  0.5864 -1.1340
 2422TIP3    H2 7273   2.198   4.721   0.337  0.4482 -0.4054  0.5879
 2423TIP3   OH2 7274   1.627   3.851   2.387 -0.0895  0.2644 -0.5385
 2423TIP3    H1 7275   1.688   3.832   2.315  0.3627  2.8334 -0.9161
 2423TIP3    H2 7276   1.605   3.765   2.422  2.2596 -0.8783 -1.6250
 2424TIP3   OH2 7277   4.115   0.815   4.375 -0.4063  0.3303 -0.3486
 2424TIP3    H1 7278   4.023   0.843   4.378 -1.6631 -3.1634  2.8361
 2424TIP3    H2 7279   4.159   0.870   4.440 -0.6190  0.9936 -0.7629
 2425TIP3   OH2 7280   0.975   0.024   3.747 -0.4529  0.5681 -0.0224
 2425TIP3    H1 7281   1.049   0.084   3.759  0.3665 -0.8154  2.6580
 2425TIP3    H2 7282   0.898   0.079   3.764  0.1991  1.2416  0.8995
 2426TIP3   OH2 7283   5.461   4.273   0.467  0.1250 -0.0107 -0.7978
 2426TIP3    H1 7284   5.507   4.316   0.539 -3.5344  2.6160  0.2822
 2426TIP3    H2 7285   5.433   4.189   0.503 -0.8261  0.8538  0.5660
 2427TIP3   OH2 7286   2.418   0.143   3.086  0.3164 -0.1640  0.5045
 2427TIP3    H1 7287   2.374   0.227   3.101 -0.2063 -0.7176  2.2220
 2427TIP3    H2 7288   2.475   0.132   3.161  1.7803 -0.5093 -0.6162
 2428TIP3   OH2 7289   5.246   2.504   0.430 -0.0037  0.0676 -0.0131
 2428TIP3    H1 7290   5.279   2.584   0.389 -0.4413  1.0398  1.4469
 2428TIP3    H2 7291   5.221   2.531   0.519 -5.5965 -0.2352 -1.1405
 2429TIP3   OH2 7292   1.212   1.699   0.437  0.2822 -0.4759 -0.3669
 2429TIP3    H1 7293   1.289   1.693   0.381 -1.3292  0.9129 -2.9373
 2429TIP3    H2 7294   1.147   1.644   0.394 -0.5238 -0.7838  1.1669
 2430TIP3   OH2 7295   0.989   4.948   3.775 -0.4965  0.2670  0.0812
 2430TIP3    H1 7296   1.002   5.041   3.758 -1.2045  0.2802 -0.4736
 2430TIP3    H2 7297   1.069   4.919   3.819  0.4956  0.7361 -1.3560
 2431TIP3   OH2 7298   4.420   3.113   1.285 -0.1164 -0.4488 -0.5959
 2431TIP3    H1 7299   4.340   3.165   1.287  0.7658  0.9306  0.3544
 2431TIP3    H2 7300   4.404   3.047   1.218 -2.2693 -0.5872 -0.0118
 2432TIP3   OH2 7301   2.164   1.276   3.092  0.0723  0.0177  0.3202
 2432TIP3    H1 7302   2.130   1.340   3.030  1.3059  0.2522 -0.1432
 2432TIP3    H2 7303   2.159   1.319   3.177 -1.4796 -0.2448  0.3914
 2433TIP3   OH2 7304   2.993   5.619   3.421 -0.1967 -0.1911 -0.2256
 2433TIP3    H1 7305   3.028   5.706   3.444 -1.1271  0.6237 -1.7194
 2433TIP3    H2 7306   3.062   5.578   3.369  0.4840 -0.6079  0.9761
 2434TIP3   OH2 7307   4.495   3.400   3.111 -0.1527 -0.4589  0.6431
 2434TIP3    H1 7308   4.498   3.484   3.065  0.6827 -1.3980 -1.1267
 2434TIP3    H2 7309   4.424   3.410   3.175 -0.8443  1.1906 -0.3212
 2435TIP3   OH2 7310   4.086   2.219   3.985  0.4105  0.5446  0.3788
 2435TIP3    H1 7311   4.040   2.230   4.068  0.3287  0.6615  0.3169
 2435TIP3    H2 7312   4.066   2.129   3.958 -0.7589  0.9809 -0.2503
 2436TIP3   OH2 7313   4.936   3.353   4.355  0.4411 -0.3154  0.2782
 2436TIP3    H1 7314   4.876   3.317   4.290  0.1158  0.1922  0.2991
 2436TIP3    H2 7315   4.889   3.345   4.438 -0.4490  1.9499  0.0390
 2437TIP3   OH2 7316   0.805   0.086   3.351  0.2181 -0.0344  0.2307
 2437TIP3    H1 7317   0.855   0.026   3.406  0.3739 -0.8175 -0.7520
 2437TIP3    H2 7318   0.871   0.133   3.300  0.0660  0.6112  0.6124
 2438TIP3   OH2 7319   5.571   3.836   2.089 -0.1145  0.4994 -0.4673
 2438TIP3    H1 7320   5.527   3.779   2.152  1.6199 -0.5092 -0.0977
 2438TIP3    H2 7321   5.610   3.905   2.143  1.9032 -0.7061 -0.2678
 2439TIP3   OH2 7322   0.524   2.447   4.992 -0.0334 -0.0199  0.3333
 2439TIP3    H1 7323   0.549   2.535   4.963 -2.3970  0.5506 -0.1227
 2439TIP3    H2 7324   0.495   2.459   5.082 -0.0496 -0.4028  0.3795
 2440TIP3   OH2 7325   0.640   1.384   4.310 -0.1528  0.5956 -0.7447
 2440TIP3    H1 7326   0.726   1.406   4.275 -0.8238 -0.4863 -3.3405
 2440TIP3    H2 7327   0.589   1.465   4.300 -0.4092  0.2416 -2.7357
 2441TIP3   OH2 7328   4.017   2.883   2.890 -0.1614  0.1557 -0.5585
 2441TIP3    H1 7329   4.111   2.870   2.903 -0.4291 -2.0732 -0.4898
 2441TIP3    H2 7330   3.992   2.948   2.956  1.0686 -0.3338  0.4286
 2442TIP3   OH2 7331   0.672   5.899   0.444 -0.2278 -0.1657  0.2801
 2442TIP3    H1 7332   0.683   5.897   0.348  1.1019  0.0517  0.4107
 2442TIP3    H2 7333   0.590   5.946   0.458  0.3537  1.1905 -0.7105
 2443TIP3   OH2 7334   3.930   5.811   1.126 -0.8109 -0.2163 -0.0091
 2443TIP3    H1 7335   3.854   5.836   1.178 -1.4909 -1.9085 -0.0972
 2443TIP3    H2 7336   3.892   5.778   1.044 -0.0299 -1.4214  0.0887
 2444TIP3   OH2 7337   6.120   1.695   2.384  0.4057  0.2425 -0.0520
 2444TIP3    H1 7338   6.035   1.714   2.425 -1.3345 -2.2468 -2.1752
 2444TIP3    H2 7339   6.103   1.701   2.290  2.8483  0.4291 -0.5384
 2445TIP3   OH2 7340   2.684   3.709   4.194 -0.1706  0.4986 -0.2107
 2445TIP3    H1 7341   2.723   3.621   4.196 -0.5156  0.3671  1.3553
 2445TIP3    H2 7342   2.682   3.737   4.285 -0.9925  1.7362 -0.5867
 2446TIP3   OH2 7343   5.670   5.186   1.489  0.3069  0.1908 -0.2956
 2446TIP3    H1 7344   5.751   5.155   1.529  0.8103  1.9135  0.1136
 2446TIP3    H2 7345   5.631   5.243   1.556  0.5217  2.1458 -1.7538
 2447TIP3   OH2 7346   2.818   5.104   3.216 -0.2588 -0.1942 -0.1916
 2447TIP3    H1 7347   2.797   5.128   3.126 -0.2224 -1.9600 -0.7002
 2447TIP3    H2 7348   2.822   5.188   3.263  0.7093  0.8452 -2.0195
 2448TIP3   OH2 7349   4.411   3.248   3.786 -0.3218 -0.2190  0.0095
 2448TIP3    H1 7350   4.399   3.303   3.709  1.1731  1.0469  0.6233
 2448TIP3    H2 7351   4.391   3.159   3.756 -0.7030  0.3763 -1.5727
 2449TIP3   OH2 7352   3.108   5.812   1.144  0.2723 -0.2459 -0.2087
 2449TIP3    H1 7353   3.186   5.868   1.140 -0.1790  0.2956 -2.0645
 2449TIP3    H2 7354   3.108   5.764   1.061 -2.0314  0.6894 -0.8192
 2450TIP3   OH2 7355   5.781   0.232   0.403 -0.1337  0.1317  0.5710
 2450TIP3    H1 7356   5.714   0.223   0.471 -1.1595  2.5495  0.0106
 2450TIP3    H2 7357   5.732   0.222   0.321  0.4065  0.6762  0.1713
 2451TIP3   OH2 7358   1.692   3.496   1.621 -0.2361 -0.0277 -0.7969
 2451TIP3    H1 7359   1.638   3.567   1.586  0.3375 -0.2653 -2.2445
 2451TIP3    H2 7360   1.719   3.526   1.707 -1.9647  0.4656 -0.3820
 2452TIP3   OH2 7361   5.321   3.773   4.940 -0.4414  0.0122 -0.3108
 2452TIP3    H1 7362   5.306   3.728   5.023  0.8658 -0.0142 -0.0751
 2452TIP3    H2 7363   5.415   3.765   4.924 -0.2875  1.9535 -0.6545
 2453TIP3   OH2 7364   2.636   5.607   2.258  0.3673  0.6134  0.3617
 2453TIP3    H1 7365   2.614   5.514   2.253 -0.0618  0.7586 -0.9610
 2453TIP3    H2 7366   2.565   5.646   2.309  0.0911  0.3383  0.1922
 2454TIP3   OH2 7367   4.119   1.045   4.843  0.5742 -0.2261  0.5143
 2454TIP3    H1 7368   4.084   1.119   4.793  0.3955  0.8442  2.1310
 2454TIP3    H2 7369   4.042   0.989   4.860  0.2636  0.3942  1.1981
 2455TIP3   OH2 7370   4.305   4.855   1.750  0.1512 -0.2028 -0.3173
 2455TIP3    H1 7371   4.309   4.793   1.823 -0.0087 -0.1165 -0.2357
 2455TIP3    H2 7372   4.395   4.886   1.739 -0.0701  0.9112  0.8068
 2456TIP3   OH2 7373   0.942   0.853   0.348  0.1243 -0.2246 -0.0628
 2456TIP3    H1 7374   0.866   0.806   0.381  0.1629  0.0340  0.3971
 2456TIP3    H2 7375   0.922   0.870   0.256 -0.5891  0.2772  0.1788
 2457TIP3   OH2 7376   3.719   4.090   1.828 -0.1184 -0.2399  0.4513
 2457TIP3    H1 7377   3.658   4.152   1.789  0.2792 -0.4459 -0.5296
 2457TIP3    H2 7378   3.664   4.031   1.879 -1.1481 -2.0876 -2.5607
 2458TIP3   OH2 7379   4.492   0.190   0.226 -0.1276 -0.0316  0.2546
 2458TIP3    H1 7380   4.480   0.231   0.140  0.9505 -0.2973 -0.0458
 2458TIP3    H2 7381   4.587   0.189   0.238 -0.1208 -2.1163  0.4066
 2459TIP3   OH2 7382   1.217   4.558   1.835  0.3428 -0.1742 -0.0195
 2459TIP3    H1 7383   1.180   4.489   1.889 -0.9314  0.0208 -0.6201
 2459TIP3    H2 7384   1.163   4.560   1.756  0.9881  0.8226 -0.4684
 2460TIP3   OH2 7385   4.866   0.211   1.934 -0.2767 -0.2933 -0.5134
 2460TIP3    H1 7386   4.876   0.306   1.942  0.7107 -0.2173 -2.2414
 2460TIP3    H2 7387   4.793   0.190   1.992 -1.7417  1.7917 -1.4677
 2461TIP3   OH2 7388   1.600   5.051   2.061 -0.3480 -0.0433  0.1389
 2461TIP3    H1 7389   1.612   5.145   2.071  0.5145 -0.2752  1.4831
 2461TIP3    H2 7390   1.506   5.040   2.051 -0.5637  0.8858  0.9978
 2462TIP3   OH2 7391   4.843   1.291   4.932 -0.5632  0.0449 -0.1029
 2462TIP3    H1 7392   4.816   1.204   4.961 -0.3286 -0.6035 -1.7139
 2462TIP3    H2 7393   4.930   1.303   4.969  1.0891 -2.0802 -2.8871
 2463TIP3   OH2 7394   5.850   0.248   1.483 -0.4538  0.0489  0.2717
 2463TIP3    H1 7395   5.773   0.199   1.455 -0.2422  0.1566 -0.5333
 2463TIP3    H2 7396   5.879   0.204   1.563 -1.4133  0.0793  0.6484
 2464TIP3   OH2 7397   5.485   1.430   1.624  0.4840  0.1257  0.3403
 2464TIP3    H1 7398   5.577   1.456   1.615  0.3075  0.9296  0.8405
 2464TIP3    H2 7399   5.486   1.336   1.606  1.3056  0.2416 -0.3018
 2465TIP3   OH2 7400   3.800   1.773   3.466  0.8967 -0.4392 -0.5579
 2465TIP3    H1 7401   3.785   1.753   3.558 -0.7287 -1.1055 -0.9388
 2465TIP3    H2 7402   3.879   1.724   3.443  1.1957 -0.4313  0.4186
 2466TIP3   OH2 7403   5.588   2.338   3.783  0.0750 -0.2247 -0.4028
 2466TIP3    H1 7404   5.524   2.397   3.743 -0.1928 -1.3218 -1.6654
 2466TIP3    H2 7405   5.672   2.380   3.768 -0.2637  0.8878  0.6543
 2467TIP3   OH2 7406   1.950   1.908   0.243  0.5124  0.0292  0.3557
 2467TIP3    H1 7407   1.964   2.000   0.222 -1.4420  0.0272 -1.2968
 2467TIP3    H2 7408   1.924   1.907   0.335 -3.4941  1.7606 -0.5131
 2468TIP3   OH2 7409   1.971   3.526   3.836  0.5858 -0.3620 -0.0492
 2468TIP3    H1 7410   1.887   3.568   3.853  0.7594  0.6269 -1.5140
 2468TIP3    H2 7411   2.017   3.529   3.920 -0.4253  0.0231  0.4975
 2469TIP3   OH2 7412   4.283   5.290   4.342 -0.3850 -0.4283 -0.2104
 2469TIP3    H1 7413   4.347   5.225   4.315 -0.3716 -0.6793  0.4097
 2469TIP3    H2 7414   4.207   5.275   4.285  0.1150 -0.1028 -0.9744
 2470TIP3   OH2 7415   4.140   4.303   4.061 -0.4174 -0.3332  0.7037
 2470TIP3    H1 7416   4.108   4.216   4.035 -4.0069  0.9494  0.2876
 2470TIP3    H2 7417   4.098   4.320   4.145  0.8284  0.7158  1.1367
 2471TIP3   OH2 7418   3.357   5.370   3.506  0.2061  0.3817 -0.1722
 2471TIP3    H1 7419   3.335   5.279   3.491 -0.7764  0.4999  0.4625
 2471TIP3    H2 7420   3.286   5.403   3.562  0.7392  1.4284 -0.0893
 2472TIP3   OH2 7421   5.890   3.873   1.933  0.3373  0.3847 -0.1353
 2472TIP3    H1 7422   5.864   3.921   2.012 -0.5032  0.0423 -0.1960
 2472TIP3    H2 7423   5.947   3.804   1.965  1.1042  1.0710  0.0168
 2473TIP3   OH2 7424   1.796   5.071   4.544  0.2064  0.7916 -0.2367
 2473TIP3    H1 7425   1.880   5.073   4.590  1.5088 -2.2011 -2.2278
 2473TIP3    H2 7426   1.763   4.982   4.557 -1.6573  1.2751 -1.2480
 2474TIP3   OH2 7427   5.186   3.353   2.447  0.4621  0.5747 -0.1544
 2474TIP3    H1 7428   5.193   3.342   2.353  1.7977 -1.1872  0.0921
 2474TIP3    H2 7429   5.191   3.448   2.461 -0.7327  0.9285 -1.8777
 2475TIP3   OH2 7430   4.043   3.750   1.752 -0.3324  0.5455 -0.0973
 2475TIP3    H1 7431   3.959   3.708   1.732 -1.0472  0.8442  2.0099
 2475TIP3    H2 7432   4.020   3.824   1.808  1.2371  1.5476 -0.7282
 2476TIP3   OH2 7433   1.928   0.184   1.769  0.4224 -0.0971 -0.4884
 2476TIP3    H1 7434   1.874   0.105   1.767  0.4812 -0.1452 -0.2269
 2476TIP3    H2 7435   1.882   0.243   1.829  1.1256 -0.4799  0.4341
 2477TIP3   OH2 7436   4.821   0.164   2.862  0.5220 -0.5998 -0.0019
 2477TIP3    H1 7437   4.841   0.249   2.901 -0.1348 -0.1533 -0.6149
 2477TIP3    H2 7438   4.905   0.132   2.829  1.1710 -1.1407  1.9978
 2478TIP3   OH2 7439   3.664   0.472   4.386  0.4774 -0.0359 -0.5141
 2478TIP3    H1 7440   3.664   0.402   4.451  0.9054 -0.3393 -0.8355
 2478TIP3    H2 7441   3.724   0.442   4.318  0.7996  0.7176 -0.5772
 2479TIP3   OH2 7442   0.386   3.075   2.650  0.1785  0.3611 -0.7717
 2479TIP3    H1 7443   0.455   3.025   2.606  0.3852 -0.3182  0.2873
 2479TIP3    H2 7444   0.433   3.137   2.706 -0.0664  0.2493 -0.4392
 2480TIP3   OH2 7445   1.554   1.096   2.056 -0.5080  0.0030 -0.0501
 2480TIP3    H1 7446   1.548   1.148   1.976  0.7215  0.9146  0.4229
 2480TIP3    H2 7447   1.527   1.156   2.125  0.2386 -0.1952  0.4213
 2481TIP3   OH2 7448   2.740   5.686   0.334  0.3008 -0.3326 -0.1657
 2481TIP3    H1 7449   2.712   5.753   0.397 -0.2159 -2.6390  2.2415
 2481TIP3    H2 7450   2.662   5.633   0.319  0.9946 -1.1348 -1.0428
 2482TIP3   OH2 7451   0.197   4.749   4.683 -0.3652  0.7115  0.9934
 2482TIP3    H1 7452   0.261   4.776   4.617 -3.4777  1.6406 -1.9223
 2482TIP3    H2 7453   0.135   4.821   4.688 -1.7173 -0.4808  2.9969
 2483TIP3   OH2 7454   3.022   4.794   5.140 -0.4172  0.3668  0.8819
 2483TIP3    H1 7455   2.994   4.878   5.176 -1.5214  0.9243 -1.1351
 2483TIP3    H2 7456   3.105   4.812   5.097 -1.0285  0.6621 -0.2287
 2484TIP3   OH2 7457   1.485   0.051   3.207 -0.1564  0.0293  0.0339
 2484TIP3    H1 7458   1.527  -0.035   3.205  0.0606  0.1440 -1.4814
 2484TIP3    H2 7459   1.392   0.032   3.195 -0.0757  0.0124 -0.6008
 2485TIP3   OH2 7460   1.870   0.933   0.204 -0.4228  0.7895  0.2228
 2485TIP3    H1 7461   1.817   0.862   0.169 -1.2631  1.9240 -0.9007
 2485TIP3    H2 7462   1.819   0.967   0.277  0.6863 -0.6814  1.7650
 2486TIP3   OH2 7463   2.640   2.602   1.287 -0.4131  0.4890 -0.0819
 2486TIP3    H1 7464   2.617   2.694   1.303 -1.0575  0.2098  0.6597
 2486TIP3    H2 7465   2.723   2.606   1.241  1.1473  1.4322  2.5507
 2487TIP3   OH2 7466   2.926   5.242   2.429 -0.8303 -0.0407  0.6750
 2487TIP3    H1 7467   2.854   5.296   2.461 -0.4415  0.7168  0.3011
 2487TIP3    H2 7468   2.968   5.209   2.509 -0.2339  1.3445  0.9663
 2488TIP3   OH2 7469   5.115   5.500   1.309  0.2437  0.4033  0.3063
 2488TIP3    H1 7470   5.072   5.457   1.235  2.0544  1.7644 -1.6220
 2488TIP3    H2 7471   5.076   5.587   1.312  3.0544  1.8905 -1.8719
 2489TIP3   OH2 7472   2.533   5.010   5.158 -0.1083  0.4346  0.0981
 2489TIP3    H1 7473   2.599   4.943   5.139  0.4324  1.0029 -0.0483
 2489TIP3    H2 7474   2.452   4.974   5.121  0.3940  0.3373 -0.9488
 2490TIP3   OH2 7475   4.681   3.987   4.822 -0.1656 -0.0300  0.1418
 2490TIP3    H1 7476   4.701   3.901   4.858 -0.2498  0.2030  0.7625
 2490TIP3    H2 7477   4.689   3.976   4.728  0.4269 -0.5621  0.2468
 2491TIP3   OH2 7478   3.268   5.714   2.830  0.2737 -0.4614  0.0070
 2491TIP3    H1 7479   3.286   5.653   2.901  2.4106  0.0356 -0.0462
 2491TIP3    H2 7480   3.348   5.714   2.777 -0.0109  1.6671 -0.5097
 2492TIP3   OH2 7481   0.624   3.657   4.335  0.2384  0.2997  0.3058
 2492TIP3    H1 7482   0.572   3.664   4.416  1.7057 -1.1564  1.4556
 2492TIP3    H2 7483   0.688   3.588   4.354  2.8007  2.1665 -0.9059
 2493TIP3   OH2 7484   0.705   4.038   2.869 -1.0046 -0.0576  0.5373
 2493TIP3    H1 7485   0.743   4.125   2.851  0.2428 -0.2950  1.8323
 2493TIP3    H2 7486   0.739   3.983   2.798 -0.5718  0.1867  0.5464
 2494TIP3   OH2 7487   3.945   0.792   4.675  0.4458 -0.1225  0.2771
 2494TIP3    H1 7488   3.930   0.876   4.632  0.3627  0.6469  1.7205
 2494TIP3    H2 7489   4.040   0.784   4.679  0.4923  0.6623  1.4496
 2495TIP3   OH2 7490   2.431   5.066   4.115  0.3741 -0.1464  0.1405
 2495TIP3    H1 7491   2.359   5.066   4.052  0.7674  2.0574 -0.4043
 2495TIP3    H2 7492   2.412   4.993   4.174 -0.0644 -2.2425 -2.4031
 2496TIP3   OH2 7493   4.399   4.027   0.875 -0.8045  0.1731 -0.2113
 2496TIP3    H1 7494   4.324   3.972   0.899 -3.2208  1.7604 -3.3162
 2496TIP3    H2 7495   4.465   3.965   0.845 -1.6845 -1.2171  0.6080
 2497TIP3   OH2 7496   3.653   5.432   2.647  0.2664  0.2724 -0.3507
 2497TIP3    H1 7497   3.736   5.397   2.678 -0.1668 -0.9306 -0.4909
 2497TIP3    H2 7498   3.587   5.395   2.706 -0.1376  1.5214 -0.0031
 2498TIP3   OH2 7499   6.184   4.062   3.648 -0.0131 -0.2091 -0.1706
 2498TIP3    H1 7500   6.118   4.075   3.581  1.4780  0.3469 -1.6028
 2498TIP3    H2 7501   6.148   4.103   3.726 -2.0004 -1.3051 -0.4619
 2499TIP3   OH2 7502   6.160   2.764   3.355  0.7077  0.1471  0.1940
 2499TIP3    H1 7503   6.126   2.842   3.398 -1.5965  0.4047 -1.8986
 2499TIP3    H2 7504   6.148   2.694   3.419  0.3510  1.0387  1.1247
 2500TIP3   OH2 7505   6.241   4.012   4.684 -0.5824  0.4794 -0.4413
 2500TIP3    H1 7506   6.316   3.955   4.701 -0.9741  0.3547  1.0257
 2500TIP3    H2 7507   6.269   4.069   4.612  0.4413 -0.4008 -0.7567
 2501TIP3   OH2 7508   1.187   4.931   2.629 -0.0521 -0.1040 -0.2069
 2501TIP3    H1 7509   1.115   4.958   2.573 -0.7002 -0.5534  0.3953
 2501TIP3    H2 7510   1.265   4.972   2.589 -0.5251 -0.2052 -1.2691
 2502TIP3   OH2 7511   3.556   3.061   1.589 -0.4618 -0.2059 -0.4620
 2502TIP3    H1 7512   3.497   3.013   1.648  0.1826 -2.1252 -1.3177
 2502TIP3    H2 7513   3.501   3.132   1.554 -1.2977  0.0539  1.2248
 2503TIP3   OH2 7514   2.768   2.029   0.344  0.0925  0.5056 -0.2037
 2503TIP3    H1 7515   2.786   2.122   0.361 -0.5884  0.6344 -0.1630
 2503TIP3    H2 7516   2.801   1.984   0.421 -2.4371  1.0311  1.3073
 2504TIP3   OH2 7517   5.076   0.568   2.797  0.2880  0.3581 -0.2497
 2504TIP3    H1 7518   5.033   0.514   2.731 -0.3598 -1.1600  1.3131
 2504TIP3    H2 7519   5.060   0.658   2.769 -1.5228 -0.2021 -1.2218
 2505TIP3   OH2 7520   3.010   3.734   5.145 -0.0739 -0.0925  0.5458
 2505TIP3    H1 7521   2.970   3.653   5.113 -0.1334 -0.4138  1.4131
 2505TIP3    H2 7522   3.073   3.706   5.211  0.4895  0.5212  0.2797
 2506TIP3   OH2 7523   2.468   4.952   3.527  0.4629  0.2730  0.3247
 2506TIP3    H1 7524   2.532   4.996   3.472  1.6145  0.0391  1.4271
 2506TIP3    H2 7525   2.470   5.000   3.610  1.0598 -1.2367  1.2298
 2507TIP3   OH2 7526   1.323   3.668   0.066 -0.7223 -0.0813  0.3464
 2507TIP3    H1 7527   1.319   3.583   0.022  0.7111 -0.5209  1.0279
 2507TIP3    H2 7528   1.257   3.662   0.135  1.0593 -1.6448  2.0267
 2508TIP3   OH2 7529   1.936   5.682   1.246  0.2991 -0.1771 -0.1251
 2508TIP3    H1 7530   1.896   5.595   1.240  0.6009 -0.3333  0.1100
 2508TIP3    H2 7531   2.030   5.667   1.235  0.3102  0.1729 -0.5376
 2509TIP3   OH2 7532   0.518   1.075   3.009 -0.0961 -0.0843  0.2051
 2509TIP3    H1 7533   0.475   1.070   3.095  0.7566  0.8655  0.7056
 2509TIP3    H2 7534   0.448   1.100   2.949 -1.2642 -3.0415  0.1344
 2510TIP3   OH2 7535   0.762   4.552   1.552 -0.5384  0.1026 -0.6584
 2510TIP3    H1 7536   0.680   4.512   1.582 -0.1603 -0.4175 -0.2905
 2510TIP3    H2 7537   0.754   4.644   1.576 -1.1707  0.1290 -0.9594
 2511TIP3   OH2 7538   4.029   1.645   0.893  0.1837 -0.3520 -0.2024
 2511TIP3    H1 7539   3.970   1.653   0.968  1.0735 -1.9651  0.7200
 2511TIP3    H2 7540   4.053   1.553   0.890  3.0718  0.2918 -0.1791
 2512TIP3   OH2 7541   3.840   0.888   3.221  0.2380 -0.2324  0.1239
 2512TIP3    H1 7542   3.930   0.914   3.238  0.4582  0.4094 -1.7501
 2512TIP3    H2 7543   3.817   0.933   3.140 -1.6995 -0.5748  0.4254
 2513TIP3   OH2 7544   1.540   4.097   3.254 -0.7850 -0.2189  0.2827
 2513TIP3    H1 7545   1.542   4.087   3.159  1.9406 -0.3690  0.2599
 2513TIP3    H2 7546   1.477   4.032   3.285 -1.6364 -0.2255 -1.4053
 2514TIP3   OH2 7547   5.620   1.062   2.090 -0.6606 -0.0707  0.0821
 2514TIP3    H1 7548   5.535   1.096   2.116 -0.9586  0.2975 -1.3246
 2514TIP3    H2 7549   5.669   1.138   2.060  1.1766  0.1886  3.3078
 2515TIP3   OH2 7550   1.923   4.621   2.394  0.3038 -0.1616 -0.9284
 2515TIP3    H1 7551   1.923   4.604   2.300  1.7370 -1.4611 -0.7383
 2515TIP3    H2 7552   1.898   4.537   2.434  0.1043  0.2590 -0.1332
 2516TIP3   OH2 7553   0.836   1.765   3.010  0.4261  0.1134 -0.6370
 2516TIP3    H1 7554   0.787   1.709   3.070  2.4577 -1.7596 -0.5799
 2516TIP3    H2 7555   0.898   1.812   3.066  1.2471 -0.4389 -1.0621
 2517TIP3   OH2 7556   2.404   4.125   0.427 -0.1445 -0.2316  0.0386
 2517TIP3    H1 7557   2.448   4.136   0.512 -1.5226  0.3146  0.7150
 2517TIP3    H2 7558   2.325   4.076   0.447 -0.9344  0.6539 -0.7759
 2518TIP3   OH2 7559   5.744   0.012   2.101 -0.0881 -0.3881 -0.0260
 2518TIP3    H1 7560   5.780   0.008   2.190  0.4050  0.0396 -0.2046
 2518TIP3    H2 7561   5.649   0.014   2.114 -0.0093  0.1274  0.5158
 2519TIP3   OH2 7562   4.014   1.013   0.171  0.5936 -0.5726  0.0465
 2519TIP3    H1 7563   3.994   1.105   0.158 -0.3415 -0.8204 -0.3204
 2519TIP3    H2 7564   3.971   0.990   0.254  2.9406 -0.0772  1.5167
 2520TIP3   OH2 7565   5.833   1.055   3.286 -0.0868 -0.2577  0.2495
 2520TIP3    H1 7566   5.759   1.039   3.226  1.6793  0.3869 -2.2873
 2520TIP3    H2 7567   5.897   0.987   3.263  1.5509  1.3736 -0.2732
 2521TIP3   OH2 7568   3.407   0.170   4.456  0.1397 -0.5333  0.1740
 2521TIP3    H1 7569   3.492   0.188   4.415  1.2909 -1.7889  1.8970
 2521TIP3    H2 7570   3.414   0.207   4.544 -0.5297 -1.9319  0.8486
 2522TIP3   OH2 7571   1.861   1.332   1.593  0.4968 -0.5186  0.0888
 2522TIP3    H1 7572   1.931   1.266   1.587 -0.3496 -1.4992  0.5632
 2522TIP3    H2 7573   1.868   1.382   1.512  1.2054 -1.1564 -0.2607
 2523TIP3   OH2 7574   0.564   3.844   3.321  0.5301 -0.1159 -0.7776
 2523TIP3    H1 7575   0.486   3.881   3.280 -0.2938 -1.8405 -0.8317
 2523TIP3    H2 7576   0.637   3.880   3.271 -0.3109  0.1881 -1.8058
 2524TIP3   OH2 7577   6.189   4.255   1.560  0.2068  0.0940 -0.4770
 2524TIP3    H1 7578   6.231   4.330   1.602 -0.0116  0.7410 -1.3860
 2524TIP3    H2 7579   6.230   4.250   1.474 -0.6521 -0.0635 -0.8837
 2525TIP3   OH2 7580   0.203   4.112   0.417  0.6085  0.6014  0.3130
 2525TIP3    H1 7581   0.125   4.109   0.473 -0.0619 -2.1031 -0.6205
 2525TIP3    H2 7582   0.174   4.160   0.340  0.3000  0.8073  0.5487
 2526TIP3   OH2 7583   4.835   0.685   0.036 -0.9529  0.3356 -0.0934
 2526TIP3    H1 7584   4.901   0.744  -0.001  0.5130 -0.8541  0.5489
 2526TIP3    H2 7585   4.831   0.612  -0.026 -0.3151 -0.4589  0.7727
 2527TIP3   OH2 7586   2.076   3.190   0.782 -0.2522 -0.6563  0.7603
 2527TIP3    H1 7587   2.030   3.123   0.832 -4.3186 -0.5254 -2.3307
 2527TIP3    H2 7588   2.112   3.144   0.707 -0.1617  0.1333  0.3093
 2528TIP3   OH2 7589   2.491   3.411   1.928  0.2017  0.0697 -0.4912
 2528TIP3    H1 7590   2.405   3.440   1.899 -0.3940 -0.2602  0.8658
 2528TIP3    H2 7591   2.476   3.325   1.966  1.0594  0.1573  0.0804
 2529TIP3   OH2 7592   5.890   5.296   2.354  0.3266  0.4330  0.0506
 2529TIP3    H1 7593   5.952   5.334   2.417  2.6285 -2.1324 -0.4658
 2529TIP3    H2 7594   5.890   5.203   2.373 -2.2403  0.1245 -1.0593
 2530TIP3   OH2 7595   0.474   0.722   2.738 -0.0603 -0.4232  0.0379
 2530TIP3    H1 7596   0.515   0.635   2.730  0.6935  0.0435 -1.8520
 2530TIP3    H2 7597   0.546   0.784   2.723 -0.2671  0.6245  2.9201
 2531TIP3   OH2 7598   4.903   3.415   1.038 -0.4911  0.4910  0.2394
 2531TIP3    H1 7599   4.991   3.416   1.077 -0.0556 -1.9942 -0.5108
 2531TIP3    H2 7600   4.857   3.346   1.086 -1.2506  0.1467 -0.9626
 2532TIP3   OH2 7601   6.205   1.034   0.578 -0.6436  0.5646 -0.1526
 2532TIP3    H1 7602   6.120   1.004   0.545 -1.8514  2.7884  0.7284
 2532TIP3    H2 7603   6.212   0.994   0.664 -0.9584  0.6543 -0.0833
 2533TIP3   OH2 7604   6.132   2.223   0.420  0.1510 -0.2865 -0.2002
 2533TIP3    H1 7605   6.142   2.160   0.491  0.5817 -0.4721 -0.4250
 2533TIP3    H2 7606   6.066   2.285   0.452 -1.5362 -1.7850 -0.6202
 2534TIP3   OH2 7607   4.726   5.333   3.376 -0.1439 -0.0059  0.1384
 2534TIP3    H1 7608   4.811   5.362   3.411  0.7877 -0.5635 -1.5569
 2534TIP3    H2 7609   4.748   5.263   3.314 -1.9154 -0.6627  0.1961
 2535TIP3   OH2 7610   0.573   5.360   1.342 -0.0804 -0.6684 -0.3922
 2535TIP3    H1 7611   0.492   5.383   1.388 -0.2796 -0.7517 -0.6979
 2535TIP3    H2 7612   0.548   5.357   1.250  0.4942  0.3061 -0.6013
 2536TIP3   OH2 7613   0.127   2.417   2.492  0.1468 -0.1222  0.3529
 2536TIP3    H1 7614   0.175   2.478   2.435 -0.7039  0.2537  0.0298
 2536TIP3    H2 7615   0.195   2.359   2.527  0.8726  0.5673  0.1127
 2537TIP3   OH2 7616   3.239   2.102   3.422  0.3119 -0.4135 -0.0882
 2537TIP3    H1 7617   3.152   2.134   3.396  0.5372  0.7113  0.4779
 2537TIP3    H2 7618   3.239   2.108   3.517  1.0688 -0.2491 -0.0935
 2538TIP3   OH2 7619   3.996   3.033   2.653 -0.4439  0.5232 -0.3724
 2538TIP3    H1 7620   4.002   2.984   2.736  0.0339 -0.2571 -0.8520
 2538TIP3    H2 7621   3.913   3.079   2.659 -0.2758  0.7190  0.6748
 2539TIP3   OH2 7622   2.237   2.559   1.679 -1.0465  1.0123 -0.1629
 2539TIP3    H1 7623   2.201   2.648   1.686 -0.4183  1.2435  0.2852
 2539TIP3    H2 7624   2.215   2.518   1.762 -0.1165  1.2288  0.2058
 2540TIP3   OH2 7625   2.313   5.542   0.428  0.7054 -0.0206 -0.9847
 2540TIP3    H1 7626   2.308   5.611   0.494 -1.2732 -1.9358  1.0236
 2540TIP3    H2 7627   2.236   5.556   0.373  0.3634 -0.5137 -0.6440
 2541TIP3   OH2 7628   6.216   2.638   0.931 -0.1734 -0.2256 -0.5361
 2541TIP3    H1 7629   6.243   2.597   1.013 -0.0859  0.2080 -0.3461
 2541TIP3    H2 7630   6.150   2.702   0.956 -1.3301 -1.2130 -0.9859
 2542TIP3   OH2 7631   4.162   5.561   4.941 -0.4092 -0.2317 -0.1764
 2542TIP3    H1 7632   4.117   5.515   4.870 -0.1285  1.2812 -1.4122
 2542TIP3    H2 7633   4.245   5.589   4.902  0.0453  0.0465  0.9701
 2543TIP3   OH2 7634   3.840   4.528   3.104  0.1349  0.2136 -0.7973
 2543TIP3    H1 7635   3.814   4.438   3.085  1.3764 -0.3677  0.1160
 2543TIP3    H2 7636   3.831   4.574   3.021  0.6853 -1.0574 -1.5804
 2544TIP3   OH2 7637   0.058   0.290   0.657  0.2661 -0.0260 -0.2246
 2544TIP3    H1 7638   0.138   0.296   0.605  1.0417 -0.8911  0.8210
 2544TIP3    H2 7639   0.088   0.296   0.747 -0.9043  0.0525  0.1681
 2545TIP3   OH2 7640   4.794   2.352   0.083  0.1212 -0.2757 -0.1124
 2545TIP3    H1 7641   4.812   2.312  -0.002  0.1121  1.5938 -1.0559
 2545TIP3    H2 7642   4.803   2.446   0.067 -1.1058  0.1926  1.6660
 2546TIP3   OH2 7643   0.077   5.457   3.726 -0.3364 -0.3709  1.2288
 2546TIP3    H1 7644   0.164   5.452   3.685 -0.2036  0.2837  1.4214
 2546TIP3    H2 7645   0.026   5.390   3.682 -0.3737  0.6982 -0.4338
 2547TIP3   OH2 7646   1.145   1.020   1.716  0.5189 -0.1573  0.4596
 2547TIP3    H1 7647   1.164   1.063   1.632 -0.3397  0.8102  0.7349
 2547TIP3    H2 7648   1.094   0.943   1.693 -1.5102  1.2049  0.1809
 2548TIP3   OH2 7649   0.853   4.699   4.175 -0.0599  0.2423  0.1221
 2548TIP3    H1 7650   0.922   4.734   4.118  0.7703  1.0212  1.5432
 2548TIP3    H2 7651   0.774   4.745   4.147 -0.4409 -1.8501 -2.6375
 2549TIP3   OH2 7652   6.231   2.906   4.327  0.1917  0.0836 -0.2948
 2549TIP3    H1 7653   6.320   2.871   4.329  1.1313  2.3222 -0.0282
 2549TIP3    H2 7654   6.206   2.903   4.235 -0.2707 -2.3064 -0.1622
 2550TIP3   OH2 7655   0.054   0.659   2.402 -0.1620  0.2909  0.0688
 2550TIP3    H1 7656   0.064   0.598   2.328 -2.1423  0.3161 -0.2944
 2550TIP3    H2 7657   0.139   0.659   2.445  0.3931 -1.4486 -0.9145
 2551TIP3   OH2 7658   6.299   4.194   3.881 -0.6225  0.7492 -0.2477
 2551TIP3    H1 7659   6.375   4.238   3.845 -0.5199  0.3208 -0.5605
 2551TIP3    H2 7660   6.320   4.101   3.877 -0.8301  0.6622  0.4144
 2552TIP3   OH2 7661   2.650   0.822   4.903  0.1075  0.1804 -0.6326
 2552TIP3    H1 7662   2.683   0.819   4.993 -1.2856  2.6878  0.0562
 2552TIP3    H2 7663   2.606   0.738   4.891  1.6554 -0.8524  0.4226
 2553TIP3   OH2 7664   1.664   2.479   5.114  0.0293 -0.0509  0.2816
 2553TIP3    H1 7665   1.753   2.493   5.146 -0.4015 -0.7151  1.8683
 2553TIP3    H2 7666   1.667   2.506   5.022  1.9804 -0.5341  0.1647
 2554TIP3   OH2 7667   2.961   5.903   2.386 -0.1981  0.0180  0.0910
 2554TIP3    H1 7668   2.949   5.916   2.292  0.9031 -0.4196 -0.1224
 2554TIP3    H2 7669   2.949   5.809   2.399  0.7167 -0.0856  0.2168
 2555TIP3   OH2 7670   2.738   0.310   2.369  0.2405 -0.1794  0.4420
 2555TIP3    H1 7671   2.700   0.394   2.393 -0.0410 -0.2248  0.1608
 2555TIP3    H2 7672   2.730   0.306   2.274 -2.3528 -1.7408  0.6435
 2556TIP3   OH2 7673   5.604   2.283   0.390  0.6422 -0.4325  0.3497
 2556TIP3    H1 7674   5.677   2.221   0.385  1.4776  0.4311  1.1657
 2556TIP3    H2 7675   5.644   2.367   0.366 -0.2565 -0.0597  0.1395
 2557TIP3   OH2 7676   5.114   2.175   2.296  0.3665 -0.1373 -0.6304
 2557TIP3    H1 7677   5.107   2.105   2.361  1.6513 -0.5003 -0.8473
 2557TIP3    H2 7678   5.120   2.130   2.212 -0.5141  0.3018 -0.9333
 2558TIP3   OH2 7679   2.982   5.038   2.239 -0.6406  0.2038  0.3236
 2558TIP3    H1 7680   2.958   5.125   2.272 -0.4060  0.5013 -0.2833
 2558TIP3    H2 7681   2.908   4.982   2.265 -1.0025  0.6739  0.3289
 2559TIP3   OH2 7682   6.186   4.824   3.731  0.1104  0.0097  0.0507
 2559TIP3    H1 7683   6.145   4.764   3.668  1.5878  0.3095 -1.2628
 2559TIP3    H2 7684   6.249   4.770   3.778  0.7795  0.3211 -0.4806
 2560TIP3   OH2 7685   2.771   4.529   1.548  0.8715  0.5972 -0.0343
 2560TIP3    H1 7686   2.760   4.514   1.454  0.9958 -1.2014  0.2142
 2560TIP3    H2 7687   2.845   4.474   1.574 -0.5226 -0.6685  1.5017
 2561TIP3   OH2 7688   5.949   5.754   0.465  0.1669 -0.2371  0.4008
 2561TIP3    H1 7689   5.973   5.844   0.490  2.3012 -0.1890 -1.4335
 2561TIP3    H2 7690   6.019   5.700   0.502 -1.3207 -1.2332  1.8351
 2562TIP3   OH2 7691   0.227   2.476   1.892 -0.0665 -0.3088 -0.0417
 2562TIP3    H1 7692   0.321   2.489   1.908 -0.1061  0.5228 -0.4158
 2562TIP3    H2 7693   0.194   2.442   1.975  0.1503  1.7022  0.9465
 2563TIP3   OH2 7694   3.177   3.754   3.820 -0.0540  0.0164  0.2487
 2563TIP3    H1 7695   3.112   3.811   3.781  0.4515  0.7284  0.4334
 2563TIP3    H2 7696   3.159   3.756   3.913 -0.9614 -1.3099  0.1309
 2564TIP3   OH2 7697   0.015   4.108   1.013  0.1110  0.0726 -0.2594
 2564TIP3    H1 7698  -0.032   4.027   1.031 -1.9538  1.0588 -0.8059
 2564TIP3    H2 7699   0.100   4.081   0.979 -0.3565 -1.8213 -0.0134
 2565TIP3   OH2 7700   0.980   3.902   1.719 -0.5711 -0.3582 -0.0621
 2565TIP3    H1 7701   0.888   3.888   1.697 -1.6884  1.4004  2.8645
 2565TIP3    H2 7702   0.996   3.842   1.791 -0.0888  0.7978  0.8152
 2566TIP3   OH2 7703   4.500   0.237   2.194 -0.4318  0.4072 -0.1743
 2566TIP3    H1 7704   4.586   0.194   2.189 -1.9620 -3.2932  1.5368
 2566TIP3    H2 7705   4.519   0.330   2.182  3.6963 -0.2805 -0.4972
 2567TIP3   OH2 7706   6.021   4.370   4.793  0.4936  0.3694  0.0162
 2567TIP3    H1 7707   6.026   4.278   4.768 -1.3017  0.5021 -0.9747
 2567TIP3    H2 7708   5.960   4.371   4.867 -0.8049  0.9051 -1.0228
 2568TIP3   OH2 7709   0.386   5.338   2.314  0.0120  0.3158  0.1590
 2568TIP3    H1 7710   0.339   5.361   2.394  0.4703  1.0165  0.2345
 2568TIP3    H2 7711   0.444   5.413   2.298  1.2708 -0.6180  0.2062
 2569TIP3   OH2 7712   3.179   3.952   3.516  0.2848  0.4735 -0.0637
 2569TIP3    H1 7713   3.249   4.017   3.516 -0.8069  1.7038  0.9405
 2569TIP3    H2 7714   3.131   3.969   3.597 -1.2704 -0.2304 -0.8015
 2570TIP3   OH2 7715   3.290   2.115   3.928 -0.3893 -0.0434  0.3743
 2570TIP3    H1 7716   3.209   2.125   3.979  1.2562  1.1787  2.9711
 2570TIP3    H2 7717   3.338   2.046   3.972  0.5006  0.0388 -0.4318
 2571TIP3   OH2 7718   4.716   3.002   1.119 -0.3175 -0.0454 -0.8418
 2571TIP3    H1 7719   4.633   3.047   1.103  0.2492  0.6708 -1.8794
 2571TIP3    H2 7720   4.722   2.996   1.214 -1.9106 -0.7906 -0.7427
 2572TIP3   OH2 7721   4.523   1.092   3.474 -0.4633  0.0135 -0.1409
 2572TIP3    H1 7722   4.472   1.017   3.441 -1.5427  1.5940 -2.2735
 2572TIP3    H2 7723   4.502   1.095   3.567 -2.3256 -0.8969 -0.4772
 2573TIP3   OH2 7724   5.261   0.607   1.090  0.0090 -0.8600  0.1348
 2573TIP3    H1 7725   5.267   0.635   1.181 -1.9217  2.0542 -0.5052
 2573TIP3    H2 7726   5.294   0.681   1.040  0.4495 -2.1723 -1.6023
 2574TIP3   OH2 7727   1.743   0.735   1.440  0.0644 -0.4623  0.5814
 2574TIP3    H1 7728   1.831   0.760   1.469  1.2762 -2.0305 -1.5265
 2574TIP3    H2 7729   1.721   0.658   1.491  0.2624 -0.5654  0.5077
 2575TIP3   OH2 7730   4.864   0.835   2.048 -0.2758  0.1916 -0.1129
 2575TIP3    H1 7731   4.816   0.881   2.117 -0.8211  2.1949 -1.7449
 2575TIP3    H2 7732   4.803   0.768   2.016  0.0558 -0.8987  1.3987
 2576TIP3   OH2 7733   6.025   4.864   4.942  0.2491 -0.1385  0.0919
 2576TIP3    H1 7734   6.023   4.957   4.965  1.2519 -0.3040  0.9689
 2576TIP3    H2 7735   6.114   4.836   4.966  0.3772 -1.0388 -1.3332
 2577TIP3   OH2 7736   6.268   1.716   1.162 -0.4099 -0.9241 -0.1653
 2577TIP3    H1 7737   6.184   1.752   1.191 -0.1053  0.4345 -0.8869
 2577TIP3    H2 7738   6.323   1.719   1.240 -0.9725 -1.6610  0.2675
 2578TIP3   OH2 7739   1.229   1.290   3.213 -0.4262 -0.1908 -0.0278
 2578TIP3    H1 7740   1.313   1.263   3.251  0.2564  0.8541 -0.7351
 2578TIP3    H2 7741   1.242   1.382   3.190 -2.1061  0.2813  0.7468
 2579TIP3   OH2 7742   0.570   0.042   3.172  0.6384  0.4177 -0.5022
 2579TIP3    H1 7743   0.598   0.117   3.225 -1.3784 -0.1884  1.5683
 2579TIP3    H2 7744   0.606  -0.034   3.217 -1.5621 -0.1428  0.4605
 2580TIP3   OH2 7745   3.118   4.576   2.814 -0.5144  0.1540 -0.5760
 2580TIP3    H1 7746   3.203   4.616   2.795 -0.7112  0.9740  0.2069
 2580TIP3    H2 7747   3.138   4.485   2.835  0.0434  0.0551 -1.4880
 2581TIP3   OH2 7748   0.686   2.273   0.776 -0.2895 -0.6024 -0.3127
 2581TIP3    H1 7749   0.625   2.334   0.817  0.7540  0.6273 -0.5210
 2581TIP3    H2 7750   0.730   2.324   0.708  1.5711 -1.1742  0.3872
 2582TIP3   OH2 7751   1.456   1.192   1.776 -0.1264  0.0258 -0.8351
 2582TIP3    H1 7752   1.464   1.248   1.699  1.9212  0.3152 -0.4782
 2582TIP3    H2 7753   1.377   1.223   1.820 -0.8124  0.4791 -2.3115
 2583TIP3   OH2 7754   4.889   2.264   3.048  0.1196  0.4863  0.0220
 2583TIP3    H1 7755   4.806   2.311   3.044  0.2740  0.6951 -0.9870
 2583TIP3    H2 7756   4.955   2.332   3.065  0.3636  0.6884 -1.6073
 2584TIP3   OH2 7757   5.193   1.942   0.899 -0.1910  0.4649  0.3784
 2584TIP3    H1 7758   5.154   1.858   0.875 -0.6360  0.6275  0.5348
 2584TIP3    H2 7759   5.200   1.989   0.816  2.2192 -0.5910 -0.1275
 2585TIP3   OH2 7760   2.839   2.923   2.302  0.1920  0.0342 -0.6369
 2585TIP3    H1 7761   2.902   2.982   2.344 -1.4333 -0.1225  2.2890
 2585TIP3    H2 7762   2.892   2.850   2.271  1.5905  0.3867  0.7690
 2586TIP3   OH2 7763   5.203   2.491   1.777  0.4555  0.5754 -0.2378
 2586TIP3    H1 7764   5.197   2.513   1.870  1.8705 -0.0347  0.0228
 2586TIP3    H2 7765   5.220   2.575   1.734 -1.3107  1.0408 -0.1095
 2587TIP3   OH2 7766   4.007   0.903   0.863  0.3449 -1.4531 -0.0741
 2587TIP3    H1 7767   4.053   0.954   0.930 -0.4689 -1.9842  0.9253
 2587TIP3    H2 7768   3.927   0.953   0.846 -0.3125 -2.2033  0.6937
 2588TIP3   OH2 7769   5.020   3.460   1.895 -0.1876  0.1349  0.1018
 2588TIP3    H1 7770   4.986   3.425   1.978 -2.7551  0.0540 -0.8813
 2588TIP3    H2 7771   5.061   3.385   1.852  0.2370 -0.0661  0.8392
 2589TIP3   OH2 7772   5.810   5.759   5.045  0.2263  0.1643 -0.3204
 2589TIP3    H1 7773   5.867   5.689   5.011 -1.8003 -2.0115  0.4329
 2589TIP3    H2 7774   5.796   5.735   5.136 -3.6165 -0.8123 -0.9734
 2590TIP3   OH2 7775   2.353   0.972   1.745 -0.4651  0.0823 -0.3795
 2590TIP3    H1 7776   2.336   0.880   1.764 -2.4474  0.4384 -0.2015
 2590TIP3    H2 7777   2.446   0.975   1.725 -0.2400 -1.8664  0.1230
 2591TIP3   OH2 7778   4.656   0.995   1.077 -0.0344  0.6382 -0.1263
 2591TIP3    H1 7779   4.625   0.912   1.114  1.3231  0.2966  0.2919
 2591TIP3    H2 7780   4.668   0.977   0.984  1.3218  0.0150  0.1510
 2592TIP3   OH2 7781   5.061   5.052   1.019  0.9382 -0.1904 -0.2109
 2592TIP3    H1 7782   5.031   4.961   1.026 -0.7016  0.3364 -0.0061
 2592TIP3    H2 7783   5.053   5.072   0.926  2.2792 -0.5346 -0.4314
 2593TIP3   OH2 7784   5.087   1.096   4.717 -1.1721  0.4088 -1.1409
 2593TIP3    H1 7785   5.081   1.041   4.639  0.9664 -1.3699 -0.2058
 2593TIP3    H2 7786   5.175   1.077   4.752 -1.1615  2.8863  0.4335
 2594TIP3   OH2 7787   0.799   3.368   0.674 -0.4002 -0.2809  0.3522
 2594TIP3    H1 7788   0.885   3.373   0.717 -0.6083  1.8427  0.6270
 2594TIP3    H2 7789   0.771   3.459   0.667 -2.2649 -0.8854 -0.5137
 2595TIP3   OH2 7790   2.032   5.551   5.121  0.2022 -0.4361  0.7996
 2595TIP3    H1 7791   1.961   5.611   5.098 -0.7342 -1.5817  0.6534
 2595TIP3    H2 7792   2.111   5.595   5.089 -0.5602  0.2806 -0.1632
 2596TIP3   OH2 7793   4.361   1.612   2.978 -0.1617  0.0542 -0.2663
 2596TIP3    H1 7794   4.456   1.621   2.969  0.1350 -1.8573  0.5316
 2596TIP3    H2 7795   4.327   1.633   2.890  1.2211 -1.5355 -1.2461
 2597TIP3   OH2 7796   2.503   3.100   2.906 -0.4362 -0.0491  0.4094
 2597TIP3    H1 7797   2.513   3.144   2.822 -0.7677 -1.4956 -0.4266
 2597TIP3    H2 7798   2.468   3.167   2.964 -1.6623  0.5890 -0.9971
 2598TIP3   OH2 7799   6.271   5.032   4.423 -0.1453  0.3902  0.8821
 2598TIP3    H1 7800   6.235   5.118   4.400 -0.7940 -0.2705 -0.7017
 2598TIP3    H2 7801   6.351   5.053   4.472  0.3209  1.9103 -0.4348
 2599TIP3   OH2 7802   6.101   5.761   0.967  0.2952  0.2836 -0.1938
 2599TIP3    H1 7803   6.019   5.757   1.015  0.8764  4.6299  1.6071
 2599TIP3    H2 7804   6.157   5.695   1.009 -1.1684 -0.3884  0.7897
 2600TIP3   OH2 7805   5.140   1.471   2.546 -0.6282  0.3923  0.2377
 2600TIP3    H1 7806   5.173   1.429   2.467 -0.1266 -0.4731  0.8988
 2600TIP3    H2 7807   5.069   1.528   2.515  0.3531  0.9824 -0.9771
 2601TIP3   OH2 7808   0.543   0.285   2.453 -0.1330 -0.2713 -0.1968
 2601TIP3    H1 7809   0.543   0.223   2.527  0.2972 -1.2646 -1.0053
 2601TIP3    H2 7810   0.612   0.253   2.395 -0.4206  0.5352 -1.0059
 2602TIP3   OH2 7811   4.212   4.796   0.433 -0.3952 -0.0233 -0.0555
 2602TIP3    H1 7812   4.172   4.826   0.515 -0.3091 -1.6679  0.6169
 2602TIP3    H2 7813   4.287   4.744   0.460  2.2545  2.8059 -1.2757
 2603TIP3   OH2 7814   1.168   0.653   4.410 -0.4639  0.8312 -0.1641
 2603TIP3    H1 7815   1.092   0.656   4.351 -1.1310 -0.1082  0.6161
 2603TIP3    H2 7816   1.178   0.560   4.431  2.5743  0.5144 -2.3419
 2604TIP3   OH2 7817   5.765   0.684   0.222 -0.5544  0.7395 -0.1482
 2604TIP3    H1 7818   5.778   0.778   0.213 -0.6389  0.7932  0.2528
 2604TIP3    H2 7819   5.718   0.674   0.305 -1.1444  0.3936 -0.5119
 2605TIP3   OH2 7820   3.663   5.882   2.701  0.1665  0.0898  0.2924
 2605TIP3    H1 7821   3.596   5.950   2.692 -1.0345 -1.0421  0.4370
 2605TIP3    H2 7822   3.744   5.931   2.714 -0.0386  1.6217 -3.0278
 2606TIP3   OH2 7823   5.391   1.392   1.165  0.1130 -0.0613 -0.2312
 2606TIP3    H1 7824   5.404   1.487   1.156  0.4050 -0.1808 -1.1159
 2606TIP3    H2 7825   5.309   1.374   1.119 -1.5931  0.1748  2.4697
 2607TIP3   OH2 7826   3.500   4.451   0.848 -0.0571  0.3523 -0.2410
 2607TIP3    H1 7827   3.550   4.508   0.789 -0.4221  1.8086  0.7986
 2607TIP3    H2 7828   3.424   4.503   0.872 -1.2236 -1.1973 -0.4655
 2608TIP3   OH2 7829   2.032   2.033   2.627 -0.3813 -0.0014  0.3622
 2608TIP3    H1 7830   2.104   2.088   2.657 -0.3763  0.9838 -1.3168
 2608TIP3    H2 7831   2.012   1.976   2.701  2.8205 -1.0679  0.5527
 2609TIP3   OH2 7832   5.864   0.664   2.278 -0.5568  0.1329 -0.9620
 2609TIP3    H1 7833   5.956   0.642   2.261 -0.5241 -0.3526 -0.1719
 2609TIP3    H2 7834   5.852   0.651   2.372 -2.1315 -2.5073 -1.4150
 2610TIP3   OH2 7835   1.964   5.410   4.348  0.5408  0.2550 -0.1144
 2610TIP3    H1 7836   1.983   5.339   4.408  2.0933 -0.3337 -1.2291
 2610TIP3    H2 7837   2.014   5.389   4.269  0.7954  2.4034 -0.5999
 2611TIP3   OH2 7838   1.660   0.899   3.397  0.0868  0.0738  0.5760
 2611TIP3    H1 7839   1.695   0.960   3.332 -0.8859  1.1614  1.0318
 2611TIP3    H2 7840   1.737   0.859   3.437  0.7661  1.4538  0.6835
 2612TIP3   OH2 7841   3.350   4.395   3.085 -0.2955  0.4098 -0.5890
 2612TIP3    H1 7842   3.282   4.429   3.144  0.2228  0.5543 -0.0695
 2612TIP3    H2 7843   3.429   4.443   3.109  0.5361 -1.3472  0.3655
 2613TIP3   OH2 7844   0.953   2.250   4.892 -0.1252  0.1645 -0.1691
 2613TIP3    H1 7845   0.971   2.205   4.810 -0.4076  0.7955 -0.5861
 2613TIP3    H2 7846   0.880   2.308   4.873 -0.4197  0.0744  0.6225
 2614TIP3   OH2 7847   1.354   4.782   3.494 -0.1797 -0.0580  0.3789
 2614TIP3    H1 7848   1.352   4.752   3.585  0.4361 -2.2863 -0.2617
 2614TIP3    H2 7849   1.439   4.823   3.484 -0.3202  0.3520  0.8524
 2615TIP3   OH2 7850   5.121   0.907   2.475 -0.1748 -0.3093 -0.4242
 2615TIP3    H1 7851   5.054   0.920   2.409 -0.2066  0.6825 -0.2031
 2615TIP3    H2 7852   5.153   0.818   2.459  0.0735  0.0450 -1.9955
 2616TIP3   OH2 7853   3.197   3.376   1.637  0.3117  0.2378 -0.2966
 2616TIP3    H1 7854   3.176   3.351   1.727  0.6503 -2.6800 -0.9311
 2616TIP3    H2 7855   3.112   3.375   1.592  0.3838 -0.2414 -0.4230
 2617TIP3   OH2 7856   1.162   3.280   2.503  0.2387 -0.0797 -0.7794
 2617TIP3    H1 7857   1.088   3.274   2.563  0.7666  0.6977 -0.0163
 2617TIP3    H2 7858   1.238   3.295   2.560  0.7069  1.0204 -1.6464
 2618TIP3   OH2 7859   6.088   3.651   3.575  0.0722  0.2920 -0.1972
 2618TIP3    H1 7860   6.107   3.712   3.646  0.7381  0.6168 -0.6450
 2618TIP3    H2 7861   6.125   3.568   3.604  1.1776  0.6409 -0.5473
 2619TIP3   OH2 7862   0.434   2.896   3.954  0.3410  0.6866 -0.2563
 2619TIP3    H1 7863   0.462   2.805   3.946 -1.0588  0.2149 -0.0756
 2619TIP3    H2 7864   0.505   2.939   4.000  1.8919  0.1293 -2.0235
 2620TIP3   OH2 7865   4.371   0.995   1.003 -0.5097  0.4047  0.4962
 2620TIP3    H1 7866   4.316   0.978   1.080 -0.3473  0.6349  0.6633
 2620TIP3    H2 7867   4.460   1.001   1.038 -0.6284  2.4206  0.5930
 2621TIP3   OH2 7868   2.745   1.541   0.986  0.2238  0.4274 -0.9619
 2621TIP3    H1 7869   2.815   1.510   0.928 -0.4276 -0.7798 -1.1399
 2621TIP3    H2 7870   2.761   1.635   0.995  0.3860  0.6622 -3.0563
 2622TIP3   OH2 7871   1.066   2.900   3.748  0.1324 -0.2458 -0.2904
 2622TIP3    H1 7872   0.978   2.870   3.726 -0.2181  0.4586  0.1022
 2622TIP3    H2 7873   1.117   2.886   3.668 -0.0911 -1.5347 -0.2185
 2623TIP3   OH2 7874   5.938   2.660   4.585  0.2732  0.2667 -0.1960
 2623TIP3    H1 7875   5.865   2.694   4.637 -0.9995  0.5387 -2.0400
 2623TIP3    H2 7876   5.988   2.737   4.561 -0.0378  0.3290 -0.6540
 2624TIP3   OH2 7877   0.570   4.826   0.617  0.2948  0.2572 -0.1247
 2624TIP3    H1 7878   0.590   4.798   0.527 -0.8188 -1.5355  0.1424
 2624TIP3    H2 7879   0.477   4.850   0.614  0.1722 -0.1223  0.6268
 2625TIP3   OH2 7880   3.743   3.063   0.896 -0.0549  0.4945  0.5185
 2625TIP3    H1 7881   3.715   2.972   0.886  0.7050  0.4517 -2.1499
 2625TIP3    H2 7882   3.825   3.057   0.944 -0.6477 -0.0920  1.4917
 2626TIP3   OH2 7883   4.755   0.847   1.599 -0.0944  0.5378 -0.4290
 2626TIP3    H1 7884   4.842   0.809   1.609  0.1004  1.3252  1.0520
 2626TIP3    H2 7885   4.696   0.772   1.606  0.2932  0.3910  2.2957
 2627TIP3   OH2 7886   0.552   3.077   4.959  0.0510 -0.1656 -0.3098
 2627TIP3    H1 7887   0.518   3.038   5.039  0.7693 -0.3159 -0.0711
 2627TIP3    H2 7888   0.640   3.040   4.949 -0.2227 -0.5563 -1.4583
 2628TIP3   OH2 7889   4.742   0.576   3.142  0.4464  0.4036 -0.0458
 2628TIP3    H1 7890   4.818   0.629   3.116  1.0531 -0.9943 -1.2862
 2628TIP3    H2 7891   4.745   0.575   3.237  2.6903 -0.5080 -0.0555
 2629TIP3   OH2 7892   3.833   2.605   3.376  0.6101 -0.4691  0.3235
 2629TIP3    H1 7893   3.861   2.640   3.461  2.5683 -0.0044 -0.4534
 2629TIP3    H2 7894   3.811   2.513   3.394  0.0811 -0.1343  1.4826
 2630TIP3   OH2 7895   2.336   1.255   4.812  0.3325 -0.9880  0.1074
 2630TIP3    H1 7896   2.386   1.331   4.783  0.6001 -1.0194  0.4766
 2630TIP3    H2 7897   2.402   1.191   4.837  0.1180 -1.8102 -1.3626
 2631TIP3   OH2 7898   4.155   5.396   2.921  0.2755  0.0230 -0.2893
 2631TIP3    H1 7899   4.216   5.354   2.982  0.7138 -1.3175 -1.5778
 2631TIP3    H2 7900   4.204   5.401   2.839 -0.7640  0.5153 -0.8958
 2632TIP3   OH2 7901   2.351   5.263   3.139 -0.1200 -0.2916  0.0837
 2632TIP3    H1 7902   2.390   5.337   3.092 -0.4100 -0.0525  0.2125
 2632TIP3    H2 7903   2.405   5.188   3.115 -0.4419 -0.2350 -0.8651
 2633TIP3   OH2 7904   1.451   2.710   4.989 -0.2491  0.5887  0.6392
 2633TIP3    H1 7905   1.413   2.756   4.914 -0.1035 -0.9535 -0.4220
 2633TIP3    H2 7906   1.545   2.730   4.984 -0.2557  0.5793  0.4931
 2634TIP3   OH2 7907   5.137   1.639   3.416  0.3540 -0.3307  0.2241
 2634TIP3    H1 7908   5.065   1.700   3.399  1.6092  0.6921 -1.6551
 2634TIP3    H2 7909   5.092   1.555   3.432 -1.2959  0.5439  0.4726
 2635TIP3   OH2 7910   6.086   2.170   0.156  0.2230 -0.3395  0.1244
 2635TIP3    H1 7911   6.165   2.198   0.109  0.8465 -0.9167  0.8089
 2635TIP3    H2 7912   6.105   2.189   0.248 -0.4996 -0.3468  0.2779
 2636TIP3   OH2 7913   5.708   4.589   4.731 -0.6825  0.5659 -0.9037
 2636TIP3    H1 7914   5.623   4.621   4.760 -1.1115 -1.0442 -0.2566
 2636TIP3    H2 7915   5.700   4.579   4.636 -0.8817  1.3261 -0.9704
 2637TIP3   OH2 7916   1.578   3.861   4.694  0.1726 -0.7619 -0.6554
 2637TIP3    H1 7917   1.613   3.854   4.605  0.0786 -0.4263 -0.7205
 2637TIP3    H2 7918   1.563   3.771   4.721  0.0226 -0.8604 -1.0575
 2638TIP3   OH2 7919   4.736   1.610   4.263 -0.3364 -0.3307 -0.4788
 2638TIP3    H1 7920   4.709   1.619   4.355 -5.3396 -2.0786 -1.4279
 2638TIP3    H2 7921   4.804   1.543   4.265  0.0360  0.0211  1.9494
 2639TIP3   OH2 7922   1.655   5.231   4.152  0.4097  0.0416  0.0491
 2639TIP3    H1 7923   1.690   5.316   4.126  0.2337  0.5875  1.4887
 2639TIP3    H2 7924   1.730   5.184   4.189 -0.3252  1.5468  3.9695
 2640TIP3   OH2 7925   1.879   3.401   4.771  0.3323 -0.0878 -0.5667
 2640TIP3    H1 7926   1.787   3.394   4.797  0.5094  0.9398  0.4125
 2640TIP3    H2 7927   1.918   3.317   4.795 -0.4539 -0.7455 -1.5116
 2641TIP3   OH2 7928   2.296   4.924   1.123  0.1453  0.4980  0.1427
 2641TIP3    H1 7929   2.274   4.854   1.063 -1.4048 -0.9591  2.2551
 2641TIP3    H2 7930   2.387   4.946   1.102  0.3167 -1.3497 -1.3295
 2642TIP3   OH2 7931   5.725   5.435   2.777  0.1513  0.3477  0.2570
 2642TIP3    H1 7932   5.723   5.343   2.752  1.2463  0.4395 -0.2143
 2642TIP3    H2 7933   5.668   5.479   2.714  0.6290  0.1692 -0.3021
 2643TIP3   OH2 7934   6.339   3.214   1.128 -0.1659 -0.5448 -0.2104
 2643TIP3    H1 7935   6.282   3.291   1.120  0.9119  0.2168 -0.9057
 2643TIP3    H2 7936   6.318   3.177   1.213 -1.1987  0.1186 -0.1612
 2644TIP3   OH2 7937   1.315   4.604   2.358 -0.3834 -0.9061  0.1754
 2644TIP3    H1 7938   1.379   4.661   2.316 -0.9726 -1.6722 -1.8668
 2644TIP3    H2 7939   1.327   4.620   2.452  1.0987  0.7634 -0.2402
 2645TIP3   OH2 7940   4.977   1.323   4.686  0.0700  0.0256  0.6393
 2645TIP3    H1 7941   4.924   1.317   4.765  1.4473  1.1216  1.7113
 2645TIP3    H2 7942   5.014   1.235   4.675 -1.3745 -0.5638  0.2585
 2646TIP3   OH2 7943   4.318   4.504   4.423 -0.5528 -0.3481  0.0806
 2646TIP3    H1 7944   4.309   4.531   4.332 -0.3100 -2.4237 -0.6042
 2646TIP3    H2 7945   4.228   4.492   4.453 -0.6159 -0.9647 -0.3282
 2647TIP3   OH2 7946   1.955   0.945   4.492 -0.2157  0.6994  1.1770
 2647TIP3    H1 7947   1.995   1.023   4.455 -0.9292  1.0775  1.1913
 2647TIP3    H2 7948   1.960   0.958   4.587  0.7803  0.1508  1.2172
 2648TIP3   OH2 7949   0.105   4.534   0.118 -0.6772  0.8620 -0.0003
 2648TIP3    H1 7950   0.024   4.584   0.106 -1.7509 -0.9556 -0.6832
 2648TIP3    H2 7951   0.108   4.515   0.212 -1.6017  0.0626 -0.1222
 2649TIP3   OH2 7952   4.232   4.974   1.348  0.3260 -0.0967 -0.2055
 2649TIP3    H1 7953   4.317   4.953   1.308  0.1178  0.2505 -0.8507
 2649TIP3    H2 7954   4.240   5.066   1.374  0.2387 -0.1390 -0.0281
 2650TIP3   OH2 7955   0.485   1.422   0.856  0.1021 -0.2016 -0.3989
 2650TIP3    H1 7956   0.405   1.376   0.881 -0.2247 -0.2161 -1.4138
 2650TIP3    H2 7957   0.538   1.424   0.935 -1.2447  0.5414  0.5283
 2651TIP3   OH2 7958   2.857   2.159   4.460  0.1117  0.4502  0.2277
 2651TIP3    H1 7959   2.767   2.127   4.459  0.6012 -0.9998  0.0554
 2651TIP3    H2 7960   2.850   2.252   4.439 -1.2080 -0.0922 -2.1461
 2652TIP3   OH2 7961   3.641   1.496   4.441  0.2737  0.6773  0.1147
 2652TIP3    H1 7962   3.693   1.440   4.383  1.9273  1.6891  0.5224
 2652TIP3    H2 7963   3.699   1.514   4.515 -0.9184  1.3527  0.9249
 2653TIP3   OH2 7964   5.750   1.533   3.506 -0.5833 -0.1346  0.1422
 2653TIP3    H1 7965   5.808   1.609   3.500 -1.1752  0.2494 -1.1164
 2653TIP3    H2 7966   5.802   1.460   3.472 -0.8394  0.2342 -1.1095
 2654TIP3   OH2 7967   4.976   0.323   0.527 -0.2036  0.1196  0.1946
 2654TIP3    H1 7968   4.929   0.368   0.457  0.2966  2.2780  1.1654
 2654TIP3    H2 7969   5.065   0.312   0.494 -0.5476 -1.0331 -0.3935
 2655TIP3   OH2 7970   0.310   4.876   1.235 -0.3302  0.4274 -0.3337
 2655TIP3    H1 7971   0.285   4.846   1.323  1.5477 -0.7624 -0.1564
 2655TIP3    H2 7972   0.405   4.884   1.239 -0.3496  1.9913 -1.8058
 2656TIP3   OH2 7973   5.242   4.550   3.435  0.0031 -0.1765 -0.6124
 2656TIP3    H1 7974   5.190   4.583   3.361  0.5529  1.2074 -0.4032
 2656TIP3    H2 7975   5.324   4.599   3.431 -0.4941  0.9858  1.7480
 2657TIP3   OH2 7976   4.222   5.288   3.882  0.0935  0.5845 -0.6013
 2657TIP3    H1 7977   4.141   5.247   3.851 -0.3244  0.8818  0.0740
 2657TIP3    H2 7978   4.268   5.219   3.928 -0.3070  0.6897 -0.0259
 2658TIP3   OH2 7979   2.702   0.336   0.822 -0.3083 -0.0921  0.2792
 2658TIP3    H1 7980   2.655   0.362   0.902  2.5584 -0.0036  2.0720
 2658TIP3    H2 7981   2.773   0.399   0.814  0.1712 -0.8156 -1.7308
 2659TIP3   OH2 7982   0.618   4.019   3.634  0.4185  0.3880 -0.1023
 2659TIP3    H1 7983   0.540   4.034   3.688  0.4587  1.0664 -0.2249
 2659TIP3    H2 7984   0.586   4.024   3.544  0.4564 -0.1679 -0.1491
 2660TIP3   OH2 7985   4.901   2.087   3.250  0.0432 -0.1014 -0.3768
 2660TIP3    H1 7986   4.914   2.162   3.192  2.2133  0.2928  0.5132
 2660TIP3    H2 7987   4.919   2.121   3.338  0.6575 -1.5620  0.0954
 2661TIP3   OH2 7988   0.078   4.451   0.380 -0.1041  0.6311  0.6838
 2661TIP3    H1 7989  -0.016   4.446   0.398 -0.2229 -0.7645 -0.1239
 2661TIP3    H2 7990   0.119   4.446   0.467 -0.7607  1.1875  1.0385
 2662TIP3   OH2 7991   5.842   0.515   0.801  0.1620 -0.0575 -0.4478
 2662TIP3    H1 7992   5.875   0.484   0.716  1.7174  1.7316 -0.5657
 2662TIP3    H2 7993   5.749   0.495   0.799  0.0462  0.4245 -2.8270
 2663TIP3   OH2 7994   1.768   0.452   3.489  0.4925  0.1865 -0.2574
 2663TIP3    H1 7995   1.827   0.377   3.501 -1.4852 -1.9985 -2.7142
 2663TIP3    H2 7996   1.689   0.429   3.538 -1.1151 -0.7594 -3.0167
 2664TIP3   OH2 7997   4.808   5.899   0.947 -0.1822 -0.0877 -0.0875
 2664TIP3    H1 7998   4.904   5.893   0.941 -0.1617  0.6278 -0.5077
 2664TIP3    H2 7999   4.791   5.992   0.962 -0.7806 -0.3086  0.6584
 2665TIP3   OH2 8000   5.137   5.612   2.821  0.3152  0.4315  0.2457
 2665TIP3    H1 8001   5.094   5.697   2.814 -0.1299  0.3072  1.3684
 2665TIP3    H2 8002   5.110   5.577   2.906  1.9540 -0.0258  0.6206
 2666TIP3   OH2 8003   1.530   4.987   0.179 -0.3470  0.2279 -0.1639
 2666TIP3    H1 8004   1.531   5.070   0.226 -2.4147  0.5358 -0.5851
 2666TIP3    H2 8005   1.482   4.927   0.236 -0.1365 -0.2744 -0.5025
 2667TIP3   OH2 8006   2.367   0.916   2.043 -0.3894 -0.3783  0.1806
 2667TIP3    H1 8007   2.332   0.868   1.968 -0.4528 -0.7110  0.4242
 2667TIP3    H2 8008   2.421   0.853   2.090 -0.0715 -0.0747  0.2267
 2668TIP3   OH2 8009   5.305   4.105   2.367  0.4277 -0.1487  0.4242
 2668TIP3    H1 8010   5.218   4.126   2.334  0.3672 -0.5316  0.3388
 2668TIP3    H2 8011   5.315   4.161   2.445 -0.5754 -1.2961  1.4254
 2669TIP3   OH2 8012   4.994   0.745   0.578  0.7610 -0.7608 -0.3417
 2669TIP3    H1 8013   5.001   0.732   0.483  0.6560 -1.8822 -0.2057
 2669TIP3    H2 8014   4.954   0.831   0.587  1.0643 -0.5037 -1.3131
 2670TIP3   OH2 8015   3.715   0.777   0.402  0.0345  0.1754 -0.5319
 2670TIP3    H1 8016   3.638   0.721   0.411 -0.1779  0.2193 -1.8942
 2670TIP3    H2 8017   3.688   0.861   0.440 -0.1378 -0.1833  0.1641
 2671TIP3   OH2 8018   0.923   4.928   1.252  0.2676 -0.1093 -0.1086
 2671TIP3    H1 8019   0.972   5.000   1.212  0.7807 -0.0310  0.6634
 2671TIP3    H2 8020   0.831   4.956   1.245  0.3805  0.1124 -0.8055
 2672TIP3   OH2 8021   2.138   4.065   0.548 -0.4205 -0.2016  0.0092
 2672TIP3    H1 8022   2.193   4.114   0.609  0.3608 -0.4386 -0.4774
 2672TIP3    H2 8023   2.075   4.129   0.515 -1.0603 -0.1402  1.2796
 2673TIP3   OH2 8024   2.267   0.389   3.039  0.0339  0.1437  0.1163
 2673TIP3    H1 8025   2.185   0.404   3.085  0.3784 -0.8130  1.0775
 2673TIP3    H2 8026   2.248   0.412   2.948 -1.2203  0.1751  0.3662
 2674TIP3   OH2 8027   4.912   2.463   1.879 -0.4972  0.0408  0.1033
 2674TIP3    H1 8028   5.002   2.480   1.908  0.0771 -1.3274 -0.7989
 2674TIP3    H2 8029   4.880   2.549   1.851  0.6786  0.4790  0.0331
 2675TIP3   OH2 8030   4.688   4.586   4.989  0.2081 -0.1784  0.5013
 2675TIP3    H1 8031   4.742   4.631   5.054 -0.2932  1.2331 -0.0166
 2675TIP3    H2 8032   4.603   4.574   5.032  0.2594 -0.3801  0.5453
 2676TIP3   OH2 8033   4.250   3.466   3.322 -0.0406  0.6181  0.5645
 2676TIP3    H1 8034   4.199   3.414   3.259 -0.2718 -0.2914  1.4620
 2676TIP3    H2 8035   4.187   3.530   3.357 -0.5605 -0.3563  1.5046
 2677TIP3   OH2 8036   4.021   1.170   3.325 -0.4448 -0.2903  0.1951
 2677TIP3    H1 8037   4.054   1.227   3.256 -0.0416  0.3920  0.9265
 2677TIP3    H2 8038   4.057   1.084   3.305  0.7768  0.1754  0.2786
 2678TIP3   OH2 8039   3.708   2.658   0.109  0.5715  0.2966  0.0050
 2678TIP3    H1 8040   3.613   2.666   0.124  0.0868 -0.1428 -2.4298
 2678TIP3    H2 8041   3.737   2.593   0.173 -0.9569 -0.2343  0.1999
 2679TIP3   OH2 8042   1.042   0.449   4.190 -0.5148 -0.1747  0.3483
 2679TIP3    H1 8043   1.112   0.383   4.187  0.0032  0.3805 -0.3051
 2679TIP3    H2 8044   0.984   0.426   4.117 -0.3069  0.1049  0.0885
 2680TIP3   OH2 8045   4.941   4.061   0.355  0.1307 -0.0743  0.6014
 2680TIP3    H1 8046   4.954   4.069   0.260  0.6842 -1.6527  0.4998
 2680TIP3    H2 8047   4.849   4.081   0.369 -0.1146 -0.4559 -0.3752
 2681TIP3   OH2 8048   1.018   4.089   2.569  0.2022 -0.7911 -0.0658
 2681TIP3    H1 8049   1.069   4.143   2.630 -0.3681 -0.2587 -0.0497
 2681TIP3    H2 8050   1.009   4.143   2.491 -0.5511 -0.7730  0.0266
 2682TIP3   OH2 8051   3.917   3.039   0.626 -0.0315  0.5033 -0.1876
 2682TIP3    H1 8052   4.005   3.000   0.630 -0.3749 -0.3034 -0.2809
 2682TIP3    H2 8053   3.883   3.028   0.715 -0.1879  0.4746 -0.2525
 2683TIP3   OH2 8054   1.901   4.881   3.430  0.4605 -0.4799  0.4294
 2683TIP3    H1 8055   1.899   4.868   3.335  2.0866  3.1536 -0.2532
 2683TIP3    H2 8056   1.990   4.860   3.456  0.3640 -0.2602  0.9508
 2684TIP3   OH2 8057   1.060   1.066   2.368 -0.3400  0.5317  0.3965
 2684TIP3    H1 8058   1.030   1.152   2.396  1.3644  1.1150  0.5848
 2684TIP3    H2 8059   1.153   1.078   2.349  0.0591 -1.3695  0.8783
 2685TIP3   OH2 8060   4.370   4.194   0.380 -0.2816 -0.2254  0.0209
 2685TIP3    H1 8061   4.460   4.174   0.407  0.0194  0.0808 -0.7189
 2685TIP3    H2 8062   4.321   4.115   0.400  0.6972 -1.4499 -2.0008
 2686TIP3   OH2 8063   4.499   4.843   3.412 -0.2358 -0.2763  0.2445
 2686TIP3    H1 8064   4.487   4.906   3.342 -0.8807 -1.1135 -0.4138
 2686TIP3    H2 8065   4.478   4.759   3.373 -2.3618 -0.5779  1.8814
 2687TIP3   OH2 8066   4.640   3.494   3.555  0.0996 -0.4503 -0.2454
 2687TIP3    H1 8067   4.613   3.571   3.605  1.5295  0.0703 -0.2067
 2687TIP3    H2 8068   4.722   3.521   3.513  0.1354 -1.6486 -0.9797
 2688TIP3   OH2 8069   4.953   5.275   0.468 -0.0895 -0.0973 -0.3107
 2688TIP3    H1 8070   4.987   5.189   0.490 -2.0725 -0.5613  1.2738
 2688TIP3    H2 8071   4.934   5.316   0.553 -0.9504  1.1388 -1.0524
 2689TIP3   OH2 8072   1.187   0.485   3.642 -0.8056 -0.5106 -0.1085
 2689TIP3    H1 8073   1.126   0.559   3.648 -0.9928 -0.6760  0.0592
 2689TIP3    H2 8074   1.181   0.443   3.728  0.3057  0.0610  0.2717
 2690TIP3   OH2 8075   2.290   1.656   2.740  0.2961 -0.0534 -0.3205
 2690TIP3    H1 8076   2.213   1.702   2.708  0.1158  0.5333  0.9083
 2690TIP3    H2 8077   2.273   1.564   2.721 -0.7729  0.0552  0.0490
 2691TIP3   OH2 8078   1.886   5.797   5.130  0.0643  0.2423  0.3940
 2691TIP3    H1 8079   1.848   5.769   5.214 -0.6440  0.9745  0.3287
 2691TIP3    H2 8080   1.959   5.854   5.155 -1.1061  1.7466  0.5513
 2692TIP3   OH2 8081   3.896   1.636   4.284 -0.1395  0.3965  0.0020
 2692TIP3    H1 8082   3.979   1.647   4.239 -0.3611 -0.7469 -0.7045
 2692TIP3    H2 8083   3.835   1.691   4.235  0.3226  1.8343  0.9664
 2693TIP3   OH2 8084   3.672   1.972   2.586 -0.0883 -0.3188 -0.0542
 2693TIP3    H1 8085   3.635   2.027   2.655  0.9371 -1.4161  1.4414
 2693TIP3    H2 8086   3.625   1.889   2.593  0.7391 -0.7904  0.0505
 2694TIP3   OH2 8087   2.505   3.235   4.051 -0.4210  0.0666  0.0828
 2694TIP3    H1 8088   2.585   3.270   4.091 -0.7063 -1.4282  2.1461
 2694TIP3    H2 8089   2.524   3.142   4.038 -0.5618  0.3642 -2.9392
 2695TIP3   OH2 8090   2.972   0.337   2.507  0.3648  0.3443 -0.1243
 2695TIP3    H1 8091   2.898   0.353   2.449  0.8625  1.9751 -0.3687
 2695TIP3    H2 8092   2.937   0.344   2.595 -0.4388 -2.3398 -0.1280
 2696TIP3   OH2 8093   3.948   4.697   4.499 -0.5217 -0.0262  0.6395
 2696TIP3    H1 8094   4.012   4.726   4.435 -1.1993  1.9296  0.7796
 2696TIP3    H2 8095   3.978   4.610   4.527  1.9152  0.7250  0.5466
 2697TIP3   OH2 8096   2.610   4.134   2.117  0.2939  0.7320 -0.4732
 2697TIP3    H1 8097   2.543   4.083   2.163  0.3093  0.3571 -0.8642
 2697TIP3    H2 8098   2.599   4.112   2.025  1.5592 -0.0733 -0.4625
 2698TIP3   OH2 8099   0.459   4.679   3.874  0.6020  0.2781  0.2377
 2698TIP3    H1 8100   0.452   4.769   3.841  0.3059  0.7133  1.4210
 2698TIP3    H2 8101   0.373   4.662   3.914  0.6033 -0.5943 -0.1184
 2699TIP3   OH2 8102   2.579   2.199   0.613 -0.2958 -0.2754  0.0775
 2699TIP3    H1 8103   2.634   2.268   0.576 -0.1072 -0.0087  0.8295
 2699TIP3    H2 8104   2.529   2.165   0.539 -1.0722  1.2956 -0.1549
 2700TIP3   OH2 8105   2.629   1.113   2.526 -0.2170  0.2895  0.1009
 2700TIP3    H1 8106   2.656   1.198   2.491  0.3459  0.3077  0.5636
 2700TIP3    H2 8107   2.533   1.118   2.530 -0.1383  1.9801  2.7057
 2701TIP3   OH2 8108   3.168   0.410   4.238  0.0817  0.2331  0.0371
 2701TIP3    H1 8109   3.262   0.429   4.237  0.0380  0.4817 -0.9102
 2701TIP3    H2 8110   3.135   0.457   4.315  0.7843 -0.1479  0.5811
 2702TIP3   OH2 8111   4.453   3.372   4.692  0.5270 -0.3508  0.0027
 2702TIP3    H1 8112   4.386   3.440   4.686  0.7527 -0.2493 -1.7195
 2702TIP3    H2 8113   4.490   3.382   4.780  0.8129  2.0081 -0.3288
 2703TIP3   OH2 8114   5.132   1.780   4.049 -0.0760  0.3088  0.3804
 2703TIP3    H1 8115   5.170   1.837   4.116 -1.6623  1.6208  0.2152
 2703TIP3    H2 8116   5.038   1.782   4.066 -0.2210 -2.0041  0.1290
 2704TIP3   OH2 8117   0.531   2.067   4.800  0.3228  0.0426  0.2771
 2704TIP3    H1 8118   0.515   1.979   4.835  1.6443 -0.7468 -0.9814
 2704TIP3    H2 8119   0.445   2.097   4.771 -0.4751 -0.0239  2.4451
 2705TIP3   OH2 8120   4.261   2.397   4.295  0.2102 -0.2814  0.1007
 2705TIP3    H1 8121   4.277   2.429   4.206  0.7729 -1.5381 -0.2635
 2705TIP3    H2 8122   4.317   2.452   4.350 -2.0954  2.3134  0.0548
 2706TIP3   OH2 8123   2.884   1.817   4.219 -0.1679 -0.4682  0.4863
 2706TIP3    H1 8124   2.867   1.791   4.309  0.7109 -1.0392  0.5014
 2706TIP3    H2 8125   2.967   1.775   4.197 -0.1731 -0.0160 -0.4609
 2707TIP3   OH2 8126   2.732   0.226   1.671  0.3237 -0.2822 -0.1265
 2707TIP3    H1 8127   2.648   0.190   1.698 -0.9691  1.8429 -1.0683
 2707TIP3    H2 8128   2.741   0.200   1.579  0.1701  0.3578 -0.3298
 2708TIP3   OH2 8129   2.463   2.083   0.369  0.5595  0.3587 -0.5576
 2708TIP3    H1 8130   2.412   2.094   0.289  1.5808  0.8232 -1.1677
 2708TIP3    H2 8131   2.542   2.038   0.341  0.9210  0.5108  0.1941
 2709TIP3   OH2 8132   4.093   3.088   4.259 -0.1410  0.0377  0.2656
 2709TIP3    H1 8133   4.121   3.074   4.168 -0.6738  1.8343 -0.2042
 2709TIP3    H2 8134   4.003   3.055   4.261 -0.4684  0.8788 -0.1316
 2710TIP3   OH2 8135   4.798   1.118   0.152 -0.0136 -0.3740  0.3936
 2710TIP3    H1 8136   4.753   1.200   0.171 -1.4130 -1.4901  2.2429
 2710TIP3    H2 8137   4.732   1.066   0.106  0.9097 -0.4461 -0.8910
 2711TIP3   OH2 8138   2.064   4.296   2.246 -0.1706 -0.7442  0.0444
 2711TIP3    H1 8139   2.111   4.213   2.243 -1.5574 -1.6252  1.2056
 2711TIP3    H2 8140   2.129   4.361   2.221  0.9746 -2.1543 -0.8388
 2712TIP3   OH2 8141   1.459   1.729   2.859  0.2169 -0.1300  0.3242
 2712TIP3    H1 8142   1.464   1.648   2.809 -1.2421 -0.0666  0.0519
 2712TIP3    H2 8143   1.369   1.759   2.848  0.4680  1.0188  1.2212
 2713TIP3   OH2 8144   5.127   3.161   3.064  0.3138  0.9082  0.0784
 2713TIP3    H1 8145   5.033   3.149   3.060  0.3339  0.6406  0.3882
 2713TIP3    H2 8146   5.163   3.090   3.012  0.4271 -0.3299  1.7778
 2714TIP3   OH2 8147   5.722   0.614   3.360 -0.0086 -0.1715  0.0214
 2714TIP3    H1 8148   5.799   0.624   3.304  0.5010  1.1421  0.8995
 2714TIP3    H2 8149   5.748   0.548   3.424  0.3303  0.1396  0.2090
 2715TIP3   OH2 8150   1.107   0.881   0.570 -0.2515  0.2356  0.2168
 2715TIP3    H1 8151   1.182   0.936   0.547  0.2519 -0.1714  0.8486
 2715TIP3    H2 8152   1.053   0.879   0.490  1.7553 -1.6777 -1.2101
 2716TIP3   OH2 8153   1.300   3.002   0.023 -0.0695 -0.5224  0.0614
 2716TIP3    H1 8154   1.305   2.917  -0.021  1.7482 -0.2505 -0.3383
 2716TIP3    H2 8155   1.373   3.002   0.085 -2.0015 -0.5239  2.5271
 2717TIP3   OH2 8156   6.025   4.430   1.736  0.0475 -0.3001  0.0636
 2717TIP3    H1 8157   6.053   4.363   1.797  0.2874  0.6027  0.9732
 2717TIP3    H2 8158   6.072   4.410   1.655  1.1407 -0.4622  0.7237
 2718TIP3   OH2 8159   2.938   3.001   5.060 -0.5640  0.3235 -0.0642
 2718TIP3    H1 8160   2.990   3.005   5.140 -1.6640 -0.1483  0.6906
 2718TIP3    H2 8161   2.871   3.068   5.071 -1.0927 -0.1524 -0.3044
 2719TIP3   OH2 8162   4.615   0.193   4.787  0.9058  0.5424  0.1178
 2719TIP3    H1 8163   4.569   0.195   4.703 -0.1053  0.1874  0.6518
 2719TIP3    H2 8164   4.705   0.173   4.764  0.7205  0.8340 -0.9192
 2720TIP3   OH2 8165   6.204   4.442   4.564 -0.2749  0.5787  0.0852
 2720TIP3    H1 8166   6.131   4.416   4.620  0.2355  1.1856  1.0486
 2720TIP3    H2 8167   6.198   4.538   4.560  0.1788  0.5970 -0.2449
 2721TIP3   OH2 8168   0.721   0.129   3.779 -0.3090  0.4463 -0.1325
 2721TIP3    H1 8169   0.656   0.081   3.830 -1.9232  1.3126 -1.2535
 2721TIP3    H2 8170   0.679   0.213   3.760  1.6437  1.5376  0.1054
 2722TIP3   OH2 8171   4.465   3.212   1.589 -0.1168 -0.3279 -0.2978
 2722TIP3    H1 8172   4.425   3.186   1.507  0.5191 -0.9802 -0.4162
 2722TIP3    H2 8173   4.500   3.131   1.626  1.0700  0.1930 -0.2029
 2723TIP3   OH2 8174   4.287   0.955   2.491 -0.0244 -0.1168 -0.3652
 2723TIP3    H1 8175   4.281   0.893   2.418 -2.5303  0.5828 -0.8589
 2723TIP3    H2 8176   4.341   1.027   2.457  0.9299 -0.9307 -0.6084
 2724TIP3   OH2 8177   2.976   0.923   4.764 -0.8799  0.0971 -0.2209
 2724TIP3    H1 8178   2.988   0.941   4.671 -0.7069  0.0368 -0.2119
 2724TIP3    H2 8179   3.049   0.970   4.806  0.2323 -1.4801 -0.2871
 2725TIP3   OH2 8180   1.843   4.652   0.383  0.3528  0.1897 -0.2420
 2725TIP3    H1 8181   1.856   4.557   0.392  0.1379  0.2626  1.1001
 2725TIP3    H2 8182   1.853   4.686   0.472  2.1546  1.6670 -0.9252
 2726TIP3   OH2 8183   1.231   5.292   0.654  0.3474 -0.0312  0.3411
 2726TIP3    H1 8184   1.230   5.202   0.620  1.3340  0.8415 -2.2350
 2726TIP3    H2 8185   1.146   5.329   0.626  0.4984  0.2140  0.2011
 2727TIP3   OH2 8186   6.313   4.257   0.720 -0.2330 -0.1179  0.0351
 2727TIP3    H1 8187   6.313   4.221   0.808 -0.9487 -0.1069  0.0447
 2727TIP3    H2 8188   6.400   4.294   0.709  0.6569 -2.0971 -0.0744
 2728TIP3   OH2 8189   2.781   2.279   3.634 -0.1642 -0.0247  0.1590
 2728TIP3    H1 8190   2.705   2.269   3.692 -0.8487  0.9146 -0.5486
 2728TIP3    H2 8191   2.753   2.239   3.551 -0.5109  1.6984 -0.6050
 2729TIP3   OH2 8192   1.381   5.913   1.349 -0.1325 -0.3659 -0.5395
 2729TIP3    H1 8193   1.376   5.999   1.390 -1.1631 -0.3559 -0.6583
 2729TIP3    H2 8194   1.454   5.920   1.287  0.3792  0.1225  0.0966
 2730TIP3   OH2 8195   2.951   3.157   3.243  0.5315  0.2642 -0.3723
 2730TIP3    H1 8196   3.000   3.235   3.270  0.0158  1.0307 -1.5206
 2730TIP3    H2 8197   2.866   3.191   3.215  0.3089 -0.7064 -0.9339
 2731TIP3   OH2 8198   5.986   4.110   4.712  0.0011 -0.1833  0.8228
 2731TIP3    H1 8199   5.916   4.066   4.663 -1.2864  1.3421  1.2235
 2731TIP3    H2 8200   6.061   4.051   4.704 -1.6348 -2.4802  1.3951
 2732TIP3   OH2 8201   2.420   5.349   4.179  0.3863  0.0021 -0.2265
 2732TIP3    H1 8202   2.422   5.254   4.184  1.1397 -0.0230 -0.7230
 2732TIP3    H2 8203   2.493   5.378   4.234 -0.7292  0.3773  1.1181
 2733TIP3   OH2 8204   2.860   4.196   4.806 -0.4772  0.1651 -0.0143
 2733TIP3    H1 8205   2.928   4.142   4.767 -1.4367  0.6485 -2.5584
 2733TIP3    H2 8206   2.888   4.286   4.790 -0.9327  0.3839  0.3641
 2734TIP3   OH2 8207   1.632   5.043   1.632 -0.0023  0.3617  0.2299
 2734TIP3    H1 8208   1.572   5.009   1.698 -0.4520  0.2273 -0.2504
 2734TIP3    H2 8209   1.596   5.014   1.548  1.9637 -1.7343  0.0063
 2735TIP3   OH2 8210   6.061   3.890   4.962 -0.4770 -0.3014  0.1837
 2735TIP3    H1 8211   6.061   3.877   4.867  1.6069  1.4284 -0.1052
 2735TIP3    H2 8212   5.973   3.863   4.989 -2.0379  1.5437 -2.5725
 2736TIP3   OH2 8213   3.723   4.464   4.357 -0.4195  0.2305 -0.2872
 2736TIP3    H1 8214   3.703   4.391   4.416 -0.6565 -0.8880 -1.6973
 2736TIP3    H2 8215   3.704   4.543   4.408 -0.4489 -0.6875  1.1722
 2737TIP3   OH2 8216   1.341   4.342   2.334  0.2452 -0.0902 -0.6301
 2737TIP3    H1 8217   1.324   4.435   2.318 -0.0730  0.0906  0.6308
 2737TIP3    H2 8218   1.421   4.342   2.387  1.1172 -0.6398 -1.8796
 2738TIP3   OH2 8219   4.591   5.358   3.007 -0.4932 -0.6399  0.1212
 2738TIP3    H1 8220   4.552   5.421   2.947 -0.0094  1.6786  2.1172
 2738TIP3    H2 8221   4.685   5.377   3.005 -0.4003 -0.9202  1.1690
 2739TIP3   OH2 8222   2.807   5.191   2.960 -0.2213  0.1446  0.0598
 2739TIP3    H1 8223   2.772   5.113   2.918 -1.9641  0.7322  0.3359
 2739TIP3    H2 8224   2.899   5.192   2.936 -0.5182 -1.1350 -1.2606
 2740TIP3   OH2 8225   4.319   4.414   3.105  0.0120 -0.3757  0.0182
 2740TIP3    H1 8226   4.384   4.344   3.113 -1.3483 -1.5424  1.2320
 2740TIP3    H2 8227   4.258   4.382   3.038 -0.7758 -0.4972  0.7846
 2741TIP3   OH2 8228   6.083   1.203   4.221 -0.2044  0.0772  0.5050
 2741TIP3    H1 8229   6.137   1.243   4.289  0.2062 -0.7948  0.7087
 2741TIP3    H2 8230   6.001   1.179   4.265 -1.0173  1.9030  0.0703
 2742TIP3   OH2 8231   3.667   3.300   2.638 -0.3747 -0.1648 -0.0866
 2742TIP3    H1 8232   3.573   3.299   2.656 -0.0327 -0.3790  1.9238
 2742TIP3    H2 8233   3.682   3.223   2.583 -1.2104 -0.8477  0.6209
 2743TIP3   OH2 8234   5.046   3.043   4.693  0.4861 -0.3387  0.0274
 2743TIP3    H1 8235   4.967   3.031   4.746 -0.8208 -2.1509 -2.1920
 2743TIP3    H2 8236   5.117   3.011   4.749 -0.8978 -2.5873  0.6062
 2744TIP3   OH2 8237   0.259   1.254   0.745 -0.5207 -0.4516 -0.2044
 2744TIP3    H1 8238   0.294   1.258   0.656  0.3801 -0.2640  0.1480
 2744TIP3    H2 8239   0.246   1.161   0.762 -1.2693 -0.4477 -0.7492
 2745TIP3   OH2 8240   5.857   5.815   3.238 -0.1549 -0.2936 -0.3230
 2745TIP3    H1 8241   5.883   5.723   3.229 -0.6629 -0.3779 -1.0371
 2745TIP3    H2 8242   5.934   5.858   3.275 -0.5166 -1.3168  1.7848
 2746TIP3   OH2 8243   4.651   2.681   1.239  0.3398 -0.1817 -0.0551
 2746TIP3    H1 8244   4.736   2.680   1.195  0.7229  0.2989  0.6661
 2746TIP3    H2 8245   4.619   2.591   1.231  1.1495 -0.4900  0.1347
 2747TIP3   OH2 8246   2.078   2.721   0.794  0.3783 -0.1204  0.8045
 2747TIP3    H1 8247   2.150   2.712   0.856 -0.0131 -0.0078  1.2783
 2747TIP3    H2 8248   2.086   2.645   0.737  1.4307  0.3610  0.2675
 2748TIP3   OH2 8249   2.021   4.655   1.033 -0.1078 -0.4379  0.4203
 2748TIP3    H1 8250   1.959   4.714   0.989  2.6236  1.3290 -1.3507
 2748TIP3    H2 8251   1.974   4.572   1.039 -3.2466  1.1924  0.7753
 2749TIP3   OH2 8252  -0.026   5.695   3.711 -0.1017  0.3906 -0.2574
 2749TIP3    H1 8253   0.005   5.606   3.723 -2.2317 -0.4981 -0.9576
 2749TIP3    H2 8254   0.021   5.746   3.777 -0.0514 -1.5222  1.2744
 2750TIP3   OH2 8255   5.824   4.790   0.433  0.4962 -0.2795 -0.2442
 2750TIP3    H1 8256   5.903   4.826   0.472  0.1880  1.7397 -1.3415
 2750TIP3    H2 8257   5.846   4.778   0.340 -0.3293 -0.1725 -0.4636
 2751TIP3   OH2 8258   6.058   1.748   4.471  0.2477  0.1408  0.0480
 2751TIP3    H1 8259   6.033   1.797   4.393  1.8636  2.1336  0.6580
 2751TIP3    H2 8260   5.994   1.773   4.537  1.2932  1.9056  0.4703
 2752TIP3   OH2 8261   6.295   0.358   1.133  0.0199 -0.1012  0.1768
 2752TIP3    H1 8262   6.373   0.347   1.186  0.3513 -3.0819 -0.7275
 2752TIP3    H2 8263   6.225   0.316   1.183 -0.9830  2.0335  0.7184
 2753TIP3   OH2 8264   2.103   4.774   4.906  0.2277  0.4404 -0.1003
 2753TIP3    H1 8265   2.140   4.776   4.818  0.1609  2.8016 -0.1339
 2753TIP3    H2 8266   2.008   4.769   4.892  0.2761 -1.0177 -0.0869
 2754TIP3   OH2 8267   1.329   3.209   1.294  0.0131 -0.0374 -0.0662
 2754TIP3    H1 8268   1.347   3.167   1.378  1.1512 -0.9566 -0.7346
 2754TIP3    H2 8269   1.416   3.227   1.257 -0.4117  2.8660  0.1285
 2755TIP3   OH2 8270   1.230   5.002   5.103  0.0327  0.2708  0.1027
 2755TIP3    H1 8271   1.262   4.964   5.185 -3.2355 -0.6389  1.1173
 2755TIP3    H2 8272   1.187   5.084   5.130 -3.0494 -1.1070 -0.1846
 2756TIP3   OH2 8273   0.239   0.295   1.693  0.5424  0.1238 -0.6906
 2756TIP3    H1 8274   0.223   0.228   1.761  0.2408 -0.4428 -1.3066
 2756TIP3    H2 8275   0.181   0.367   1.717  1.7409  0.6918  0.6649
 2757TIP3   OH2 8276   5.598   1.181   1.571 -0.1793  0.4469  0.1381
 2757TIP3    H1 8277   5.674   1.125   1.588  0.0902  1.1863  1.4534
 2757TIP3    H2 8278   5.607   1.206   1.479  2.3071  2.1383  0.7287
 2758TIP3   OH2 8279   5.781   1.574   5.166  0.1976 -0.2472  0.2723
 2758TIP3    H1 8280   5.712   1.509   5.155 -0.9287  1.0711 -0.7979
 2758TIP3    H2 8281   5.841   1.558   5.094 -0.0647 -0.1289  0.0254
 2759TIP3   OH2 8282   2.576   3.048   2.001 -0.2131 -0.5596 -0.5063
 2759TIP3    H1 8283   2.611   3.094   2.077 -1.5437  0.7264 -0.6086
 2759TIP3    H2 8284   2.491   3.013   2.030 -0.5677 -0.3692 -1.2692
 2760TIP3   OH2 8285   5.362   5.086   4.165 -0.0005  0.1434  0.2459
 2760TIP3    H1 8286   5.302   5.080   4.240  0.2068  0.2831  0.4245
 2760TIP3    H2 8287   5.363   5.180   4.143  1.8662  0.5279  1.6622
 2761TIP3   OH2 8288   4.321   4.015   4.333  0.2160 -0.7295 -0.0760
 2761TIP3    H1 8289   4.266   3.995   4.258 -3.4636  0.3043  2.1297
 2761TIP3    H2 8290   4.336   4.110   4.327 -1.4591 -0.3491  1.2578
 2762TIP3   OH2 8291   2.587   4.824   3.225 -0.0916  0.6851  0.0603
 2762TIP3    H1 8292   2.650   4.855   3.291  0.5985  0.3074 -0.4125
 2762TIP3    H2 8293   2.641   4.786   3.156 -0.8694 -1.9088  0.7412
 2763TIP3   OH2 8294   1.715   2.863   0.893 -0.6885  0.4178 -0.0926
 2763TIP3    H1 8295   1.649   2.915   0.848  1.1581  1.3684 -1.8490
 2763TIP3    H2 8296   1.691   2.772   0.874 -0.3621  0.7763 -2.5025
 2764TIP3   OH2 8297   5.257   3.843   3.357 -0.4510 -0.3577 -0.0188
 2764TIP3    H1 8298   5.346   3.873   3.373  0.5313 -2.5846 -0.9073
 2764TIP3    H2 8299   5.266   3.750   3.337 -2.9260 -0.5159 -0.7565
 2765TIP3   OH2 8300   2.570   0.808   1.359 -0.1117 -0.1729 -0.3367
 2765TIP3    H1 8301   2.509   0.746   1.398  0.6241 -0.4888  0.3568
 2765TIP3    H2 8302   2.640   0.753   1.322  0.0714  0.2009 -0.5553
 2766TIP3   OH2 8303   5.568   0.871   2.345 -0.0945 -0.3162 -0.0937
 2766TIP3    H1 8304   5.573   0.964   2.367  0.6538 -0.2995 -0.2958
 2766TIP3    H2 8305   5.519   0.869   2.263  0.5601 -0.0229 -0.5010
 2767TIP3   OH2 8306   5.068   3.843   3.537  0.1060  0.0424  0.1808
 2767TIP3    H1 8307   5.055   3.938   3.544  0.2516  0.2281 -1.6331
 2767TIP3    H2 8308   5.126   3.833   3.462  1.7355 -1.3950  1.5552
 2768TIP3   OH2 8309   3.006   3.724   4.400  0.1596  0.0476  0.5047
 2768TIP3    H1 8310   2.938   3.788   4.423  0.2637 -0.2557  1.7036
 2768TIP3    H2 8311   2.963   3.664   4.340 -0.6027 -0.0732  1.1613
 2769TIP3   OH2 8312   4.587   2.347   4.690  0.2305 -0.1085 -0.3904
 2769TIP3    H1 8313   4.595   2.278   4.624 -0.6128 -1.0175  0.4106
 2769TIP3    H2 8314   4.497   2.379   4.680  0.3390  0.2667 -0.1730
 2770TIP3   OH2 8315   5.283   0.879   2.232  0.1472 -0.3906  1.2019
 2770TIP3    H1 8316   5.280   0.813   2.301  1.4289 -0.8768  0.8151
 2770TIP3    H2 8317   5.253   0.833   2.154 -0.6677 -0.0175  1.2839
 2771TIP3   OH2 8318   1.641   5.297   4.438  0.2433 -0.2247 -0.5106
 2771TIP3    H1 8319   1.710   5.271   4.499 -1.4369 -1.3500  0.9897
 2771TIP3    H2 8320   1.626   5.219   4.385  0.8836  0.3886 -1.6428
 2772TIP3   OH2 8321   1.917   1.051   0.560 -0.1602  0.3162  0.3603
 2772TIP3    H1 8322   1.982   0.981   0.566 -1.6467 -1.0446  1.6741
 2772TIP3    H2 8323   1.963   1.130   0.588  0.4581 -0.9882  3.3722
 2773TIP3   OH2 8324   1.617   4.643   2.911  0.2111 -1.1766 -0.1796
 2773TIP3    H1 8325   1.576   4.671   2.993  0.3671 -0.2103 -0.4135
 2773TIP3    H2 8326   1.693   4.701   2.902  0.8037 -1.9822 -0.4769
 2774TIP3   OH2 8327   3.814   1.839   2.808  0.1880  0.4764  0.5565
 2774TIP3    H1 8328   3.817   1.935   2.812  0.1155  0.5910 -1.3120
 2774TIP3    H2 8329   3.862   1.817   2.729  0.3890 -1.0652  1.0751
 2775TIP3   OH2 8330   2.145   1.361   3.594  0.4884 -0.3440  0.5075
 2775TIP3    H1 8331   2.116   1.270   3.587 -0.0298 -0.1663  0.3169
 2775TIP3    H2 8332   2.241   1.356   3.594  0.4719 -0.8190 -0.4567
 2776TIP3   OH2 8333   1.421   5.396   3.635 -0.3229 -0.3209  0.3297
 2776TIP3    H1 8334   1.450   5.476   3.592 -0.5885 -0.1921  0.3851
 2776TIP3    H2 8335   1.447   5.407   3.726  0.6320 -0.7842  0.1260
 2777TIP3   OH2 8336   2.255   3.654   3.023 -0.2358 -0.0844  0.1427
 2777TIP3    H1 8337   2.275   3.626   2.934 -0.9783  0.5811 -0.2510
 2777TIP3    H2 8338   2.194   3.588   3.057 -1.5159  0.7032 -0.5672
 2778TIP3   OH2 8339   3.558   4.093   4.991 -0.0939  0.2002 -1.1943
 2778TIP3    H1 8340   3.528   4.083   5.081 -0.3063 -0.4771 -1.3352
 2778TIP3    H2 8341   3.522   4.178   4.963  0.8281  0.9064 -0.3284
 2779TIP3   OH2 8342   1.277   0.661   1.147 -0.0223 -0.1413 -0.0296
 2779TIP3    H1 8343   1.337   0.718   1.100  1.3106 -1.4476  0.0346
 2779TIP3    H2 8344   1.313   0.656   1.236 -0.7824 -0.1479  0.2859
 2780TIP3   OH2 8345   2.397   0.463   1.750  0.3319 -0.1987 -0.6809
 2780TIP3    H1 8346   2.314   0.433   1.788 -0.7758  3.4542  0.2330
 2780TIP3    H2 8347   2.465   0.425   1.805 -0.9150 -0.6603  0.5849
 2781TIP3   OH2 8348   3.318   5.267   4.321  0.4116  0.3893 -0.2366
 2781TIP3    H1 8349   3.289   5.246   4.410 -0.9942  2.3123 -0.1626
 2781TIP3    H2 8350   3.336   5.182   4.281  1.6189 -0.5200  2.0214
 2782TIP3   OH2 8351   1.707   1.834   2.768 -0.2209 -0.2751  0.5845
 2782TIP3    H1 8352   1.680   1.925   2.784 -0.9745 -0.5106  0.6503
 2782TIP3    H2 8353   1.636   1.781   2.802  0.0015 -0.8895  0.1100
 2783TIP3   OH2 8354   2.130   0.431   1.786 -0.1312  0.4404 -0.2657
 2783TIP3    H1 8355   2.042   0.414   1.818  0.2641  0.4265  0.8792
 2783TIP3    H2 8356   2.119   0.458   1.695 -1.6099  3.5588  0.7024
 2784TIP3   OH2 8357   4.733   5.211   4.092  0.1554 -0.0773  0.0301
 2784TIP3    H1 8358   4.799   5.144   4.075  1.5764  1.5124 -1.0765
 2784TIP3    H2 8359   4.748   5.277   4.024 -2.2390  0.6065  0.0799
 2785TIP3   OH2 8360   2.439   5.813   4.559  0.1008  0.3933 -0.3707
 2785TIP3    H1 8361   2.382   5.888   4.577 -1.5820 -1.3231  2.0563
 2785TIP3    H2 8362   2.386   5.754   4.507  1.6479  1.0391 -2.8628
 2786TIP3   OH2 8363   4.997   4.950   3.260 -0.5529  0.9093 -0.6856
 2786TIP3    H1 8364   4.939   4.884   3.298  1.2364 -0.3232  0.0440
 2786TIP3    H2 8365   5.074   4.950   3.317  0.5060  1.9247 -2.0303
 2787TIP3   OH2 8366   6.331   1.373   0.065 -0.4385 -0.0237 -0.6025
 2787TIP3    H1 8367   6.294   1.390   0.151 -0.1640 -0.7864 -0.3195
 2787TIP3    H2 8368   6.385   1.450   0.046  0.6215 -0.4468  0.5431
 2788TIP3   OH2 8369   4.529   3.593   1.177  1.1779 -0.0434  0.7759
 2788TIP3    H1 8370   4.548   3.528   1.109  0.4485  1.2608 -0.7535
 2788TIP3    H2 8371   4.459   3.554   1.229 -0.5120  0.1478 -1.2037
 2789TIP3   OH2 8372   4.888   4.561   1.017  0.5282  0.4016 -0.1043
 2789TIP3    H1 8373   4.951   4.538   1.086  0.5396  0.4859 -0.0864
 2789TIP3    H2 8374   4.810   4.509   1.038 -0.0325  1.5914  0.8853
 2790TIP3   OH2 8375   0.592   0.865   0.232 -0.2570 -0.0854  0.1166
 2790TIP3    H1 8376   0.585   0.909   0.317 -1.1713  0.7764 -0.3833
 2790TIP3    H2 8377   0.521   0.801   0.232 -1.7017  1.4242 -0.8214
 2791TIP3   OH2 8378   3.365   1.160   1.820  0.0561  0.2731 -0.3048
 2791TIP3    H1 8379   3.396   1.103   1.891 -0.3791 -1.3570 -1.3504
 2791TIP3    H2 8380   3.270   1.160   1.829 -0.1502 -1.2448 -1.7212
 2792TIP3   OH2 8381   2.262   5.071   4.872  0.1211 -0.3874 -0.2137
 2792TIP3    H1 8382   2.210   5.126   4.930 -1.8578 -1.2140 -1.1093
 2792TIP3    H2 8383   2.321   5.132   4.827  0.8051  0.4170  1.6578
 2793TIP3   OH2 8384   2.913   3.644   3.929  0.8147  0.3463 -0.2689
 2793TIP3    H1 8385   2.907   3.591   3.849 -0.1866 -1.9963  1.2350
 2793TIP3    H2 8386   2.836   3.700   3.927 -1.6735 -2.6921  0.8936
 2794TIP3   OH2 8387   0.949   1.557   2.161 -0.2011  0.0257  0.2218
 2794TIP3    H1 8388   0.950   1.647   2.127  0.0077 -0.4011 -0.9578
 2794TIP3    H2 8389   0.940   1.502   2.083  3.0013 -1.1568  0.5470
 2795TIP3   OH2 8390   2.145   0.410   4.052 -0.0173  0.0994 -0.1205
 2795TIP3    H1 8391   2.087   0.485   4.056  1.4298  1.4739 -2.6331
 2795TIP3    H2 8392   2.097   0.345   3.999 -0.6698 -0.2139  0.8279
 2796TIP3   OH2 8393   5.264   5.898   3.101  0.0859 -0.0590  0.5538
 2796TIP3    H1 8394   5.322   5.932   3.168  0.6731  1.6833 -0.7527
 2796TIP3    H2 8395   5.318   5.838   3.049  0.0375 -0.2667  0.7398
 2797TIP3   OH2 8396   1.340   5.728   1.939  0.4458  0.2821  0.2691
 2797TIP3    H1 8397   1.317   5.641   1.908  0.1558  0.8836 -1.2822
 2797TIP3    H2 8398   1.269   5.752   1.999  0.2737 -0.3462  0.3187
 2798TIP3   OH2 8399   4.755   1.890   4.749  0.1031  0.5953  0.3851
 2798TIP3    H1 8400   4.780   1.866   4.838 -0.5389  0.5578  0.5639
 2798TIP3    H2 8401   4.676   1.943   4.760 -0.6587 -0.3949 -0.2258
 2799TIP3   OH2 8402   4.871   3.069   1.605 -0.0931 -0.0614  0.4198
 2799TIP3    H1 8403   4.845   3.161   1.597 -0.0341 -0.0368  0.5098
 2799TIP3    H2 8404   4.850   3.046   1.696 -0.7895 -0.3470  0.1946
 2800TIP3   OH2 8405   4.457   1.337   0.022 -0.1610 -0.2863  0.3035
 2800TIP3    H1 8406   4.508   1.256   0.019 -0.2729 -0.3754  0.7159
 2800TIP3    H2 8407   4.452   1.358   0.115 -0.0225  0.2676  0.1891
 2801TIP3   OH2 8408   1.217   0.043   4.535 -0.1642 -0.7649  0.0462
 2801TIP3    H1 8409   1.163  -0.023   4.492 -0.8853 -1.1859  1.5321
 2801TIP3    H2 8410   1.196   0.034   4.628  2.5094 -0.9963  0.6995
 2802TIP3   OH2 8411   5.374   2.501   0.846 -0.4370 -0.5887 -0.0574
 2802TIP3    H1 8412   5.436   2.458   0.787 -1.1820 -0.2162 -1.1385
 2802TIP3    H2 8413   5.307   2.538   0.788 -1.1941 -0.2144  1.0243
 2803TIP3   OH2 8414   5.123   4.765   4.415  0.1131 -0.0059 -0.0411
 2803TIP3    H1 8415   5.077   4.683   4.394  1.6423 -1.1288  0.8115
 2803TIP3    H2 8416   5.209   4.737   4.447  1.2426  1.9911 -1.1111
 2804TIP3   OH2 8417   5.619   2.733   4.403  0.6085  0.0757 -0.1810
 2804TIP3    H1 8418   5.630   2.639   4.415  0.6108  0.0668 -0.2529
 2804TIP3    H2 8419   5.525   2.748   4.408  0.5365 -0.0497 -1.0354
 2805TIP3   OH2 8420   4.691   1.762   1.994 -0.0646  0.4727  0.2148
 2805TIP3    H1 8421   4.663   1.729   1.909 -2.1629 -1.0303  1.4205
 2805TIP3    H2 8422   4.701   1.857   1.980 -0.2547  0.2514 -1.7080
 2806TIP3   OH2 8423   5.469   2.406   1.375 -0.1941  0.2237  0.3638
 2806TIP3    H1 8424   5.434   2.341   1.436 -0.9897  1.7252  1.6070
 2806TIP3    H2 8425   5.391   2.445   1.335  0.3094 -0.4166 -1.3219
 2807TIP3   OH2 8426   5.401   4.407   2.128  0.1981  0.2986 -0.2621
 2807TIP3    H1 8427   5.459   4.414   2.053  0.7020  0.4963  0.1411
 2807TIP3    H2 8428   5.344   4.332   2.108  0.2803  0.3932 -0.8640
 2808TIP3   OH2 8429   0.578   5.478   0.148  0.6182 -0.1048  0.2489
 2808TIP3    H1 8430   0.491   5.464   0.112  1.8861 -1.5790 -2.5858
 2808TIP3    H2 8431   0.594   5.572   0.137  0.3320 -0.2431 -1.6892
 2809TIP3   OH2 8432   6.121   0.927   1.410 -0.3271 -0.5649 -0.0180
 2809TIP3    H1 8433   6.103   0.881   1.492 -0.3252 -1.1381 -0.3319
 2809TIP3    H2 8434   6.212   0.905   1.391  0.1090  0.6739  0.5196
 2810TIP3   OH2 8435   0.625   0.992   2.757 -0.4613  0.3216 -0.5432
 2810TIP3    H1 8436   0.716   1.021   2.765 -0.0536 -1.4018  2.8186
 2810TIP3    H2 8437   0.579   1.039   2.826 -2.4380  1.7488 -2.6680
 2811TIP3   OH2 8438   1.994   2.568   3.327 -0.2438  0.3009 -0.2793
 2811TIP3    H1 8439   2.008   2.644   3.385 -1.0996  0.4934 -0.3087
 2811TIP3    H2 8440   1.932   2.513   3.375 -2.3536  1.2980 -1.7066
 2812TIP3   OH2 8441   5.579   3.893   3.701 -0.5160 -0.3638  0.2065
 2812TIP3    H1 8442   5.493   3.934   3.693 -0.1422  0.3606 -0.1203
 2812TIP3    H2 8443   5.616   3.896   3.613  0.2260  0.1831  0.5248
 2813TIP3   OH2 8444   0.510   2.761   1.489 -0.3108 -0.2841 -0.2895
 2813TIP3    H1 8445   0.593   2.801   1.466 -0.2487  0.1910  0.7256
 2813TIP3    H2 8446   0.470   2.821   1.551 -1.6165 -0.2929 -1.0907
 2814TIP3   OH2 8447   5.291   3.142   2.576  0.0460 -0.3837 -0.1482
 2814TIP3    H1 8448   5.252   3.227   2.555  0.6117  0.1782  0.9374
 2814TIP3    H2 8449   5.243   3.079   2.523 -0.5895  0.5811 -0.7526
 2815TIP3   OH2 8450   4.002   1.718   0.106  0.0637 -0.0512 -0.2416
 2815TIP3    H1 8451   4.006   1.681   0.018  0.9321  0.6436 -0.5102
 2815TIP3    H2 8452   4.030   1.647   0.163 -0.6770 -0.5643 -0.4974
 2816TIP3   OH2 8453   2.102   3.056   5.219 -0.2600  0.3933  0.2962
 2816TIP3    H1 8454   2.073   3.129   5.165  0.6133  0.8758  0.4756
 2816TIP3    H2 8455   2.152   3.000   5.160  0.2301  0.6402  0.4760
 2817TIP3   OH2 8456   0.389   3.891   2.049 -0.2939  0.1898 -0.1560
 2817TIP3    H1 8457   0.335   3.873   2.126  0.4379  1.1421  0.5979
 2817TIP3    H2 8458   0.417   3.805   2.019 -0.4396 -0.1827  0.7494
 2818TIP3   OH2 8459   2.792   4.295   1.331  0.3190 -0.0867  0.5619
 2818TIP3    H1 8460   2.764   4.203   1.335 -0.5872  0.1930  0.9650
 2818TIP3    H2 8461   2.716   4.341   1.296  0.8945  0.4673  0.0195
 2819TIP3   OH2 8462   4.513   0.539   4.296 -0.1086 -0.1691  0.1229
 2819TIP3    H1 8463   4.461   0.604   4.247 -0.7803  0.0124  1.0490
 2819TIP3    H2 8464   4.521   0.577   4.384  0.5036 -0.8034  0.3435
 2820TIP3   OH2 8465   1.675   4.115   0.718  0.0000  0.0862  0.2480
 2820TIP3    H1 8466   1.584   4.143   0.723  1.0189  3.6974  1.1563
 2820TIP3    H2 8467   1.697   4.089   0.807  0.3437  0.9835  0.4281
 2821TIP3   OH2 8468   1.269   2.492   0.991 -0.5434  0.2130  0.4527
 2821TIP3    H1 8469   1.294   2.584   0.977 -1.6259  0.2916 -1.2611
 2821TIP3    H2 8470   1.308   2.469   1.075  0.1712  2.0948  0.6824
 2822TIP3   OH2 8471   4.772   4.935   0.603 -0.8704 -0.6503  0.1043
 2822TIP3    H1 8472   4.728   5.018   0.618 -0.1634 -0.2918  0.2277
 2822TIP3    H2 8473   4.769   4.890   0.688  3.1711  1.3995  1.6278
 2823TIP3   OH2 8474   0.416   4.244   2.809  0.1500  0.5857 -0.2094
 2823TIP3    H1 8475   0.469   4.190   2.751 -0.0125  0.3673 -0.1545
 2823TIP3    H2 8476   0.410   4.193   2.890 -1.4184 -0.0960 -0.7241
 2824TIP3   OH2 8477   6.328   3.329   0.282  0.1849 -0.2512 -0.5358
 2824TIP3    H1 8478   6.285   3.412   0.305  1.1021  0.4705 -1.3537
 2824TIP3    H2 8479   6.339   3.334   0.187 -0.2572 -1.5737 -0.6699
 2825TIP3   OH2 8480   1.598   5.719   3.440  0.3922  0.3555  0.3329
 2825TIP3    H1 8481   1.618   5.758   3.355 -0.0069 -0.7308 -0.2749
 2825TIP3    H2 8482   1.534   5.650   3.420 -0.2274  0.5364  1.5985
 2826TIP3   OH2 8483   5.796   1.737   0.010  0.3260 -0.2255 -0.1929
 2826TIP3    H1 8484   5.878   1.690  -0.008 -0.8293 -2.5847  0.3203
 2826TIP3    H2 8485   5.820   1.800   0.079  2.2089  0.9312 -1.7758
 2827TIP3   OH2 8486   5.801   4.215   0.449  0.4595  0.2678 -0.3107
 2827TIP3    H1 8487   5.886   4.249   0.422  0.3262 -0.1573 -1.3190
 2827TIP3    H2 8488   5.748   4.293   0.465  0.5676  0.5537 -1.2543
 2828TIP3   OH2 8489   5.640   1.273   4.571 -0.0924 -0.6013  0.2565
 2828TIP3    H1 8490   5.593   1.339   4.622 -0.6466 -0.4714 -0.4075
 2828TIP3    H2 8491   5.601   1.190   4.598  0.2300 -0.6150  0.6919
 2829TIP3   OH2 8492   1.023   3.736   4.007 -0.0075 -0.0498  0.0761
 2829TIP3    H1 8493   1.106   3.705   4.042  0.8581 -0.3841 -2.1069
 2829TIP3    H2 8494   1.034   3.733   3.912 -2.5845 -0.2866 -0.3023
 2830TIP3   OH2 8495   2.275   4.770   3.867 -0.0233  0.3507 -0.8771
 2830TIP3    H1 8496   2.262   4.759   3.773  1.4443 -0.1973 -1.0369
 2830TIP3    H2 8497   2.251   4.861   3.884  0.2387  0.6185 -1.8869
 2831TIP3   OH2 8498   0.272   5.750   1.924  0.1916  0.5023  0.3825
 2831TIP3    H1 8499   0.180   5.748   1.899  1.1762  1.3495 -4.0425
 2831TIP3    H2 8500   0.271   5.749   2.020 -4.2386 -2.4461  0.5482
 2832TIP3   OH2 8501   3.500   4.802   5.053 -0.8011  0.2432 -0.6930
 2832TIP3    H1 8502   3.467   4.737   5.115 -0.7537  0.5590 -0.3361
 2832TIP3    H2 8503   3.589   4.773   5.034 -0.2795  0.9792  0.5573
 2833TIP3   OH2 8504   1.146   1.751   1.738 -0.3121  0.5288 -0.1424
 2833TIP3    H1 8505   1.116   1.835   1.704  1.7095  0.6438 -1.8221
 2833TIP3    H2 8506   1.080   1.688   1.708 -1.6588  1.3928  0.8365
 2834TIP3   OH2 8507   6.321   2.902   0.861  0.4113  0.4619  0.2615
 2834TIP3    H1 8508   6.377   2.905   0.783 -0.7659  1.1803 -0.5943
 2834TIP3    H2 8509   6.303   2.809   0.873  0.9075  0.3090 -0.1028
 2835TIP3   OH2 8510   1.141   3.322   3.331 -0.4019  0.0582 -0.4068
 2835TIP3    H1 8511   1.146   3.305   3.425  0.0918  2.2144 -0.0007
 2835TIP3    H2 8512   1.152   3.236   3.290  0.3981 -0.7721  1.4681
 2836TIP3   OH2 8513   3.972   3.978   1.938 -0.6779 -0.4166  0.5054
 2836TIP3    H1 8514   3.909   4.029   1.887 -0.3561  0.1487  0.6716
 2836TIP3    H2 8515   3.923   3.950   2.015 -0.6660  0.2196  0.7495
 2837TIP3   OH2 8516   2.607   5.609   3.644 -0.5127  0.0774  0.3803
 2837TIP3    H1 8517   2.524   5.640   3.606 -0.7736  1.4690  1.9748
 2837TIP3    H2 8518   2.658   5.689   3.658  0.5847 -0.6511  0.6437
 2838TIP3   OH2 8519   1.962   0.220   3.964 -0.2052 -0.3893 -0.0864
 2838TIP3    H1 8520   1.928   0.192   4.049 -0.8968 -0.6270 -0.4246
 2838TIP3    H2 8521   1.909   0.170   3.901 -0.4946  0.6432 -0.6744
 2839TIP3   OH2 8522   3.955   4.093   2.501 -0.2560  0.0954  0.1753
 2839TIP3    H1 8523   4.025   4.112   2.438 -0.3257 -0.5893 -0.1150
 2839TIP3    H2 8524   3.955   4.169   2.559 -0.4281  0.9222 -0.8607
 2840TIP3   OH2 8525   5.111   5.208   1.270  0.1281  0.9221 -0.3703
 2840TIP3    H1 8526   5.194   5.194   1.316 -0.8732  1.6089  1.7927
 2840TIP3    H2 8527   5.098   5.128   1.220  1.5724  0.3440  0.1164
 2841TIP3   OH2 8528   1.139   5.642   3.349  0.0157  0.5921  0.0036
 2841TIP3    H1 8529   1.168   5.732   3.334 -1.2406  1.0495  0.2170
 2841TIP3    H2 8530   1.152   5.627   3.443 -2.2191  1.4951  0.5144
 2842TIP3   OH2 8531   4.438   3.910   2.903  0.7059 -0.4898 -0.0771
 2842TIP3    H1 8532   4.520   3.957   2.893  0.3135  0.3491  0.4843
 2842TIP3    H2 8533   4.390   3.960   2.969 -0.5963 -0.4823 -0.9933
 2843TIP3   OH2 8534   5.752   1.202   1.038  0.4435  0.3648  0.2342
 2843TIP3    H1 8535   5.798   1.133   1.085  1.7071  1.9179  1.4197
 2843TIP3    H2 8536   5.763   1.181   0.945  0.9718 -0.8889  0.5711
 2844TIP3   OH2 8537   2.538   4.307   4.077 -0.2897 -0.3601  0.5652
 2844TIP3    H1 8538   2.498   4.394   4.085  0.3282 -0.2414  3.2651
 2844TIP3    H2 8539   2.611   4.309   4.139  0.5207 -2.4074 -0.2428
 2845TIP3   OH2 8540   3.284   4.173   0.420 -0.1999 -0.3665 -0.0726
 2845TIP3    H1 8541   3.198   4.181   0.379  0.7511 -0.3774 -2.2337
 2845TIP3    H2 8542   3.346   4.184   0.348  1.6111 -0.8858  1.3190
 2846TIP3   OH2 8543   5.223   4.443   1.692  0.3595 -0.2966 -0.1833
 2846TIP3    H1 8544   5.259   4.530   1.708  1.1448 -0.7134  0.4008
 2846TIP3    H2 8545   5.128   4.456   1.690  0.5061  0.7667 -1.3811
 2847TIP3   OH2 8546   5.890   0.516   3.137  0.2969 -0.4771 -0.1777
 2847TIP3    H1 8547   5.887   0.421   3.130 -0.6813 -0.6286  1.5398
 2847TIP3    H2 8548   5.931   0.545   3.056 -0.7070 -2.2742 -1.4142
 2848TIP3   OH2 8549   6.137   1.009   3.512  0.0700 -0.9398 -0.1489
 2848TIP3    H1 8550   6.045   0.986   3.499 -0.0926 -0.3897 -0.0231
 2848TIP3    H2 8551   6.146   1.019   3.607 -0.0890  0.3496 -0.2514
 2849TIP3   OH2 8552   6.223   0.038   1.049  0.2026  0.5751 -0.2893
 2849TIP3    H1 8553   6.183  -0.029   1.104  0.0155  0.8764 -0.0527
 2849TIP3    H2 8554   6.292   0.076   1.104  1.2122 -0.3383 -0.8973
 2850TIP3   OH2 8555   4.402   3.320   4.113  0.1966  0.0862  0.1767
 2850TIP3    H1 8556   4.385   3.390   4.050  1.2688  1.7007  1.5661
 2850TIP3    H2 8557   4.378   3.358   4.198  1.5359 -0.9208  1.0652
 2851TIP3   OH2 8558   0.567   2.244   0.468  0.2742 -0.1452  0.0365
 2851TIP3    H1 8559   0.540   2.239   0.376 -0.1812  0.8298  0.0942
 2851TIP3    H2 8560   0.522   2.171   0.510 -3.1950  1.8983  0.2906
 2852TIP3   OH2 8561   1.844   0.999   1.067 -0.3203  0.1751  0.1581
 2852TIP3    H1 8562   1.811   1.036   0.985 -0.5201  0.0745  0.1910
 2852TIP3    H2 8563   1.877   1.074   1.116  1.4754  0.0368 -0.7609
 2853TIP3   OH2 8564   3.184   3.777   1.317  0.7728  0.1695  0.2365
 2853TIP3    H1 8565   3.228   3.714   1.374 -1.2262 -1.2981  0.2389
 2853TIP3    H2 8566   3.228   3.768   1.232  1.6928  0.1215  0.6988
 2854TIP3   OH2 8567   1.191   3.183   0.779 -0.7754  0.3191 -0.2885
 2854TIP3    H1 8568   1.196   3.236   0.699 -0.8078 -0.4438 -0.8057
 2854TIP3    H2 8569   1.193   3.093   0.748  0.1282  0.0011  0.6397
 2855TIP3   OH2 8570   0.358   4.116   3.687 -0.0968 -0.0861 -0.3206
 2855TIP3    H1 8571   0.376   4.210   3.685 -1.4380  0.2153  0.7484
 2855TIP3    H2 8572   0.350   4.091   3.595 -1.5508  1.2317 -0.5831
 2856TIP3   OH2 8573   3.772   2.184   4.672 -0.2918 -0.2232  0.5950
 2856TIP3    H1 8574   3.837   2.150   4.610 -0.1006  0.2269  0.5481
 2856TIP3    H2 8575   3.715   2.109   4.690 -0.2019 -0.4238  0.0652
 2857TIP3   OH2 8576   0.129   4.060   2.873  0.2248 -0.3172 -0.9974
 2857TIP3    H1 8577   0.187   4.071   2.948 -0.8597 -2.7192  0.2931
 2857TIP3    H2 8578   0.091   4.147   2.860 -0.1493  0.0246  1.7571
 2858TIP3   OH2 8579   5.789   2.118   2.219  0.1742  0.4023 -0.0746
 2858TIP3    H1 8580   5.743   2.135   2.137  0.1333  0.6254 -0.0051
 2858TIP3    H2 8581   5.720   2.095   2.281  0.0596  1.5722  0.2543
 2859TIP3   OH2 8582   1.007   3.655   1.152  0.3532  0.6552 -0.4202
 2859TIP3    H1 8583   1.078   3.622   1.207  0.7206  0.4563 -0.9947
 2859TIP3    H2 8584   1.036   3.742   1.125 -0.2810  1.1637  0.4984
 2860TIP3   OH2 8585   1.871   3.871   4.884 -0.4176 -0.5947 -0.0828
 2860TIP3    H1 8586   1.909   3.783   4.888  1.4859  0.1271 -0.9482
 2860TIP3    H2 8587   1.928   3.925   4.939 -0.4191  0.4432 -1.0459
 2861TIP3   OH2 8588   3.791   2.454   0.260  0.1346 -0.1940 -0.6318
 2861TIP3    H1 8589   3.886   2.467   0.260  0.0844  0.1986 -0.8935
 2861TIP3    H2 8590   3.768   2.446   0.353 -0.0292  3.3302 -0.2175
 2862TIP3   OH2 8591   2.752   5.675   1.391 -0.5182 -0.0119  0.1632
 2862TIP3    H1 8592   2.807   5.754   1.383 -0.1262 -0.3501 -0.6632
 2862TIP3    H2 8593   2.689   5.697   1.459 -1.2723  1.5351 -0.9494
 2863TIP3   OH2 8594   4.267   1.738   1.153  0.4660 -0.1471 -0.2834
 2863TIP3    H1 8595   4.261   1.831   1.132  0.8879 -0.0967 -0.1887
 2863TIP3    H2 8596   4.199   1.697   1.100  0.0795  0.2519 -0.1004
 2864TIP3   OH2 8597   4.907   4.987   3.587 -0.3651 -0.6147  0.4233
 2864TIP3    H1 8598   4.829   5.043   3.585 -0.6226 -0.9867 -0.7892
 2864TIP3    H2 8599   4.914   4.959   3.678 -0.5096  0.9819  0.9631
 2865TIP3   OH2 8600   2.928   4.756   0.547 -0.0877 -0.5120 -0.3737
 2865TIP3    H1 8601   2.965   4.806   0.474  0.5550 -1.5478 -0.7707
 2865TIP3    H2 8602   2.834   4.773   0.542  0.1297  0.8516 -0.3423
 2866TIP3   OH2 8603   5.835   5.286   3.968 -0.0702 -0.1164  0.7218
 2866TIP3    H1 8604   5.872   5.369   3.938  1.4489 -0.7427  0.7875
 2866TIP3    H2 8605   5.791   5.250   3.891  2.1485 -0.8016 -0.3121
 2867TIP3   OH2 8606   5.277   4.808   0.758 -0.1713 -0.2667  0.1375
 2867TIP3    H1 8607   5.329   4.734   0.788 -0.6282 -0.3894  0.6472
 2867TIP3    H2 8608   5.196   4.803   0.810 -0.1822  0.6146  0.2158
 2868TIP3   OH2 8609   1.771   1.391   4.564 -0.1508 -0.2401 -0.1762
 2868TIP3    H1 8610   1.732   1.362   4.646  0.6692 -1.1235 -0.0843
 2868TIP3    H2 8611   1.738   1.329   4.499 -0.6364  0.3346 -0.4829
 2869TIP3   OH2 8612   1.194   3.451   0.283  0.0462  0.5160 -0.2348
 2869TIP3    H1 8613   1.281   3.449   0.243 -0.1135  0.3332 -0.5846
 2869TIP3    H2 8614   1.136   3.418   0.214 -0.1890 -0.1367  0.2692
 2870TIP3   OH2 8615   1.823   4.857   2.423 -0.7304 -0.3475 -0.1648
 2870TIP3    H1 8616   1.740   4.835   2.465 -1.0733 -0.1964 -0.7535
 2870TIP3    H2 8617   1.864   4.773   2.403 -0.0754 -0.4292  1.4038
 2871TIP3   OH2 8618   4.216   0.062   1.488 -0.3806  0.4189 -0.6240
 2871TIP3    H1 8619   4.139   0.076   1.432 -0.9877 -0.1909  0.0421
 2871TIP3    H2 8620   4.214  -0.031   1.508 -0.6399  0.7546  1.0533
 2872TIP3   OH2 8621   2.082   3.088   0.335 -0.2101  0.2197  0.2873
 2872TIP3    H1 8622   2.131   3.111   0.414  0.5335 -3.8830  1.2806
 2872TIP3    H2 8623   1.997   3.058   0.367 -0.2307 -0.6570 -0.5432
 2873TIP3   OH2 8624   3.080   0.748   2.023 -0.1152 -0.1714 -0.5716
 2873TIP3    H1 8625   3.074   0.686   1.950 -0.0383  0.0719 -0.7846
 2873TIP3    H2 8626   3.171   0.742   2.052  0.2919  0.9340 -1.5583
 2874TIP3   OH2 8627   3.545   1.480   5.156  0.0768  0.6615  0.3413
 2874TIP3    H1 8628   3.598   1.515   5.228 -2.5101 -0.5665  3.0739
 2874TIP3    H2 8629   3.473   1.542   5.146 -0.1516  0.2851 -0.4851
 2875TIP3   OH2 8630   4.529   3.597   0.708  0.1709  0.1644  0.5521
 2875TIP3    H1 8631   4.516   3.523   0.766 -2.1700 -1.0717 -1.3655
 2875TIP3    H2 8632   4.445   3.607   0.663  2.0355  0.4222 -3.2491
 2876TIP3   OH2 8633   4.398   2.086   5.081 -0.0706 -0.1404  0.6514
 2876TIP3    H1 8634   4.378   2.014   5.141 -1.3874 -0.4404 -0.1291
 2876TIP3    H2 8635   4.313   2.115   5.048  0.4581  1.5966  0.7254
 2877TIP3   OH2 8636   5.119   1.336   4.090  0.1098 -0.6173 -0.3194
 2877TIP3    H1 8637   5.030   1.361   4.066 -0.0008 -1.5161 -0.8809
 2877TIP3    H2 8638   5.175   1.382   4.029  0.1559  1.1703  0.9850
 2878TIP3   OH2 8639   0.007   3.843   3.873  0.1329 -0.1918  0.2868
 2878TIP3    H1 8640   0.027   3.751   3.888  1.3140 -0.5664 -2.8313
 2878TIP3    H2 8641   0.090   3.882   3.847 -0.4220  1.7111  1.1654
 2879TIP3   OH2 8642   5.410   1.991   1.047  0.3380  0.5726 -0.3489
 2879TIP3    H1 8643   5.327   1.984   1.000 -0.3136  0.5470  0.7605
 2879TIP3    H2 8644   5.433   2.083   1.043  0.1350  0.6181 -0.4658
 2880TIP3   OH2 8645   4.250   3.402   0.802 -0.5365 -0.0949  0.0931
 2880TIP3    H1 8646   4.215   3.315   0.822  0.4972 -0.3859  0.7189
 2880TIP3    H2 8647   4.229   3.416   0.710 -0.6186 -1.0491 -0.0384
 2881TIP3   OH2 8648   4.569   1.196   4.340  0.3378  0.5782  0.1576
 2881TIP3    H1 8649   4.637   1.131   4.357  1.1502  1.5441  0.7776
 2881TIP3    H2 8650   4.556   1.194   4.246 -0.1169 -0.9205  0.2347
 2882TIP3   OH2 8651   0.197   2.929   4.828  0.0712 -0.1466 -0.5919
 2882TIP3    H1 8652   0.118   2.947   4.776  0.3732  1.9548 -0.4016
 2882TIP3    H2 8653   0.268   2.969   4.778  1.2522 -2.9352 -1.2975
 2883TIP3   OH2 8654   0.394   0.619   4.209  0.5936 -0.0896 -0.4435
 2883TIP3    H1 8655   0.333   0.665   4.266  0.0227 -0.9502 -0.3397
 2883TIP3    H2 8656   0.447   0.688   4.170 -0.1509  0.6448 -0.1919
 2884TIP3   OH2 8657   0.996   2.903   1.979  0.0727  0.5881 -0.5354
 2884TIP3    H1 8658   1.050   2.879   2.054 -0.1876 -1.9813 -1.0765
 2884TIP3    H2 8659   1.015   2.835   1.913 -2.6234  0.4723 -1.3063
 2885TIP3   OH2 8660   1.885   2.474   0.219 -0.3232 -0.0550  0.4115
 2885TIP3    H1 8661   1.826   2.407   0.184 -0.7196  0.2282  0.5265
 2885TIP3    H2 8662   1.839   2.508   0.296  0.3687 -0.4127  0.9907
 2886TIP3   OH2 8663   1.436   1.090   5.135  0.7127 -0.5563  0.1072
 2886TIP3    H1 8664   1.386   1.125   5.061  0.6890 -0.9194 -0.0541
 2886TIP3    H2 8665   1.384   1.113   5.212 -1.2106 -3.2868 -0.2117
 2887TIP3   OH2 8666   0.524   3.503   1.289 -0.4956 -0.2116 -0.4914
 2887TIP3    H1 8667   0.612   3.492   1.254 -0.7774 -0.8740 -1.0286
 2887TIP3    H2 8668   0.483   3.569   1.233 -0.5637 -0.4120 -0.6790
 2888TIP3   OH2 8669   0.807   5.113   2.285 -0.2530  0.0556  0.1499
 2888TIP3    H1 8670   0.794   5.154   2.200  0.7169 -1.0914 -0.6017
 2888TIP3    H2 8671   0.739   5.045   2.290 -0.5642  0.3877  0.4758
 2889TIP3   OH2 8672   1.714   5.483   4.701  0.5546  0.5659 -0.1613
 2889TIP3    H1 8673   1.690   5.531   4.780 -1.4529 -1.4996  0.5933
 2889TIP3    H2 8674   1.646   5.505   4.637 -0.2141 -0.9373  0.0989
 2890TIP3   OH2 8675   5.833   0.707   4.627 -0.2766 -0.1717 -0.5470
 2890TIP3    H1 8676   5.906   0.646   4.634 -0.4023 -0.4455 -1.3839
 2890TIP3    H2 8677   5.780   0.671   4.556  0.6795  1.9540 -2.4684
 2891TIP3   OH2 8678   6.168   2.977   2.605 -0.3125 -0.1743  0.0152
 2891TIP3    H1 8679   6.248   2.995   2.655 -0.6670  2.6920 -0.3354
 2891TIP3    H2 8680   6.198   2.923   2.532  0.8273 -1.2903  1.2524
 2892TIP3   OH2 8681   5.007   1.695   4.897  0.6512  0.5576 -0.0460
 2892TIP3    H1 8682   5.052   1.685   4.813  1.6382  0.6685  0.4577
 2892TIP3    H2 8683   5.027   1.785   4.924  2.2851 -0.2011  1.3942
 2893TIP3   OH2 8684   1.804   0.761   4.581  0.0696  0.1128 -1.1572
 2893TIP3    H1 8685   1.855   0.828   4.535  0.4142 -0.5958 -1.8437
 2893TIP3    H2 8686   1.817   0.682   4.529 -0.2177 -0.5224 -0.2833
 2894TIP3   OH2 8687   0.076   3.111   2.031 -0.2465 -0.4694 -0.4745
 2894TIP3    H1 8688   0.096   3.186   2.087  0.8392 -1.1527  0.0724
 2894TIP3    H2 8689   0.148   3.050   2.045 -2.1486 -2.5941  0.7853
 2895TIP3   OH2 8690   3.160   0.171   2.053  0.3506 -0.1810 -0.0015
 2895TIP3    H1 8691   3.198   0.204   2.134  0.4076 -1.4415  0.5098
 2895TIP3    H2 8692   3.097   0.104   2.081 -0.1429 -0.1479 -0.9656
 2896TIP3   OH2 8693   4.800   3.343   4.583  0.1136 -0.3324  0.9885
 2896TIP3    H1 8694   4.727   3.298   4.625 -1.6201  1.8171  0.4385
 2896TIP3    H2 8695   4.825   3.412   4.644 -0.0740  0.5712  0.0836
 2897TIP3   OH2 8696   6.095   0.401   4.387 -0.0215  0.4297  0.5687
 2897TIP3    H1 8697   6.019   0.353   4.352 -0.2207  0.9683  0.2527
 2897TIP3    H2 8698   6.147   0.334   4.431 -0.5842  0.0185  0.6242
 2898TIP3   OH2 8699   2.155   2.169   3.166  0.6399 -0.4085 -0.1622
 2898TIP3    H1 8700   2.093   2.103   3.198 -0.0251  0.3185  0.1014
 2898TIP3    H2 8701   2.199   2.200   3.245 -0.8184  1.2035  0.0787
 2899TIP3   OH2 8702   2.959   3.137   0.275  0.2474 -1.0692  0.3456
 2899TIP3    H1 8703   2.928   3.217   0.318 -0.9289 -1.8877  1.0500
 2899TIP3    H2 8704   2.905   3.131   0.196  0.3032 -1.2031  0.3186
 2900TIP3   OH2 8705   1.088   4.896   4.337 -0.0231 -0.0905  0.7152
 2900TIP3    H1 8706   0.993   4.911   4.333  0.1239  0.6678 -0.4486
 2900TIP3    H2 8707   1.126   4.984   4.336  0.7212 -0.3936 -0.5392
 2901TIP3   OH2 8708   0.910   5.651   3.612 -0.1964  0.1245  0.0290
 2901TIP3    H1 8709   0.893   5.725   3.670 -0.6826 -1.1223  1.5462
 2901TIP3    H2 8710   0.844   5.657   3.543  1.0868  2.2735 -1.1180
 2902TIP3   OH2 8711   2.917   2.419   4.396 -0.2192 -0.1550 -0.2254
 2902TIP3    H1 8712   2.953   2.456   4.477 -0.5818  0.8412 -0.5081
 2902TIP3    H2 8713   2.993   2.406   4.339 -0.1002  0.2582 -0.1595
 2903TIP3   OH2 8714   6.022   4.763   1.394  0.1177  0.0860 -0.4222
 2903TIP3    H1 8715   5.972   4.800   1.321 -0.5783 -1.3800 -0.7259
 2903TIP3    H2 8716   6.101   4.816   1.398 -0.4776  1.0833 -1.3374
 2904TIP3   OH2 8717   5.935   1.553   4.941 -0.1272 -0.5154 -0.0360
 2904TIP3    H1 8718   5.861   1.566   4.881 -0.4857  0.4535  0.5908
 2904TIP3    H2 8719   6.009   1.594   4.897 -0.2368 -0.4067 -0.1206
 2905TIP3   OH2 8720   1.077   3.101   2.289 -0.2510 -0.0738 -0.1938
 2905TIP3    H1 8721   1.152   3.108   2.231  0.1651 -1.5355  0.1395
 2905TIP3    H2 8722   1.097   3.161   2.362  0.4916 -0.2971 -0.2093
 2906TIP3   OH2 8723   6.383   1.054   4.731 -0.6745  0.7964 -0.3861
 2906TIP3    H1 8724   6.303   1.105   4.714 -1.6093  0.2281  1.8810
 2906TIP3    H2 8725   6.353   0.963   4.733 -0.2696  0.6629  1.7643
 2907TIP3   OH2 8726   0.953   5.903   4.237 -0.3934  0.0031 -0.1520
 2907TIP3    H1 8727   1.028   5.955   4.210  0.2012 -0.2656  0.9174
 2907TIP3    H2 8728   0.901   5.961   4.293 -1.3535  0.4027 -1.4240
 2908TIP3   OH2 8729   5.313   3.345   4.316 -0.1864 -0.2667  0.2223
 2908TIP3    H1 8730   5.394   3.343   4.366 -0.2208 -1.1931  0.2501
 2908TIP3    H2 8731   5.332   3.297   4.236  0.0790  1.7884 -1.0274
 2909TIP3   OH2 8732   2.015   1.750   2.217 -0.3336  0.0915  0.2663
 2909TIP3    H1 8733   2.108   1.729   2.202  0.2980  1.4836  1.9850
 2909TIP3    H2 8734   1.994   1.814   2.149 -0.1417 -0.3929 -0.2703
 2910TIP3   OH2 8735   1.813   3.766   3.032 -0.0161  0.4052 -0.2235
 2910TIP3    H1 8736   1.779   3.763   3.121 -0.7556 -1.5516 -0.5142
 2910TIP3    H2 8737   1.758   3.832   2.988 -1.5847 -0.6510  0.0673
 2911TIP3   OH2 8738   4.907   1.095   1.051  0.3949 -0.0737 -0.0589
 2911TIP3    H1 8739   4.818   1.061   1.044 -0.2209  1.6362 -1.3158
 2911TIP3    H2 8740   4.903   1.182   1.010  3.0325 -0.7007 -1.9176
 2912TIP3   OH2 8741   2.945   3.605   0.675  0.1891  0.7233  0.5949
 2912TIP3    H1 8742   2.887   3.586   0.749  0.3264  4.6518  1.9586
 2912TIP3    H2 8743   3.033   3.600   0.712  0.7926 -2.8730 -0.8976
 2913TIP3   OH2 8744   1.634   3.335   4.875  0.1917  0.4157 -0.0301
 2913TIP3    H1 8745   1.557   3.358   4.927 -0.5017 -0.8235 -0.4543
 2913TIP3    H2 8746   1.673   3.262   4.924 -0.3840 -0.6627 -1.1158
 2914TIP3   OH2 8747   0.584   1.804   1.571  0.3111 -0.2257  0.1609
 2914TIP3    H1 8748   0.543   1.885   1.601  1.7541  0.2633  0.8886
 2914TIP3    H2 8749   0.567   1.741   1.641  3.6320  0.9000  2.2138
 2915TIP3   OH2 8750   2.343   2.908   2.140  0.1189 -0.2803 -0.0010
 2915TIP3    H1 8751   2.281   2.891   2.211  0.0297 -0.8999 -0.2222
 2915TIP3    H2 8752   2.423   2.861   2.165  0.8528  1.2921  0.7500
 2916TIP3   OH2 8753   2.063   3.317   4.118 -0.3894 -0.5429 -0.1578
 2916TIP3    H1 8754   2.139   3.322   4.174 -0.9975 -2.3417  0.9018
 2916TIP3    H2 8755   2.004   3.385   4.150  1.1787  1.7057 -1.7691
 2917TIP3   OH2 8756   0.991   1.139   4.436  0.4546  0.7105 -0.0430
 2917TIP3    H1 8757   1.072   1.089   4.442  1.2238  1.8308 -0.6441
 2917TIP3    H2 8758   1.000   1.208   4.502  0.1144  1.0179 -0.3100
 2918TIP3   OH2 8759   3.446   3.363   3.911 -0.7787 -0.2861  0.0297
 2918TIP3    H1 8760   3.351   3.351   3.915 -0.6642 -0.8848  1.2099
 2918TIP3    H2 8761   3.460   3.452   3.945 -0.9992  0.3936 -1.5220
 2919TIP3   OH2 8762   4.420   5.034   0.450 -0.3511 -0.3814  0.5754
 2919TIP3    H1 8763   4.438   4.951   0.406 -1.4356 -1.4727  2.0731
 2919TIP3    H2 8764   4.326   5.030   0.471 -0.1878  0.7548  1.6131
 2920TIP3   OH2 8765   2.223   1.015   1.506  0.0100 -0.2369 -0.2032
 2920TIP3    H1 8766   2.290   1.015   1.437  1.1628  0.8217  0.8657
 2920TIP3    H2 8767   2.272   0.999   1.587 -1.1177 -0.0100  0.5511
 2921TIP3   OH2 8768   0.653   1.581   3.962 -0.4367  0.8165  0.3192
 2921TIP3    H1 8769   0.714   1.594   3.890 -0.4857  0.3015  0.1829
 2921TIP3    H2 8770   0.678   1.497   4.000 -0.9535  0.6793  0.3647
 2922TIP3   OH2 8771   2.186   3.000   1.122  0.0650  0.1563 -0.2898
 2922TIP3    H1 8772   2.247   2.928   1.103 -0.6339 -0.3707 -0.5929
 2922TIP3    H2 8773   2.236   3.079   1.101  0.9661 -0.2090  0.3770
 2923TIP3   OH2 8774   6.166   3.201   2.409 -0.1400 -0.0653 -0.3663
 2923TIP3    H1 8775   6.148   3.118   2.453 -2.5224 -0.1827 -1.4038
 2923TIP3    H2 8776   6.181   3.264   2.479 -0.6746 -0.8879  0.5030
 2924TIP3   OH2 8777   4.747   1.788   0.713  0.1674 -0.1338  0.1980
 2924TIP3    H1 8778   4.730   1.810   0.805  0.4069 -0.1820  0.2533
 2924TIP3    H2 8779   4.767   1.695   0.714 -1.2627 -0.4756 -0.0914
 2925TIP3   OH2 8780   0.693   5.152   3.785  0.1114 -1.1085 -0.4795
 2925TIP3    H1 8781   0.633   5.138   3.712 -1.3185  0.7750  0.2421
 2925TIP3    H2 8782   0.774   5.181   3.744 -0.4409 -0.7789 -1.3748
 2926TIP3   OH2 8783   1.367   0.992   2.633 -0.4046 -0.4545 -0.6774
 2926TIP3    H1 8784   1.327   0.983   2.720  1.2498  0.1381  0.1800
 2926TIP3    H2 8785   1.311   1.056   2.588 -0.0491  0.9221  0.7555
 2927TIP3   OH2 8786   2.798   1.870   2.299 -0.3987  0.0868 -0.1823
 2927TIP3    H1 8787   2.812   1.927   2.375 -1.0289 -0.2449  0.1852
 2927TIP3    H2 8788   2.881   1.823   2.289  0.7260  2.1588 -1.4431
 2928TIP3   OH2 8789   2.207   3.125   4.425 -0.2038 -0.0143 -0.2447
 2928TIP3    H1 8790   2.259   3.172   4.360  1.6664  1.5648  2.2063
 2928TIP3    H2 8791   2.164   3.194   4.476 -0.4165 -1.0851  1.1039
 2929TIP3   OH2 8792   5.285   3.438   2.794 -0.1406  0.1149  0.0989
 2929TIP3    H1 8793   5.359   3.415   2.850  0.4585  1.0283 -0.3008
 2929TIP3    H2 8794   5.278   3.533   2.799 -0.0236  0.2302 -1.4128
 2930TIP3   OH2 8795   1.571   3.647   1.364 -0.2802 -0.1499 -0.2366
 2930TIP3    H1 8796   1.530   3.570   1.325  0.0529 -0.6673  0.4141
 2930TIP3    H2 8797   1.651   3.661   1.313 -0.4911 -0.0521 -0.5430
 2931TIP3   OH2 8798   3.019   0.395   2.947  0.2334 -0.1335 -0.0124
 2931TIP3    H1 8799   3.029   0.306   2.915 -0.0874  0.7754 -2.8699
 2931TIP3    H2 8800   3.095   0.442   2.913 -0.9277  1.2408 -0.8251
 2932TIP3   OH2 8801   3.170   5.227   4.982  0.4391  0.2384 -0.4071
 2932TIP3    H1 8802   3.075   5.236   4.987  0.6380  2.1838  0.5499
 2932TIP3    H2 8803   3.195   5.191   5.067  0.7035  1.4045  0.0216
 2933TIP3   OH2 8804   2.402   4.598   3.317  0.6703 -0.7250  0.2110
 2933TIP3    H1 8805   2.438   4.555   3.395 -0.0333  0.3384  1.1634
 2933TIP3    H2 8806   2.471   4.657   3.288  0.4332 -0.0972  0.8855
 2934TIP3   OH2 8807   6.359   5.271   3.478 -0.4161 -0.3711  0.4236
 2934TIP3    H1 8808   6.288   5.304   3.423 -0.3685 -0.9559  0.0144
 2934TIP3    H2 8809   6.334   5.181   3.499  0.3909 -0.7093 -0.0400
 2935TIP3   OH2 8810   1.777   0.646   1.799  0.3897  0.5898  0.1190
 2935TIP3    H1 8811   1.683   0.657   1.791  0.2099  0.3535  1.6293
 2935TIP3    H2 8812   1.807   0.724   1.846  0.8817  0.4627  0.0280
 2936TIP3   OH2 8813   2.859   1.519   3.903 -0.7633 -0.3198  0.4572
 2936TIP3    H1 8814   2.832   1.591   3.960 -2.5334  0.3588 -1.1325
 2936TIP3    H2 8815   2.829   1.545   3.816  2.3529 -1.0257 -0.9737
 2937TIP3   OH2 8816   3.271   4.105   0.683 -0.3887 -0.0340 -0.6209
 2937TIP3    H1 8817   3.359   4.111   0.719  0.5000  0.7672 -2.7619
 2937TIP3    H2 8818   3.280   4.136   0.592 -3.0597  1.0791 -0.5962
 2938TIP3   OH2 8819   3.126   1.213   5.142  0.4330  0.2023  0.5201
 2938TIP3    H1 8820   3.064   1.274   5.180 -1.4980  0.3181 -2.5044
 2938TIP3    H2 8821   3.198   1.268   5.111  0.4589  0.4826  1.0760
 2939TIP3   OH2 8822   1.660   1.985   0.709 -0.0443  0.9419 -0.2674
 2939TIP3    H1 8823   1.647   1.934   0.789 -0.4829  2.1235  0.4417
 2939TIP3    H2 8824   1.576   2.027   0.694 -0.7411 -1.1384 -2.7465
 2940TIP3   OH2 8825   2.290   5.416   2.417 -0.3258 -1.1775  0.0023
 2940TIP3    H1 8826   2.231   5.399   2.343 -2.3343  1.4806  0.8535
 2940TIP3    H2 8827   2.235   5.405   2.494  0.4510  0.6527  0.8651
 2941TIP3   OH2 8828   2.349   2.498   4.260  1.1024 -0.8079 -0.3893
 2941TIP3    H1 8829   2.349   2.584   4.301  1.0071 -0.0898 -1.8369
 2941TIP3    H2 8830   2.373   2.438   4.330  0.1854  0.2625  0.8989
 2942TIP3   OH2 8831   0.446   3.594   3.233  0.2638 -0.3356 -0.1173
 2942TIP3    H1 8832   0.530   3.591   3.280 -0.3222  0.1363  1.0179
 2942TIP3    H2 8833   0.395   3.659   3.282 -0.9894 -1.0808 -0.4009
 2943TIP3   OH2 8834   1.284   1.784   3.933 -0.5714  0.1210  0.6072
 2943TIP3    H1 8835   1.227   1.856   3.905 -1.2525 -0.4649  0.4438
 2943TIP3    H2 8836   1.342   1.823   3.998 -1.5648  0.6064  1.2321
 2944TIP3   OH2 8837   2.631   4.019   1.845  0.0550  0.3258 -1.0160
 2944TIP3    H1 8838   2.712   3.976   1.821 -0.6853 -1.4838 -0.4474
 2944TIP3    H2 8839   2.564   3.975   1.793 -0.8435  0.1608  0.2346
 2945TIP3   OH2 8840   5.260   1.535   0.920 -0.0649 -0.2302  0.0097
 2945TIP3    H1 8841   5.301   1.453   0.894  1.6822  0.4490  0.4124
 2945TIP3    H2 8842   5.214   1.565   0.842  0.2143 -1.0560 -0.4808
 2946TIP3   OH2 8843   2.903   0.617   5.184 -0.4462  0.0776 -0.3236
 2946TIP3    H1 8844   2.941   0.632   5.097 -0.9045 -0.3304 -0.5990
 2946TIP3    H2 8845   2.828   0.676   5.187  0.2575  0.9617  0.2613
 2947TIP3   OH2 8846   3.411   4.117   3.510 -0.2174  0.3064 -0.1159
 2947TIP3    H1 8847   3.449   4.030   3.496  1.3499  0.9179  0.1382
 2947TIP3    H2 8848   3.452   4.172   3.443 -0.8543  0.9502  0.0137
 2948TIP3   OH2 8849   0.477   4.281   0.393  0.0027  0.3403 -0.7142
 2948TIP3    H1 8850   0.511   4.303   0.307  1.5076 -1.1466 -0.5423
 2948TIP3    H2 8851   0.436   4.195   0.382  1.9265 -0.7963  0.3892
 2949TIP3   OH2 8852   5.488   2.694   4.066  0.7078  0.4642  0.6206
 2949TIP3    H1 8853   5.528   2.607   4.072  0.5321  0.2987 -0.4391
 2949TIP3    H2 8854   5.445   2.706   4.151  0.9480 -0.3785  0.8712
 2950TIP3   OH2 8855   2.476   5.014   3.002  0.1305 -0.5519  0.4696
 2950TIP3    H1 8856   2.501   4.979   3.088  1.0057 -0.8148  0.1213
 2950TIP3    H2 8857   2.385   4.987   2.990  0.6373 -2.3255  0.4095
 2951TIP3   OH2 8858   4.991   1.632   2.034  0.5457  0.0058  0.1251
 2951TIP3    H1 8859   4.919   1.630   2.097 -1.2262 -2.7420 -1.7956
 2951TIP3    H2 8860   5.070   1.619   2.086 -0.7652 -1.2043  1.8997
 2952TIP3   OH2 8861   0.441   2.637   4.257 -0.1119  0.7504  0.0402
 2952TIP3    H1 8862   0.410   2.634   4.348  0.5883 -0.4355  0.2672
 2952TIP3    H2 8863   0.431   2.547   4.226  0.8862  0.8552 -0.6279
 2953TIP3   OH2 8864   4.508   2.026   4.822  0.1391 -0.0638 -0.2348
 2953TIP3    H1 8865   4.439   1.965   4.848 -0.2584  0.6249  0.3559
 2953TIP3    H2 8866   4.552   2.048   4.904  0.6784 -0.0359 -0.5310
 2954TIP3   OH2 8867   0.281   1.080   1.053  0.7922 -0.0401  0.2731
 2954TIP3    H1 8868   0.225   1.049   0.982 -0.0285  1.6013  0.1501
 2954TIP3    H2 8869   0.240   1.162   1.081  2.2295  0.3617  1.2902
 2955TIP3   OH2 8870   0.368   4.921   4.508 -0.3152  0.5551 -0.4480
 2955TIP3    H1 8871   0.410   4.842   4.542  0.3759  0.6975 -0.9408
 2955TIP3    H2 8872   0.370   4.983   4.582 -0.6049  0.2088 -0.1493
 2956TIP3   OH2 8873   6.123   1.299   2.853 -0.3965 -0.5555 -0.3727
 2956TIP3    H1 8874   6.152   1.212   2.882 -1.5250 -0.2805  1.8364
 2956TIP3    H2 8875   6.033   1.306   2.886 -1.0871  0.6501 -2.3776
 2957TIP3   OH2 8876   5.082   2.259   1.147  0.2165 -0.5029  0.4724
 2957TIP3    H1 8877   5.038   2.294   1.224  0.4133  1.0350 -0.0904
 2957TIP3    H2 8878   5.146   2.325   1.123  0.4087 -1.1172 -0.8064
 2958TIP3   OH2 8879   1.950   5.895   1.076  0.2377 -0.0242  0.4003
 2958TIP3    H1 8880   1.960   5.983   1.112  0.3572 -0.6666  2.0202
 2958TIP3    H2 8881   1.957   5.837   1.152 -1.8598 -1.3411 -0.3182
 2959TIP3   OH2 8882   4.454   2.896   1.946  0.0169 -0.1408 -0.6743
 2959TIP3    H1 8883   4.446   2.815   1.897 -1.0461 -0.0744 -0.6374
 2959TIP3    H2 8884   4.397   2.958   1.900 -1.0227 -0.0848  0.6065
 2960TIP3   OH2 8885   0.335   0.474   3.951 -0.0938  0.5200 -0.1394
 2960TIP3    H1 8886   0.268   0.475   4.020 -2.0482  0.2043 -1.9562
 2960TIP3    H2 8887   0.352   0.381   3.935 -1.8224  0.4859 -2.0456
 2961TIP3   OH2 8888   4.043   3.937   0.080 -0.5074  0.3352 -0.5236
 2961TIP3    H1 8889   4.136   3.921   0.098 -0.7527  1.1166  1.6263
 2961TIP3    H2 8890   4.044   4.003   0.010  0.5740  1.1679  0.2463
 2962TIP3   OH2 8891   4.619   2.876   2.735 -0.1495  0.0679 -0.1636
 2962TIP3    H1 8892   4.673   2.842   2.665  0.6539  1.0388 -0.0423
 2962TIP3    H2 8893   4.680   2.922   2.793 -0.8189 -0.5360  1.0670
 2963TIP3   OH2 8894   4.443   5.712   1.533  0.3398 -0.1326  0.3759
 2963TIP3    H1 8895   4.394   5.630   1.535 -1.6645  0.9125 -1.8134
 2963TIP3    H2 8896   4.420   5.756   1.615 -1.6899 -0.0935 -0.1800
 2964TIP3   OH2 8897   2.668   2.820   4.630  0.3807 -0.1834  0.3431
 2964TIP3    H1 8898   2.642   2.804   4.539  1.2237 -0.2193  0.1038
 2964TIP3    H2 8899   2.672   2.734   4.670  0.6417 -0.2166  0.2428
 2965TIP3   OH2 8900   1.458   0.561   3.462 -0.1459 -0.6171 -0.5075
 2965TIP3    H1 8901   1.407   0.508   3.524  0.4998  0.8616  1.3981
 2965TIP3    H2 8902   1.498   0.497   3.403  0.0714 -2.2193  1.2757
 2966TIP3   OH2 8903   0.012   3.103   5.075  0.5255 -0.1500  0.1711
 2966TIP3    H1 8904  -0.060   3.128   5.133  0.3008  1.1980 -0.6479
 2966TIP3    H2 8905   0.061   3.037   5.125 -1.6401 -1.6212  0.4628
 2967TIP3   OH2 8906   0.079   3.975   5.140 -0.2411  0.0255 -0.2367
 2967TIP3    H1 8907   0.021   4.009   5.072 -1.9905 -0.7887  0.7838
 2967TIP3    H2 8908   0.032   3.900   5.177  0.9681  0.0031  1.3952
 2968TIP3   OH2 8909   1.404   4.093   0.709 -0.2028 -0.2458 -0.2915
 2968TIP3    H1 8910   1.333   4.067   0.651  0.0566 -0.2746 -0.6017
 2968TIP3    H2 8911   1.409   4.023   0.774  0.6087 -1.0754 -1.2271
 2969TIP3   OH2 8912   0.654   2.352   2.336  0.1907 -0.0076  0.2089
 2969TIP3    H1 8913   0.680   2.323   2.423 -0.6063 -0.4331  0.3123
 2969TIP3    H2 8914   0.574   2.303   2.317 -0.1122  0.7032 -0.4093
 2970TIP3   OH2 8915   0.170   4.649   3.981 -0.4034 -0.5131  0.6855
 2970TIP3    H1 8916   0.126   4.626   3.900 -0.3102  0.2876  0.3956
 2970TIP3    H2 8917   0.121   4.603   4.049  0.1686 -2.0659  0.0891
 2971TIP3   OH2 8918   0.057   5.974   0.283  0.0782  0.1767 -0.4660
 2971TIP3    H1 8919   0.095   5.897   0.325  1.3213  1.8266  1.6129
 2971TIP3    H2 8920  -0.016   5.998   0.339 -0.8103  0.0881 -1.5515
 2972TIP3   OH2 8921   2.073   1.070   2.803 -0.1381  0.0248 -0.1840
 2972TIP3    H1 8922   2.167   1.055   2.803 -0.1841 -0.6125 -2.3736
 2972TIP3    H2 8923   2.054   1.105   2.715 -1.8500  0.7434  0.4218
 2973TIP3   OH2 8924   5.180   1.073   3.742 -0.3224  0.4076  0.3494
 2973TIP3    H1 8925   5.236   1.151   3.749  1.5822 -0.9661  1.7435
 2973TIP3    H2 8926   5.102   1.103   3.697  0.3206  3.1316  0.8662
 2974TIP3   OH2 8927   0.047   2.074   4.600  0.6873 -0.3288  0.2808
 2974TIP3    H1 8928  -0.004   2.042   4.526  0.9052 -0.0318 -0.0012
 2974TIP3    H2 8929   0.008   2.159   4.621  0.9877 -0.1572  0.1440
 2975TIP3   OH2 8930   2.533   3.071   1.740 -0.2124 -0.0343  0.6695
 2975TIP3    H1 8931   2.461   3.122   1.704  0.3290  0.7808  0.7011
 2975TIP3    H2 8932   2.514   3.063   1.833 -0.4059 -0.0744  0.6260
 2976TIP3   OH2 8933   2.145   3.866   2.703  0.1619  0.0193 -0.1972
 2976TIP3    H1 8934   2.065   3.850   2.753 -0.4281 -1.7112 -1.6117
 2976TIP3    H2 8935   2.193   3.783   2.706  1.0719  0.5035 -0.8158
 2977TIP3   OH2 8936   5.932   4.502   3.207  0.7132 -0.2754 -0.0878
 2977TIP3    H1 8937   5.917   4.408   3.195  0.2227 -0.2181  0.0417
 2977TIP3    H2 8938   5.932   4.515   3.302 -0.0074 -0.0337 -0.1095
 2978TIP3   OH2 8939   3.449   3.768   2.393 -0.7018  0.0859  0.9003
 2978TIP3    H1 8940   3.415   3.689   2.434 -0.1277 -1.9858 -2.2494
 2978TIP3    H2 8941   3.544   3.753   2.388 -0.8706 -0.5403 -2.3877
 2979TIP3   OH2 8942   2.195   1.031   3.799  0.2035 -0.0137 -0.3692
 2979TIP3    H1 8943   2.231   1.068   3.718  1.9240 -2.2143 -0.6914
 2979TIP3    H2 8944   2.269   0.988   3.842 -0.9649 -0.1232  1.7037
 2980TIP3   OH2 8945   5.809   0.445   2.090 -0.1123  0.3281 -0.2057
 2980TIP3    H1 8946   5.729   0.432   2.040  0.2820 -0.1584 -0.7314
 2980TIP3    H2 8947   5.787   0.513   2.153 -0.6872  0.8332 -0.9231
 2981TIP3   OH2 8948   0.973   3.443   4.968 -0.0762  0.1886  0.1805
 2981TIP3    H1 8949   0.917   3.409   5.037 -0.1464 -0.8267 -0.3555
 2981TIP3    H2 8950   1.044   3.380   4.961  1.1474  1.4387  0.8251
 2982TIP3   OH2 8951   3.671   1.853   3.050  0.3769  0.3776  0.3850
 2982TIP3    H1 8952   3.663   1.760   3.029 -1.4740  0.4189  0.7278
 2982TIP3    H2 8953   3.711   1.891   2.972 -0.8073 -0.3975 -0.6439
 2983TIP3   OH2 8954   0.143   0.372   1.325 -0.4014 -0.2074  0.0532
 2983TIP3    H1 8955   0.225   0.327   1.345  0.8413  0.3514 -3.1383
 2983TIP3    H2 8956   0.145   0.451   1.379  0.6080 -0.7698  0.8531
 2984TIP3   OH2 8957   3.571   3.459   1.146 -0.6554  0.0380  0.4596
 2984TIP3    H1 8958   3.650   3.499   1.109 -1.4515  0.9592 -0.3080
 2984TIP3    H2 8959   3.603   3.404   1.217  0.8430 -1.0341 -0.9844
 2985TIP3   OH2 8960   0.089   3.211   4.237 -0.1692  0.0869 -0.3438
 2985TIP3    H1 8961   0.082   3.158   4.316 -0.1848 -0.3690 -0.6463
 2985TIP3    H2 8962   0.171   3.182   4.196 -0.0391  0.4895 -0.3735
 2986TIP3   OH2 8963   5.062   0.305   2.624 -0.0594 -0.1655 -0.7665
 2986TIP3    H1 8964   5.104   0.369   2.567 -0.3378 -0.0879 -0.8856
 2986TIP3    H2 8965   5.120   0.298   2.699 -0.5799  1.0412 -0.2374
 2987TIP3   OH2 8966   2.946   3.349   0.020  0.3216  0.1370  0.6331
 2987TIP3    H1 8967   2.873   3.341   0.082 -0.6588  0.5573 -0.4362
 2987TIP3    H2 8968   2.916   3.304  -0.059  1.3484  0.0461  0.2788
 2988TIP3   OH2 8969   1.425   5.436   5.169 -0.2175 -0.0481 -0.4923
 2988TIP3    H1 8970   1.486   5.367   5.142 -0.9992 -0.2728 -1.7632
 2988TIP3    H2 8971   1.364   5.444   5.096  0.7577  3.1124 -1.1059
 2989TIP3   OH2 8972   2.427   5.791   1.162 -0.8327  0.2679  0.1690
 2989TIP3    H1 8973   2.421   5.868   1.106  1.4500  1.0241  0.8333
 2989TIP3    H2 8974   2.513   5.753   1.141 -0.5360 -0.2291  2.0946
 2990TIP3   OH2 8975   1.731   4.367   3.533  0.0105 -0.0480  0.1803
 2990TIP3    H1 8976   1.655   4.356   3.476  0.3958  1.1225 -0.5993
 2990TIP3    H2 8977   1.696   4.397   3.616 -0.3725  0.7858 -0.2735
 2991TIP3   OH2 8978   1.307   1.918   4.172  0.5264  0.2603  0.1418
 2991TIP3    H1 8979   1.299   2.000   4.123  0.9115 -0.4464 -1.1800
 2991TIP3    H2 8980   1.329   1.945   4.261  1.1475  1.5736 -0.3787
 2992TIP3   OH2 8981   3.725   2.287   0.041  0.1719  0.3080  0.0360
 2992TIP3    H1 8982   3.648   2.250   0.084 -0.7274  1.8560 -0.1902
 2992TIP3    H2 8983   3.769   2.338   0.110  0.1050  0.7498 -0.2463
 2993TIP3   OH2 8984   3.070   2.019   3.059 -0.4858  0.4446  0.2075
 2993TIP3    H1 8985   3.070   1.923   3.059 -2.3513  0.4068 -0.3891
 2993TIP3    H2 8986   3.119   2.043   2.981  0.4597  0.0102  0.6478
 2994TIP3   OH2 8987   0.916   4.983   2.997 -0.1565 -0.0577  0.3572
 2994TIP3    H1 8988   0.919   5.052   2.931  2.7785  2.0340  2.4153
 2994TIP3    H2 8989   0.962   4.909   2.958  0.3851  0.6809 -0.4256
 2995TIP3   OH2 8990   4.653   0.478   3.764 -0.5385  0.2063  0.3033
 2995TIP3    H1 8991   4.744   0.509   3.758 -0.4379  0.0282  0.8145
 2995TIP3    H2 8992   4.610   0.541   3.822 -0.5140 -0.1983  0.7699
 2996TIP3   OH2 8993   4.600   1.348   3.742  0.2467 -0.1563 -0.3990
 2996TIP3    H1 8994   4.587   1.426   3.795 -1.4184 -1.5262  1.3586
 2996TIP3    H2 8995   4.541   1.283   3.780  0.1101 -1.7107 -3.0136
 2997TIP3   OH2 8996   0.621   0.521   4.024 -0.7567  0.0617  0.1797
 2997TIP3    H1 8997   0.642   0.596   4.079 -0.0730  1.1651 -1.4932
 2997TIP3    H2 8998   0.526   0.527   4.010 -0.9731 -0.3693  1.4043
 2998TIP3   OH2 8999   4.292   2.893   2.962  0.1273 -0.3177  0.6019
 2998TIP3    H1 9000   4.299   2.846   3.046  1.7407 -1.4733 -0.1161
 2998TIP3    H2 9001   4.356   2.964   2.970 -0.5249  0.2553  0.7573
 2999TIP3   OH2 9002   2.817   5.900   0.119 -0.6209  0.1210 -0.5289
 2999TIP3    H1 9003   2.766   5.971   0.158 -2.2914 -1.5415  0.5118
 2999TIP3    H2 9004   2.818   5.831   0.186  0.5363 -1.0139 -1.6560
 3000TIP3   OH2 9005   3.522   2.905   3.929 -0.2719 -0.5466 -0.5774
 3000TIP3    H1 9006   3.564   2.852   3.860  0.9782 -1.2123  0.6533
 3000TIP3    H2 9007   3.511   2.844   4.002 -0.3208  0.4975  0.2987
 3001TIP3   OH2 9008   3.438   0.296   4.715 -0.1771  0.7709  0.0645
 3001TIP3    H1 9009   3.390   0.303   4.798  0.5102  0.6077  0.4826
 3001TIP3    H2 9010   3.459   0.387   4.692 -0.6551  0.8397 -0.1019
 3002TIP3   OH2 9011   1.518   4.037   2.179 -0.6770  0.6444 -0.3521
 3002TIP3    H1 9012   1.506   3.958   2.128 -1.1883 -1.3524  2.5840
 3002TIP3    H2 9013   1.611   4.036   2.204 -1.1550 -0.3800  1.5717
 3003TIP3   OH2 9014   0.038   4.111   2.455  0.2016 -0.3360 -0.3878
 3003TIP3    H1 9015   0.107   4.082   2.515 -0.5137 -0.4951  0.3596
 3003TIP3    H2 9016  -0.028   4.043   2.459 -1.8288  1.5931  1.8953
 3004TIP3   OH2 9017   2.695   1.743   0.373 -0.2940  0.7862 -0.0655
 3004TIP3    H1 9018   2.665   1.786   0.453 -0.3541  0.4611  0.0868
 3004TIP3    H2 9019   2.757   1.805   0.334 -0.6151  1.1517 -0.0113
 3005TIP3   OH2 9020   1.739   1.305   0.360  0.2562 -0.0983  0.0353
 3005TIP3    H1 9021   1.767   1.387   0.400 -2.2344  0.6065  0.4714
 3005TIP3    H2 9022   1.696   1.257   0.430 -1.8900  0.0311 -1.1004
 3006TIP3   OH2 9023   0.028   2.367   2.783  0.1361  0.5651  0.3023
 3006TIP3    H1 9024   0.114   2.341   2.751  0.0114  0.1616  0.2961
 3006TIP3    H2 9025   0.013   2.315   2.861 -0.0286  0.7642  0.4070
 3007TIP3   OH2 9026   5.576   2.724   0.358  0.3043  0.2401  0.4748
 3007TIP3    H1 9027   5.628   2.644   0.357 -0.4815 -0.2864  0.6511
 3007TIP3    H2 9028   5.640   2.794   0.351  0.9475 -0.4248 -0.6136
 3008TIP3   OH2 9029   4.820   0.409   0.234 -0.2369 -0.7805 -0.1293
 3008TIP3    H1 9030   4.744   0.454   0.198 -0.5361  0.6160  2.0443
 3008TIP3    H2 9031   4.793   0.317   0.240 -1.0424 -0.6287 -1.0807
 3009TIP3   OH2 9032   5.593   1.402   5.016  0.4821 -0.0668  0.7612
 3009TIP3    H1 9033   5.627   1.332   4.961 -1.5395  0.4601 -1.3255
 3009TIP3    H2 9034   5.575   1.474   4.956 -2.0593  0.4691  2.0149
 3010TIP3   OH2 9035   0.321   0.337   2.944  0.3920  0.3545 -0.2776
 3010TIP3    H1 9036   0.371   0.362   3.022  0.0776  0.1798 -0.0189
 3010TIP3    H2 9037   0.264   0.412   2.929  1.1584  0.8184 -0.9374
 3011TIP3   OH2 9038   2.034   4.111   1.238 -0.0418 -0.1263  0.0805
 3011TIP3    H1 9039   2.104   4.065   1.285 -0.6955 -1.3658 -0.1165
 3011TIP3    H2 9040   2.018   4.189   1.290  0.4328 -0.6066  0.9784
 3012TIP3   OH2 9041  -0.024   2.737   5.158  0.2905  0.1454 -0.1978
 3012TIP3    H1 9042   0.036   2.809   5.176  1.4049 -0.6279 -0.7112
 3012TIP3    H2 9043   0.005   2.667   5.216  1.0032 -0.8153 -1.6668
 3013TIP3   OH2 9044   4.005   2.435   0.614  0.0394  0.4736  0.2454
 3013TIP3    H1 9045   4.092   2.404   0.641 -1.3156 -3.2872  0.8433
 3013TIP3    H2 9046   4.015   2.452   0.520  1.3949  0.0353  0.2787
 3014TIP3   OH2 9047   5.173   5.348   0.875 -0.2141  0.9623 -0.1970
 3014TIP3    H1 9048   5.108   5.299   0.824 -1.1672  1.0753  0.8867
 3014TIP3    H2 9049   5.254   5.339   0.824 -0.1699 -2.3166  0.2674
 3015TIP3   OH2 9050   2.833   4.279   2.923 -0.2538  0.0064 -0.2775
 3015TIP3    H1 9051   2.745   4.305   2.894  0.9357  2.9101 -1.6361
 3015TIP3    H2 9052   2.853   4.338   2.995  0.7080 -0.4264 -0.1728
 3016TIP3   OH2 9053   0.688   0.983   4.196 -0.0625 -0.2731 -0.3201
 3016TIP3    H1 9054   0.624   1.030   4.249  0.7688  1.1223 -0.4963
 3016TIP3    H2 9055   0.725   1.049   4.138 -0.4155 -1.6041 -2.1517
 3017TIP3   OH2 9056   0.320   5.555   5.073 -0.3783 -0.9076 -0.1040
 3017TIP3    H1 9057   0.234   5.533   5.108 -1.1105  1.2727 -0.4117
 3017TIP3    H2 9058   0.374   5.573   5.150 -0.5106 -1.1774  0.0525
 3018TIP3   OH2 9059   4.856   5.914   3.556  0.3581  0.0412 -0.4568
 3018TIP3    H1 9060   4.895   5.955   3.479 -2.2378  0.3489 -1.7091
 3018TIP3    H2 9061   4.868   5.820   3.542 -0.7217  0.0651 -1.6225
 3019TIP3   OH2 9062   1.653   5.830   1.740  0.0329 -0.1378  0.5695
 3019TIP3    H1 9063   1.729   5.831   1.798  0.9023 -0.0852 -0.5296
 3019TIP3    H2 9064   1.676   5.767   1.672  0.0371  1.4530 -0.9693
 3020TIP3   OH2 9065   0.017   1.871   0.955  0.4064  0.6776  0.7802
 3020TIP3    H1 9066  -0.014   1.798   1.008 -0.0426  1.4749  1.6489
 3020TIP3    H2 9067   0.067   1.830   0.884  0.3489 -0.4483  1.3694
 3021TIP3   OH2 9068   0.256   5.684   3.239 -0.1267 -0.4947  0.0262
 3021TIP3    H1 9069   0.291   5.624   3.304  0.7940  1.1989  1.1840
 3021TIP3    H2 9070   0.308   5.669   3.160 -0.5168 -1.7977  0.0040
 3022TIP3   OH2 9071   0.243   2.850   0.232 -0.4570  0.0938 -0.2829
 3022TIP3    H1 9072   0.282   2.763   0.234 -0.0922  0.2634  0.1926
 3022TIP3    H2 9073   0.151   2.835   0.210 -1.0802 -0.6589  2.4947
 3023TIP3   OH2 9074   3.676   4.801   2.279  0.3643  0.3426  0.0068
 3023TIP3    H1 9075   3.700   4.888   2.249  0.9756  0.4677  0.8382
 3023TIP3    H2 9076   3.735   4.783   2.352 -0.4836 -0.3169  0.5506
 3024TIP3   OH2 9077   2.433   5.396   2.013  0.3716  0.7607 -0.0484
 3024TIP3    H1 9078   2.451   5.396   2.108 -0.3880  0.7689  0.1002
 3024TIP3    H2 9079   2.438   5.489   1.988 -1.5948  1.0314  0.4219
 3025TIP3   OH2 9080   3.755   3.881   5.012 -0.0619  0.1648 -0.1284
 3025TIP3    H1 9081   3.768   3.893   4.918  1.1207 -1.9966 -0.2996
 3025TIP3    H2 9082   3.739   3.787   5.022 -0.9854  0.4799  1.7618
 3026TIP3   OH2 9083   1.272   3.211   3.637  0.3102 -0.0175  0.8855
 3026TIP3    H1 9084   1.252   3.223   3.730  0.5815 -0.0332  0.9462
 3026TIP3    H2 9085   1.311   3.294   3.610 -0.5177  0.2789  0.5847
 3027TIP3   OH2 9086   6.076   1.377   0.768  0.5794 -0.3871 -0.1299
 3027TIP3    H1 9087   6.113   1.394   0.681  0.3002  1.3418  0.0570
 3027TIP3    H2 9088   5.986   1.351   0.751  0.5820 -0.2463 -0.3736
 3028TIP3   OH2 9089   2.677   1.963   4.098  0.4305  0.0126  0.3250
 3028TIP3    H1 9090   2.745   1.935   4.159  1.2361  2.0771  0.4838
 3028TIP3    H2 9091   2.706   2.051   4.069 -1.5219  0.4068 -0.5913
 3029TIP3   OH2 9092   5.847   3.117   0.093  0.0420 -0.5125 -0.1394
 3029TIP3    H1 9093   5.829   3.043   0.035 -1.2767 -1.6072  1.5350
 3029TIP3    H2 9094   5.900   3.079   0.164  1.3584  0.7130 -0.4191
 3030TIP3   OH2 9095   3.478   2.558   2.964  0.0951  0.5514 -0.3726
 3030TIP3    H1 9096   3.521   2.484   3.007  0.1351  0.1213 -1.1305
 3030TIP3    H2 9097   3.512   2.635   3.010  0.4090  0.1278  0.1241
 3031TIP3   OH2 9098   0.566   5.593   0.635  0.0586 -0.2070  0.5354
 3031TIP3    H1 9099   0.586   5.577   0.542  0.6144  1.6600  0.2985
 3031TIP3    H2 9100   0.475   5.621   0.635  0.3379  0.7104  0.4330
 3032TIP3   OH2 9101   5.063   5.828   0.890 -0.8156  0.2159 -0.2225
 3032TIP3    H1 9102   5.029   5.739   0.890 -0.0808 -0.0859  0.8015
 3032TIP3    H2 9103   5.105   5.838   0.976  1.2765  0.7078 -1.2548
 3033TIP3   OH2 9104   2.023   3.354   1.803 -0.1009  0.1211  0.0243
 3033TIP3    H1 9105   1.938   3.390   1.778  0.0079  1.0769  0.9694
 3033TIP3    H2 9106   2.002   3.272   1.848 -0.4885  0.0954 -0.2011
 3034TIP3   OH2 9107   2.715   2.372   2.801  0.0385 -0.1860  0.3840
 3034TIP3    H1 9108   2.694   2.457   2.838 -0.2871  0.5947 -1.4714
 3034TIP3    H2 9109   2.689   2.309   2.868 -0.6418  1.1245  1.3899
 3035TIP3   OH2 9110   1.979   2.283   5.193  0.0062 -0.6059  0.5704
 3035TIP3    H1 9111   2.071   2.308   5.196 -0.1345  0.1209 -0.5283
 3035TIP3    H2 9112   1.934   2.360   5.158 -0.6839 -1.7439 -1.1741
 3036TIP3   OH2 9113   4.803   1.970   2.666 -0.3224  0.2153  0.1076
 3036TIP3    H1 9114   4.839   1.882   2.678 -1.5480 -0.3873 -0.4263
 3036TIP3    H2 9115   4.852   2.025   2.728 -0.0360 -0.9843  0.9807
 3037TIP3   OH2 9116   1.595   5.561   1.617 -0.5877  0.1411 -0.2405
 3037TIP3    H1 9117   1.565   5.482   1.572 -1.1428 -0.2335  0.7425
 3037TIP3    H2 9118   1.514   5.602   1.649 -0.2143  0.3931  0.3947
 3038TIP3   OH2 9119   0.849   0.263   3.019  0.3494 -0.0055  0.1357
 3038TIP3    H1 9120   0.913   0.232   3.083  0.5430 -0.2098 -0.1566
 3038TIP3    H2 9121   0.900   0.311   2.954  0.2487 -0.4409 -0.2705
 3039TIP3   OH2 9122   2.185   5.723   3.136  0.0631  0.0300 -0.0949
 3039TIP3    H1 9123   2.140   5.784   3.194 -2.2944 -1.7299  0.1154
 3039TIP3    H2 9124   2.170   5.637   3.176  0.9717 -0.9445 -1.7206
 3040TIP3   OH2 9125   2.565   2.770   2.187 -0.0815  0.4839 -0.1344
 3040TIP3    H1 9126   2.618   2.757   2.266 -0.4923  1.2749  0.2884
 3040TIP3    H2 9127   2.627   2.759   2.114  0.1687 -0.8798  0.2641
 3041TIP3   OH2 9128   5.496   4.693   0.262  0.1982 -0.4088  0.8961
 3041TIP3    H1 9129   5.486   4.716   0.355 -0.1408 -1.3256  1.0981
 3041TIP3    H2 9130   5.436   4.620   0.249  1.0374 -0.9997  0.2157
 3042TIP3   OH2 9131   0.258   3.011   3.394 -0.2948  0.4693  0.5801
 3042TIP3    H1 9132   0.328   2.948   3.410 -1.2420 -1.7745 -2.9383
 3042TIP3    H2 9133   0.177   2.959   3.400 -1.4798  2.2783  1.3257
 3043TIP3   OH2 9134   4.720   1.607   2.216  0.9727  0.1008  0.1490
 3043TIP3    H1 9135   4.722   1.676   2.149 -1.1004 -0.4000 -0.5009
 3043TIP3    H2 9136   4.685   1.530   2.170  2.5496 -1.2246  1.0344
 3044TIP3   OH2 9137   3.196   5.781   2.162 -0.1461  0.6236  0.1448
 3044TIP3    H1 9138   3.167   5.708   2.216  0.8128 -0.4712 -0.7576
 3044TIP3    H2 9139   3.121   5.841   2.158 -1.7186 -1.3054 -0.7966
 3045TIP3   OH2 9140   5.526   2.900   4.809 -0.1136 -0.2896 -0.5053
 3045TIP3    H1 9141   5.603   2.867   4.763 -0.0890 -2.9265  1.1912
 3045TIP3    H2 9142   5.557   2.978   4.854  1.2072 -0.5340 -0.9354
 3046TIP3   OH2 9143   6.180   3.562   2.280  0.0474 -0.3283  0.3993
 3046TIP3    H1 9144   6.242   3.498   2.314 -0.8843 -1.0167  0.8566
 3046TIP3    H2 9145   6.153   3.526   2.195 -0.6562 -0.6702  0.7642
 3047TIP3   OH2 9146   2.989   2.887   2.536  0.1722 -0.0073  0.0384
 3047TIP3    H1 9147   2.900   2.896   2.572  0.7002  0.4205  1.2851
 3047TIP3    H2 9148   2.989   2.800   2.496 -0.6847 -0.1918  0.3987
 3048TIP3   OH2 9149   1.040   3.268   1.270  0.5977  0.1873  0.1185
 3048TIP3    H1 9150   1.053   3.274   1.175  0.3096  1.2074  0.1283
 3048TIP3    H2 9151   1.107   3.326   1.307  0.6008 -0.0767  0.5231
 3049TIP3   OH2 9152   2.809   1.993   0.080  0.1209  0.0467  0.3567
 3049TIP3    H1 9153   2.809   1.998   0.175 -1.5337 -3.1336  0.6689
 3049TIP3    H2 9154   2.717   1.980   0.056  0.4641  1.0202 -1.7109
 3050TIP3   OH2 9155   5.274   3.952   4.738 -0.4846  0.2314  0.4172
 3050TIP3    H1 9156   5.270   4.040   4.774 -0.8652  0.0011  0.9391
 3050TIP3    H2 9157   5.285   3.894   4.814  1.0278 -0.0885 -0.0025
 3051TIP3   OH2 9158   3.885   2.483   4.154  0.1230 -0.5067 -0.1435
 3051TIP3    H1 9159   3.800   2.461   4.116 -0.2023 -1.3201  0.9847
 3051TIP3    H2 9160   3.921   2.398   4.183  0.3572  0.0495  1.3011
 3052TIP3   OH2 9161   3.331   2.550   1.510 -0.5420 -0.2522 -0.1690
 3052TIP3    H1 9162   3.270   2.618   1.539  2.2267  1.5019  1.9621
 3052TIP3    H2 9163   3.347   2.571   1.418 -2.4305 -0.2397 -0.5323
 3053TIP3   OH2 9164   1.349   4.056   4.757  0.0909 -0.0078 -0.2953
 3053TIP3    H1 9165   1.409   3.982   4.743 -1.4142 -1.2647 -0.3532
 3053TIP3    H2 9166   1.285   4.022   4.819  0.5845  1.9904  1.3949
 3054TIP3   OH2 9167   3.545   2.588   3.256  0.1664 -0.3616 -0.0866
 3054TIP3    H1 9168   3.558   2.504   3.211  0.5401 -0.9545  1.1008
 3054TIP3    H2 9169   3.634   2.617   3.278 -0.0580 -0.7580  1.4555
 3055TIP3   OH2 9170   2.159   4.383   3.635  0.8556  0.5708  0.1861
 3055TIP3    H1 9171   2.178   4.329   3.712 -1.1883 -0.1548  0.2289
 3055TIP3    H2 9172   2.193   4.333   3.561 -0.1183 -0.3274  0.3269
 3056TIP3   OH2 9173   2.389   3.213   3.748  0.4683 -0.2019 -0.2488
 3056TIP3    H1 9174   2.365   3.281   3.811  0.3961 -0.7453  0.3250
 3056TIP3    H2 9175   2.331   3.140   3.768  1.0526 -0.7050 -0.3504
 3057TIP3   OH2 9176   2.732   3.813   3.175  0.2335  0.4808  0.2342
 3057TIP3    H1 9177   2.670   3.823   3.248 -1.7833 -1.1064 -1.1298
 3057TIP3    H2 9178   2.701   3.874   3.108  0.0436 -0.4111 -0.5105
 3058TIP3   OH2 9179   0.343   3.013   2.976  0.7196 -0.1885  0.0208
 3058TIP3    H1 9180   0.257   3.056   2.976 -0.6420 -2.7566 -0.2134
 3058TIP3    H2 9181   0.387   3.049   2.899  0.2510  1.8122  0.6249
 3059TIP3   OH2 9182   2.468   3.630   4.728  0.1016  0.0029  0.3189
 3059TIP3    H1 9183   2.555   3.654   4.761  0.5288  2.6010 -2.2275
 3059TIP3    H2 9184   2.441   3.706   4.676 -2.3173 -1.9879 -1.5962
 3060TIP3   OH2 9185   4.677   0.764   2.624 -0.3161  0.4730 -0.2549
 3060TIP3    H1 9186   4.767   0.758   2.591 -0.3375 -2.5147 -0.0399
 3060TIP3    H2 9187   4.684   0.746   2.718 -1.2167 -1.3507 -0.4871
 3061TIP3   OH2 9188   5.421   0.778   4.327 -0.3907  0.2769 -0.4142
 3061TIP3    H1 9189   5.422   0.754   4.234  1.1134 -0.9285 -0.1441
 3061TIP3    H2 9190   5.449   0.870   4.328 -0.6673  0.3783 -1.1674
 3062TIP3   OH2 9191   1.890   1.916   1.973  0.1446 -0.3121  0.1844
 3062TIP3    H1 9192   1.798   1.911   1.998 -0.1694  0.3548 -0.7666
 3062TIP3    H2 9193   1.915   2.006   1.993  0.9126 -0.7831  1.4490
 3063TIP3   OH2 9194   4.033   5.442   4.035 -0.2864 -0.3192 -0.0551
 3063TIP3    H1 9195   4.063   5.481   4.117 -1.8167  0.3543  0.2186
 3063TIP3    H2 9196   4.099   5.375   4.014  2.5245  2.3435 -0.5431
 3064TIP3   OH2 9197   3.040   1.683   2.428  0.0067 -0.2897  0.0454
 3064TIP3    H1 9198   3.068   1.600   2.466 -2.1939 -0.7008  0.9347
 3064TIP3    H2 9199   3.092   1.691   2.348  2.2166 -1.1498  1.3294
 3065TIP3   OH2 9200   3.598   1.664   2.858 -0.1399  0.3467  0.3418
 3065TIP3    H1 9201   3.631   1.580   2.826 -1.6661  0.2498 -1.1240
 3065TIP3    H2 9202   3.669   1.725   2.842  0.7678 -0.5480  0.8693
 3066TIP3   OH2 9203   3.341   5.102   3.453 -0.4334 -0.5220 -0.0961
 3066TIP3    H1 9204   3.351   5.108   3.548 -2.8930  1.5908  0.1696
 3066TIP3    H2 9205   3.346   5.008   3.433  0.2632 -0.9898  2.0789
 3067TIP3   OH2 9206   3.636   4.982   1.754  0.1678 -0.1383 -0.1965
 3067TIP3    H1 9207   3.636   5.055   1.692 -0.1685  1.7390  1.8895
 3067TIP3    H2 9208   3.713   4.931   1.731  0.0184  0.4468 -2.1629
 3068TIP3   OH2 9209   4.737   4.630   0.675  0.8570  0.7151  0.3867
 3068TIP3    H1 9210   4.705   4.541   0.687 -0.5846  1.4159  2.3495
 3068TIP3    H2 9211   4.818   4.620   0.625  0.3647 -1.6151 -0.0553
 3069TIP3   OH2 9212   4.801   1.996   1.480 -0.2293  0.2390  0.8291
 3069TIP3    H1 9213   4.810   1.902   1.469 -0.4794  0.4324 -1.3668
 3069TIP3    H2 9214   4.880   2.023   1.526  2.2642 -0.4638 -2.6480
 3070TIP3   OH2 9215   3.671   4.741   1.130 -1.1275  0.6967  0.0231
 3070TIP3    H1 9216   3.669   4.649   1.159 -1.9543  0.1276 -1.7251
 3070TIP3    H2 9217   3.583   4.774   1.151 -1.0649  0.8778 -0.0007
 3071TIP3   OH2 9218   1.465   1.018   0.659 -0.2013  0.1938 -0.0004
 3071TIP3    H1 9219   1.436   0.936   0.698 -0.9944  0.7797  0.6850
 3071TIP3    H2 9220   1.386   1.056   0.621  0.5160 -0.3075 -2.1725
 3072TIP3   OH2 9221   3.789   1.959   0.632  0.2287  1.2829 -0.1338
 3072TIP3    H1 9222   3.700   1.957   0.665 -0.0989  1.3380 -0.9766
 3072TIP3    H2 9223   3.791   2.034   0.572  0.6597  0.9217 -0.5897
 3073TIP3   OH2 9224   5.272   2.865   0.961 -0.0057 -0.4183 -0.4397
 3073TIP3    H1 9225   5.363   2.885   0.939  0.3205 -2.1756 -0.9276
 3073TIP3    H2 9226   5.230   2.849   0.876 -0.0804 -2.1615 -0.1118
 3074TIP3   OH2 9227   3.911   2.915   1.696  0.0866  0.1518  0.1485
 3074TIP3    H1 9228   3.875   2.905   1.608  0.9178 -1.5342 -0.0687
 3074TIP3    H2 9229   3.896   3.006   1.719 -0.7463  0.4596 -1.4720
 3075TIP3   OH2 9230   2.444   4.804   0.801  0.3290  0.1884 -0.0200
 3075TIP3    H1 9231   2.392   4.883   0.785  0.6539  0.2736 -0.6647
 3075TIP3    H2 9232   2.395   4.734   0.758  1.0658  0.3739 -1.1881
 3076TIP3   OH2 9233   3.587   4.668   4.472 -0.5449 -0.0314 -0.6686
 3076TIP3    H1 9234   3.639   4.748   4.457 -2.7822  1.4468 -1.1314
 3076TIP3    H2 9235   3.506   4.700   4.513 -1.3038 -2.1523 -0.4181
 3077TIP3   OH2 9236   4.736   5.587   2.116  0.0006  0.3958  0.2289
 3077TIP3    H1 9237   4.710   5.551   2.201  0.8871  0.0527  0.3733
 3077TIP3    H2 9238   4.669   5.557   2.055 -0.6076  0.5873  0.7999
 3078TIP3   OH2 9239   5.195   3.318   1.199  0.0797 -0.1124  0.6174
 3078TIP3    H1 9240   5.274   3.288   1.244  1.0113 -0.1594 -0.9779
 3078TIP3    H2 9241   5.171   3.246   1.142  0.3514  0.8155 -0.7220
 3079TIP3   OH2 9242   5.597   2.383   3.413 -0.1544  0.4364 -0.1143
 3079TIP3    H1 9243   5.582   2.442   3.486  2.5970  1.2858 -0.1062
 3079TIP3    H2 9244   5.606   2.296   3.453  0.4722  0.7678  0.4897
 3080TIP3   OH2 9245   6.332   1.383   3.242  0.1718 -0.2381  0.6108
 3080TIP3    H1 9246   6.309   1.291   3.248  1.6471 -0.6426  0.3904
 3080TIP3    H2 9247   6.267   1.420   3.183 -0.5598 -1.0858  0.8682
 3081TIP3   OH2 9248   1.911   3.219   4.458 -0.3116  0.2262 -0.1096
 3081TIP3    H1 9249   1.826   3.247   4.492 -0.3391  0.0352 -0.0255
 3081TIP3    H2 9250   1.895   3.132   4.421 -0.0588  0.0164  0.2778
 3082TIP3   OH2 9251   3.583   0.843   0.826  0.1779  0.0020  0.1802
 3082TIP3    H1 9252   3.500   0.888   0.843 -1.0384  0.0250 -4.4243
 3082TIP3    H2 9253   3.644   0.912   0.803  1.4893 -0.0750  2.9824
 3083TIP3   OH2 9254   0.772   3.485   1.187 -0.2870 -0.1521  0.0545
 3083TIP3    H1 9255   0.849   3.541   1.173 -0.4256  0.0487  0.0877
 3083TIP3    H2 9256   0.752   3.449   1.101  0.6551 -1.2730  0.2817
 3084TIP3   OH2 9257   2.241   2.291   2.117  0.0469 -0.6589  0.4322
 3084TIP3    H1 9258   2.189   2.285   2.198 -0.4024  0.1341  0.2061
 3084TIP3    H2 9259   2.326   2.323   2.146  0.0649 -0.8937  0.6541
 3085TIP3   OH2 9260   5.533   0.037   0.882  0.6538  0.4024  0.6164
 3085TIP3    H1 9261   5.565   0.001   0.964 -1.1127  0.4785  1.3884
 3085TIP3    H2 9262   5.513   0.129   0.902 -0.5417  0.2209  0.3569
 3086TIP3   OH2 9263   2.731   2.983   1.444 -0.3150 -0.1638  0.6022
 3086TIP3    H1 9264   2.732   3.061   1.499 -1.1815  1.1910 -1.1638
 3086TIP3    H2 9265   2.821   2.974   1.413 -0.1306 -0.0906  1.1041
 3087TIP3   OH2 9266   1.395   0.724   2.582 -0.4156 -0.1432  0.6137
 3087TIP3    H1 9267   1.381   0.670   2.660  1.5675 -0.7366  0.6100
 3087TIP3    H2 9268   1.422   0.809   2.616  1.8180 -0.7975  0.6481
 3088TIP3   OH2 9269   0.829   2.264   0.415 -0.2698  0.2245 -0.9425
 3088TIP3    H1 9270   0.841   2.330   0.347 -1.7592  2.1149  0.5343
 3088TIP3    H2 9271   0.739   2.275   0.445  0.7052  0.4768  2.3168
 3089TIP3   OH2 9272   1.288   0.687   0.469  0.0287 -0.4198 -0.5366
 3089TIP3    H1 9273   1.229   0.748   0.513  1.0754 -1.3324  2.3563
 3089TIP3    H2 9274   1.232   0.613   0.444 -0.1468 -1.5174  2.6476
 3090TIP3   OH2 9275   3.843   0.170   2.495 -0.8155 -0.5536  0.2838
 3090TIP3    H1 9276   3.768   0.117   2.521 -1.3342  0.2304  0.4105
 3090TIP3    H2 9277   3.807   0.231   2.430  0.4507 -2.6005 -2.5823
 3091TIP3   OH2 9278   4.603   2.424   0.386 -0.0243 -0.1589  0.1969
 3091TIP3    H1 9279   4.648   2.358   0.438  0.6892  1.0040  1.1091
 3091TIP3    H2 9280   4.534   2.376   0.340 -0.4128 -1.3218  1.8993
 3092TIP3   OH2 9281   0.061   1.112   0.396  0.4218  0.1255  0.1273
 3092TIP3    H1 9282   0.102   1.034   0.358  0.8603  0.8179 -0.8794
 3092TIP3    H2 9283  -0.001   1.078   0.461 -1.3360 -1.2256 -2.0990
 3093TIP3   OH2 9284   1.161   5.083   3.130 -0.0361  0.5683 -0.3387
 3093TIP3    H1 9285   1.079   5.045   3.162  0.0608  0.3009 -0.4093
 3093TIP3    H2 9286   1.208   5.010   3.091  0.2886  0.7031 -0.1978
 3094TIP3   OH2 9287   4.791   1.475   0.233 -0.3177  0.5295 -0.2478
 3094TIP3    H1 9288   4.740   1.536   0.181 -0.5064 -0.7290 -1.6143
 3094TIP3    H2 9289   4.867   1.454   0.179 -0.8030 -1.2445 -0.3347
 3095TIP3   OH2 9290   4.423   2.711   1.740  0.1578 -0.5756  0.0240
 3095TIP3    H1 9291   4.492   2.655   1.705  0.0214 -1.8895  1.6898
 3095TIP3    H2 9292   4.343   2.659   1.732 -0.0143 -0.5577  1.3907
 3096TIP3   OH2 9293   0.986   1.651   2.415 -0.3105  0.7421 -0.4188
 3096TIP3    H1 9294   0.943   1.604   2.345 -0.1223  2.3329 -1.6573
 3096TIP3    H2 9295   1.045   1.713   2.371  2.0099 -0.1850  1.1775
 3097TIP3   OH2 9296   5.689   5.336   0.298 -0.2932 -0.3378 -0.2449
 3097TIP3    H1 9297   5.613   5.362   0.246 -0.9839  0.4875  1.1169
 3097TIP3    H2 9298   5.652   5.308   0.382  0.8131 -1.2987 -0.0438
 3098TIP3   OH2 9299   4.488   5.129   4.260 -0.5787  0.0504 -0.3980
 3098TIP3    H1 9300   4.575   5.090   4.270 -1.3540 -1.9273 -0.9679
 3098TIP3    H2 9301   4.472   5.129   4.166 -1.6514 -0.7121 -0.2336
 3099TIP3   OH2 9302   0.397   3.965   0.556 -0.1103 -0.7956 -0.3155
 3099TIP3    H1 9303   0.342   3.924   0.623 -0.4550 -0.9347 -0.6833
 3099TIP3    H2 9304   0.339   4.027   0.512  0.1444 -0.6305 -0.4199
 3100TIP3   OH2 9305   1.327   1.979   0.259  0.2041  0.4084 -0.6713
 3100TIP3    H1 9306   1.366   1.892   0.269  0.7706  0.5771 -1.3490
 3100TIP3    H2 9307   1.235   1.961   0.237  0.1333 -0.0065 -0.0619
 3101TIP3   OH2 9308   3.619   3.116   2.058  0.1491  0.0373 -0.8047
 3101TIP3    H1 9309   3.573   3.156   2.133  0.0742  0.7333 -1.2086
 3101TIP3    H2 9310   3.679   3.054   2.098  0.1959  0.4866 -0.1491
 3102TIP3   OH2 9311   3.552   2.020   2.200  0.0505 -0.5023 -0.3520
 3102TIP3    H1 9312   3.548   1.931   2.165  0.2366 -0.4057 -0.6271
 3102TIP3    H2 9313   3.635   2.024   2.247  0.1241 -0.4203 -0.4893
 3103TIP3   OH2 9314   0.492   1.433   2.924  0.2122 -0.2054  0.0542
 3103TIP3    H1 9315   0.482   1.428   3.019  2.7298  0.7647  0.4696
 3103TIP3    H2 9316   0.474   1.345   2.893  0.7133 -0.9043  1.6227
 3104TIP3   OH2 9317   5.453   2.817   0.709  0.3738  0.2874 -0.4253
 3104TIP3    H1 9318   5.526   2.757   0.720  0.4907  0.7023  1.3340
 3104TIP3    H2 9319   5.491   2.904   0.722 -0.8436  0.4212  3.9063
 3105TIP3   OH2 9320   3.966   2.115   1.895 -0.3032 -0.1097  0.1702
 3105TIP3    H1 9321   3.898   2.077   1.950 -1.3262 -0.9816 -1.5957
 3105TIP3    H2 9322   4.025   2.159   1.956 -2.2906  0.4509  1.7849
 3106TIP3   OH2 9323   4.298   1.948   0.692  0.2133  0.0234  0.0645
 3106TIP3    H1 9324   4.207   1.930   0.713 -0.5690  2.4090 -1.0017
 3106TIP3    H2 9325   4.309   1.913   0.603  1.1920 -2.6333  1.0993
 3107TIP3   OH2 9326   1.022   2.215   4.254  0.5987  0.7009 -0.3729
 3107TIP3    H1 9327   0.956   2.199   4.321  2.2020  0.5033  1.2410
 3107TIP3    H2 9328   0.994   2.296   4.212  0.1692  1.5305  1.4005
 3108TIP3   OH2 9329   1.926   5.959   2.534  0.1801 -0.3058 -0.2774
 3108TIP3    H1 9330   1.913   5.941   2.627 -1.1992 -3.6448 -0.9592
 3108TIP3    H2 9331   1.870   6.035   2.516 -1.1569 -0.8603  1.2813
 3109TIP3   OH2 9332   6.154   5.695   1.931  0.0031 -0.0717  0.3528
 3109TIP3    H1 9333   6.245   5.687   1.902 -0.2673 -1.2337 -0.2583
 3109TIP3    H2 9334   6.128   5.783   1.906  0.8959  0.1889  0.3257
 3110TIP3   OH2 9335   5.824   1.009   1.597  0.1385  0.4716 -0.3267
 3110TIP3    H1 9336   5.827   0.964   1.513 -1.7659  1.4701 -0.9835
 3110TIP3    H2 9337   5.909   1.051   1.605  0.7474 -0.5451 -1.2255
 3111TIP3   OH2 9338   1.652   2.098   2.850 -0.2924 -0.0797  0.4879
 3111TIP3    H1 9339   1.585   2.107   2.917  0.3455  0.0510  1.1189
 3111TIP3    H2 9340   1.698   2.182   2.851 -0.1126 -0.1663  0.0568
 3112TIP3   OH2 9341   1.783   1.844   3.827 -0.1440 -0.2146  0.0227
 3112TIP3    H1 9342   1.848   1.827   3.759  0.0369  3.4523 -0.8999
 3112TIP3    H2 9343   1.699   1.831   3.783 -0.0664 -1.0541  0.0952
 3113TIP3   OH2 9344   1.312   2.685   0.694 -0.2587  0.0217  0.2303
 3113TIP3    H1 9345   1.225   2.709   0.664 -1.0480 -2.2244  0.5359
 3113TIP3    H2 9346   1.322   2.729   0.778 -1.6904 -0.8107  0.8565
 3114TIP3   OH2 9347   5.962   0.024   0.391 -0.0132 -0.3773  0.0529
 3114TIP3    H1 9348   5.930  -0.041   0.453 -1.2512  0.9821  0.8965
 3114TIP3    H2 9349   5.892   0.089   0.385  0.5951  0.1790 -1.8302
 3115TIP3   OH2 9350   2.081   5.772   4.789 -0.7817  0.6665  0.0589
 3115TIP3    H1 9351   2.137   5.759   4.865  0.3993  2.4711 -0.4327
 3115TIP3    H2 9352   2.067   5.684   4.754 -0.1715 -0.0453  1.5339
 3116TIP3   OH2 9353   4.688   1.098   2.520  0.9268 -0.2517  0.2097
 3116TIP3    H1 9354   4.632   1.131   2.451  0.9892  1.7440  1.0548
 3116TIP3    H2 9355   4.627   1.068   2.588  0.8707  0.1426  0.3350
 3117TIP3   OH2 9356   0.804   4.136   3.792 -0.6742  0.2384  0.2342
 3117TIP3    H1 9357   0.728   4.121   3.735 -1.0134  0.8017  0.5216
 3117TIP3    H2 9358   0.804   4.062   3.852  0.0231 -0.6599 -0.8404
 3118TIP3   OH2 9359   0.498   1.770   0.397 -0.0119  0.3877  0.2466
 3118TIP3    H1 9360   0.566   1.704   0.405  0.4253  0.6605 -1.0001
 3118TIP3    H2 9361   0.448   1.744   0.320 -0.6560  0.7882  0.5210
 3119TIP3   OH2 9362   1.772   1.111   3.873 -0.9234  0.9649 -0.0935
 3119TIP3    H1 9363   1.728   1.027   3.864  1.1385 -0.1439 -0.3812
 3119TIP3    H2 9364   1.808   1.129   3.786  1.6106  0.3526  0.7373
 3120TIP3   OH2 9365   3.863   2.380   1.369 -0.2653 -0.0895 -0.8225
 3120TIP3    H1 9366   3.788   2.324   1.348 -1.5779  1.6560 -1.0310
 3120TIP3    H2 9367   3.824   2.459   1.404  1.4673  1.1218 -1.5119
 3121TIP3   OH2 9368   4.270   5.675   2.813 -0.5602 -0.4454 -0.2804
 3121TIP3    H1 9369   4.238   5.739   2.749 -1.4427 -0.7526 -0.1592
 3121TIP3    H2 9370   4.260   5.591   2.769 -0.1027 -0.5625 -0.1605
 3122TIP3   OH2 9371   4.128   2.284   1.341  0.3490 -0.4618 -0.6890
 3122TIP3    H1 9372   4.039   2.318   1.354  0.1818 -1.1254 -0.1044
 3122TIP3    H2 9373   4.118   2.189   1.339  1.2641 -0.6232  1.1061
 3123TIP3   OH2 9374   4.371   4.583   1.522  0.7997  0.2617  0.2028
 3123TIP3    H1 9375   4.410   4.568   1.608  1.5010 -2.1526 -0.4663
 3123TIP3    H2 9376   4.435   4.548   1.460 -0.5635  0.1027 -1.1771
 3124TIP3   OH2 9377   6.345   5.086   4.111 -0.6741  0.1815  0.0716
 3124TIP3    H1 9378   6.287   5.143   4.062  0.4649  0.6448 -0.7858
 3124TIP3    H2 9379   6.378   5.141   4.182 -0.3948  0.2780 -0.1303
 3125TIP3   OH2 9380   5.721   2.343   0.959 -0.1795 -0.7654  0.1652
 3125TIP3    H1 9381   5.714   2.266   0.902  0.6726 -0.5760 -0.2049
 3125TIP3    H2 9382   5.808   2.336   0.998 -0.3917 -0.3859  0.7164
 3126TIP3   OH2 9383   5.797   1.311   0.744 -0.0224 -0.1024 -0.4259
 3126TIP3    H1 9384   5.778   1.361   0.664  2.0293  0.4083 -0.6401
 3126TIP3    H2 9385   5.735   1.238   0.741  0.5877 -0.6359 -3.0052
 3127TIP3   OH2 9386   0.683   5.547   3.051 -0.3535 -0.3446 -0.3385
 3127TIP3    H1 9387   0.749   5.514   3.112 -2.4564  0.7171  2.7598
 3127TIP3    H2 9388   0.617   5.478   3.049 -0.6392 -0.0586 -0.8521
 3128TIP3   OH2 9389   5.251   3.164   3.302  0.2580 -0.6219 -0.1460
 3128TIP3    H1 9390   5.196   3.166   3.224 -0.1354 -0.4982  0.1317
 3128TIP3    H2 9391   5.207   3.222   3.364 -1.0427 -2.9302  1.2308
 3129TIP3   OH2 9392   0.107   0.144   5.084  0.3545 -0.1600  0.1863
 3129TIP3    H1 9393   0.157   0.215   5.125  2.0437 -0.6225 -0.9648
 3129TIP3    H2 9394   0.173   0.082   5.054 -1.0399 -1.8923  0.4995
 3130TIP3   OH2 9395   0.429   4.028   4.102 -0.7752 -0.3622  0.2331
 3130TIP3    H1 9396   0.428   4.029   4.198 -1.1780  2.4952  0.2854
 3130TIP3    H2 9397   0.492   3.959   4.079  0.7239  0.1174  2.5732
 3131TIP3   OH2 9398   3.167   1.286   2.285 -0.4539 -0.3268  0.0829
 3131TIP3    H1 9399   3.086   1.335   2.296 -1.3719 -1.8340  0.2319
 3131TIP3    H2 9400   3.155   1.207   2.337  0.8307 -0.8962 -0.4421
 3132TIP3   OH2 9401   0.366   0.652   0.903  0.0479  0.0434 -0.0904
 3132TIP3    H1 9402   0.310   0.633   0.828  0.1137  0.1506 -0.1675
 3132TIP3    H2 9403   0.455   0.651   0.868  0.0804  0.0800 -0.0109
 3133TIP3   OH2 9404   4.572   0.837   4.916  0.1613 -0.5018  0.0595
 3133TIP3    H1 9405   4.489   0.844   4.964  0.3623 -1.1980  0.5233
 3133TIP3    H2 9406   4.603   0.927   4.909 -0.8118 -0.1951 -0.4459
 3134TIP3   OH2 9407   5.779   1.489   0.998  0.1064 -0.5617  0.6175
 3134TIP3    H1 9408   5.791   1.467   0.905 -0.3045  0.2418  0.3627
 3134TIP3    H2 9409   5.755   1.406   1.039  3.7679 -1.7301  0.7023
 3135TIP3   OH2 9410   2.841   3.425   4.479  0.1723 -0.2893  0.2421
 3135TIP3    H1 9411   2.850   3.371   4.401 -0.9428 -1.7290  1.0538
 3135TIP3    H2 9412   2.930   3.442   4.508  0.6113  0.6439 -1.5641
 3136TIP3   OH2 9413   0.097   5.919   2.106  0.0958  0.4694 -0.1008
 3136TIP3    H1 9414   0.039   5.973   2.160 -0.4437  1.5392 -1.6938
 3136TIP3    H2 9415   0.050   5.908   2.024  0.8075 -1.3091 -0.3099
 3137TIP3   OH2 9416   4.221   2.627   0.763 -0.4024  0.0352  0.1202
 3137TIP3    H1 9417   4.296   2.568   0.758 -1.3179 -1.1752  0.2580
 3137TIP3    H2 9418   4.181   2.607   0.848  0.4357  2.3480  1.1422
 3138TIP3   OH2 9419   5.070   1.088   4.366 -0.6473  0.2516 -0.5542
 3138TIP3    H1 9420   5.105   1.173   4.390  1.3556 -0.8956  0.9257
 3138TIP3    H2 9421   5.119   1.063   4.288 -0.3266 -0.0412 -0.2667
 3139TIP3   OH2 9422   3.699   0.654   4.646  0.1854  0.4197  0.3810
 3139TIP3    H1 9423   3.691   0.648   4.551 -1.0927  1.6165  0.3660
 3139TIP3    H2 9424   3.781   0.701   4.661  0.0194  0.8983 -0.1806
 3140TIP3   OH2 9425   5.460   3.319   2.976  0.5801  0.0106  0.0194
 3140TIP3    H1 9426   5.534   3.269   2.941  0.9105  1.7712 -1.9989
 3140TIP3    H2 9427   5.500   3.382   3.036  0.5382 -0.0828  0.1447
 3141TIP3   OH2 9428   3.521   1.172   3.914  0.1677  0.1300  0.1840
 3141TIP3    H1 9429   3.472   1.195   3.835 -1.1157  2.1094  1.4778
 3141TIP3    H2 9430   3.516   1.250   3.969  1.6747 -0.9225  1.9289
 3142TIP3   OH2 9431   4.041   5.144   2.567 -0.2283  0.1477 -0.1907
 3142TIP3    H1 9432   4.033   5.056   2.603  0.5891 -0.1756 -0.7614
 3142TIP3    H2 9433   4.034   5.201   2.643  0.8546 -0.4939  0.4176
 3143TIP3   OH2 9434   4.309   5.363   0.357 -0.1387  0.5148 -0.2362
 3143TIP3    H1 9435   4.391   5.314   0.353  1.3338  2.8978 -1.6172
 3143TIP3    H2 9436   4.317   5.417   0.436 -0.0296  1.2412 -0.7307
 3144TIP3   OH2 9437   1.310   0.147   4.256 -0.0602 -0.4260  0.4303
 3144TIP3    H1 9438   1.284   0.114   4.342  0.1519 -2.6452 -0.2902
 3144TIP3    H2 9439   1.254   0.100   4.194  0.0551  0.8430 -0.6851
 3145TIP3   OH2 9440   1.412   2.348   2.900  0.7059 -0.2778 -0.0684
 3145TIP3    H1 9441   1.395   2.383   2.987  1.1938 -1.4932  0.5434
 3145TIP3    H2 9442   1.392   2.255   2.907 -0.2502 -0.2124 -1.5518
 3146TIP3   OH2 9443   1.627   2.841   4.117  0.1717 -0.5648 -0.3631
 3146TIP3    H1 9444   1.532   2.829   4.121  0.0901  0.1942  0.2062
 3146TIP3    H2 9445   1.660   2.800   4.197  0.2737 -0.3988 -0.3193
 3147TIP3   OH2 9446   1.883   5.505   1.718 -0.1124 -0.5078  0.2028
 3147TIP3    H1 9447   1.912   5.490   1.808 -2.1970  1.2927  1.2706
 3147TIP3    H2 9448   1.919   5.591   1.695 -2.9504  1.0154  0.9710
 3148TIP3   OH2 9449   4.966   5.719   1.981  0.3789 -0.2770 -0.3015
 3148TIP3    H1 9450   4.877   5.694   1.959  0.2422 -0.7813  0.7395
 3148TIP3    H2 9451   4.993   5.655   2.047  1.8497 -0.7169 -1.2780
 3149TIP3   OH2 9452   4.821   0.020   4.219 -0.8899 -0.1342 -0.1827
 3149TIP3    H1 9453   4.835   0.000   4.312 -0.1734  0.2684 -0.1969
 3149TIP3    H2 9454   4.728   0.043   4.213 -1.2859 -1.5634  0.1683
 3150TIP3   OH2 9455   3.271   4.362   4.453  0.1520  0.3133 -0.2284
 3150TIP3    H1 9456   3.227   4.413   4.521  0.7538  2.6462 -1.5049
 3150TIP3    H2 9457   3.331   4.304   4.501 -1.1877  0.1440  1.3000
 3151TIP3   OH2 9458   3.526   2.282   4.718 -0.1398  0.8442 -0.0023
 3151TIP3    H1 9459   3.603   2.257   4.770  0.3154  1.5854 -0.3097
 3151TIP3    H2 9460   3.491   2.198   4.686  0.8147  0.5245 -0.2467
 3152TIP3   OH2 9461   2.182   5.417   1.779  0.2135  0.1174 -0.6458
 3152TIP3    H1 9462   2.264   5.402   1.731 -0.7542 -0.8140 -2.0735
 3152TIP3    H2 9463   2.160   5.331   1.814  0.6881  0.7006  1.2021
 3153TIP3   OH2 9464   4.844   2.717   1.791 -0.6202 -0.5387  0.6932
 3153TIP3    H1 9465   4.920   2.763   1.756 -1.2009 -1.0766 -1.4331
 3153TIP3    H2 9466   4.785   2.787   1.821 -1.8528  0.3573 -3.2174
 3154TIP3   OH2 9467   4.718   4.096   4.540 -0.3776 -0.0188 -0.6874
 3154TIP3    H1 9468   4.788   4.031   4.549 -1.3408 -0.9430  0.6431
 3154TIP3    H2 9469   4.659   4.059   4.474  0.2127  0.6019 -1.5702
 3155TIP3   OH2 9470   5.023   4.113   2.268 -0.2607  0.8867  0.5321
 3155TIP3    H1 9471   5.005   4.189   2.324 -1.2757  1.6240 -0.7251
 3155TIP3    H2 9472   4.986   4.138   2.183 -1.3924 -1.3725  0.3072
 3156TIP3   OH2 9473   3.367   5.177   3.741  1.0287 -0.2498  0.3033
 3156TIP3    H1 9474   3.398   5.250   3.796  2.4636 -0.5378 -0.0736
 3156TIP3    H2 9475   3.278   5.202   3.717  0.9835  0.7037  1.3390
 3157TIP3   OH2 9476   0.811   4.778   3.571 -0.2471 -0.9545 -0.3446
 3157TIP3    H1 9477   0.896   4.821   3.580 -0.4442 -0.8471  1.2901
 3157TIP3    H2 9478   0.764   4.831   3.507  0.9739 -1.1443 -1.4404
 3158TIP3   OH2 9479   6.135   2.237   1.601 -0.0584 -0.0704 -0.5128
 3158TIP3    H1 9480   6.195   2.268   1.669  0.2896  0.7550 -1.1785
 3158TIP3    H2 9481   6.070   2.185   1.648  0.7468 -0.3482  0.3136
 3159TIP3   OH2 9482   1.406   1.914   4.451 -0.3770  1.0465  0.1620
 3159TIP3    H1 9483   1.360   1.990   4.487  1.2740  1.9817  0.3716
 3159TIP3    H2 9484   1.459   1.881   4.524 -0.0686  0.4936 -0.3031
 3160TIP3   OH2 9485   2.664   0.141   2.015  0.0555  0.0906  0.1044
 3160TIP3    H1 9486   2.698   0.057   2.044  1.1430  0.0296 -1.2127
 3160TIP3    H2 9487   2.740   0.186   1.978 -0.6739  1.3152  0.0232
 3161TIP3   OH2 9488   1.386   0.306   0.992 -0.4595  0.1340  0.5744
 3161TIP3    H1 9489   1.305   0.322   0.943  0.8995 -0.3806 -2.0562
 3161TIP3    H2 9490   1.408   0.391   1.031 -3.0203 -0.0780  2.7640
 3162TIP3   OH2 9491   2.710   3.698   4.876 -0.3069  0.5663  0.3691
 3162TIP3    H1 9492   2.796   3.740   4.871 -0.3195  0.4547 -1.5132
 3162TIP3    H2 9493   2.728   3.605   4.869 -0.5619  0.5113  0.4197
 3163TIP3   OH2 9494   0.947   2.123   1.911  0.2414 -0.5209  0.0642
 3163TIP3    H1 9495   1.013   2.174   1.864  1.0678 -1.5030  0.1194
 3163TIP3    H2 9496   0.984   2.108   1.998 -0.7919  0.3299  0.6810
 3164TIP3   OH2 9497   2.364   3.803   3.626  0.3169 -0.1199 -0.0542
 3164TIP3    H1 9498   2.298   3.780   3.561  0.9488  0.4330 -0.9145
 3164TIP3    H2 9499   2.383   3.721   3.671 -1.7439 -0.0928  0.9886
 3165TIP3   OH2 9500   4.674   0.490   2.141 -0.1441 -0.2311 -0.3788
 3165TIP3    H1 9501   4.708   0.512   2.054 -0.1573  0.0281 -0.3195
 3165TIP3    H2 9502   4.666   0.574   2.186  4.3955 -0.5557  1.5983
 3166TIP3   OH2 9503   1.021   4.389   0.528  0.3636  0.4384 -0.0199
 3166TIP3    H1 9504   1.100   4.350   0.567  0.7671 -1.2636 -2.3437
 3166TIP3    H2 9505   0.958   4.391   0.599  1.2376 -1.9357  0.9369
 3167TIP3   OH2 9506   1.418   1.717   3.698 -0.2434 -0.3787 -0.0142
 3167TIP3    H1 9507   1.441   1.808   3.680 -0.4453  0.0737  1.7821
 3167TIP3    H2 9508   1.349   1.722   3.765 -0.5601 -1.8425 -0.1861
 3168TIP3   OH2 9509   2.107   0.832   0.701 -0.1969  0.0511  0.2249
 3168TIP3    H1 9510   2.084   0.747   0.665  0.8336  0.6622 -2.0306
 3168TIP3    H2 9511   2.113   0.817   0.796 -2.5813 -1.7363  0.1767
 3169TIP3   OH2 9512   5.121   2.640   0.977  0.5331  0.0839  0.5224
 3169TIP3    H1 9513   5.152   2.728   1.000 -0.5102  0.5234  0.2560
 3169TIP3    H2 9514   5.196   2.600   0.933  1.2236  0.6162  1.1694
 3170TIP3   OH2 9515   4.423   4.052   1.686 -0.0618 -0.1758  0.3511
 3170TIP3    H1 9516   4.437   3.957   1.684  2.9283  0.0932  2.4727
 3170TIP3    H2 9517   4.372   4.067   1.766  1.0255  0.0989  1.0134
 3171TIP3   OH2 9518   2.832   3.032   4.096 -0.5414  0.2135 -0.6319
 3171TIP3    H1 9519   2.873   2.959   4.142 -1.2267 -0.7387 -1.5017
 3171TIP3    H2 9520   2.872   3.030   4.009  0.1154  1.4672 -0.3848
 3172TIP3   OH2 9521   3.674   1.100   4.309  0.1298 -0.2275  0.5260
 3172TIP3    H1 9522   3.722   1.174   4.271  0.3788  0.0014  1.2463
 3172TIP3    H2 9523   3.589   1.101   4.266 -0.6998  1.8460  2.0040
 3173TIP3   OH2 9524   3.871   2.474   2.171 -0.0269  0.1640 -0.6211
 3173TIP3    H1 9525   3.908   2.541   2.114 -1.4364  1.7304  0.2135
 3173TIP3    H2 9526   3.779   2.499   2.181 -0.3953 -1.4446  0.3944
 3174TIP3   OH2 9527   0.221   0.694   0.668 -0.2269  0.2715  0.0285
 3174TIP3    H1 9528   0.162   0.665   0.598  0.1272 -2.5094  0.7298
 3174TIP3    H2 9529   0.165   0.743   0.728 -0.9823  0.8896 -1.1383
 3175TIP3   OH2 9530   5.429   5.817   3.845 -0.3676  1.0877  0.0660
 3175TIP3    H1 9531   5.461   5.873   3.775 -3.2899 -0.1135 -2.5002
 3175TIP3    H2 9532   5.431   5.729   3.807 -0.1153  0.0662  2.3072
 3176TIP3   OH2 9533   5.589   5.640   1.966  0.1334 -0.0872  0.2332
 3176TIP3    H1 9534   5.668   5.631   2.019 -1.0161  0.8463  2.2157
 3176TIP3    H2 9535   5.567   5.551   1.941  1.0675 -0.4986  0.7973
 3177TIP3   OH2 9536   0.280   5.529   2.745 -0.0836 -0.1525  0.3416
 3177TIP3    H1 9537   0.242   5.442   2.754  0.0396 -0.0956  1.5967
 3177TIP3    H2 9538   0.327   5.527   2.661 -1.1442 -0.8664 -0.2620
 3178TIP3   OH2 9539   1.084   0.486   1.347 -0.4330 -0.1896 -0.0827
 3178TIP3    H1 9540   1.121   0.470   1.260  0.7993  0.2328  0.3489
 3178TIP3    H2 9541   1.058   0.578   1.345  1.1787  0.3080  0.5372
 3179TIP3   OH2 9542   6.153   3.857   0.030 -0.4235  0.0093 -0.9607
 3179TIP3    H1 9543   6.150   3.857   0.125  1.3294 -0.4754 -0.8601
 3179TIP3    H2 9544   6.068   3.824   0.002 -0.8668 -0.0580  0.4443
 3180TIP3   OH2 9545   0.081   1.737   1.377 -0.5758 -0.4188 -0.1643
 3180TIP3    H1 9546   0.171   1.717   1.402  0.1865  0.2212 -2.1604
 3180TIP3    H2 9547   0.067   1.827   1.408 -0.1928 -0.1923 -0.6314
 3181TIP3   OH2 9548   1.685   5.833   3.206 -0.0480  0.1592 -0.0441
 3181TIP3    H1 9549   1.648   5.892   3.141  0.8132 -0.0649 -0.7640
 3181TIP3    H2 9550   1.778   5.827   3.183  0.2221 -0.1463  1.0364
 3182TIP3   OH2 9551   2.293   3.771   1.980 -0.1424 -0.6843  0.2412
 3182TIP3    H1 9552   2.325   3.829   2.049 -0.1794  0.8406 -0.9855
 3182TIP3    H2 9553   2.280   3.687   2.024  2.4020 -0.4981  1.4954
 3183TIP3   OH2 9554   4.496   4.399   0.166 -0.5594 -0.0488  0.6554
 3183TIP3    H1 9555   4.474   4.476   0.219 -0.2025  0.8330 -0.4384
 3183TIP3    H2 9556   4.422   4.339   0.178 -1.6273  1.1492  0.2531
 3184TIP3   OH2 9557   1.522   1.906   1.234 -0.0847 -0.4089 -0.0276
 3184TIP3    H1 9558   1.447   1.856   1.202  0.0902  0.2446 -1.5849
 3184TIP3    H2 9559   1.592   1.841   1.245  0.0816 -0.5927 -1.8351
 3185TIP3   OH2 9560   4.719   4.558   4.281 -0.0294 -0.3882 -0.5203
 3185TIP3    H1 9561   4.663   4.590   4.352  0.4127  1.0466 -0.7793
 3185TIP3    H2 9562   4.689   4.468   4.265 -0.6782 -0.4500  0.9191
 3186TIP3   OH2 9563   1.191   5.907  -0.007 -0.3236 -0.0884  0.1820
 3186TIP3    H1 9564   1.199   6.003  -0.003 -0.3445 -0.1061  0.8320
 3186TIP3    H2 9565   1.117   5.887   0.050  1.1879 -0.6564  2.0456
 3187TIP3   OH2 9566   2.813   0.408   3.124  0.0055 -0.0815 -0.1907
 3187TIP3    H1 9567   2.729   0.407   3.078 -0.4184 -0.1040  0.5808
 3187TIP3    H2 9568   2.878   0.413   3.054 -0.6696  1.0818 -0.7696
 3188TIP3   OH2 9569   5.605   0.702   3.833  0.2500  0.6579 -0.1227
 3188TIP3    H1 9570   5.614   0.633   3.768 -0.3794 -0.8802  1.3442
 3188TIP3    H2 9571   5.555   0.771   3.790  0.2211 -0.1348 -1.3764
 3189TIP3   OH2 9572   1.971   5.955   2.155 -0.2750 -0.4429 -0.2071
 3189TIP3    H1 9573   2.030   5.994   2.220 -1.8869 -0.7755  1.5510
 3189TIP3    H2 9574   1.927   5.884   2.203 -0.9627 -1.2173 -1.9213
 3190TIP3   OH2 9575   0.228   5.313   3.319  0.3673 -0.0494  0.8229
 3190TIP3    H1 9576   0.153   5.289   3.374  0.4456 -0.4405  0.7601
 3190TIP3    H2 9577   0.188   5.345   3.238  0.2687 -0.4239  0.7204
 3191TIP3   OH2 9578   2.115   3.512   5.139  0.6386  0.0042  0.1724
 3191TIP3    H1 9579   2.208   3.518   5.120  0.5478 -0.8313 -0.6066
 3191TIP3    H2 9580   2.073   3.571   5.076  0.6210  0.2383  0.4006
 3192TIP3   OH2 9581   0.825   0.668   4.594  0.1461  0.2990  0.2193
 3192TIP3    H1 9582   0.839   0.600   4.528  0.5516  1.0572 -0.4974
 3192TIP3    H2 9583   0.833   0.750   4.546 -0.3791  0.8605  1.0627
 3193TIP3   OH2 9584   4.959   5.022   4.136  0.3006 -0.1737  0.2110
 3193TIP3    H1 9585   4.971   5.023   4.231 -0.5689  0.1480  0.3304
 3193TIP3    H2 9586   4.941   4.931   4.114 -0.7674 -0.0559  0.5433
 3194TIP3   OH2 9587   1.927   3.266   3.305 -0.0416  0.2573  0.3867
 3194TIP3    H1 9588   2.023   3.273   3.310  0.3929 -3.1232 -0.6788
 3194TIP3    H2 9589   1.907   3.282   3.213 -0.1984 -1.1817  0.1510
 3195TIP3   OH2 9590   4.370   1.988   2.289  0.0185  0.2256 -0.3196
 3195TIP3    H1 9591   4.365   2.081   2.264 -0.4230  1.1337  2.7027
 3195TIP3    H2 9592   4.458   1.978   2.326 -1.1389  0.5608  2.8392
 3196TIP3   OH2 9593   4.824   4.838   4.405 -0.7072 -0.4947  0.0990
 3196TIP3    H1 9594   4.768   4.802   4.474 -1.3515  0.9210  0.3566
 3196TIP3    H2 9595   4.912   4.833   4.441 -0.9915 -0.1582  0.8625
 3197TIP3   OH2 9596   1.104   1.647   3.333  0.0979 -0.0121 -0.6681
 3197TIP3    H1 9597   1.056   1.601   3.402  0.0943  1.1318  0.1144
 3197TIP3    H2 9598   1.187   1.672   3.374  0.4029  0.0483 -1.3065
 3198TIP3   OH2 9599   4.197   3.781   0.292 -0.2397 -0.4039  0.1492
 3198TIP3    H1 9600   4.250   3.812   0.219 -2.2210 -1.0000 -1.6165
 3198TIP3    H2 9601   4.162   3.861   0.332 -1.2618 -0.1445 -1.2246
 3199TIP3   OH2 9602   0.550   3.022   4.500  0.1124  0.3047  0.1421
 3199TIP3    H1 9603   0.540   3.113   4.475 -1.9213 -0.0607 -0.6138
 3199TIP3    H2 9604   0.539   2.973   4.418 -0.4365 -0.6615  0.7670
 3200TIP3   OH2 9605   0.709   1.362   1.347  0.0009  0.2835 -0.2527
 3200TIP3    H1 9606   0.664   1.278   1.348 -0.3555  0.3777 -2.4603
 3200TIP3    H2 9607   0.775   1.355   1.416 -1.5156 -0.9165  1.1429
 3201TIP3   OH2 9608   5.934   3.277   3.665  0.2815  0.0176 -0.1255
 3201TIP3    H1 9609   5.995   3.342   3.700  2.7016 -1.9909 -0.3489
 3201TIP3    H2 9610   5.924   3.301   3.572 -3.2334  3.1423  0.7842
 3202TIP3   OH2 9611   0.901   3.080   3.131 -0.2481 -0.2964 -0.1006
 3202TIP3    H1 9612   0.873   3.132   3.206  0.5307 -0.2899  0.1950
 3202TIP3    H2 9613   0.878   3.134   3.055 -0.6078 -0.0912  0.1478
 3203TIP3   OH2 9614   4.647   4.377   1.015 -0.3987 -0.1000  0.0587
 3203TIP3    H1 9615   4.572   4.327   1.048  0.1701 -0.9609  0.0766
 3203TIP3    H2 9616   4.608   4.441   0.955 -0.9829 -2.4247 -2.2473
 3204TIP3   OH2 9617   2.575   1.409   3.165 -0.6944  0.3977 -0.5403
 3204TIP3    H1 9618   2.498   1.461   3.188 -0.2277  1.2615 -0.8796
 3204TIP3    H2 9619   2.615   1.457   3.092  1.0304  0.8404  0.6319
 3205TIP3   OH2 9620   0.800   0.044   2.731 -0.7857  0.0495 -0.5588
 3205TIP3    H1 9621   0.736   0.102   2.772 -0.9136 -0.3442 -0.1904
 3205TIP3    H2 9622   0.781  -0.043   2.767 -0.3965 -0.1690 -0.8610
 3206TIP3   OH2 9623   5.161   4.376   3.086 -0.3804  0.6535  0.9815
 3206TIP3    H1 9624   5.111   4.454   3.112 -1.7402  0.1464  0.0100
 3206TIP3    H2 9625   5.218   4.408   3.016 -0.8718  0.8216  0.6453
 3207TIP3   OH2 9626   1.106   2.643   4.904 -0.1643 -0.3335  0.2264
 3207TIP3    H1 9627   1.021   2.633   4.946 -1.1707  0.0943 -1.6114
 3207TIP3    H2 9628   1.102   2.587   4.827  0.7164  0.7025 -0.5989
 3208TIP3   OH2 9629   4.589   4.945   1.696  1.0162 -0.0909  0.7671
 3208TIP3    H1 9630   4.666   4.934   1.753  3.9721  3.1629 -2.1095
 3208TIP3    H2 9631   4.616   4.906   1.613 -0.5479  1.0037 -0.2847
 3209TIP3   OH2 9632   5.125   0.689   1.738  0.6789 -0.7172 -0.0885
 3209TIP3    H1 9633   5.113   0.705   1.831 -1.5113 -0.2222 -0.3916
 3209TIP3    H2 9634   5.219   0.671   1.728  1.9842  3.7787  1.5464
 3210TIP3   OH2 9635   4.392   2.838   4.053 -0.0766  0.4709  0.0945
 3210TIP3    H1 9636   4.339   2.809   3.978 -1.1850 -1.1449  1.4206
 3210TIP3    H2 9637   4.378   2.933   4.056 -0.6468  0.4602 -1.2472
 3211TIP3   OH2 9638   2.736   2.846   2.627 -0.4597  0.1590  0.0641
 3211TIP3    H1 9639   2.702   2.876   2.712 -0.3926  0.3687  0.0159
 3211TIP3    H2 9640   2.680   2.771   2.605 -1.5502  1.1062 -0.4894
 3212TIP3   OH2 9641   3.877   0.403   2.005 -0.3622 -0.3486 -0.2272
 3212TIP3    H1 9642   3.886   0.310   2.025 -0.1784 -0.0224  1.3703
 3212TIP3    H2 9643   3.955   0.424   1.954  1.0501 -0.4943  1.7936
 3213TIP3   OH2 9644   1.330   0.160   1.407  0.1335  0.2647 -0.3994
 3213TIP3    H1 9645   1.383   0.124   1.337  1.2022 -0.5553  0.7794
 3213TIP3    H2 9646   1.296   0.083   1.454  1.0772  0.7304  1.1459
 3214TIP3   OH2 9647   0.542   1.567   1.423 -0.3635  0.8807 -0.3210
 3214TIP3    H1 9648   0.603   1.503   1.388 -2.9431 -0.6776 -2.2809
 3214TIP3    H2 9649   0.598   1.628   1.472  2.9508  0.4676 -3.1548
 3215TIP3   OH2 9650   3.672   5.501   1.906  0.9078  0.1303 -0.1014
 3215TIP3    H1 9651   3.609   5.571   1.927  1.9396  0.6815  1.3101
 3215TIP3    H2 9652   3.742   5.511   1.971  1.1144 -2.1947  0.1366
 3216TIP3   OH2 9653   3.966   1.300   4.814 -0.4156 -0.1313 -0.6454
 3216TIP3    H1 9654   3.962   1.332   4.724 -1.0156 -0.4221 -0.7227
 3216TIP3    H2 9655   3.938   1.374   4.868 -2.6971 -0.7451 -0.8797
 3217TIP3   OH2 9656   2.427   5.282   0.872 -0.3114  0.2877 -0.0061
 3217TIP3    H1 9657   2.410   5.375   0.890  0.1977  0.1924  1.0349
 3217TIP3    H2 9658   2.514   5.281   0.833 -0.3128  0.2530 -0.0084
 3218TIP3   OH2 9659   1.617   2.413   2.120 -0.1554 -0.0608  0.0950
 3218TIP3    H1 9660   1.555   2.375   2.182 -0.2239 -0.7373 -0.3837
 3218TIP3    H2 9661   1.664   2.338   2.083 -1.3779  0.1338 -2.0373
 3219TIP3   OH2 9662   1.977   5.754   0.520 -0.0876 -0.2559 -0.3206
 3219TIP3    H1 9663   1.892   5.720   0.494  0.1378 -1.1070  0.0239
 3219TIP3    H2 9664   2.007   5.695   0.589 -0.5743  1.7830  1.7764
 3220TIP3   OH2 9665   1.005   3.940   3.421  1.1652  0.2485  0.0919
 3220TIP3    H1 9666   1.089   3.901   3.398  1.4627  0.5678  0.6221
 3220TIP3    H2 9667   1.025   4.032   3.440  0.2573  1.0618 -2.4860
 3221TIP3   OH2 9668   2.668   3.451   1.575 -0.0575  0.5812 -0.8334
 3221TIP3    H1 9669   2.573   3.437   1.574 -0.2443  1.6947 -0.3596
 3221TIP3    H2 9670   2.705   3.368   1.543 -1.0925 -0.6868  1.0374
 3222TIP3   OH2 9671   2.659   2.725   5.123 -0.4642 -0.4812 -0.0398
 3222TIP3    H1 9672   2.619   2.754   5.205 -0.9883  1.0712 -0.8000
 3222TIP3    H2 9673   2.746   2.694   5.148 -0.7097 -0.2614  1.1326
 3223TIP3   OH2 9674   5.006   2.149   4.969 -0.5380  0.8917 -0.0179
 3223TIP3    H1 9675   5.037   2.193   4.890 -2.4109 -0.7740 -1.8336
 3223TIP3    H2 9676   4.965   2.218   5.021  0.4763  1.9868 -0.6242
 3224TIP3   OH2 9677   0.914   0.378   0.086 -0.0132 -0.0490  0.0612
 3224TIP3    H1 9678   0.915   0.314   0.014  1.7637  0.5104 -0.4805
 3224TIP3    H2 9679   0.999   0.365   0.129 -1.1476 -0.5631  2.2886
 3225TIP3   OH2 9680   0.911   3.403   4.693  0.1190  0.2746 -0.1310
 3225TIP3    H1 9681   0.900   3.403   4.789 -1.8015 -1.1469 -0.2894
 3225TIP3    H2 9682   0.957   3.320   4.675 -0.4396  0.0424 -0.5023
 3226TIP3   OH2 9683   1.240   2.404   2.119  0.6561  0.6576  0.1414
 3226TIP3    H1 9684   1.155   2.381   2.157  0.3552 -2.8517 -2.1747
 3226TIP3    H2 9685   1.303   2.357   2.174  0.6432 -0.3722 -0.6898
 3227TIP3   OH2 9686   1.972   1.191   1.288 -0.3365 -0.3079 -0.7545
 3227TIP3    H1 9687   1.899   1.251   1.269 -0.6484 -0.7526 -0.9827
 3227TIP3    H2 9688   2.035   1.245   1.336 -0.4958  0.2732 -1.1775
 3228TIP3   OH2 9689   5.111   1.178   0.466  0.1909 -0.4862  0.2295
 3228TIP3    H1 9690   5.082   1.128   0.390  1.9536 -1.9204  0.4504
 3228TIP3    H2 9691   5.097   1.269   0.441 -1.5510 -0.9990 -0.8296
 3229TIP3   OH2 9692   2.985   3.936   2.683  0.1502  0.1373 -0.1894
 3229TIP3    H1 9693   3.059   3.913   2.738  1.0644  0.9293 -1.0452
 3229TIP3    H2 9694   2.992   3.878   2.607 -0.5934 -0.3541  0.1101
 3230TIP3   OH2 9695   0.591   4.718   0.315  0.2803 -0.4214  0.3241
 3230TIP3    H1 9696   0.617   4.754   0.230  0.0255  1.5551  1.0279
 3230TIP3    H2 9697   0.509   4.672   0.297 -0.0005  0.3464 -0.4254
 3231TIP3   OH2 9698   3.794   2.465   0.790 -0.3473  1.0849 -0.4475
 3231TIP3    H1 9699   3.804   2.425   0.877  0.3519  1.5579 -0.3036
 3231TIP3    H2 9700   3.867   2.430   0.739  0.1826  2.0436 -0.3657
 3232TIP3   OH2 9701   1.918   0.040   0.375  0.0181 -0.2327 -0.1113
 3232TIP3    H1 9702   1.847   0.014   0.317  0.3034 -2.2817  0.3706
 3232TIP3    H2 9703   1.876   0.056   0.459 -0.0744  0.1698 -0.2344
 3233TIP3   OH2 9704   1.618   3.318   2.981 -0.3674 -0.0625  0.5758
 3233TIP3    H1 9705   1.643   3.386   3.044 -1.2147 -0.0810  0.9473
 3233TIP3    H2 9706   1.527   3.299   3.001 -0.4377 -0.5934 -0.1918
 3234TIP3   OH2 9707   3.554   1.964   1.326  0.0911 -0.8809 -0.0053
 3234TIP3    H1 9708   3.459   1.962   1.314  0.0795 -1.2032  0.1426
 3234TIP3    H2 9709   3.574   1.884   1.374  0.3668 -0.5189  0.4964
 3235TIP3   OH2 9710   5.324   1.065   0.180 -0.0323  0.1245  0.1803
 3235TIP3    H1 9711   5.334   1.133   0.112  0.3505  1.1227  1.2031
 3235TIP3    H2 9712   5.229   1.053   0.188 -0.0715 -1.2594 -1.7056
 3236TIP3   OH2 9713   3.677   2.281   5.138 -0.6272 -0.0531 -0.2279
 3236TIP3    H1 9714   3.653   2.188   5.130  1.0451 -0.4627 -0.8957
 3236TIP3    H2 9715   3.623   2.313   5.211 -2.0159 -1.2598 -0.6651
 3237TIP3   OH2 9716   6.188   2.851   4.080 -0.0790  1.2589  0.2749
 3237TIP3    H1 9717   6.217   2.771   4.035  0.3118  1.4255  0.2273
 3237TIP3    H2 9718   6.115   2.883   4.026 -1.4439 -0.0246  1.2632
 3238TIP3   OH2 9719   2.662   0.607   3.706  0.1803  0.0919  0.1807
 3238TIP3    H1 9720   2.719   0.542   3.665  1.1986  0.8917  0.2897
 3238TIP3    H2 9721   2.669   0.685   3.650  0.6839  0.8172  1.2178
 3239TIP3   OH2 9722   2.036   0.247   2.879 -0.4170  0.0339 -0.7909
 3239TIP3    H1 9723   1.959   0.271   2.828 -0.9623  1.8439  0.7623
 3239TIP3    H2 9724   2.104   0.308   2.849  0.2049 -0.9685 -1.5159
 3240TIP3   OH2 9725   4.842   2.812   1.475  0.0866 -0.3253  0.2389
 3240TIP3    H1 9726   4.758   2.839   1.437 -0.9487 -0.7814  2.0496
 3240TIP3    H2 9727   4.886   2.895   1.496  0.4950 -0.0771 -1.4838
 3241TIP3   OH2 9728   1.745   0.387   2.152  0.2265 -0.2414 -0.0351
 3241TIP3    H1 9729   1.748   0.392   2.247  1.8979 -1.2666  0.0077
 3241TIP3    H2 9730   1.692   0.310   2.133  0.0418 -0.1402  0.0653
 3242TIP3   OH2 9731   2.794   5.435   1.632  0.8881  0.2305  0.2961
 3242TIP3    H1 9732   2.763   5.449   1.721  3.6460 -1.4004  1.6648
 3242TIP3    H2 9733   2.715   5.422   1.580 -0.7923 -1.1186  2.9726
 3243TIP3   OH2 9734   0.299   1.532   1.279 -0.2850 -0.1411 -0.1278
 3243TIP3    H1 9735   0.373   1.524   1.339 -1.3221  2.2596  1.6499
 3243TIP3    H2 9736   0.330   1.588   1.208 -0.0531 -0.1346 -0.0215
 3244TIP3   OH2 9737   5.490   1.057   4.295  0.0141 -0.4212  0.2460
 3244TIP3    H1 9738   5.461   1.103   4.374  1.2302  1.5284 -0.3615
 3244TIP3    H2 9739   5.419   1.070   4.232  1.0354  2.3648 -0.5054
 3245TIP3   OH2 9740   1.085   4.215   3.837 -0.0272  0.3817 -0.6309
 3245TIP3    H1 9741   1.105   4.206   3.930  0.2007 -0.5187 -0.7621
 3245TIP3    H2 9742   1.002   4.169   3.825  0.3548 -0.2127 -1.0246
 3246TIP3   OH2 9743   5.970   4.551   1.211  0.0772  0.2080 -0.0570
 3246TIP3    H1 9744   5.947   4.550   1.118 -1.3958 -1.7490  0.2737
 3246TIP3    H2 9745   5.918   4.623   1.247 -0.9919 -0.3591 -0.4115
 3247TIP3   OH2 9746   6.142   3.390   4.423  0.9235 -0.3567 -0.2257
 3247TIP3    H1 9747   6.061   3.439   4.435  1.3283  0.1125  0.6495
 3247TIP3    H2 9748   6.179   3.426   4.343  1.3812  1.0352  0.5769
 3248TIP3   OH2 9749   1.822   4.964   5.122 -0.2748 -0.1458  0.4602
 3248TIP3    H1 9750   1.813   4.927   5.034  1.9114 -0.3020  0.2515
 3248TIP3    H2 9751   1.869   4.897   5.171  0.6349  0.9082  1.0678
 3249TIP3   OH2 9752   6.019   2.540   1.515 -0.2649  0.1243 -0.2072
 3249TIP3    H1 9753   6.046   2.471   1.454 -0.4553  0.1504 -0.3255
 3249TIP3    H2 9754   6.093   2.600   1.518 -0.2841  0.1658 -0.4801
 3250TIP3   OH2 9755   0.051   4.152   2.104  0.0831  0.2320  0.3831
 3250TIP3    H1 9756   0.041   4.224   2.165 -0.2067  1.1108 -0.6626
 3250TIP3    H2 9757   0.032   4.073   2.155 -1.8208  1.0574  1.0259
 3251TIP3   OH2 9758   1.870   4.580   4.703 -0.0143 -0.8559 -0.5323
 3251TIP3    H1 9759   1.858   4.597   4.610  0.6995  0.9249 -0.3445
 3251TIP3    H2 9760   1.964   4.591   4.717 -0.3939  1.2518  0.7849
 3252TIP3   OH2 9761   2.064   5.294   4.592  0.3813  0.0610  0.1782
 3252TIP3    H1 9762   2.078   5.381   4.627 -0.1979  1.0083 -1.7827
 3252TIP3    H2 9763   2.024   5.245   4.664  0.4595  1.4819  1.2316
 3253TIP3   OH2 9764   5.687   5.449   4.648  0.7470 -0.1341  0.1917
 3253TIP3    H1 9765   5.685   5.354   4.644  0.4856 -0.1407  0.4012
 3253TIP3    H2 9766   5.675   5.469   4.741  0.2046  0.1110  0.0743
 3254TIP3   OH2 9767   1.191   0.953   1.995 -0.4360 -0.4061 -0.3718
 3254TIP3    H1 9768   1.194   0.987   1.906 -2.3166 -1.1617 -0.7677
 3254TIP3    H2 9769   1.274   0.907   2.006 -0.3393 -0.6454 -1.8877
 3255TIP3   OH2 9770   1.951   3.442   0.717  0.1199 -0.2159 -0.4194
 3255TIP3    H1 9771   2.029   3.386   0.723 -1.1787 -2.0568  0.2306
 3255TIP3    H2 9772   1.878   3.383   0.734 -1.3246  1.7993  0.7860
 3256TIP3   OH2 9773   5.694   2.149   0.733 -0.2950 -0.1696  0.6810
 3256TIP3    H1 9774   5.673   2.056   0.723 -0.5060  0.0467 -1.3972
 3256TIP3    H2 9775   5.786   2.156   0.710 -0.6544  0.3130 -0.7265
 3257TIP3   OH2 9776   0.647   0.566   3.766  0.0699  0.4380  0.0322
 3257TIP3    H1 9777   0.625   0.480   3.731  1.6184  0.6421 -1.5350
 3257TIP3    H2 9778   0.648   0.553   3.861  1.7286 -1.6838 -0.1927
 3258TIP3   OH2 9779   0.916   1.166   1.084 -0.3398  0.2659 -0.2312
 3258TIP3    H1 9780   0.931   1.161   0.990 -1.0423 -0.6967 -0.3066
 3258TIP3    H2 9781   0.995   1.126   1.123 -1.8554 -3.4877 -0.5834
 3259TIP3   OH2 9782   2.182   4.104   3.900  0.1616 -0.5729  0.8240
 3259TIP3    H1 9783   2.203   4.191   3.933  0.4206 -0.5408  0.5829
 3259TIP3    H2 9784   2.265   4.071   3.866 -0.2741 -0.2288 -0.6536
 3260TIP3   OH2 9785   2.913   3.016   0.618  0.0741  0.3740  0.1127
 3260TIP3    H1 9786   2.951   2.968   0.545  0.3596  0.5872  0.1178
 3260TIP3    H2 9787   2.951   3.104   0.611  2.0192 -0.2420  1.9186
 3261TIP3   OH2 9788   6.097   1.006   2.122 -0.0734  0.2924  0.3776
 3261TIP3    H1 9789   6.005   0.984   2.137  0.0568 -1.4987 -1.0601
 3261TIP3    H2 9790   6.145   0.952   2.185 -0.0080  1.8432  1.6979
 3262TIP3   OH2 9791   2.048   5.238   3.166 -0.0266 -0.0337 -0.4650
 3262TIP3    H1 9792   2.066   5.248   3.072  1.5793  0.4188 -0.1390
 3262TIP3    H2 9793   2.134   5.219   3.205 -0.4542  0.9939  1.0719
 3263TIP3   OH2 9794   3.900   4.865   3.948 -0.2445 -0.4224  0.0611
 3263TIP3    H1 9795   3.939   4.779   3.960 -1.3173 -0.7927  1.0978
 3263TIP3    H2 9796   3.806   4.850   3.951 -0.4843  0.9835  2.3637
 3264TIP3   OH2 9797   5.948   2.849   1.984  0.0394  0.5640  0.0386
 3264TIP3    H1 9798   5.977   2.866   2.074 -0.1548 -0.1154  0.2310
 3264TIP3    H2 9799   5.903   2.765   1.989 -0.7847  0.9666 -0.5190
 3265TIP3   OH2 9800   0.353   5.663   0.966  0.3602  0.0102 -0.2948
 3265TIP3    H1 9801   0.445   5.665   0.939  0.3765  0.4685 -0.2052
 3265TIP3    H2 9802   0.309   5.724   0.906 -0.1645 -1.3535 -1.3588
 3266TIP3   OH2 9803   2.793   1.608   3.062  0.1920  0.5916  0.4737
 3266TIP3    H1 9804   2.887   1.624   3.051  0.3112 -0.5599 -0.4812
 3266TIP3    H2 9805   2.751   1.684   3.024  0.7422  0.8739  0.4159
 3267TIP3   OH2 9806   5.856   0.546   3.756  0.0874 -0.2755  0.1756
 3267TIP3    H1 9807   5.766   0.518   3.739 -0.5936  0.9112  1.5722
 3267TIP3    H2 9808   5.868   0.530   3.850  0.4746  1.7666  0.5268
 3268TIP3   OH2 9809   5.022   0.379   3.358  0.3467 -0.2231 -0.6015
 3268TIP3    H1 9810   4.974   0.455   3.328 -2.4083 -1.1596  1.0310
 3268TIP3    H2 9811   4.983   0.305   3.311  1.6539 -0.8415 -0.7640
 3269TIP3   OH2 9812   2.091   2.375   4.246  0.3510 -0.3062  0.0113
 3269TIP3    H1 9813   2.123   2.286   4.232  2.8981  0.5259  0.0852
 3269TIP3    H2 9814   2.168   2.431   4.238 -1.2663  2.0063 -0.7161
 3270TIP3   OH2 9815   0.316   4.492   0.964  0.0903 -0.2299 -0.2841
 3270TIP3    H1 9816   0.377   4.435   0.918  0.0909 -1.0205  0.6387
 3270TIP3    H2 9817   0.271   4.541   0.895 -0.8947 -2.3540 -1.2500
 3271TIP3   OH2 9818   5.090   5.374   4.907  0.1711  0.0082  0.1330
 3271TIP3    H1 9819   5.183   5.371   4.932  0.0485 -0.7772  0.5049
 3271TIP3    H2 9820   5.046   5.319   4.971 -0.1774 -1.9349 -1.6847
 3272TIP3   OH2 9821   2.396   0.983   3.971 -0.0121  0.2513 -0.7436
 3272TIP3    H1 9822   2.342   0.978   4.050 -0.0900 -0.1475 -0.8243
 3272TIP3    H2 9823   2.468   0.922   3.987 -0.3846 -0.3332 -1.2580
 3273TIP3   OH2 9824   0.980   2.446   2.870  0.2826 -0.6047  1.1004
 3273TIP3    H1 9825   0.952   2.520   2.815 -0.0541 -0.2752  1.6964
 3273TIP3    H2 9826   0.984   2.372   2.810 -2.2241 -0.7524  1.0062
 3274TIP3   OH2 9827   1.847   1.512   0.475 -0.0988 -0.0795  0.6182
 3274TIP3    H1 9828   1.778   1.561   0.521 -0.3529  0.2229 -0.0813
 3274TIP3    H2 9829   1.923   1.570   0.477 -0.3133  0.2236  0.0495
 3275TIP3   OH2 9830   6.228   4.838   4.170 -0.0225  0.0740  0.1443
 3275TIP3    H1 9831   6.273   4.917   4.139  1.4753 -0.3743  1.0601
 3275TIP3    H2 9832   6.211   4.855   4.263 -3.2219  0.8477 -0.4611
 3276TIP3   OH2 9833   5.614   3.183   3.989 -0.8806  0.7691  0.2038
 3276TIP3    H1 9834   5.685   3.119   3.995 -1.0566  0.5631  0.1122
 3276TIP3    H2 9835   5.654   3.266   4.012 -0.5591  0.6856 -0.0580
 3277TIP3   OH2 9836   1.110   3.217   0.415  0.0961  0.2940  0.8552
 3277TIP3    H1 9837   1.196   3.185   0.388 -0.1000  0.5771 -0.1313
 3277TIP3    H2 9838   1.098   3.298   0.365 -1.2082 -0.3144  0.1523
 3278TIP3   OH2 9839   3.253   4.933   4.817  0.0192 -0.1538  0.5656
 3278TIP3    H1 9840   3.167   4.902   4.789  0.4361 -0.2157 -0.7244
 3278TIP3    H2 9841   3.238   4.970   4.904 -1.0375 -1.3622  0.9228
 3279TIP3   OH2 9842   5.621   4.635   0.936  0.2472  0.2492 -0.0485
 3279TIP3    H1 9843   5.639   4.566   1.000 -0.2791 -1.4391 -1.6282
 3279TIP3    H2 9844   5.613   4.715   0.988  0.6190 -0.9153  1.8867
 3280TIP3   OH2 9845   4.410   2.851   0.890 -0.0426  0.1177  0.1229
 3280TIP3    H1 9846   4.362   2.838   0.808  1.1781  1.0769 -0.7961
 3280TIP3    H2 9847   4.410   2.766   0.933 -1.9051 -0.0721 -0.1904
 3281TIP3   OH2 9848   4.646   1.973   2.360 -0.1625  0.2759 -0.3852
 3281TIP3    H1 9849   4.718   1.984   2.298  0.5259  3.2014  0.7619
 3281TIP3    H2 9850   4.682   1.920   2.430  0.5056  0.6802 -0.4153
 3282TIP3   OH2 9851   4.406   0.276   2.994 -0.4819  0.2157  0.4155
 3282TIP3    H1 9852   4.349   0.343   2.956 -0.6718 -0.4043 -0.4137
 3282TIP3    H2 9853   4.495   0.305   2.973 -0.5545  0.3282  0.2629
 3283TIP3   OH2 9854   5.567   4.154   2.240 -0.0039 -0.2128  0.5188
 3283TIP3    H1 9855   5.488   4.115   2.278 -0.5200  1.3484  1.1006
 3283TIP3    H2 9856   5.569   4.243   2.274  0.7168  0.5516 -1.4113
 3284TIP3   OH2 9857   0.685   5.045   2.622 -0.6814 -0.1034 -0.3430
 3284TIP3    H1 9858   0.699   4.967   2.569  2.4760  1.1148 -1.5812
 3284TIP3    H2 9859   0.751   5.039   2.691 -0.1771  1.5475 -0.6362
 3285TIP3   OH2 9860   2.732   0.995   2.237 -0.1962  0.2679  0.7471
 3285TIP3    H1 9861   2.663   0.942   2.278 -0.7946  0.0927 -0.4254
 3285TIP3    H2 9862   2.698   1.085   2.242  0.5800  0.5124  2.2626
 3286TIP3   OH2 9863   3.897   2.715   0.723  0.5862  0.8405  0.0026
 3286TIP3    H1 9864   3.894   2.719   0.627  2.0027 -0.6509 -0.1633
 3286TIP3    H2 9865   3.866   2.627   0.744  1.4865  0.6946  0.8034
 3287TIP3   OH2 9866   6.022   3.159   2.041 -0.1352  0.4715 -0.3667
 3287TIP3    H1 9867   6.038   3.151   2.135 -1.6159  1.7277  0.0371
 3287TIP3    H2 9868   6.039   3.072   2.006 -1.0494 -0.4437  1.3232
 3288TIP3   OH2 9869   0.424   1.340   4.655 -0.2164 -0.6030  0.3494
 3288TIP3    H1 9870   0.378   1.371   4.733  1.3293  0.6696  0.8206
 3288TIP3    H2 9871   0.365   1.276   4.616 -1.4123 -0.6257  2.0748
 3289TIP3   OH2 9872   5.223   0.522   4.866  0.0965  0.1061 -0.1008
 3289TIP3    H1 9873   5.222   0.609   4.826  0.0055  0.3506  0.4139
 3289TIP3    H2 9874   5.162   0.471   4.814 -0.4671  0.5836  0.0785
 3290TIP3   OH2 9875   1.447   4.792   4.951 -0.5236 -0.1806 -0.0907
 3290TIP3    H1 9876   1.530   4.829   4.923  0.3811 -2.6093 -0.9072
 3290TIP3    H2 9877   1.466   4.750   5.035 -1.6034  1.3711  0.9940
 3291TIP3   OH2 9878   2.491   0.440   4.543 -0.0390 -0.2992 -0.5305
 3291TIP3    H1 9879   2.455   0.430   4.455 -0.8684  2.0193 -0.5387
 3291TIP3    H2 9880   2.515   0.533   4.548 -0.9279 -0.1376  1.9896
 3292TIP3   OH2 9881   3.573   3.446   2.284 -0.1424 -0.4445  0.0750
 3292TIP3    H1 9882   3.657   3.446   2.240  0.2322 -0.6218  0.7734
 3292TIP3    H2 9883   3.531   3.364   2.258 -0.9700  0.5254 -1.8558
 3293TIP3   OH2 9884   4.867   4.077   3.262  0.0440 -0.4087  0.0513
 3293TIP3    H1 9885   4.949   4.029   3.255 -0.8226 -1.9211  0.0099
 3293TIP3    H2 9886   4.865   4.109   3.352  0.6197 -0.4588  0.0850
 3294TIP3   OH2 9887   0.340   3.277   3.258  0.1870 -0.4252 -0.4154
 3294TIP3    H1 9888   0.435   3.275   3.246  0.2389  0.1526 -0.1230
 3294TIP3    H2 9889   0.323   3.213   3.327  0.4334 -0.0833 -0.0343
 3295TIP3   OH2 9890   3.651   4.145   0.432  0.2318 -0.7064 -0.0905
 3295TIP3    H1 9891   3.744   4.148   0.411 -0.0438 -0.2922 -1.3920
 3295TIP3    H2 9892   3.633   4.229   0.474  0.2261 -0.2660 -0.9405
 3296TIP3   OH2 9893   5.905   2.717   2.546 -0.3114 -0.2348 -0.4305
 3296TIP3    H1 9894   5.899   2.813   2.549  1.5645  0.0044 -2.3387
 3296TIP3    H2 9895   5.912   2.691   2.637 -0.8982  1.4291  0.1369
 3297TIP3   OH2 9896   2.960   1.663   0.675  0.6539 -0.2114 -0.2256
 3297TIP3    H1 9897   2.873   1.626   0.662  0.9221 -1.5530  1.5606
 3297TIP3    H2 9898   2.992   1.625   0.757  3.3607 -0.6137 -1.3396
 3298TIP3   OH2 9899   3.261   4.024   2.916 -0.1303  1.1424  0.2881
 3298TIP3    H1 9900   3.264   3.928   2.912 -0.3031  1.1257  0.5165
 3298TIP3    H2 9901   3.190   4.043   2.978  1.2264  1.3802  1.8490
 3299TIP3   OH2 9902   3.718   2.291   3.453 -0.0363  0.3160  0.1586
 3299TIP3    H1 9903   3.786   2.225   3.465  0.5221  0.1199 -3.1604
 3299TIP3    H2 9904   3.637   2.240   3.446 -0.0856  0.2925  0.7846
 3300TIP3   OH2 9905   5.896   1.177   2.618  0.3148  0.4087  0.2030
 3300TIP3    H1 9906   5.990   1.161   2.618  0.3937  0.5995 -1.6669
 3300TIP3    H2 9907   5.885   1.257   2.566 -0.8716  0.4477  0.4743
 3301TIP3   OH2 9908   4.550   0.003   0.520 -0.0503 -0.2314 -0.1361
 3301TIP3    H1 9909   4.595   0.050   0.450 -1.9884  0.5883 -0.9220
 3301TIP3    H2 9910   4.507   0.072   0.570 -1.2465 -1.0155 -0.0530
 3302TIP3   OH2 9911   6.274   0.377   0.210 -0.7029  0.0527  0.2605
 3302TIP3    H1 9912   6.269   0.457   0.262 -0.8219  0.1981  0.0280
 3302TIP3    H2 9913   6.277   0.408   0.119 -2.8300 -0.2348  0.0441
 3303TIP3   OH2 9914   0.874   1.094   2.702 -0.3483  0.1797  0.2419
 3303TIP3    H1 9915   0.969   1.082   2.697 -0.6259 -2.4612 -0.5691
 3303TIP3    H2 9916   0.861   1.188   2.696  2.2039  0.5895  0.0786
 3304TIP3   OH2 9917   3.369   5.538   1.199 -0.2767  0.2971  0.5235
 3304TIP3    H1 9918   3.290   5.512   1.245 -0.0841  0.5140  0.9849
 3304TIP3    H2 9919   3.384   5.629   1.226 -0.1408  0.4108  0.0636
 3305TIP3   OH2 9920   0.816   1.247   3.560 -0.6597  0.5688 -0.7243
 3305TIP3    H1 9921   0.789   1.312   3.495 -0.6405  0.6104 -0.6904
 3305TIP3    H2 9922   0.859   1.179   3.509 -0.3510  0.7576 -0.7214
 3306TIP3   OH2 9923   1.779   2.571   2.799 -0.0237  0.4028  0.2155
 3306TIP3    H1 9924   1.737   2.571   2.885 -0.5095 -0.0225 -0.0189
 3306TIP3    H2 9925   1.786   2.479   2.775  0.3863  0.5045 -0.0705
 3307TIP3   OH2 9926   4.821   3.767   2.619  0.0319 -0.0129 -0.0475
 3307TIP3    H1 9927   4.858   3.765   2.530  0.6978 -2.0771  0.2219
 3307TIP3    H2 9928   4.873   3.703   2.667 -2.1748 -1.0325  1.0841
 3308TIP3   OH2 9929   1.722   0.683   0.142 -0.0038  0.3341 -0.2461
 3308TIP3    H1 9930   1.681   0.661   0.059 -0.1392 -0.0241 -0.0881
 3308TIP3    H2 9931   1.653   0.725   0.193 -0.0375  0.1794 -0.1632
 3309TIP3   OH2 9932   4.323   2.546   4.085  0.0601  0.4204 -0.3825
 3309TIP3    H1 9933   4.348   2.559   3.993  1.3992  0.1810 -0.0761
 3309TIP3    H2 9934   4.347   2.629   4.127 -0.0520  0.3336 -0.1531
 3310TIP3   OH2 9935   1.339   5.633   2.812 -0.3839 -0.0196  0.6742
 3310TIP3    H1 9936   1.381   5.558   2.770  1.8364  1.9990 -1.0164
 3310TIP3    H2 9937   1.402   5.661   2.879 -1.4054  0.0949  1.6275
 3311TIP3   OH2 9938   0.274   0.360   3.331  0.3552  0.0285  0.5217
 3311TIP3    H1 9939   0.188   0.323   3.351  0.1093 -0.4694 -1.2562
 3311TIP3    H2 9940   0.257   0.451   3.310  0.0780 -0.3126 -0.8279
 3312TIP3   OH2 9941   1.720   1.277   1.850  0.3518 -0.3675  0.2487
 3312TIP3    H1 9942   1.631   1.264   1.816  0.6943 -1.2629 -0.3479
 3312TIP3    H2 9943   1.776   1.274   1.773  0.8336  1.1998  0.4973
 3313TIP3   OH2 9944   6.252   2.276   4.358 -0.3463 -0.1662  0.2651
 3313TIP3    H1 9945   6.197   2.197   4.352  0.3161 -0.6225  0.1257
 3313TIP3    H2 9946   6.340   2.246   4.334  0.0421  0.4830  0.8450
 3314TIP3   OH2 9947   0.085   1.210   4.163 -0.2952 -0.0277 -0.5005
 3314TIP3    H1 9948   0.026   1.136   4.146 -0.2204 -0.7624  2.0127
 3314TIP3    H2 9949   0.172   1.169   4.171 -0.4184  0.0584  2.1122
 3315TIP3   OH2 9950   1.623   5.207   5.195 -0.0143  0.4192 -0.6806
 3315TIP3    H1 9951   1.708   5.171   5.220 -0.7579 -0.6780  0.3645
 3315TIP3    H2 9952   1.612   5.181   5.104  1.2120  1.4793 -1.1604
 3316TIP3   OH2 9953   2.853   0.696   4.295 -0.3629 -0.3490  0.2492
 3316TIP3    H1 9954   2.901   0.657   4.367  0.4492 -0.9488 -0.5886
 3316TIP3    H2 9955   2.783   0.633   4.275 -0.0582 -0.6048 -0.0333
 3317TIP3   OH2 9956   1.208   3.702   3.776  0.0418  0.0445  0.6877
 3317TIP3    H1 9957   1.221   3.786   3.732  1.6860 -0.0215  1.0041
 3317TIP3    H2 9958   1.162   3.648   3.711  1.4303  0.3150 -0.5715
 3318TIP3   OH2 9959   2.292   4.657   1.040  0.1987 -0.0793 -0.2628
 3318TIP3    H1 9960   2.197   4.660   1.036  0.2165  1.6366 -0.2173
 3318TIP3    H2 9961   2.319   4.620   0.956 -0.5153 -1.5745  0.1415
 3319TIP3   OH2 9962   0.271   0.742   4.628  0.0785 -0.0397  0.6798
 3319TIP3    H1 9963   0.364   0.732   4.608  0.1505  0.6955  0.6116
 3319TIP3    H2 9964   0.265   0.730   4.723  0.4831  1.4334  0.9150
 3320TIP3   OH2 9965   6.201   3.539   0.424  0.0513 -0.1796 -0.2287
 3320TIP3    H1 9966   6.225   3.579   0.508 -0.5024 -2.8549  1.3172
 3320TIP3    H2 9967   6.123   3.488   0.443  0.4643 -1.6371 -2.1328
 3321TIP3   OH2 9968   5.730   5.775   0.652 -0.5215  0.5119 -0.9663
 3321TIP3    H1 9969   5.812   5.776   0.602  0.1663  0.6655  0.1198
 3321TIP3    H2 9970   5.690   5.691   0.631 -0.6936  0.9398 -2.4436
 3322TIP3   OH2 9971   3.926   3.405   1.612 -0.2795  0.0349  0.1038
 3322TIP3    H1 9972   3.865   3.475   1.636  0.2339  0.0925  1.2782
 3322TIP3    H2 9973   3.935   3.413   1.517 -0.5728  1.2677  0.1693
 3323TIP3   OH2 9974   5.030   0.326   3.636 -0.1627 -0.5419 -0.4600
 3323TIP3    H1 9975   4.961   0.260   3.646 -0.1293 -0.4005  0.9922
 3323TIP3    H2 9976   5.046   0.331   3.542 -2.0053 -0.7141 -0.8178
 3324TIP3   OH2 9977   4.299   0.625   3.448  0.3117 -0.2806 -0.6514
 3324TIP3    H1 9978   4.225   0.567   3.467 -0.1235  0.7444  1.0290
 3324TIP3    H2 9979   4.376   0.574   3.472 -0.0518 -0.3109  0.5529
 3325TIP3   OH2 9980   4.916   5.830   0.607  0.4283  0.4126 -0.0419
 3325TIP3    H1 9981   4.936   5.816   0.699  0.2865  0.9000  0.0677
 3325TIP3    H2 9982   4.867   5.912   0.605 -1.1580 -0.5080 -0.3596
 3326TIP3   OH2 9983   0.774   3.180   1.284  0.1294  0.2561 -0.1492
 3326TIP3    H1 9984   0.861   3.214   1.306  0.1194 -1.3560  2.9062
 3326TIP3    H2 9985   0.789   3.089   1.260 -0.5906  0.3259 -0.9007
 3327TIP3   OH2 9986   5.902   0.623   2.816  0.5547 -0.3314  0.7840
 3327TIP3    H1 9987   5.901   0.714   2.846  1.7249  1.1678 -3.0516
 3327TIP3    H2 9988   5.817   0.610   2.775  0.1868 -1.1957  1.7891
 3328TIP3   OH2 9989   0.001   0.559   4.936 -0.0403  0.1180  0.1509
 3328TIP3    H1 9990   0.029   0.474   4.902 -0.7990  0.4471 -1.3889
 3328TIP3    H2 9991   0.067   0.582   5.002  0.8342 -1.1042 -0.2684
 3329TIP3   OH2 9992   3.386   2.906   4.332 -0.1433 -0.0188  0.1862
 3329TIP3    H1 9993   3.313   2.843   4.333 -0.8650  0.8032  1.4272
 3329TIP3    H2 9994   3.456   2.861   4.379 -0.6617  0.1028  1.0863
 3330TIP3   OH2 9995   1.003   0.744   1.332  0.1356 -0.0745 -0.0501
 3330TIP3    H1 9996   0.911   0.717   1.325  0.2202 -0.4941  0.4231
 3330TIP3    H2 9997   1.019   0.792   1.251 -0.7588  0.8043  0.2734
 3331TIP3   OH2 9998   4.613   5.509   2.351 -0.3275 -0.1182 -0.2998
 3331TIP3    H1 9999   4.604   5.443   2.420 -0.7036  0.4686  0.2183
 3331TIP3    H210000   4.527   5.552   2.347  0.4842  1.7263  0.7856
 3332TIP3   OH210001   2.545   3.798   1.311  0.0945 -0.3915 -0.5941
 3332TIP3    H110002   2.484   3.850   1.258 -1.1976 -1.1324  0.1250
 3332TIP3    H210003   2.490   3.753   1.374  1.3059 -1.7219 -0.4305
 3333TIP3   OH210004   4.194   3.219   3.132  0.0187 -0.1284  0.1100
 3333TIP3    H110005   4.236   3.179   3.208 -0.6854 -2.4563 -0.6389
 3333TIP3    H210006   4.186   3.148   3.068 -1.5125  1.1680 -1.2464
 3334TIP3   OH210007   1.026   3.104   3.543 -0.0327 -0.8052 -0.4432
 3334TIP3    H110008   1.116   3.087   3.570  0.2195  1.6449  0.4898
 3334TIP3    H210009   0.988   3.017   3.529  2.6087 -1.8960 -1.4368
 3335TIP3   OH210010   3.041   1.986   2.155  0.2382 -0.3906 -0.6581
 3335TIP3    H110011   2.982   2.048   2.199  0.1378 -0.5890 -0.5118
 3335TIP3    H210012   3.127   2.004   2.192  0.0935 -0.8046 -0.1084
 3336TIP3   OH210013   4.372   1.440   0.922  0.3893 -0.1585 -0.0203
 3336TIP3    H110014   4.351   1.458   1.014  1.7486 -0.7244  0.4276
 3336TIP3    H210015   4.404   1.524   0.889 -1.1838  0.3451 -0.3223
 3337TIP3   OH210016   1.499   4.405   3.350 -0.2720  0.1638 -0.2520
 3337TIP3    H110017   1.508   4.311   3.331  3.0032  0.3309 -0.1915
 3337TIP3    H210018   1.412   4.428   3.319 -0.8545 -2.7284 -1.0424
 3338TIP3   OH210019   6.324   4.955   4.745  0.4305 -0.6226  0.0855
 3338TIP3    H110020   6.240   4.977   4.706 -0.3537 -2.8876  0.3492
 3338TIP3    H210021   6.358   5.038   4.778 -0.7527  0.6808 -1.7786
 3339TIP3   OH210022   2.004   0.629   4.083 -0.4298  0.2948 -0.7354
 3339TIP3    H110023   1.983   0.665   4.169  3.2400 -1.7287  1.2202
 3339TIP3    H210024   2.073   0.686   4.049  0.1967 -0.5620 -0.9500
 3340TIP3   OH210025   3.434   1.139   4.199 -0.1806  0.5689 -0.8506
 3340TIP3    H110026   3.389   1.058   4.175 -1.5083  0.6932  0.9777
 3340TIP3    H210027   3.401   1.204   4.137 -0.4276  0.0720 -1.2468
 3341TIP3   OH210028   4.388   5.376   2.032 -0.1625  0.3267  0.0846
 3341TIP3    H110029   4.461   5.431   2.004  0.6414  0.0134  1.4439
 3341TIP3    H210030   4.310   5.424   2.006  0.5267  1.8401  0.7127
 3342TIP3   OH210031   5.415   3.215   3.795  0.0111 -0.3235 -0.6869
 3342TIP3    H110032   5.470   3.189   3.869  0.8089 -0.1499 -1.2020
 3342TIP3    H210033   5.336   3.162   3.804  0.1267 -0.3525  0.2453
 3343TIP3   OH210034   2.030   1.561   3.792  0.3697 -0.0341 -0.7770
 3343TIP3    H110035   2.059   1.504   3.721  1.5433 -1.4367  0.7320
 3343TIP3    H210036   2.111   1.600   3.827 -0.2765  1.4153 -0.8199
 3344TIP3   OH210037   5.607   5.386   1.688  0.2684  0.2300 -0.7025
 3344TIP3    H110038   5.572   5.366   1.775 -0.8088 -1.8545 -1.5477
 3344TIP3    H210039   5.532   5.424   1.641  1.1673  2.5228 -0.4216
 3345TIP3   OH210040   1.959   3.509   4.269  0.0980  0.2307  0.0697
 3345TIP3    H110041   2.004   3.539   4.348  0.0117 -3.2480  1.5982
 3345TIP3    H210042   1.871   3.484   4.300 -0.8891  1.2963 -1.7134
 3346TIP3   OH210043   5.521   3.308   3.415  0.5592  0.5255 -0.1811
 3346TIP3    H110044   5.549   3.312   3.507 -0.0567  1.2447 -0.0035
 3346TIP3    H210045   5.448   3.246   3.415 -0.0337  1.1991  0.0039
 3347TIP3   OH210046   2.590   4.674   4.653 -0.2062 -1.0561 -0.4564
 3347TIP3    H110047   2.563   4.765   4.640  0.5863 -0.7661 -0.1439
 3347TIP3    H210048   2.646   4.677   4.731  0.5827 -1.6598 -0.9889
 3348TIP3   OH210049   0.942   3.019   0.460 -0.6350  0.3917  0.2978
 3348TIP3    H110050   1.008   3.087   0.448 -0.5443  0.2115 -0.2507
 3348TIP3    H210051   0.875   3.060   0.515 -0.0730  0.5764  0.8545
 3349TIP3   OH210052   3.986   4.092   3.010 -0.0130 -0.5787 -0.6828
 3349TIP3    H110053   3.939   4.018   2.972 -1.1423 -1.7395  2.6770
 3349TIP3    H210054   3.922   4.164   3.011 -0.9073 -1.3538  1.3925
 3350TIP3   OH210055   1.424   0.812   3.577 -0.5874  0.4677 -0.1055
 3350TIP3    H110056   1.418   0.722   3.544 -1.9447  0.5086 -0.0099
 3350TIP3    H210057   1.474   0.858   3.510 -2.2165  0.2610 -1.5588
 3351TIP3   OH210058   5.514   4.055   4.928 -0.6597  0.6166 -0.1997
 3351TIP3    H110059   5.441   4.065   4.989  1.5574  1.1541  2.6231
 3351TIP3    H210060   5.543   4.145   4.911  1.2919  0.3689  1.4290
 3352TIP3   OH210061   3.017   5.550   2.557 -0.1742 -0.4773 -0.0036
 3352TIP3    H110062   2.956   5.601   2.610  0.0602  1.2845 -1.3326
 3352TIP3    H210063   2.962   5.485   2.512 -1.3607  1.7147 -1.9593
 3353TIP3   OH210064   3.452   2.049   2.875 -0.0961  0.2843  0.1599
 3353TIP3    H110065   3.477   1.963   2.842  0.7952 -0.2670  2.1625
 3353TIP3    H210066   3.535   2.097   2.883 -0.3258  0.5097  1.2694
 3354TIP3   OH210067   0.059   0.688   3.011 -0.3781  0.3558 -0.5677
 3354TIP3    H110068   0.050   0.774   2.970 -0.5861 -0.7328 -3.0112
 3354TIP3    H210069   0.103   0.634   2.944  1.4600 -0.9957  1.5791
 3355TIP3   OH210070   6.091   2.145   4.645  0.0066  0.3015 -0.0630
 3355TIP3    H110071   6.110   2.233   4.615 -1.1252  0.5746 -0.0005
 3355TIP3    H210072   6.047   2.157   4.730 -1.0454 -0.2626 -0.5057
 3356TIP3   OH210073   2.387   1.830   0.109 -0.2301  0.0397  0.1165
 3356TIP3    H110074   2.424   1.909   0.070  2.1032 -1.6918 -1.5234
 3356TIP3    H210075   2.355   1.779   0.034 -2.0147 -0.4524  1.1569
 3357TIP3   OH210076   2.494   2.263   4.708  0.1760  0.4656  0.2344
 3357TIP3    H110077   2.523   2.220   4.628 -0.7204  0.5834 -0.1626
 3357TIP3    H210078   2.572   2.264   4.764 -0.0480 -2.9010  0.8265
 3358TIP3   OH210079   1.641   3.392   4.236 -0.1279 -0.0113  0.8659
 3358TIP3    H110080   1.615   3.467   4.183  0.2094 -0.4328  0.0891
 3358TIP3    H210081   1.585   3.320   4.206  1.7696 -0.9031 -0.7496
 3359TIP3   OH210082   0.087   0.334   4.806  0.1038  0.2046 -0.7505
 3359TIP3    H110083   0.158   0.270   4.813 -0.7180 -0.6259  0.4171
 3359TIP3    H210084   0.009   0.282   4.785 -0.7475  0.6577  1.0521
 3360TIP3   OH210085   1.627   2.447   4.833  0.5924  0.4206 -0.1470
 3360TIP3    H110086   1.614   2.512   4.764  0.1032 -0.7678 -1.1988
 3360TIP3    H210087   1.699   2.392   4.801  1.0853  0.4905  0.7865
 3361TIP3   OH210088   5.048   0.814   3.782  0.0137 -1.0258 -0.4930
 3361TIP3    H110089   4.983   0.820   3.853  0.4205  0.7755 -0.2317
 3361TIP3    H210090   4.997   0.783   3.706 -1.0959  0.0452 -0.2154
 3362TIP3   OH210091   3.677   1.902   0.907 -0.6748 -0.2560  0.3886
 3362TIP3    H110092   3.736   1.863   0.971  1.0150  0.8476 -0.4179
 3362TIP3    H210093   3.659   1.832   0.844 -0.0468 -0.5598  0.5419
 3363TIP3   OH210094   0.127   5.209   2.216  0.0757 -1.1378  0.2270
 3363TIP3    H110095   0.153   5.301   2.208  0.6537 -1.3775 -0.9221
 3363TIP3    H210096   0.034   5.209   2.195 -0.2703 -0.6450  1.6236
 3364TIP3   OH210097   0.394   4.454   2.333  0.2818 -0.7466 -0.1514
 3364TIP3    H110098   0.420   4.541   2.303 -0.6498  0.2323  1.7141
 3364TIP3    H210099   0.304   4.444   2.303 -0.5703  0.1363  1.9233
 3365TIP3   OH210100   0.019   5.136   3.194 -0.5037 -0.6916  0.2441
 3365TIP3    H110101   0.049   5.182   3.115 -1.2873 -0.5467  0.0225
 3365TIP3    H210102  -0.055   5.188   3.225  0.3207 -0.2604  1.5708
 3366TIP3   OH210103   0.647   4.629   4.846 -0.0307  0.3347 -0.3552
 3366TIP3    H110104   0.565   4.588   4.875 -0.4034  0.3084 -1.3800
 3366TIP3    H210105   0.698   4.557   4.809 -1.1714  0.8522 -3.2491
 3367TIP3   OH210106   4.006   3.912   5.095  0.3109  0.5169 -0.2929
 3367TIP3    H110107   3.919   3.874   5.091  0.9185 -1.0295  0.4601
 3367TIP3    H210108   3.998   3.983   5.159 -0.9398  2.0492 -2.0406
 3368TIP3   OH210109   1.216   1.925   4.948 -0.1318 -0.4885 -0.8690
 3368TIP3    H110110   1.266   1.966   5.018 -0.7362  0.3431 -0.9040
 3368TIP3    H210111   1.193   1.838   4.982 -0.7753  0.0580  0.1424
 3369TIP3   OH210112   1.329   5.066   3.381  0.1615 -0.4707  0.5735
 3369TIP3    H110113   1.301   5.113   3.459 -0.1660 -0.6823  0.5849
 3369TIP3    H210114   1.271   4.989   3.376 -0.6341  0.1630 -0.5330
 3370TIP3   OH210115   6.261   5.849   1.521  0.4441 -0.0730 -0.2295
 3370TIP3    H110116   6.186   5.871   1.576  0.2908  0.8959 -0.8069
 3370TIP3    H210117   6.321   5.803   1.579 -0.5502 -0.7663  0.2676
 3371TIP3   OH210118   3.911   5.577   2.897 -0.2675 -0.1421  0.2640
 3371TIP3    H110119   3.920   5.556   2.990  1.7532  0.0741  0.1644
 3371TIP3    H210120   3.953   5.662   2.887  1.0425 -0.9010 -1.1028
 3372TIP3   OH210121   3.602   4.964   3.698  0.0388  0.2803 -0.0976
 3372TIP3    H110122   3.508   4.979   3.712  0.1531  1.7613 -0.7548
 3372TIP3    H210123   3.605   4.879   3.654 -1.0678  0.5113 -0.6872
 3373TIP3   OH210124   5.568   0.509   5.020  0.0624  0.4328 -0.2822
 3373TIP3    H110125   5.633   0.472   4.960  2.2500  1.0768  1.5368
 3373TIP3    H210126   5.547   0.438   5.080  0.8126  0.8145  0.4588
 3374TIP3   OH210127   1.330   2.485   1.449  0.0494  0.0305  0.1132
 3374TIP3    H110128   1.399   2.434   1.493 -0.2455 -0.8623 -0.4385
 3374TIP3    H210129   1.348   2.474   1.356  0.1332  1.1720 -0.0192
 3375TIP3   OH210130   1.000   2.282   2.672 -0.0505  0.2865 -0.2909
 3375TIP3    H110131   1.064   2.255   2.606 -0.6657 -0.5537 -0.5724
 3375TIP3    H210132   0.919   2.297   2.622 -0.1812  0.9349  0.1085
 3376TIP3   OH210133   0.127   2.775   4.240 -0.4003 -0.2456 -0.0364
 3376TIP3    H110134   0.080   2.694   4.221  0.5948 -0.5989 -1.1158
 3376TIP3    H210135   0.157   2.805   4.155  0.4297  0.5213  0.5167
 3377TIP3   OH210136   2.750   4.464   0.448 -0.2445  0.7050  0.0397
 3377TIP3    H110137   2.778   4.372   0.444 -0.5295  0.5520  1.3495
 3377TIP3    H210138   2.658   4.460   0.471 -0.6989  1.3015 -1.5149
 3378TIP3   OH210139   4.177   3.328   2.002 -0.6622 -0.1104 -0.4838
 3378TIP3    H110140   4.171   3.366   2.089  1.3131 -3.5885  1.4150
 3378TIP3    H210141   4.100   3.271   1.996  0.2883 -1.5093 -0.0021
 3379TIP3   OH210142   2.193   5.080   1.309 -0.1501 -0.0617  0.4417
 3379TIP3    H110143   2.251   5.152   1.282 -2.6783  0.4340 -4.8964
 3379TIP3    H210144   2.224   5.004   1.260 -3.2505  0.0318 -1.9433
 3380TIP3   OH210145   2.050   4.403   3.025  0.1254 -0.3984  0.3242
 3380TIP3    H110146   2.144   4.382   3.028  0.6572  1.8161  0.5206
 3380TIP3    H210147   2.031   4.413   2.932 -0.2034 -1.8523  0.2043
 3381TIP3   OH210148   0.509   3.411   1.536 -0.2188  0.8582 -0.2886
 3381TIP3    H110149   0.554   3.330   1.513  0.9348  1.2735  0.4127
 3381TIP3    H210150   0.505   3.460   1.453 -1.7116 -0.2499 -0.9050
 3382TIP3   OH210151   5.927   3.175   2.621 -0.5603 -0.3132  0.0752
 3382TIP3    H110152   5.888   3.087   2.621 -0.5981 -0.3078 -1.3162
 3382TIP3    H210153   6.016   3.163   2.654  0.2259 -1.2703 -2.2081
 3383TIP3   OH210154   4.265   2.282   3.034  0.0064  0.3009  0.0305
 3383TIP3    H110155   4.215   2.229   2.972 -0.5087 -0.6251  1.1880
 3383TIP3    H210156   4.336   2.225   3.062 -0.3777  0.3026  1.0673
 3384TIP3   OH210157   1.716   0.142   2.986  0.3698  0.4861  0.7208
 3384TIP3    H110158   1.751   0.125   3.074  1.6871 -0.7817 -0.0035
 3384TIP3    H210159   1.771   0.212   2.951  0.7571  0.0331  0.4084
 3385TIP3   OH210160   1.368   0.294   1.746  0.4562 -0.1671  0.0312
 3385TIP3    H110161   1.364   0.319   1.838 -2.0068 -1.5122  0.3994
 3385TIP3    H210162   1.288   0.332   1.708  0.7994 -0.6856 -1.2370
 3386TIP3   OH210163   3.664   4.585   2.111 -0.0864  0.1129  0.7383
 3386TIP3    H110164   3.688   4.646   2.181 -0.3407  0.3543  0.6198
 3386TIP3    H210165   3.630   4.641   2.041 -1.3489 -0.2257  1.0450
 3387TIP3   OH210166   6.000   2.066   3.433 -0.0827  0.3359 -0.5016
 3387TIP3    H110167   6.017   2.058   3.527  0.2988  2.1919 -0.3727
 3387TIP3    H210168   6.031   2.154   3.411 -2.6010  0.9839 -1.8264
 3388TIP3   OH210169   2.208   0.750   3.450  0.4053 -0.3182 -0.4756
 3388TIP3    H110170   2.168   0.716   3.530 -0.1778 -0.1306 -0.6789
 3388TIP3    H210171   2.137   0.746   3.385  1.1958 -1.6365 -1.3173
 3389TIP3   OH210172   1.041   4.267   2.334  0.0714 -0.1496  0.2730
 3389TIP3    H110173   1.012   4.193   2.280  0.8568 -1.3589  1.4338
 3389TIP3    H210174   0.981   4.338   2.312 -1.1636 -1.3399 -0.3743
 3390TIP3   OH210175   0.103   2.276   0.555 -0.2570 -0.0798 -0.0090
 3390TIP3    H110176   0.162   2.318   0.619 -0.6928  1.9936 -0.8642
 3390TIP3    H210177   0.162   2.241   0.488  0.1658 -1.6378  1.1285
 3391TIP3   OH210178   2.519   5.084   2.349  0.0321  0.1933 -0.1145
 3391TIP3    H110179   2.464   5.016   2.310 -0.0905  1.1279 -1.6646
 3391TIP3    H210180   2.599   5.039   2.375  0.5444 -0.3554 -2.3916
 3392TIP3   OH210181   3.190   4.353   2.034  0.5737  0.0310 -0.0856
 3392TIP3    H110182   3.156   4.442   2.022  0.9049  0.2603  0.6192
 3392TIP3    H210183   3.255   4.342   1.965 -0.7020 -0.3119 -1.2853
 3393TIP3   OH210184   6.022   4.720   2.707 -0.4358 -0.4882 -0.3722
 3393TIP3    H110185   5.993   4.697   2.796  0.3258  2.9520  0.9406
 3393TIP3    H210186   6.087   4.654   2.685 -1.4217 -2.0606  1.1838
 3394TIP3   OH210187   1.829   2.113   3.925 -0.4634  0.2731 -0.1397
 3394TIP3    H110188   1.752   2.157   3.890 -0.5330  0.0365 -0.2817
 3394TIP3    H210189   1.825   2.024   3.890 -0.1898  0.2246 -0.0533
 3395TIP3   OH210190   5.922   1.663   2.936 -0.2897  0.4387 -0.3266
 3395TIP3    H110191   5.859   1.602   2.973  2.5046 -1.2539  2.0204
 3395TIP3    H210192   5.901   1.747   2.977 -2.0221  0.3444 -0.9383
 3396TIP3   OH210193   6.096   0.776   1.954  0.2032  0.2685  0.1537
 3396TIP3    H110194   6.106   0.866   1.986  1.0090 -0.0057  0.7117
 3396TIP3    H210195   6.005   0.771   1.925 -0.1280  0.9846  0.9997
 3397TIP3   OH210196   4.712   5.717   1.156 -0.2618  0.1043  0.3766
 3397TIP3    H110197   4.691   5.756   1.241  1.2827  2.9777 -0.4504
 3397TIP3    H210198   4.674   5.776   1.091  0.0321 -1.1230 -0.9743
 3398TIP3   OH210199   0.724   2.254   3.488  0.0769 -0.2506  0.9565
 3398TIP3    H110200   0.687   2.325   3.436  1.6798  0.4427  0.7018
 3398TIP3    H210201   0.676   2.176   3.460 -0.7392  0.4903  0.2154
 3399TIP3   OH210202   2.639   3.526   2.368 -0.4934 -0.2201  0.1873
 3399TIP3    H110203   2.669   3.496   2.454  0.5615 -2.2585 -0.8318
 3399TIP3    H210204   2.582   3.455   2.337 -0.2298  0.1281 -1.1311
 3400TIP3   OH210205   4.103   4.319   2.914  0.3735 -0.1224 -0.0668
 3400TIP3    H110206   4.050   4.253   2.958 -0.8786  1.4436  0.8904
 3400TIP3    H210207   4.162   4.269   2.858 -0.4754 -2.0334  0.6571
 3401TIP3   OH210208   3.320   1.274   3.096  0.0758 -0.1469 -0.1860
 3401TIP3    H110209   3.312   1.242   3.186 -1.5450  0.7085  0.0143
 3401TIP3    H210210   3.350   1.364   3.105  2.2865 -0.7706 -0.6497
 3402TIP3   OH210211   3.853   1.866   4.948  0.0461  0.0461  0.4992
 3402TIP3    H110212   3.884   1.818   5.024 -0.9634 -1.1996  0.1631
 3402TIP3    H210213   3.925   1.923   4.924  1.6658 -1.9502  0.3783
 3403TIP3   OH210214   2.445   4.630   5.079  0.0972  0.5134  0.6441
 3403TIP3    H110215   2.443   4.691   5.006  1.4449 -0.7180 -0.4804
 3403TIP3    H210216   2.355   4.598   5.087  0.0846  0.0558 -1.0252
 3404TIP3   OH210217   5.206   5.769   1.874 -0.2683  0.1536 -0.2444
 3404TIP3    H110218   5.248   5.838   1.926 -0.5663 -0.0212  0.2275
 3404TIP3    H210219   5.115   5.769   1.903 -0.3192 -0.2934 -0.4022
 3405TIP3   OH210220   0.367   5.182   0.057  0.0148  0.3394  0.4301
 3405TIP3    H110221   0.353   5.200   0.150 -0.6129  0.3540  0.3379
 3405TIP3    H210222   0.280   5.187   0.018  0.4599  1.8950 -0.4452
 3406TIP3   OH210223   5.432   3.264   1.364  0.1033  0.1769  0.0416
 3406TIP3    H110224   5.454   3.218   1.446  2.1353  1.2967  0.2036
 3406TIP3    H210225   5.482   3.218   1.297 -0.2778  0.2813 -0.3176
 3407TIP3   OH210226   1.825   2.001   3.505  0.5700 -0.0696 -0.4764
 3407TIP3    H110227   1.877   1.921   3.514 -0.0169 -0.2497  2.9636
 3407TIP3    H210228   1.833   2.025   3.413  3.2107 -2.4135 -1.0127
 3408TIP3   OH210229   4.217   5.027   4.778 -0.1263 -0.1829 -0.1655
 3408TIP3    H110230   4.140   4.973   4.757  0.4017 -1.1916  0.4162
 3408TIP3    H210231   4.292   4.970   4.760  0.4474  0.3494  0.4817
 3409TIP3   OH210232   6.253   4.195   3.192 -0.0713 -0.0523 -0.7530
 3409TIP3    H110233   6.208   4.226   3.271  1.1538  0.5589 -0.2663
 3409TIP3    H210234   6.207   4.115   3.168  0.6227 -1.2536  1.6346
 3410TIP3   OH210235   3.234   4.118   3.803  0.6781 -0.3847 -0.1696
 3410TIP3    H110236   3.287   4.132   3.725 -0.8388 -1.2823 -1.4012
 3410TIP3    H210237   3.174   4.192   3.806 -1.2416 -1.7961 -1.5739
 3411TIP3   OH210238   5.508   4.449   1.451  0.0097  0.0014  0.3626
 3411TIP3    H110239   5.545   4.412   1.370 -1.1104  1.8027 -1.0512
 3411TIP3    H210240   5.415   4.460   1.432 -0.0220  1.7730  1.3815
 3412TIP3   OH210241   2.481   0.194   1.812 -0.0053 -0.2426 -0.3692
 3412TIP3    H110242   2.529   0.197   1.895  1.0691  1.6816 -0.9793
 3412TIP3    H210243   2.390   0.182   1.838  0.5093 -1.7637  0.9500
 3413TIP3   OH210244   5.995   4.735   0.684  0.1604  0.1413 -0.3840
 3413TIP3    H110245   6.031   4.647   0.681 -1.9593 -0.8437  0.8003
 3413TIP3    H210246   6.031   4.779   0.606  0.3145 -2.1236 -1.6665
 3414TIP3   OH210247   0.229   4.264   4.897 -0.1556 -0.1945  0.2808
 3414TIP3    H110248   0.159   4.310   4.850  0.1550  1.5823  1.4470
 3414TIP3    H210249   0.219   4.292   4.988  2.1126  0.1889  0.4607
 3415TIP3   OH210250   3.448   1.545   0.552  0.0088  0.2795 -0.0060
 3415TIP3    H110251   3.388   1.470   0.551  0.4409 -0.0692 -0.2320
 3415TIP3    H210252   3.524   1.515   0.502 -0.2547  1.2428 -1.0307
 3416TIP3   OH210253   5.298   0.085   3.360  0.0093 -0.3892 -0.3452
 3416TIP3    H110254   5.293   0.091   3.265  1.6516 -0.2665 -0.4462
 3416TIP3    H210255   5.295   0.176   3.391  2.0527 -0.2364 -0.4711
 3417TIP3   OH210256   5.882   0.491   4.015  0.9688  0.3047  0.1132
 3417TIP3    H110257   5.860   0.578   4.049 -2.4847 -0.2221 -0.4169
 3417TIP3    H210258   5.835   0.430   4.072  4.0930 -1.4067  1.0967
 3418TIP3   OH210259   5.689   3.505   0.941 -0.2477 -0.3734  0.6679
 3418TIP3    H110260   5.768   3.492   0.890  0.2797 -0.6926  1.5378
 3418TIP3    H210261   5.657   3.592   0.914  1.5425  0.6932  1.7572
 3419TIP3   OH210262   3.551   0.812   2.041 -0.2161 -0.6140 -0.2107
 3419TIP3    H110263   3.634   0.820   1.993 -0.6907 -0.6974 -1.0668
 3419TIP3    H210264   3.528   0.902   2.064  0.7829 -0.6899  1.2445
 3420TIP3   OH210265   5.799   5.592   2.146 -0.1460  0.5079  0.4606
 3420TIP3    H110266   5.858   5.533   2.099  0.8021 -0.3357  2.6093
 3420TIP3    H210267   5.747   5.535   2.202 -0.4821  1.5588  1.2411
 3421TIP3   OH210268   0.551   2.941   3.484 -0.5473 -0.1252  0.0296
 3421TIP3    H110269   0.540   2.847   3.465  0.3568 -0.2944  0.3126
 3421TIP3    H210270   0.496   2.956   3.561 -3.0374  0.2393 -1.6861
 3422TIP3   OH210271   2.352   3.444   3.284 -0.1089  0.2326 -0.4906
 3422TIP3    H110272   2.376   3.528   3.244  1.7008 -0.8012 -1.7572
 3422TIP3    H210273   2.414   3.381   3.246  1.9011 -0.9067  4.0035
 3423TIP3   OH210274   3.045   5.015   0.673  0.1729  0.2787  0.2942
 3423TIP3    H110275   2.986   5.044   0.743  0.6897  0.8558  0.5044
 3423TIP3    H210276   2.998   4.945   0.629 -0.7224  0.8120  0.3750
 3424TIP3   OH210277   0.577   2.465   1.515 -0.2548  0.1066  0.4311
 3424TIP3    H110278   0.617   2.425   1.592 -0.4069  0.1033  0.5089
 3424TIP3    H210279   0.516   2.530   1.550 -0.9219 -0.4530  0.3363
 3425TIP3   OH210280   5.959   3.716   2.343  0.1432  0.2664  0.4304
 3425TIP3    H110281   5.885   3.702   2.284 -1.0562 -1.1343  2.1811
 3425TIP3    H210282   6.024   3.651   2.317 -1.8941 -3.0832  2.8814
 3426TIP3   OH210283   0.310   2.992   0.670 -0.2593 -0.3065 -0.3358
 3426TIP3    H110284   0.225   3.034   0.663 -0.3388 -0.2401  0.8759
 3426TIP3    H210285   0.341   3.015   0.757  0.4760 -1.3137 -0.3205
 3427TIP3   OH210286   6.303   5.890   2.689  0.1851 -0.1614 -0.3562
 3427TIP3    H110287   6.291   5.970   2.636 -2.2789 -0.4118 -0.3133
 3427TIP3    H210288   6.338   5.921   2.772 -0.3322  0.8446 -0.4954
 3428TIP3   OH210289   3.572   3.921   0.260  0.0489 -0.4133 -0.3807
 3428TIP3    H110290   3.637   3.859   0.294 -0.2046 -0.2479  0.4231
 3428TIP3    H210291   3.603   4.007   0.291 -1.5165 -0.5003  1.6345
 3429TIP3   OH210292   1.585   5.150   0.387 -0.5706 -0.2972  0.5807
 3429TIP3    H110293   1.659   5.206   0.413 -0.7268 -0.4911  1.4491
 3429TIP3    H210294   1.606   5.064   0.423 -0.7723 -0.5821  0.0246
 3430TIP3   OH210295   1.697   4.694   4.041 -0.2578 -0.2826  0.0476
 3430TIP3    H110296   1.616   4.738   4.017 -0.2075  0.7112  1.6031
 3430TIP3    H210297   1.760   4.720   3.973 -0.7380  0.4917 -0.1062
 3431TIP3   OH210298   6.017   1.914   0.537  0.2267 -0.4456  0.4534
 3431TIP3    H110299   5.940   1.865   0.568 -0.7622 -0.1180 -1.3403
 3431TIP3    H210300   6.010   1.998   0.582 -1.3175  0.1158 -0.7494
 3432TIP3   OH210301   3.445   3.551   4.227 -0.4648  0.4236 -0.4942
 3432TIP3    H110302   3.454   3.478   4.288 -1.8759  0.3989 -0.3006
 3432TIP3    H210303   3.381   3.609   4.268 -1.5400  0.3415 -2.0009
 3433TIP3   OH210304   1.394   1.322   0.742  0.5261  0.7384  0.3638
 3433TIP3    H110305   1.364   1.274   0.820 -0.4910  0.6283 -0.0748
 3433TIP3    H210306   1.317   1.373   0.715  0.0055 -1.1222 -1.9986
 3434TIP3   OH210307   1.379   6.000   2.449  0.4494  0.6434 -0.3897
 3434TIP3    H110308   1.348   6.007   2.539 -1.1514 -0.7014 -0.7919
 3434TIP3    H210309   1.422   5.914   2.445  0.8261  0.8475 -0.8164
 3435TIP3   OH210310   1.993   5.491   4.813  0.7034 -0.3745 -0.1029
 3435TIP3    H110311   1.942   5.527   4.741  1.3634  1.2488  0.1961
 3435TIP3    H210312   1.937   5.423   4.851 -0.4251  0.0376 -0.9746
 3436TIP3   OH210313   1.350   0.304   2.941 -0.3254  0.4397 -0.1161
 3436TIP3    H110314   1.352   0.306   3.037 -1.8268  0.0033 -0.0572
 3436TIP3    H210315   1.415   0.238   2.918  0.6029  1.0855  0.5486
 3437TIP3   OH210316   3.705   1.540   1.011  0.0786  0.3699 -0.3398
 3437TIP3    H110317   3.629   1.515   1.064  0.8873 -3.2781 -0.5843
 3437TIP3    H210318   3.674   1.538   0.921 -0.0217  1.0292 -0.3215
 3438TIP3   OH210319   4.716   1.161   4.634 -0.6266 -0.0207 -0.1715
 3438TIP3    H110320   4.743   1.253   4.632  0.1714 -0.2338  0.4336
 3438TIP3    H210321   4.729   1.131   4.544 -1.4643  0.6079 -0.5205
 3439TIP3   OH210322   2.624   0.500   3.391  0.7088 -0.2010 -0.6725
 3439TIP3    H110323   2.673   0.560   3.335  2.1263  0.2364  0.9517
 3439TIP3    H210324   2.669   0.504   3.475 -2.2056  0.2886  0.9657
 3440TIP3   OH210325   1.529   4.265   4.769 -0.0118 -0.2780  0.4430
 3440TIP3    H110326   1.616   4.237   4.799  1.0839  0.7757 -1.4834
 3440TIP3    H210327   1.482   4.184   4.752  0.6344 -0.8737  1.4177
 3441TIP3   OH210328   1.439   3.571   3.555 -0.2516  0.8274 -0.1381
 3441TIP3    H110329   1.454   3.590   3.463 -0.6243  1.2240 -0.1175
 3441TIP3    H210330   1.344   3.577   3.566 -0.2524  0.3530  0.1789
 3442TIP3   OH210331   5.147   1.918   4.912  0.2202 -0.1406 -0.2537
 3442TIP3    H110332   5.195   1.905   4.994  1.3801  0.9832 -0.7137
 3442TIP3    H210333   5.096   1.997   4.927  0.6996  0.2639 -0.7105
 3443TIP3   OH210334   5.109   2.187   4.423 -0.1156 -0.1254 -0.2727
 3443TIP3    H110335   5.062   2.178   4.506  3.5700  0.1361  2.1098
 3443TIP3    H210336   5.167   2.262   4.436  1.6475 -0.9584 -2.5143
 3444TIP3   OH210337   1.173   0.969   2.847  0.1379  0.0078 -0.0505
 3444TIP3    H110338   1.175   0.927   2.933 -1.2984 -0.2303 -0.1212
 3444TIP3    H210339   1.111   0.918   2.796  0.5235  0.5097 -1.0573
 3445TIP3   OH210340   3.196   2.985   0.303  0.3170  0.0164  0.1646
 3445TIP3    H110341   3.237   2.987   0.217 -0.2700 -0.0245 -0.1192
 3445TIP3    H210342   3.118   3.040   0.295 -0.6300 -1.2448  0.1958
 3446TIP3   OH210343   3.928   2.092   3.472  0.0865 -0.0085  0.8356
 3446TIP3    H110344   3.970   2.067   3.389 -1.9261 -0.3919 -0.1248
 3446TIP3    H210345   3.883   2.012   3.500 -1.5408  0.8771  0.8298
 3447TIP3   OH210346   0.581   1.802   4.840 -0.0408 -0.4426  0.4438
 3447TIP3    H110347   0.498   1.771   4.804  0.8906  0.9381 -3.3410
 3447TIP3    H210348   0.645   1.735   4.817  0.1111 -1.2446  2.8807
 3448TIP3   OH210349   6.154   1.580   4.123 -0.2032 -1.0675  0.1438
 3448TIP3    H110350   6.176   1.494   4.086 -0.7280 -0.1503 -2.5592
 3448TIP3    H210351   6.065   1.569   4.157  0.1795 -1.8816  0.9271
 3449TIP3   OH210352   1.738   2.270   0.099  0.1612  0.0485 -0.4184
 3449TIP3    H110353   1.720   2.319   0.018 -0.5630 -0.0929 -0.3501
 3449TIP3    H210354   1.653   2.235   0.125  0.1233  1.1895  1.1333
 3450TIP3   OH210355   4.797   4.582   1.411  0.8981 -0.2054 -0.3599
 3450TIP3    H110356   4.855   4.506   1.411  1.0754 -0.0757 -0.0564
 3450TIP3    H210357   4.845   4.647   1.359  0.2236 -0.6796 -1.6065
 3451TIP3   OH210358   4.194   1.537   1.402 -0.3159  0.1453 -0.0927
 3451TIP3    H110359   4.230   1.582   1.479  0.3108  0.2142 -0.4227
 3451TIP3    H210360   4.249   1.566   1.329 -0.9831  0.1792 -0.5929
 3452TIP3   OH210361   3.958   2.375   2.989 -0.5346 -0.0939 -0.4567
 3452TIP3    H110362   3.988   2.285   2.993 -2.2644 -0.6860  0.2324
 3452TIP3    H210363   3.911   2.381   2.906 -0.9385 -0.0144 -0.2279
 3453TIP3   OH210364   4.871   4.224   4.356  0.4328 -0.2814  0.1095
 3453TIP3    H110365   4.789   4.227   4.406  0.7040  0.4354  0.5292
 3453TIP3    H210366   4.853   4.278   4.278  0.3118 -0.6288 -0.1052
 3454TIP3   OH210367   0.036   3.945   3.478 -0.0131 -0.4349  0.2382
 3454TIP3    H110368   0.011   3.855   3.496  0.3991 -0.2454  1.8568
 3454TIP3    H210369  -0.019   3.998   3.536  0.8687  0.2583  0.4677
 3455TIP3   OH210370   1.220   3.969   3.704  0.5223 -0.0211  0.2534
 3455TIP3    H110371   1.202   4.057   3.736  0.4408 -0.3385  1.1321
 3455TIP3    H210372   1.237   3.979   3.611 -3.4125  0.4165 -0.5789
 3456TIP3   OH210373   5.567   4.327   5.123  0.3994 -0.4708 -0.2563
 3456TIP3    H110374   5.511   4.293   5.053  0.7716 -0.4024 -0.5881
 3456TIP3    H210375   5.514   4.396   5.165  0.6968  0.4608 -1.3702
 3457TIP3   OH210376   3.649   0.683   1.418 -0.7349  0.4057  0.0364
 3457TIP3    H110377   3.677   0.697   1.328  2.2515 -0.6214  0.7011
 3457TIP3    H210378   3.585   0.611   1.412  0.0450 -0.2215 -1.2039
 3458TIP3   OH210379   5.778   5.114   0.946  0.0263  0.0405  0.0680
 3458TIP3    H110380   5.790   5.166   1.025  1.2514  0.8888 -0.6586
 3458TIP3    H210381   5.767   5.179   0.876 -0.4289 -0.6978 -0.5620
 3459TIP3   OH210382   4.248   0.648   5.126  0.1675  0.0908 -0.1836
 3459TIP3    H110383   4.206   0.730   5.152 -1.0127 -0.3699 -0.5476
 3459TIP3    H210384   4.250   0.651   5.030 -0.8150 -0.7137 -0.2520
 3460TIP3   OH210385   6.303   3.722   0.236 -0.3976  0.1707  0.0292
 3460TIP3    H110386   6.292   3.649   0.296 -0.5212  0.9361  0.9670
 3460TIP3    H210387   6.226   3.778   0.252 -0.7974  0.0477 -1.3430
 3461TIP3   OH210388   5.094   4.527   3.668  0.3953 -0.3848 -0.3969
 3461TIP3    H110389   5.103   4.543   3.574  0.8435  0.3536 -0.2327
 3461TIP3    H210390   5.105   4.613   3.709 -0.1350 -0.6428  0.3132
 3462TIP3   OH210391   4.649   3.019   5.095 -0.3995  0.4097  0.3219
 3462TIP3    H110392   4.701   2.962   5.152 -0.6977  0.0348  0.2249
 3462TIP3    H210393   4.559   3.006   5.125 -0.4699  0.8243  0.2925
 3463TIP3   OH210394   2.364   0.640   1.040  0.3215 -0.2304 -0.5133
 3463TIP3    H110395   2.337   0.730   1.021 -1.2599 -0.4525  0.5057
 3463TIP3    H210396   2.282   0.590   1.042  1.1875 -1.7713 -1.3244
 3464TIP3   OH210397   3.643   5.702   2.285 -0.3464 -0.4706  0.2773
 3464TIP3    H110398   3.649   5.794   2.311 -0.0680 -0.8370  1.5597
 3464TIP3    H210399   3.577   5.702   2.215 -0.9801  0.5826  0.8407
 3465TIP3   OH210400   4.879   1.725   5.207  0.3436 -0.4983 -0.6232
 3465TIP3    H110401   4.817   1.652   5.209 -1.1667  0.7094  1.4543
 3465TIP3    H210402   4.859   1.771   5.125 -0.0227 -1.3262 -1.0073
 3466TIP3   OH210403   6.326   5.606   2.890  0.1681 -0.1695 -0.0477
 3466TIP3    H110404   6.267   5.536   2.919 -0.8374 -0.2761 -2.1653
 3466TIP3    H210405   6.327   5.598   2.795 -0.2755  2.9589 -0.4038
 3467TIP3   OH210406   0.775   2.032   2.106 -0.2279  0.4721  0.5198
 3467TIP3    H110407   0.789   2.051   2.013  2.1257  0.9949  0.9078
 3467TIP3    H210408   0.853   2.067   2.149 -0.2850 -1.5663  2.4490
 3468TIP3   OH210409   1.861   1.910   0.518  0.0839 -0.3666  0.3133
 3468TIP3    H110410   1.933   1.893   0.578 -0.6794  1.1350  1.7434
 3468TIP3    H210411   1.782   1.893   0.570 -0.6003  1.5087 -0.0409
 3469TIP3   OH210412   1.625   3.252   1.496  0.0541 -0.4875  0.0534
 3469TIP3    H110413   1.649   3.333   1.542 -0.6424 -0.0847 -0.2684
 3469TIP3    H210414   1.553   3.215   1.547  0.3952 -0.9285  0.2207
 3470TIP3   OH210415   2.804   4.295   2.344  0.0725 -0.4678  0.3591
 3470TIP3    H110416   2.709   4.285   2.346 -0.1008  1.0828  1.5942
 3470TIP3    H210417   2.835   4.220   2.293 -1.7616 -1.2872  0.3771
 3471TIP3   OH210418   0.943   3.052   0.158 -0.4266 -0.1647  0.0646
 3471TIP3    H110419   0.997   2.973   0.168 -0.9378 -0.5799 -0.3703
 3471TIP3    H210420   0.855   3.023   0.182 -0.5643  0.3505  0.1818
 3472TIP3   OH210421   2.645   4.465   0.187 -0.1542 -0.0254 -0.0573
 3472TIP3    H110422   2.723   4.438   0.138  0.5014  0.7673  0.5136
 3472TIP3    H210423   2.671   4.457   0.279 -1.1695 -0.9376  0.1607
 3473TIP3   OH210424   5.011   4.939   4.685  0.4785 -0.2585 -0.0617
 3473TIP3    H110425   5.094   4.890   4.687  0.4841 -0.6853 -3.6764
 3473TIP3    H210426   5.035   5.028   4.710  2.3219 -0.1515 -1.8854
 3474TIP3   OH210427   5.161   4.488   5.035  0.4017 -0.1303  0.0285
 3474TIP3    H110428   5.189   4.404   5.071 -0.8320 -0.1857  0.9152
 3474TIP3    H210429   5.099   4.465   4.965  1.0719  0.0257 -0.6292
 3475TIP3   OH210430   3.001   5.903   3.532  0.4553 -0.1082 -0.3843
 3475TIP3    H110431   2.923   5.942   3.492  0.9080  1.5886  0.2942
 3475TIP3    H210432   3.074   5.941   3.483  0.8892 -0.9673 -0.4116
 3476TIP3   OH210433   3.586   5.727   1.524 -0.1548  0.2941  0.3194
 3476TIP3    H110434   3.501   5.767   1.541  0.1828  0.7565  0.9749
 3476TIP3    H210435   3.624   5.716   1.611 -0.5124 -2.0836  0.2530
 3477TIP3   OH210436   0.850   4.445   2.377  0.6491  0.0497  0.6416
 3477TIP3    H110437   0.787   4.448   2.449 -1.8834  0.8869 -1.4751
 3477TIP3    H210438   0.836   4.526   2.329  4.1280  0.7761  0.5768
 3478TIP3   OH210439   3.568   1.325   1.978  0.4243  0.6842 -0.5703
 3478TIP3    H110440   3.645   1.380   1.986  0.1893  0.9185  0.1157
 3478TIP3    H210441   3.546   1.328   1.885  3.0811 -1.9123 -1.4531
 3479TIP3   OH210442   1.026   0.293   1.949  0.1545 -0.3737  0.0476
 3479TIP3    H110443   1.042   0.350   2.024  1.0156 -0.6393  0.0891
 3479TIP3    H210444   1.094   0.317   1.886  0.5398 -1.3438  0.0702
 3480TIP3   OH210445   0.651   5.266   0.018  0.0537  0.0467 -0.1899
 3480TIP3    H110446   0.646   5.355   0.052 -0.6905 -0.5212  1.2827
 3480TIP3    H210447   0.562   5.231   0.028  0.5034 -1.1047 -0.0126
 3481TIP3   OH210448   1.365   5.832   3.225  0.1545 -0.4577 -0.2738
 3481TIP3    H110449   1.350   5.921   3.258 -0.2823 -0.4028 -0.6123
 3481TIP3    H210450   1.441   5.801   3.274 -0.0386 -0.1061  0.2615
 3482TIP3   OH210451   1.814   4.206   4.780  0.1280 -0.7853  0.7217
 3482TIP3    H110452   1.868   4.177   4.852  1.0397 -0.0899  0.3401
 3482TIP3    H210453   1.834   4.146   4.708 -0.1021 -0.9336  0.7827
 3483TIP3   OH210454   0.449   1.800   3.077  0.1780 -0.3294 -0.0117
 3483TIP3    H110455   0.515   1.752   3.129 -0.0579  1.0607  1.6783
 3483TIP3    H210456   0.497   1.830   3.000  0.5975 -2.3149 -0.5741
 3484TIP3   OH210457   6.115   5.423   4.579  0.8294  0.5114  0.1438
 3484TIP3    H110458   6.090   5.356   4.642  0.7999 -0.1651 -0.5684
 3484TIP3    H210459   6.208   5.439   4.596  0.5032  1.3438  1.2569
 3485TIP3   OH210460   3.800   0.380   2.308  0.0485 -0.0333 -0.3627
 3485TIP3    H110461   3.792   0.456   2.250 -2.1117  0.9026  1.0378
 3485TIP3    H210462   3.768   0.306   2.256 -2.4769  0.9043 -0.2413
 3486TIP3   OH210463   3.056   1.545   3.539  0.1355 -0.1164 -0.0974
 3486TIP3    H110464   3.128   1.487   3.516  0.7582  0.5112  0.2363
 3486TIP3    H210465   3.096   1.632   3.543 -0.1425 -0.0391  2.3334
 3487TIP3   OH210466   3.915   4.312   0.487  0.0908  0.0239 -0.5514
 3487TIP3    H110467   3.993   4.337   0.536  0.2435 -1.9462  0.3036
 3487TIP3    H210468   3.949   4.264   0.411 -0.2666  0.5073 -1.0311
 3488TIP3   OH210469   2.163   2.027   3.461  0.0532  1.0301 -0.3355
 3488TIP3    H110470   2.097   1.979   3.412  0.4359  0.9055 -0.7309
 3488TIP3    H210471   2.192   1.966   3.529 -0.8112  1.3635  0.3575
 3489TIP3   OH210472   0.299   0.428   1.052 -0.4901  0.6789  0.1235
 3489TIP3    H110473   0.319   0.464   1.138 -0.0005 -1.3092  0.8957
 3489TIP3    H210474   0.339   0.490   0.991  1.1620  0.9646  1.4159
 3490TIP3   OH210475   1.496   0.327   3.199  0.4040 -0.0540 -0.2665
 3490TIP3    H110476   1.507   0.232   3.193 -0.4685 -0.1757 -0.0542
 3490TIP3    H210477   1.578   0.363   3.166  0.4369 -0.8707 -1.0960
 3491TIP3   OH210478   2.138   2.869   1.685 -0.0922  0.3726 -0.3723
 3491TIP3    H110479   2.204   2.854   1.752  0.1901  1.8888 -0.2870
 3491TIP3    H210480   2.164   2.950   1.642 -0.1588 -0.6270 -2.4759
 3492TIP3   OH210481   1.654   4.825   3.538  0.4588 -0.2450  0.2404
 3492TIP3    H110482   1.718   4.852   3.604  0.2011  1.3157 -0.1178
 3492TIP3    H210483   1.706   4.780   3.471  1.1078  0.5228  0.2212
 3493TIP3   OH210484   5.825   2.691   0.496 -0.2311  0.2491 -0.0001
 3493TIP3    H110485   5.900   2.749   0.483  1.1073 -1.2642  0.6664
 3493TIP3    H210486   5.785   2.720   0.577 -0.1155  0.7939 -0.1374
 3494TIP3   OH210487   2.141   4.796   0.616 -0.3129 -0.4286  0.3100
 3494TIP3    H110488   2.192   4.875   0.634 -1.0808 -0.4071  2.7645
 3494TIP3    H210489   2.050   4.825   0.620 -0.6545 -0.7205 -2.7542
 3495TIP3   OH210490   4.695   4.998   1.346 -0.0852 -0.7243  0.5776
 3495TIP3    H110491   4.675   5.022   1.255  2.5228 -0.6269 -0.0307
 3495TIP3    H210492   4.643   4.919   1.361  0.0162 -1.1880 -1.2677
 3496TIP3   OH210493   4.604   0.900   0.780  0.0961  0.6601 -0.1992
 3496TIP3    H110494   4.689   0.911   0.737  0.2748 -0.4159 -0.1554
 3496TIP3    H210495   4.544   0.876   0.709  0.3765 -1.0508  0.0890
 3497TIP3   OH210496   4.391   3.371   3.529 -0.1370 -0.2007 -0.4457
 3497TIP3    H110497   4.473   3.420   3.531  0.2054 -0.7741 -0.4184
 3497TIP3    H210498   4.350   3.395   3.446  0.3487 -0.3848 -0.7424
 3498TIP3   OH210499   2.196   4.556   5.066 -0.2999 -0.0199 -0.1317
 3498TIP3    H110500   2.150   4.637   5.047  0.2025  0.1600 -0.6029
 3498TIP3    H210501   2.151   4.489   5.013 -0.4560  0.0254 -0.0557
 3499TIP3   OH210502   2.114   5.345   2.197  0.1757  0.2214 -0.3644
 3499TIP3    H110503   2.041   5.362   2.136  0.2854  2.0962 -0.0394
 3499TIP3    H210504   2.150   5.262   2.168 -1.2737 -0.1098 -1.3649
 3500TIP3   OH210505   1.315   3.656   2.569 -0.7228 -0.2524  0.1056
 3500TIP3    H110506   1.261   3.734   2.579  1.5815  1.6084 -1.1245
 3500TIP3    H210507   1.308   3.633   2.476 -0.9777 -1.2213  0.3529
 3501TIP3   OH210508   2.521   4.855   2.710 -0.0688  0.1616 -0.1674
 3501TIP3    H110509   2.596   4.837   2.654  0.5919  0.7283  0.5247
 3501TIP3    H210510   2.491   4.942   2.683 -0.4482 -0.0333 -0.3955
 3502TIP3   OH210511   4.619   1.114   4.905  0.5285  0.1689  0.2212
 3502TIP3    H110512   4.557   1.186   4.909 -0.8261 -0.9204 -0.3340
 3502TIP3    H210513   4.661   1.123   4.819  0.3161  0.2637  0.1278
 3503TIP3   OH210514   4.312   2.417   1.500 -0.0333  0.1939 -0.0609
 3503TIP3    H110515   4.244   2.354   1.476  1.4886 -1.3186 -0.5651
 3503TIP3    H210516   4.284   2.452   1.584 -1.0188 -1.0175  0.1324
 3504TIP3   OH210517   0.495   5.997   2.862 -0.2751 -0.0229  0.2519
 3504TIP3    H110518   0.431   5.931   2.835 -2.1102  1.4245  0.8033
 3504TIP3    H210519   0.481   6.007   2.957  0.3795  0.7275  0.2856
 3505TIP3   OH210520   3.155   5.655   1.791 -0.0987 -0.0783 -0.3892
 3505TIP3    H110521   3.220   5.586   1.785 -0.2169 -0.2975  0.5985
 3505TIP3    H210522   3.204   5.732   1.822 -0.0954  0.0872 -0.7987
 3506TIP3   OH210523   5.812   4.127   4.100 -0.8242  0.2693 -0.1005
 3506TIP3    H110524   5.853   4.096   4.180 -1.8332 -1.5689 -0.2506
 3506TIP3    H210525   5.722   4.146   4.124 -0.7210  1.3074 -0.4576
 3507TIP3   OH210526   1.655   2.636   1.962 -0.2567  0.5079  0.0893
 3507TIP3    H110527   1.581   2.647   1.903  0.2982  1.0339 -0.5204
 3507TIP3    H210528   1.620   2.587   2.036 -1.6655  2.2231  0.6361
 3508TIP3   OH210529   1.863   0.043   4.912  0.6068 -0.5155 -0.1184
 3508TIP3    H110530   1.903  -0.013   4.978  0.0410 -1.1633 -0.3080
 3508TIP3    H210531   1.784  -0.004   4.885  0.6052 -0.0635 -0.9517
 3509TIP3   OH210532   2.549   5.568   4.010 -0.2923 -0.0576 -0.1495
 3509TIP3    H110533   2.523   5.509   4.081 -2.0237  0.3198 -0.4122
 3509TIP3    H210534   2.495   5.646   4.023  0.8593  0.8653 -0.6984
 3510TIP3   OH210535   0.139   5.397   3.071 -0.1190  0.1968  0.1448
 3510TIP3    H110536   0.106   5.484   3.093 -3.0919 -0.7452 -0.1106
 3510TIP3    H210537   0.185   5.410   2.988  1.0780  1.7781  0.9975
 3511TIP3   OH210538   3.791   5.707   0.869  0.0425 -0.0622 -0.4503
 3511TIP3    H110539   3.832   5.670   0.791 -2.0051  1.1803 -2.2390
 3511TIP3    H210540   3.700   5.678   0.864 -0.4000  1.0228  0.8297
 3512TIP3   OH210541   5.028   5.007   0.532  0.0387  0.8128 -0.2546
 3512TIP3    H110542   5.045   4.954   0.454 -1.7744  0.9474 -0.7687
 3512TIP3    H210543   4.948   4.971   0.569  0.7883  0.8436  1.4992
 3513TIP3   OH210544   5.563   4.321   1.689 -0.1441  0.3422 -0.0154
 3513TIP3    H110545   5.565   4.363   1.603  0.4643 -0.6811 -0.5381
 3513TIP3    H210546   5.621   4.245   1.678 -2.2360 -1.4282  0.4361
 3514TIP3   OH210547   4.089   4.859   1.065 -0.1146 -0.4982 -0.2334
 3514TIP3    H110548   4.179   4.886   1.079 -0.0813 -0.8201  0.1897
 3514TIP3    H210549   4.054   4.843   1.152 -0.9279  0.6872 -0.3141
 3515TIP3   OH210550   1.203   4.846   2.896  0.2669 -0.1596  0.2029
 3515TIP3    H110551   1.281   4.894   2.924 -0.4685  1.4050 -0.3650
 3515TIP3    H210552   1.179   4.886   2.812 -1.8109  0.1741  0.9128
 3516TIP3   OH210553   5.523   3.887   2.495  0.2955 -0.0606 -0.4736
 3516TIP3    H110554   5.542   3.808   2.545  1.3132 -0.1721 -1.0028
 3516TIP3    H210555   5.476   3.944   2.555 -1.1849 -1.3950 -0.3359
 3517TIP3   OH210556   5.992   1.759   3.742 -0.3353 -0.0298  0.1053
 3517TIP3    H110557   6.057   1.699   3.707 -0.1905 -0.1088  0.5010
 3517TIP3    H210558   5.937   1.782   3.667 -0.2495 -0.4692 -0.0941
 3518TIP3   OH210559   4.226   0.814   2.742  0.2364 -0.4124 -0.3682
 3518TIP3    H110560   4.183   0.740   2.699  0.7849  0.3246 -2.3019
 3518TIP3    H210561   4.264   0.865   2.670 -0.4383  1.9697  0.8485
 3519TIP3   OH210562   2.406   3.945   4.359  0.3551  0.7935  0.1029
 3519TIP3    H110563   2.339   3.880   4.337  1.6913 -0.5167 -0.2641
 3519TIP3    H210564   2.436   3.979   4.274  0.3205  1.2079  0.2540
 3520TIP3   OH210565   2.751   5.457   2.884 -0.2776 -0.1351 -0.0094
 3520TIP3    H110566   2.812   5.495   2.821  0.0188  0.9793  0.9202
 3520TIP3    H210567   2.779   5.366   2.892 -0.8188 -0.5424 -2.0532
 3521TIP3   OH210568   3.665   0.411   0.837 -0.3310 -0.1899  0.1028
 3521TIP3    H110569   3.644   0.481   0.775  0.9581  0.3544  0.2381
 3521TIP3    H210570   3.646   0.330   0.789 -1.0973  0.2391 -0.3339
 3522TIP3   OH210571   4.116   5.769   3.023 -0.7424  0.7753  0.3242
 3522TIP3    H110572   4.175   5.758   2.948 -1.4499 -0.8664 -0.0402
 3522TIP3    H210573   4.173   5.759   3.099 -0.5343 -0.9501 -0.0218
 3523TIP3   OH210574   2.749   2.043   3.012  0.2108 -0.5691 -0.3963
 3523TIP3    H110575   2.834   2.085   3.023  0.0059 -0.2679  0.0830
 3523TIP3    H210576   2.686   2.107   3.046 -0.2143 -0.7500 -0.8393
 3524TIP3   OH210577   3.050   1.954   1.140  0.3507 -0.0797  0.5499
 3524TIP3    H110578   3.130   1.953   1.193  1.8360 -0.5796 -1.5902
 3524TIP3    H210579   3.069   2.015   1.069 -1.4618  0.3450  0.3818
 3525TIP3   OH210580   5.380   5.030   1.033  0.0825  0.0598 -0.3507
 3525TIP3    H110581   5.338   5.116   1.024 -0.4564 -0.2939 -1.3415
 3525TIP3    H210582   5.415   5.011   0.946 -1.3295 -1.4936 -0.6255
 3526TIP3   OH210583   5.843   0.819   1.824  0.2030 -0.5949  0.1192
 3526TIP3    H110584   5.776   0.753   1.807 -1.4922  0.3815  2.4959
 3526TIP3    H210585   5.829   0.886   1.757  0.1313 -1.3050 -0.5941
 3527TIP3   OH210586   2.845   2.899   3.230 -0.7499  0.8525  0.5578
 3527TIP3    H110587   2.890   2.976   3.263 -0.9871  0.5190  1.7145
 3527TIP3    H210588   2.910   2.829   3.234 -0.3323  1.0866 -1.1036
 3528TIP3   OH210589   4.931   3.787   0.994  0.0155  0.1935  0.3141
 3528TIP3    H110590   5.002   3.842   0.960 -0.1445  0.5672  0.5789
 3528TIP3    H210591   4.908   3.730   0.920  2.0934 -1.5191  0.8525
 3529TIP3   OH210592   4.979   0.142   3.195  0.0097 -0.0137 -0.4351
 3529TIP3    H110593   5.033   0.129   3.117  1.4425  0.5407  0.4246
 3529TIP3    H210594   4.890   0.126   3.165  0.3332  1.6271 -2.5691
 3530TIP3   OH210595   5.059   2.645   1.489  0.5611  0.4737  0.0971
 3530TIP3    H110596   4.979   2.693   1.467 -0.5566 -0.5951  1.6628
 3530TIP3    H210597   5.097   2.693   1.562  0.6416  0.2163  0.2232
 3531TIP3   OH210598   4.291   2.788   0.127 -0.5614  0.4815 -0.0205
 3531TIP3    H110599   4.305   2.764   0.035  1.8310  0.7442  0.2005
 3531TIP3    H210600   4.280   2.705   0.172 -0.5230  0.2704 -0.3966
 3532TIP3   OH210601   4.400   1.209   3.048  0.1314 -0.1878 -0.3957
 3532TIP3    H110602   4.479   1.215   2.995 -0.6305  1.5922 -1.4321
 3532TIP3    H210603   4.413   1.132   3.102  1.7021 -1.0723 -1.9380
 3533TIP3   OH210604   1.545   5.655   4.881  0.5778  0.0772  0.2008
 3533TIP3    H110605   1.616   5.718   4.867  0.8621  0.0472  1.3290
 3533TIP3    H210606   1.477   5.680   4.819  1.6498 -0.0187 -1.0707
 3534TIP3   OH210607   5.057   3.642   2.984 -0.4671  0.0691 -0.0864
 3534TIP3    H110608   5.122   3.588   3.030 -1.0513 -1.1473 -0.6726
 3534TIP3    H210609   4.973   3.617   3.023 -0.5193  2.8656  1.9034
 3535TIP3   OH210610   1.236   5.131   4.345  0.0659 -0.1295  0.4905
 3535TIP3    H110611   1.163   5.170   4.394  0.1993  0.1364  0.4779
 3535TIP3    H210612   1.234   5.175   4.260  1.3820  1.2417  1.1172
 3536TIP3   OH210613   2.137   1.933   4.720 -0.2414 -0.1911  0.9656
 3536TIP3    H110614   2.177   1.861   4.768  1.2051  0.3472  0.6224
 3536TIP3    H210615   2.139   2.007   4.782 -2.4808 -0.6146  1.6162
 3537TIP3   OH210616   0.274   3.857   3.266 -0.2800  0.1040 -0.3816
 3537TIP3    H110617   0.255   3.838   3.174  1.8629  2.8303 -1.5258
 3537TIP3    H210618   0.191   3.844   3.311 -1.8786  0.4560 -3.0314
 3538TIP3   OH210619   4.110   5.856   0.848 -0.5448 -0.3913 -0.3024
 3538TIP3    H110620   4.118   5.928   0.911 -2.2700  1.5745 -2.1841
 3538TIP3    H210621   4.108   5.777   0.903  0.3057  1.0210  1.9205
 3539TIP3   OH210622   0.757   5.213   1.472 -0.1649  0.1270 -0.6818
 3539TIP3    H110623   0.700   5.275   1.427 -1.5413 -0.1753  0.5664
 3539TIP3    H210624   0.845   5.247   1.458 -0.7626  1.5003 -1.3164
 3540TIP3   OH210625   4.819   4.196   0.707 -0.0469  0.0723  0.1842
 3540TIP3    H110626   4.839   4.178   0.799 -2.1519 -0.3476  0.6157
 3540TIP3    H210627   4.905   4.203   0.665  1.0084  1.2434  2.3283
 3541TIP3   OH210628   1.197   2.152   0.678 -0.2251  0.1732 -0.4763
 3541TIP3    H110629   1.105   2.156   0.652 -0.2107  1.1045 -0.4286
 3541TIP3    H210630   1.215   2.239   0.715  1.5125  1.1250 -3.3036
 3542TIP3   OH210631   3.386   0.525   0.907 -0.2706  0.5929 -0.2920
 3542TIP3    H110632   3.373   0.596   0.844  1.3235 -0.3638 -1.7859
 3542TIP3    H210633   3.313   0.465   0.890 -0.0758  0.5385 -0.9751
 3543TIP3   OH210634   0.864   1.759   0.317  0.4075 -0.4057 -0.5449
 3543TIP3    H110635   0.818   1.842   0.301 -0.2516 -0.7082 -0.2734
 3543TIP3    H210636   0.867   1.752   0.412 -1.0134 -1.4666 -0.5396
 3544TIP3   OH210637   3.013   2.763   4.900 -0.2502  0.5089 -0.1842
 3544TIP3    H110638   2.976   2.842   4.938 -1.8380  0.3101 -1.2617
 3544TIP3    H210639   3.018   2.780   4.806  2.5468  0.5574 -0.1267
 3545TIP3   OH210640   4.971   0.739   0.266 -0.6055  0.2561 -0.1340
 3545TIP3    H110641   4.933   0.686   0.197 -0.8166 -0.9867  0.9011
 3545TIP3    H210642   5.055   0.697   0.286 -1.1240 -0.1961  1.2275
 3546TIP3   OH210643   1.034   0.081   2.265 -0.4237 -0.2178  0.1290
 3546TIP3    H110644   0.976   0.005   2.258 -0.6357 -0.0103 -0.4164
 3546TIP3    H210645   0.974   0.155   2.278 -0.1353 -0.4238  3.4544
 3547TIP3   OH210646   3.786   0.504   1.603 -0.0087 -0.0580  0.1498
 3547TIP3    H110647   3.772   0.586   1.556  0.3943  0.1338  0.3614
 3547TIP3    H210648   3.753   0.436   1.543 -0.2201  0.2429 -0.0789
 3548TIP3   OH210649   2.142   5.380   4.135 -0.3761  0.4620 -0.2163
 3548TIP3    H110650   2.237   5.394   4.132 -0.3093 -0.1281 -1.1243
 3548TIP3    H210651   2.122   5.333   4.054 -1.6029  1.4814 -0.5406
 3549TIP3   OH210652   6.168   0.623   2.587  0.0571  0.1469 -0.0064
 3549TIP3    H110653   6.218   0.615   2.506  1.2266 -0.8692  0.7869
 3549TIP3    H210654   6.117   0.703   2.575  0.1492 -0.0085 -1.7585
 3550TIP3   OH210655   3.773   4.880   4.432  0.1822  0.4850  0.5149
 3550TIP3    H110656   3.840   4.820   4.463 -1.2895 -0.8234  1.3253
 3550TIP3    H210657   3.739   4.921   4.512  1.1237  2.4088 -0.0154
 3551TIP3   OH210658   3.157   4.037   4.039  0.8810 -0.2848 -0.2921
 3551TIP3    H110659   3.149   4.060   3.946 -0.9704 -0.9903 -0.3507
 3551TIP3    H210660   3.185   3.945   4.039  0.5904 -0.3740 -0.1550
 3552TIP3   OH210661   0.823   2.970   0.848 -0.0054 -0.8672 -0.3265
 3552TIP3    H110662   0.806   3.039   0.783 -0.1806  1.8242  2.3107
 3552TIP3    H210663   0.750   2.909   0.838 -0.4751 -0.0820 -2.0465
 3553TIP3   OH210664   6.294   1.383   3.976  0.8246  0.7388  0.5626
 3553TIP3    H110665   6.342   1.371   4.058 -1.1039 -0.2039  1.6139
 3553TIP3    H210666   6.355   1.353   3.908  1.9386  0.1452  1.7853
 3554TIP3   OH210667   0.734   1.370   1.069 -0.1108 -0.5969  0.1256
 3554TIP3    H110668   0.786   1.294   1.044  0.4726  0.2337 -1.3411
 3554TIP3    H210669   0.742   1.375   1.164  3.0899 -0.1395 -0.0553
 3555TIP3   OH210670   1.671   4.599   2.630  0.4016  0.3153 -0.1217
 3555TIP3    H110671   1.689   4.573   2.720  1.3178  3.3158  0.6892
 3555TIP3    H210672   1.629   4.685   2.638 -1.1219 -0.1070 -2.5327
 3556TIP3   OH210673   2.915   4.710   2.954 -0.2777 -0.3029  0.4178
 3556TIP3    H110674   2.982   4.661   2.906 -1.1374 -0.6485 -0.4651
 3556TIP3    H210675   2.939   4.802   2.943 -1.8098 -0.1558 -2.9164
 3557TIP3   OH210676   0.544   0.587   3.436  0.8614 -0.0090  0.2310
 3557TIP3    H110677   0.598   0.515   3.403  0.5603 -1.8612  3.3584
 3557TIP3    H210678   0.602   0.634   3.496  0.0509  0.1777  0.8854
 3558TIP3   OH210679   6.207   3.584   4.792 -0.4439 -0.3522 -0.3220
 3558TIP3    H110680   6.245   3.598   4.878  2.7088  1.1833 -1.7964
 3558TIP3    H210681   6.135   3.646   4.787 -1.1472 -0.9661  1.4074
 3559TIP3   OH210682   3.046   4.264   3.211 -0.4394 -0.1740 -0.1098
 3559TIP3    H110683   2.956   4.242   3.184 -0.5401 -0.5624  0.5049
 3559TIP3    H210684   3.092   4.180   3.209 -0.9479 -0.6357  2.7269
 3560TIP3   OH210685   4.057   0.185   1.143  0.3727 -0.0667  0.2516
 3560TIP3    H110686   4.130   0.186   1.081 -0.0149 -0.3854 -0.2228
 3560TIP3    H210687   3.979   0.192   1.087  0.0566  0.8590  0.7847
 3561TIP3   OH210688   2.727   4.690   3.861 -1.0799  0.1893  0.4023
 3561TIP3    H110689   2.695   4.629   3.795 -0.9243  1.2737 -0.7035
 3561TIP3    H210690   2.817   4.711   3.834 -0.3008 -0.8427  2.0492
 3562TIP3   OH210691   5.753   4.034   3.045 -0.4077 -0.4170  0.0229
 3562TIP3    H110692   5.817   3.987   2.993 -0.4298 -0.7983  0.3409
 3562TIP3    H210693   5.717   3.969   3.105 -0.3595  0.0207  0.5424
 3563TIP3   OH210694   1.514   4.612   0.858 -0.3715  0.5329  0.2079
 3563TIP3    H110695   1.553   4.696   0.884  1.4590 -0.1899 -0.0873
 3563TIP3    H210696   1.438   4.637   0.805  0.1249  2.0130  0.1460
 3564TIP3   OH210697   3.628   3.058   4.392  0.1076  0.2157  0.3845
 3564TIP3    H110698   3.543   3.036   4.352 -0.3769  0.1245  1.4217
 3564TIP3    H210699   3.623   3.021   4.480  1.8577 -1.1566 -0.0530
 3565TIP3   OH210700   0.879   1.559   3.487 -0.0348 -0.1181 -0.0301
 3565TIP3    H110701   0.858   1.510   3.407 -1.7944  0.1304  0.2409
 3565TIP3    H210702   0.798   1.604   3.510  0.4066 -0.2265  1.9372
 3566TIP3   OH210703   1.207   1.402   2.200 -0.3235 -0.1205 -0.1280
 3566TIP3    H110704   1.228   1.315   2.232  1.1331  0.7205  1.3551
 3566TIP3    H210705   1.122   1.392   2.157 -0.7764 -2.0087  1.0928
 3567TIP3   OH210706   6.309   3.047   4.732  0.1681  0.3333 -0.7409
 3567TIP3    H110707   6.303   3.057   4.827  0.0689 -0.1792 -0.6953
 3567TIP3    H210708   6.274   3.129   4.697  0.8895  0.8316 -0.3252
 3568TIP3   OH210709   3.044   0.097   0.373  0.1526 -0.1727  0.7629
 3568TIP3    H110710   2.991   0.086   0.452 -0.1058 -1.5740  0.4260
 3568TIP3    H210711   3.104   0.022   0.373  1.7594  1.0460  0.8137
 3569TIP3   OH210712   4.879   2.373   0.554  0.0803 -0.2864  0.1888
 3569TIP3    H110713   4.835   2.291   0.577  0.4434 -0.5746 -0.1442
 3569TIP3    H210714   4.908   2.361   0.464  1.8620 -0.5600  0.7553
 3570TIP3   OH210715   0.958   3.840   0.774 -0.2690  0.4104 -0.3160
 3570TIP3    H110716   0.906   3.915   0.802 -3.2310 -1.4589 -0.3056
 3570TIP3    H210717   1.015   3.821   0.847 -0.2945  1.9307  0.1321
 3571TIP3   OH210718   2.142   0.508   1.073 -0.2152  0.7263 -0.1847
 3571TIP3    H110719   2.134   0.435   1.011 -0.5285  1.2744 -0.8013
 3571TIP3    H210720   2.066   0.499   1.130  1.0432 -0.8956  1.3712
 3572TIP3   OH210721   1.282   2.824   4.797  0.1159 -0.1145  0.0306
 3572TIP3    H110722   1.281   2.798   4.705  0.0588  1.0451 -0.3052
 3572TIP3    H210723   1.219   2.765   4.839 -2.0140  1.1974 -1.1926
 3573TIP3   OH210724   1.368   4.505   4.792  0.0689 -0.1365 -0.5897
 3573TIP3    H110725   1.408   4.568   4.732 -0.3329 -0.0872 -0.8101
 3573TIP3    H210726   1.421   4.425   4.781  1.6430  0.6353  0.9328
 3574TIP3   OH210727   4.851   5.465   0.640 -0.0613  0.3244  0.8789
 3574TIP3    H110728   4.787   5.449   0.572 -0.9287  0.2157  1.7027
 3574TIP3    H210729   4.842   5.558   0.661 -0.0530  0.2752  1.1036
 3575TIP3   OH210730   1.736   2.479   3.774 -0.0014  0.3235 -0.2491
 3575TIP3    H110731   1.685   2.536   3.716  0.0520  0.0251 -0.5939
 3575TIP3    H210732   1.819   2.524   3.786  0.3137 -0.0168 -1.0994
 3576TIP3   OH210733   1.316   4.832   0.332  0.4258 -0.6394 -0.6469
 3576TIP3    H110734   1.381   4.781   0.284 -0.7034 -1.2712 -1.5438
 3576TIP3    H210735   1.232   4.801   0.299 -0.3561 -0.2054  0.8584
 3577TIP3   OH210736   3.402   3.244   2.228 -0.1260  0.8567  0.4664
 3577TIP3    H110737   3.340   3.204   2.166  0.9982 -1.8400  0.9566
 3577TIP3    H210738   3.363   3.229   2.314  0.9432 -0.4386  0.7464
 3578TIP3   OH210739   4.054   2.449   4.900 -0.2579 -0.3449 -0.3486
 3578TIP3    H110740   3.999   2.380   4.939 -0.2790  0.0006  0.2422
 3578TIP3    H210741   4.108   2.403   4.836  0.6094 -1.1379  0.9130
 3579TIP3   OH210742   2.081   1.388   3.332  0.0657 -0.2792  0.4437
 3579TIP3    H110743   2.005   1.444   3.351  0.7346  0.8532 -0.1701
 3579TIP3    H210744   2.117   1.367   3.418 -1.1135 -1.0936  0.7646
 3580TIP3   OH210745   2.129   0.390   4.556 -0.2133  0.0953  0.6119
 3580TIP3    H110746   2.151   0.482   4.543  1.0859 -0.0863  1.3211
 3580TIP3    H210747   2.078   0.365   4.479  0.1463  1.1828  0.0139
 3581TIP3   OH210748   1.019   3.852   3.029 -0.0595 -0.0989  0.1605
 3581TIP3    H110749   0.970   3.906   3.090  0.7100  0.3757  0.3707
 3581TIP3    H210750   0.978   3.766   3.035  0.2839 -0.1870  1.6914
 3582TIP3   OH210751   3.555   3.387   0.216 -0.1027  0.2541 -0.1987
 3582TIP3    H110752   3.606   3.308   0.200 -0.1771  0.0938  0.3386
 3582TIP3    H210753   3.618   3.459   0.209 -0.1849  0.2237 -1.4848
 3583TIP3   OH210754   1.614   0.302   0.331  0.4517 -0.3378  0.1650
 3583TIP3    H110755   1.681   0.368   0.347 -0.8544  1.1158 -0.1548
 3583TIP3    H210756   1.573   0.288   0.417  0.1787 -0.1208  0.0697
 3584TIP3   OH210757   5.921   0.199   4.314 -0.5801 -0.3544  0.3628
 3584TIP3    H110758   5.881   0.138   4.251  0.0525  0.2994 -0.6978
 3584TIP3    H210759   5.859   0.272   4.319 -0.2369 -0.0178 -0.1642
 3585TIP3   OH210760   1.384   4.765   4.587  0.2969  0.1258 -0.0990
 3585TIP3    H110761   1.320   4.718   4.533  0.6673 -0.7235  0.1851
 3585TIP3    H210762   1.331   4.806   4.655  0.0659 -0.8123  0.3056
 3586TIP3   OH210763   2.208   3.644   4.021 -0.2991 -0.1444 -0.0530
 3586TIP3    H110764   2.212   3.673   4.112 -0.9773 -0.4801  0.0905
 3586TIP3    H210765   2.174   3.720   3.974 -2.2716 -0.7190  0.3550
 3587TIP3   OH210766   1.862   5.988   2.788 -0.4899  0.2050 -0.1046
 3587TIP3    H110767   1.848   5.961   2.879 -1.3290  1.6930  0.2402
 3587TIP3    H210768   1.776   6.014   2.757 -0.0806  0.4005 -1.1034
 3588TIP3   OH210769   1.812   5.512   3.220 -0.0741  0.3852 -0.1210
 3588TIP3    H110770   1.801   5.508   3.315  1.4092 -1.0316  0.0227
 3588TIP3    H210771   1.905   5.527   3.207 -0.4769  2.1494 -1.3711
 3589TIP3   OH210772   5.716   3.541   4.420  0.0890 -0.2968 -0.2538
 3589TIP3    H110773   5.729   3.456   4.461 -1.1168 -0.4228 -0.0808
 3589TIP3    H210774   5.669   3.522   4.339 -0.4487  0.2144 -0.0745
 3590TIP3   OH210775   0.482   5.452   4.361 -0.4482  0.2935 -0.1639
 3590TIP3    H110776   0.395   5.420   4.387 -0.2129 -0.6094 -0.4259
 3590TIP3    H210777   0.471   5.546   4.350 -0.9482  0.4772  1.6162
 3591TIP3   OH210778   5.280   5.131   0.047 -0.2835 -0.0972  0.5268
 3591TIP3    H110779   5.253   5.042   0.071 -0.8568 -0.5922 -1.6926
 3591TIP3    H210780   5.347   5.118  -0.020  0.9837  1.1779  1.4897
 3592TIP3   OH210781   0.075   0.010   1.639 -0.2212 -0.0134  0.7058
 3592TIP3    H110782   0.149  -0.021   1.692  0.5741  1.0850  0.2643
 3592TIP3    H210783   0.080   0.105   1.644 -0.5973  0.0956 -0.7133
 3593TIP3   OH210784   2.645   2.817   4.360  0.4725  0.0392  0.2789
 3593TIP3    H110785   2.551   2.799   4.360 -0.0974  2.6156  0.4926
 3593TIP3    H210786   2.677   2.778   4.279 -0.7461 -0.9924  0.2701
 3594TIP3   OH210787   4.024   1.860   1.734 -0.0232  0.2124  0.5764
 3594TIP3    H110788   3.987   1.837   1.649  0.0014 -0.3567  0.7209
 3594TIP3    H210789   3.982   1.943   1.756  0.9016  1.0226 -0.5727
 3595TIP3   OH210790   1.796   3.087   0.627  0.0039  0.0241  0.6320
 3595TIP3    H110791   1.818   3.158   0.687 -0.5903  0.4066  0.4062
 3595TIP3    H210792   1.862   3.020   0.644  0.9417  0.8708  0.4138
 3596TIP3   OH210793   1.332   4.404   4.100  0.2936 -0.2874 -0.1474
 3596TIP3    H110794   1.237   4.419   4.100 -0.1234 -2.3530  2.0856
 3596TIP3    H210795   1.356   4.400   4.192  2.3805 -0.9316 -0.6630
 3597TIP3   OH210796   5.301   4.229   0.782 -0.2592 -0.0647  0.6422
 3597TIP3    H110797   5.384   4.195   0.748 -0.2920 -0.8362  1.3194
 3597TIP3    H210798   5.327   4.286   0.855 -0.3168 -0.1455  0.7251
 3598TIP3   OH210799   4.341   2.545   4.675 -0.1468 -0.2745  0.1079
 3598TIP3    H110800   4.342   2.576   4.765  0.3624  0.1509 -0.0343
 3598TIP3    H210801   4.310   2.621   4.624  2.1395  0.4144 -0.3731
 3599TIP3   OH210802   5.191   5.822   0.530  0.0255  0.2634 -0.0111
 3599TIP3    H110803   5.172   5.728   0.532  2.9868 -0.4764 -0.9759
 3599TIP3    H210804   5.136   5.859   0.599 -0.5997 -2.3108  0.9947
 3600TIP3   OH210805   1.661   1.858   0.280  0.0257  0.3752  0.1130
 3600TIP3    H110806   1.699   1.914   0.211  0.0560 -1.3640 -1.3559
 3600TIP3    H210807   1.723   1.866   0.352  2.1789 -0.7668 -1.4846
 3601TIP3   OH210808   1.345   0.785   0.792  0.1968  0.5492  0.0598
 3601TIP3    H110809   1.344   0.780   0.887  0.9402  1.3315  0.1162
 3601TIP3    H210810   1.381   0.701   0.764 -0.0497  0.3080  0.4650
 3602TIP3   OH210811   4.954   0.662   5.012  0.2951 -0.4345  0.1412
 3602TIP3    H110812   4.868   0.647   5.051 -0.9718  2.2919 -1.3009
 3602TIP3    H210813   4.951   0.753   4.981  2.0214 -1.5193 -3.9290
 3603TIP3   OH210814   0.030   3.305   2.277 -0.6310 -0.0244  0.3414
 3603TIP3    H110815  -0.056   3.265   2.289 -0.0790 -1.2887  0.2728
 3603TIP3    H210816   0.076   3.289   2.359 -0.1417 -0.2016  0.0423
 3604TIP3   OH210817   4.231   2.511   5.118 -0.2834 -0.5299  0.4860
 3604TIP3    H110818   4.291   2.441   5.091  1.3938  1.1847 -0.4974
 3604TIP3    H210819   4.172   2.522   5.043 -0.3465 -0.6601  0.5157
 3605TIP3   OH210820   4.940   5.566   0.882  0.3140  0.0582 -0.2949
 3605TIP3    H110821   4.924   5.494   0.821 -1.3416 -0.3487  0.5672
 3605TIP3    H210822   4.937   5.526   0.969 -0.2223  1.0899  0.1794
 3606TIP3   OH210823   3.919   2.072   0.212 -1.2588  0.2215 -0.7385
 3606TIP3    H110824   3.988   2.050   0.149  1.3240 -0.7107  2.1677
 3606TIP3    H210825   3.849   2.009   0.194 -0.8141  0.2387 -2.8429
 3607TIP3   OH210826   6.207   1.372   3.491 -0.5888 -0.5154  0.6193
 3607TIP3    H110827   6.217   1.410   3.404  0.8705  1.7887  1.6893
 3607TIP3    H210828   6.114   1.383   3.512 -0.6304  0.4417 -0.0105
 3608TIP3   OH210829   3.142   3.119   2.663 -0.0345  0.3856 -0.0666
 3608TIP3    H110830   3.116   3.129   2.754  1.8822 -2.0467  0.8708
 3608TIP3    H210831   3.076   3.060   2.626 -0.4477  0.8442 -0.0613
 3609TIP3   OH210832   4.582   1.185   2.866 -0.0569 -0.3784  0.0274
 3609TIP3    H110833   4.581   1.096   2.831 -1.8253 -0.5624  0.4348
 3609TIP3    H210834   4.549   1.239   2.795  2.5649  0.2636 -0.8089
 3610TIP3   OH210835   3.950   3.429   1.349 -1.0080 -0.0489  0.4427
 3610TIP3    H110836   4.019   3.409   1.286  0.4569 -0.7483  2.1670
 3610TIP3    H210837   3.920   3.516   1.326  1.0575  0.6345  0.1225
 3611TIP3   OH210838   3.844   1.187   1.585 -0.1172 -0.7749  0.5816
 3611TIP3    H110839   3.883   1.102   1.606  2.6830  0.0615 -0.7752
 3611TIP3    H210840   3.848   1.192   1.490 -0.3603  0.7994  0.6280
 3612TIP3   OH210841   3.446   2.774   0.258  0.4467 -0.1570 -0.6626
 3612TIP3    H110842   3.383   2.809   0.195 -1.6679 -0.2123  1.2844
 3612TIP3    H210843   3.486   2.852   0.297 -1.3056  0.0978  0.7886
 3613TIP3   OH210844   4.793   1.045   4.397 -0.3940 -0.1812 -0.5202
 3613TIP3    H110845   4.886   1.068   4.401 -0.1491 -1.2395  0.1100
 3613TIP3    H210846   4.790   0.958   4.357 -0.8723 -1.3150  1.7973
 3614TIP3   OH210847   0.077   4.651   2.136 -0.1632 -0.6238  0.3307
 3614TIP3    H110848  -0.014   4.664   2.109  0.5990  1.1331 -1.6059
 3614TIP3    H210849   0.089   4.710   2.210 -0.4850 -0.5486  0.3234
 3615TIP3   OH210850   4.423   0.967   1.690 -0.0799 -0.7434  0.1944
 3615TIP3    H110851   4.373   0.950   1.610 -1.6393 -1.2039  1.2007
 3615TIP3    H210852   4.485   1.035   1.667 -0.3620 -1.0103 -1.4485
 3616TIP3   OH210853   0.925   2.230   3.647 -0.0898 -0.0833 -0.0367
 3616TIP3    H110854   0.842   2.234   3.600 -0.6372  0.0250  0.9135
 3616TIP3    H210855   0.986   2.190   3.585 -0.6254  0.6581 -1.0609
 3617TIP3   OH210856   1.355   2.872   3.228 -0.2003  0.1034  0.3911
 3617TIP3    H110857   1.357   2.779   3.206 -0.5532  0.4356 -1.2171
 3617TIP3    H210858   1.446   2.901   3.215 -0.2175  0.1024  0.2626
 3618TIP3   OH210859   5.971   2.158   3.067  0.0034 -0.0440 -0.7338
 3618TIP3    H110860   5.932   2.178   2.982 -1.9792 -1.5643 -0.2342
 3618TIP3    H210861   5.919   2.209   3.129 -0.6869 -1.4240 -0.1443
 3619TIP3   OH210862   3.090   2.554   0.860 -0.7191 -0.7344  0.0455
 3619TIP3    H110863   3.041   2.632   0.835  1.4982  0.9078  0.4846
 3619TIP3    H210864   3.060   2.533   0.948  0.5059  1.3226  1.0231
 3620TIP3   OH210865   4.617   5.262   1.300  0.3396  0.0456  0.0088
 3620TIP3    H110866   4.611   5.351   1.263 -0.9530  0.4942  1.2258
 3620TIP3    H210867   4.648   5.208   1.227 -2.1670  0.8839 -1.8215
 3621TIP3   OH210868   1.237   2.126   4.401 -0.2949  0.4303  0.3631
 3621TIP3    H110869   1.168   2.156   4.342 -1.0511  1.5127  1.7481
 3621TIP3    H210870   1.316   2.171   4.369 -0.5435  0.4509 -0.2400
 3622TIP3   OH210871   5.010   1.059   2.806 -0.3984  0.3161 -0.3860
 3622TIP3    H110872   5.090   1.105   2.830 -0.0805  0.0840 -0.9566
 3622TIP3    H210873   4.962   1.121   2.751  0.7149 -0.4756 -2.3973
 3623TIP3   OH210874   2.634   1.083   0.259 -0.4193  0.2423 -0.2848
 3623TIP3    H110875   2.543   1.104   0.239 -0.6639 -0.1240  0.4100
 3623TIP3    H210876   2.673   1.062   0.174 -0.9266  0.5966 -0.6115
 3624TIP3   OH210877   0.925   3.750   2.246  0.0663  0.0434 -0.0477
 3624TIP3    H110878   0.876   3.668   2.250 -0.7307  0.5678  1.8287
 3624TIP3    H210879   0.866   3.810   2.199  0.0110 -0.0329 -0.0771
 3625TIP3   OH210880   2.604   4.197   5.149 -0.1649  0.5123 -0.4838
 3625TIP3    H110881   2.588   4.153   5.233 -1.0740  3.3436  0.9706
 3625TIP3    H210882   2.533   4.167   5.093 -2.3717  2.0456  1.3220
 3626TIP3   OH210883   1.221   2.151   5.120 -0.4143  0.1857  0.0288
 3626TIP3    H110884   1.304   2.106   5.132 -0.5937 -0.5074 -1.1458
 3626TIP3    H210885   1.165   2.118   5.190  0.5670  1.3700  1.4042
 3627TIP3   OH210886   3.966   0.389   2.698  0.0822 -0.0932  0.2652
 3627TIP3    H110887   3.970   0.351   2.611  1.3347  3.1781 -1.2645
 3627TIP3    H210888   3.874   0.383   2.723 -1.0330  1.8454 -2.8367
 3628TIP3   OH210889   3.685   1.446   2.280  0.1271  0.2868  0.4365
 3628TIP3    H110890   3.675   1.426   2.187 -0.9902  1.7307  0.2059
 3628TIP3    H210891   3.699   1.361   2.322 -0.0383 -0.4559 -0.9627
 3629TIP3   OH210892   2.275   5.167   2.044 -0.7141 -0.0903 -0.3828
 3629TIP3    H110893   2.327   5.243   2.018 -0.3059 -0.2555 -0.0688
 3629TIP3    H210894   2.224   5.144   1.966 -1.5618  1.0807 -0.2018
 3630TIP3   OH210895   4.964   4.611   2.405  0.2187  0.1556  0.4003
 3630TIP3    H110896   4.886   4.645   2.361  1.0250  2.2232  0.4640
 3630TIP3    H210897   4.936   4.527   2.441 -1.0818 -0.6772 -2.2380
 3631TIP3   OH210898   4.416   3.744   1.676  0.5281 -0.3594  0.0039
 3631TIP3    H110899   4.471   3.668   1.693 -0.3956 -1.1124 -0.3347
 3631TIP3    H210900   4.336   3.709   1.638  0.1988  0.8044 -0.4398
 3632TIP3   OH210901   0.490   0.451   3.137 -0.0504 -0.2229 -0.5465
 3632TIP3    H110902   0.447   0.458   3.222  0.5776  1.0155 -0.3013
 3632TIP3    H210903   0.578   0.485   3.152 -0.4457  1.6354 -2.0273
 3633TIP3   OH210904   0.872   4.208   3.183  0.2249 -0.0046 -0.2947
 3633TIP3    H110905   0.906   4.273   3.245 -0.6047  0.8390 -0.7062
 3633TIP3    H210906   0.939   4.204   3.114  0.1737  0.5946 -0.3889
 3634TIP3   OH210907   5.119   1.444   0.378  0.2250 -0.1806 -0.3373
 3634TIP3    H110908   5.065   1.522   0.388 -0.8065 -0.6889 -1.5749
 3634TIP3    H210909   5.191   1.471   0.322  0.4484  0.1356  0.0993
 3635TIP3   OH210910   1.093   4.573   2.159 -0.2346 -0.6242 -0.0236
 3635TIP3    H110911   1.124   4.634   2.092  1.1585  0.3168  1.4011
 3635TIP3    H210912   1.162   4.573   2.225 -1.8110 -1.0448  1.7155
 3636TIP3   OH210913   2.976   1.146   3.638  0.2552  0.0803  0.6613
 3636TIP3    H110914   3.018   1.228   3.663  0.5445  0.0218  0.3800
 3636TIP3    H210915   2.944   1.161   3.549 -0.4143  0.1576  0.9096
 3637TIP3   OH210916   5.329   3.583   2.081 -0.0148 -0.3783 -0.1366
 3637TIP3    H110917   5.286   3.668   2.088  2.1383  0.7197  0.5103
 3637TIP3    H210918   5.359   3.579   1.990 -0.0144 -0.4083 -0.1353
 3638TIP3   OH210919   4.593   2.317   1.661  0.2842 -0.3940  0.3747
 3638TIP3    H110920   4.572   2.404   1.626 -1.2156 -0.0503  1.9821
 3638TIP3    H210921   4.508   2.275   1.672  0.8085 -1.1106  1.9346
 3639TIP3   OH210922   2.762   3.200   5.123 -0.0702  0.4410  0.2251
 3639TIP3    H110923   2.748   3.213   5.216 -0.7353  2.5299 -0.1070
 3639TIP3    H210924   2.675   3.209   5.084  0.5158  2.0883 -0.7968
 3640TIP3   OH210925   2.593   4.163   0.238 -0.0656 -0.3392  0.1302
 3640TIP3    H110926   2.644   4.083   0.247  0.4861 -0.0479 -0.2839
 3640TIP3    H210927   2.517   4.151   0.295 -0.4344 -1.4970 -0.5824
 3641TIP3   OH210928   3.208   3.484   4.099 -1.0307 -0.2541 -0.4898
 3641TIP3    H110929   3.299   3.500   4.126 -1.4298 -0.3697  1.0480
 3641TIP3    H210930   3.192   3.392   4.120 -1.9127  0.1254  0.6034
 3642TIP3   OH210931   2.319   2.212   1.233  0.3028 -0.7934 -0.6874
 3642TIP3    H110932   2.404   2.248   1.209  0.3787  0.1628  0.8973
 3642TIP3    H210933   2.308   2.233   1.326 -3.6759  3.3578 -1.7350
 3643TIP3   OH210934   1.898   3.741   0.632  0.6759  0.2565  0.5183
 3643TIP3    H110935   1.925   3.649   0.630 -1.2709 -0.3375 -0.9717
 3643TIP3    H210936   1.859   3.752   0.719  1.1786 -0.2373  0.8138
 3644TIP3   OH210937   2.865   0.192   3.287  0.1857 -0.1384 -0.2515
 3644TIP3    H110938   2.946   0.195   3.338  0.7755  0.4761 -1.1996
 3644TIP3    H210939   2.855   0.280   3.251 -2.3100  0.6188  1.9111
 3645TIP3   OH210940   4.038   0.405   4.717  0.1108 -0.0730  0.1014
 3645TIP3    H110941   4.083   0.431   4.637 -0.0323 -0.4390 -0.0963
 3645TIP3    H210942   3.945   0.412   4.697  0.0750  0.1299  0.3316
 3646TIP3   OH210943   3.382   0.560   3.943  0.6572 -0.2658  0.4368
 3646TIP3    H110944   3.402   0.562   4.037 -0.1675 -3.6704  0.8212
 3646TIP3    H210945   3.464   0.583   3.901  0.8714  2.0473  1.9164
 3647TIP3   OH210946   4.511   0.889   2.037  0.2465  0.1092  0.2507
 3647TIP3    H110947   4.539   0.813   2.088 -0.8679 -0.4668  0.0309
 3647TIP3    H210948   4.500   0.855   1.948  2.0800  1.0765 -0.4008
 3648TIP3   OH210949   2.143   2.550   0.303  0.1024 -0.1939  0.1236
 3648TIP3    H110950   2.150   2.646   0.307  1.0463 -0.1569 -1.4765
 3648TIP3    H210951   2.050   2.534   0.284 -0.0260  0.4122  0.2094
 3649TIP3   OH210952   1.051   2.431   1.505 -0.0230 -0.2247  0.0688
 3649TIP3    H110953   1.061   2.370   1.578 -1.1161 -0.2970  0.1793
 3649TIP3    H210954   1.135   2.477   1.501 -0.1073  0.1678  1.7448
 3650TIP3   OH210955   4.177   4.417   0.132 -0.3784 -0.1990  0.5228
 3650TIP3    H110956   4.150   4.356   0.200 -0.0462 -0.2900  0.5738
 3650TIP3    H210957   4.094   4.449   0.095 -0.5730  0.3261  1.3806
 3651TIP3   OH210958   4.589   4.164   5.033 -0.0051  0.5219 -0.0655
 3651TIP3    H110959   4.564   4.232   4.970  0.7094  0.0559 -0.8768
 3651TIP3    H210960   4.678   4.139   5.007 -0.4197 -1.0427 -0.0880
 3652TIP3   OH210961   3.743   3.959   4.244  0.2066 -0.0397  0.3029
 3652TIP3    H110962   3.734   3.993   4.333  3.1620 -2.4020  1.6639
 3652TIP3    H210963   3.795   4.024   4.198  0.2209  0.3560  0.8747
 3653TIP3   OH210964   4.254   5.289   0.887  0.0140 -0.6436 -0.6712
 3653TIP3    H110965   4.258   5.304   0.981  0.4534 -0.0248 -0.7846
 3653TIP3    H210966   4.173   5.331   0.860  0.5751  0.4057 -0.7771
 3654TIP3   OH210967   3.884   4.868   5.117 -0.0832 -0.0214  0.0945
 3654TIP3    H110968   3.926   4.808   5.056 -1.3441 -0.7694 -0.0692
 3654TIP3    H210969   3.913   4.955   5.089  0.6277 -0.4580 -0.5531
 3655TIP3   OH210970   2.390  -0.014   1.585 -0.3211  0.2071 -0.1726
 3655TIP3    H110971   2.399   0.081   1.582 -0.4289  0.1967 -0.8776
 3655TIP3    H210972   2.296  -0.029   1.574  0.0202 -0.1053 -4.2683
 3656TIP3   OH210973   3.631   0.593   2.891 -0.1999  0.1620  0.0046
 3656TIP3    H110974   3.682   0.614   2.969 -0.8191 -0.5203  0.6102
 3656TIP3    H210975   3.675   0.516   2.854 -1.0313 -0.7140  0.7882
 3657TIP3   OH210976   4.815   1.109   4.044  0.2452  0.0934  0.6382
 3657TIP3    H110977   4.838   1.016   4.039 -1.0109 -0.2014 -0.2141
 3657TIP3    H210978   4.895   1.155   4.016  0.0265 -0.8680 -1.8893
 3658TIP3   OH210979   3.515   2.118   3.419 -0.1957 -0.0577  0.4376
 3658TIP3    H110980   3.422   2.102   3.404 -0.0391  0.3998 -1.3225
 3658TIP3    H210981   3.560   2.050   3.368  0.4107  2.4031 -2.6331
 3659TIP3   OH210982   1.279   5.686   3.850 -0.2169 -0.1991  0.1360
 3659TIP3    H110983   1.200   5.688   3.904 -0.4763 -1.2990 -0.1793
 3659TIP3    H210984   1.276   5.769   3.802 -1.3019 -0.3119 -0.0348
 3660TIP3   OH210985   3.730   2.919   5.037  0.0054  0.0398 -0.5448
 3660TIP3    H110986   3.671   2.903   5.112  0.7382 -1.1568 -0.2017
 3660TIP3    H210987   3.713   3.010   5.013 -2.3088 -0.3640 -0.7347
 3661TIP3   OH210988   0.271   2.415   3.868 -0.2669  0.1903 -0.3369
 3661TIP3    H110989   0.260   2.389   3.777 -1.1347 -1.3964  0.1865
 3661TIP3    H210990   0.264   2.334   3.918  1.1733  0.8789  1.0957
 3662TIP3   OH210991   0.815   4.271   1.093  0.1450  0.6289  0.6207
 3662TIP3    H110992   0.767   4.234   1.167 -0.7298  1.2547  0.3868
 3662TIP3    H210993   0.874   4.336   1.132 -2.0704  2.7820  0.6314
 3663TIP3   OH210994   5.394   1.898   5.056 -0.1234  0.2238  0.2104
 3663TIP3    H110995   5.410   1.813   5.015  1.1774 -0.4100  1.8851
 3663TIP3    H210996   5.474   1.915   5.106 -0.4003  2.4094 -0.0082
 3664TIP3   OH210997   1.174   5.608   3.619  0.1263 -0.0317 -0.0761
 3664TIP3    H110998   1.214   5.610   3.706  0.1901  0.3184 -0.1091
 3664TIP3    H210999   1.081   5.626   3.635  0.1944  0.3654 -0.1065
 3665TIP3   OH211000   5.370   4.285   3.459  0.1928  0.1737 -0.3613
 3665TIP3    H111001   5.297   4.311   3.403  1.0435  0.3982 -1.3991
 3665TIP3    H211002   5.407   4.367   3.491 -0.2373  0.0510  0.5069
 3666TIP3   OH211003   4.685   4.767   3.604  0.0189 -0.3214  0.2522
 3666TIP3    H111004   4.653   4.847   3.562  2.9849 -0.6079 -3.0017
 3666TIP3    H211005   4.631   4.697   3.568 -0.8387 -0.0940  1.0521
 3667TIP3   OH211006   5.175   5.884   1.150 -0.3859 -0.1602  0.1917
 3667TIP3    H111007   5.267   5.861   1.165 -0.7015 -0.4870  1.8602
 3667TIP3    H211008   5.126   5.808   1.183 -1.2751  0.3105 -0.0264
 3668TIP3   OH211009   5.867   4.834   3.405 -0.1955  0.1353 -0.3843
 3668TIP3    H111010   5.820   4.841   3.322 -0.5927  1.8958 -0.0543
 3668TIP3    H211011   5.853   4.743   3.433 -2.2143  0.1942 -1.0166
 3669TIP3   OH211012   4.100   2.209   2.122  0.3574 -0.5643  0.1057
 3669TIP3    H111013   4.057   2.283   2.165  0.7018 -0.8067  0.8738
 3669TIP3    H211014   4.191   2.213   2.150  0.8172 -0.1752 -1.3577
 3670TIP3   OH211015   2.206   5.621   1.210 -0.6386  0.4139  0.5787
 3670TIP3    H111016   2.287   5.666   1.187 -0.7874  1.4360  1.8874
 3670TIP3    H211017   2.197   5.552   1.145 -0.0377  1.8679 -1.1411
 3671TIP3   OH211018   6.381   5.276   0.477  0.1163  0.1514  0.1414
 3671TIP3    H111019   6.327   5.226   0.538 -0.0166  2.1579  1.8020
 3671TIP3    H211020   6.318   5.317   0.418  0.0762 -0.0708  0.0294
 3672TIP3   OH211021   1.883   5.336   1.506  0.2691 -0.5496 -0.1531
 3672TIP3    H111022   1.973   5.308   1.522  0.3073 -0.5449 -0.3611
 3672TIP3    H211023   1.866   5.400   1.575  0.3584 -0.6960  0.0055
 3673TIP3   OH211024   5.292   0.977   0.713 -0.1791  0.2499  0.4242
 3673TIP3    H111025   5.288   0.884   0.691  2.3333  0.3636 -0.7615
 3673TIP3    H211026   5.268   1.022   0.632  0.1227  0.6420  0.5477
 3674TIP3   OH211027   0.945   0.829   1.570  0.5774 -0.3002 -0.4164
 3674TIP3    H111028   0.919   0.746   1.610  0.4039 -0.7356 -1.4128
 3674TIP3    H211029   1.009   0.806   1.504  1.0131  0.4357 -0.2680
 3675TIP3   OH211030   0.880   1.502   1.912 -0.0600 -0.2216 -0.4859
 3675TIP3    H111031   0.929   1.525   1.833  0.3824  1.2858  0.1746
 3675TIP3    H211032   0.789   1.500   1.885  0.1998 -1.3253 -1.3590
 3676TIP3   OH211033   0.495   3.281   4.747  0.1468 -0.1754  0.2450
 3676TIP3    H111034   0.522   3.239   4.829  2.1081  0.6691  0.0921
 3676TIP3    H211035   0.419   3.230   4.718  1.8934 -3.1665  0.4539
 3677TIP3   OH211036   4.004   3.637   3.826  0.2675 -0.0070  0.0228
 3677TIP3    H111037   4.026   3.722   3.788  0.6046 -0.5340 -1.0083
 3677TIP3    H211038   4.051   3.574   3.771 -1.2727 -0.9712 -0.2552
 3678TIP3   OH211039   2.008   0.378   3.150 -0.7613  0.0392  0.8002
 3678TIP3    H111040   2.053   0.366   3.233 -1.3464 -0.5613  1.0381
 3678TIP3    H211041   1.977   0.290   3.126  0.7634 -0.1177 -0.8577
 3679TIP3   OH211042   4.966   4.910   2.844 -0.2159  0.5546 -0.2208
 3679TIP3    H111043   4.977   4.855   2.766  2.7350 -2.3823  1.9727
 3679TIP3    H211044   4.873   4.901   2.867 -0.4745 -1.0047 -1.6994
 3680TIP3   OH211045   2.348   3.745   3.275  0.4426  0.7722  0.0396
 3680TIP3    H111046   2.270   3.786   3.312  0.5339 -0.1537  1.3001
 3680TIP3    H211047   2.324   3.726   3.184 -0.6696  0.8210  0.3088
 3681TIP3   OH211048   0.071   1.317   2.906 -0.4796 -0.5644  0.5241
 3681TIP3    H111049  -0.024   1.306   2.908 -0.7328  1.2881  0.6853
 3681TIP3    H211050   0.090   1.380   2.975  0.9896 -1.5117  1.0404
 3682TIP3   OH211051   2.412   0.722   3.750 -0.2450  0.3731  0.1095
 3682TIP3    H111052   2.498   0.683   3.738 -1.0935 -1.8117  0.6693
 3682TIP3    H211053   2.403   0.783   3.677  1.4960  0.1795 -0.3121
 3683TIP3   OH211054   3.817   4.485   1.924  1.2260 -0.4013 -0.3102
 3683TIP3    H111055   3.782   4.525   2.003  2.1289  0.6685 -0.4219
 3683TIP3    H211056   3.760   4.517   1.854  1.4841  0.0929 -0.3005
 3684TIP3   OH211057   5.690   3.493   1.212 -0.0887  0.4937 -0.4934
 3684TIP3    H111058   5.685   3.493   1.116 -3.8370 -1.0791 -0.4591
 3684TIP3    H211059   5.622   3.555   1.239  0.2718  0.1984  1.1592
 3685TIP3   OH211060   1.379   3.168   0.341 -0.3344  0.6246  0.0791
 3685TIP3    H111061   1.421   3.095   0.294  0.2898  1.0082  0.0277
 3685TIP3    H211062   1.412   3.246   0.297 -2.1723  0.9179 -0.8572
 3686TIP3   OH211063   1.676   2.345   4.330  0.3403 -0.0536 -0.9312
 3686TIP3    H111064   1.731   2.267   4.320 -0.1731 -0.7470  1.1972
 3686TIP3    H211065   1.591   2.320   4.294 -0.5162 -1.3643  1.7451
 3687TIP3   OH211066   3.674   5.026   4.624 -0.0783 -0.1861 -0.1246
 3687TIP3    H111067   3.684   5.023   4.719 -1.1212  1.7770  0.0972
 3687TIP3    H211068   3.663   5.119   4.604 -0.7733 -0.6427 -2.0814
 3688TIP3   OH211069   1.435   0.604   1.396 -0.0319  0.2585  0.4735
 3688TIP3    H111070   1.398   0.692   1.400  1.0018  0.7506 -0.2963
 3688TIP3    H211071   1.502   0.603   1.464 -0.9624 -0.4115  1.4143
 3689TIP3   OH211072   3.569   5.409   3.080 -0.1426 -0.0265 -0.0884
 3689TIP3    H111073   3.638   5.475   3.082 -0.0282 -0.0582 -1.8559
 3689TIP3    H211074   3.519   5.425   3.161  1.8824 -0.0036  1.2394
 3690TIP3   OH211075   5.451   5.616   4.708  0.0988  0.1466  0.0668
 3690TIP3    H111076   5.503   5.539   4.732  1.2282  1.2377  1.2600
 3690TIP3    H211077   5.465   5.626   4.614 -0.4802 -1.3716 -0.2176
 3691TIP3   OH211078   3.311   3.039   4.871 -0.4530  0.0119  0.2649
 3691TIP3    H111079   3.269   2.991   4.800  1.4049 -0.6763 -0.4119
 3691TIP3    H211080   3.330   2.973   4.937 -1.3837  0.5044  1.0516
 3692TIP3   OH211081   6.154   1.136   0.885  0.7624  0.2260 -0.1684
 3692TIP3    H111082   6.167   1.225   0.851  0.6168  0.1595 -0.3954
 3692TIP3    H211083   6.147   1.148   0.980 -1.3996  0.7058 -0.3547
 3693TIP3   OH211084   0.491   4.697   1.036  0.2109  0.1905  0.0933
 3693TIP3    H111085   0.506   4.630   1.103 -0.3864  0.0856  0.1242
 3693TIP3    H211086   0.415   4.666   0.988 -0.4487  1.1594  0.4968
 3694TIP3   OH211087   3.260   2.600   4.602 -0.0396 -0.4074  0.4603
 3694TIP3    H111088   3.242   2.549   4.523  0.8724 -2.4249  1.4776
 3694TIP3    H211089   3.355   2.596   4.612 -0.0333  0.7451  1.1049
 3695TIP3   OH211090   5.122   0.487   2.172 -0.2641  0.2421  0.5820
 3695TIP3    H111091   5.197   0.428   2.168 -1.0094 -0.7094 -0.1313
 3695TIP3    H211092   5.109   0.504   2.265  0.1506 -0.5125  0.7888
 3696TIP3   OH211093   6.219   2.791   2.408 -0.5870 -0.5756  0.0357
 3696TIP3    H111094   6.231   2.728   2.479 -0.4477  0.6276  1.1295
 3696TIP3    H211095   6.308   2.820   2.386 -0.7494  0.7203  0.9723
 3697TIP3   OH211096   3.967   4.660   2.473  0.0989 -0.5102  0.2006
 3697TIP3    H111097   4.060   4.670   2.493 -0.0002 -1.0851  1.0218
 3697TIP3    H211098   3.959   4.571   2.439 -0.5678 -1.7020  3.0994
 3698TIP3   OH211099   4.684   4.345   3.163 -0.6176  0.6687 -0.2544
 3698TIP3    H111100   4.755   4.313   3.107 -1.7116  1.1891 -2.0205
 3698TIP3    H211101   4.728   4.384   3.238  0.9902  1.4600 -1.5521
 3699TIP3   OH211102   0.695   2.981   4.062  0.0665 -0.2164  0.1951
 3699TIP3    H111103   0.715   3.009   3.973 -1.5157  0.7816  0.1115
 3699TIP3    H211104   0.709   3.059   4.115  0.0415 -0.5342  0.6705
 3700TIP3   OH211105   0.883   1.373   4.886  0.0010  0.5066  0.2386
 3700TIP3    H111106   0.881   1.293   4.937 -1.8463 -0.2449 -0.8969
 3700TIP3    H211107   0.897   1.443   4.950  1.5217 -0.6876  1.2559
 3701TIP3   OH211108   0.968   0.232   0.601 -0.5001 -0.0978 -0.0317
 3701TIP3    H111109   1.019   0.204   0.677 -0.1168 -0.7523 -0.5168
 3701TIP3    H211110   0.976   0.327   0.600  1.2315 -0.2196 -0.4383
 3702TIP3   OH211111   2.199   5.594   1.986 -0.2343 -0.3327 -0.1935
 3702TIP3    H111112   2.193   5.544   1.905  0.4469 -0.5899 -0.0858
 3702TIP3    H211113   2.209   5.528   2.055  3.0615 -0.0562 -0.2497
 3703TIP3   OH211114   2.256   1.791   3.579 -0.2529 -0.3950  0.9850
 3703TIP3    H111115   2.331   1.796   3.519 -2.3949 -1.2459 -1.9872
 3703TIP3    H211116   2.273   1.713   3.632  0.3987 -1.3635 -0.5629
 3704TIP3   OH211117   0.467   0.985   3.591  0.0923 -0.1513 -0.2101
 3704TIP3    H111118   0.391   0.934   3.563 -0.3035  0.1932  0.2200
 3704TIP3    H211119   0.528   0.979   3.518  1.1723 -3.4283  0.7787
 3705TIP3   OH211120   0.113   0.495   2.152  0.2724 -0.3028 -0.3588
 3705TIP3    H111121   0.130   0.403   2.174  1.1449  0.0135  0.3411
 3705TIP3    H211122   0.200   0.535   2.148 -0.1603  0.9406  1.3796
 3706TIP3   OH211123   0.464   4.791   3.414 -0.6779 -0.0445  0.5732
 3706TIP3    H111124   0.528   4.776   3.345  0.3561 -0.4692  1.6012
 3706TIP3    H211125   0.411   4.864   3.382  0.1177  0.1149 -0.4303
 3707TIP3   OH211126   3.903   3.796   0.893 -0.4498  0.3045 -0.5775
 3707TIP3    H111127   3.896   3.872   0.950 -1.6962 -0.9603  1.0467
 3707TIP3    H211128   3.977   3.746   0.928  0.3011  0.6831 -1.5745
 3708TIP3   OH211129   5.388   5.305   2.771  0.2070 -0.6639  0.2285
 3708TIP3    H111130   5.383   5.401   2.773  0.3265 -0.6595  0.4142
 3708TIP3    H211131   5.415   5.284   2.682  0.8238 -0.4891  0.3683
 3709TIP3   OH211132   2.397   1.535   5.018 -0.7220 -0.1256  0.6573
 3709TIP3    H111133   2.417   1.605   4.956 -1.3273 -0.5419 -0.0155
 3709TIP3    H211134   2.452   1.554   5.094  0.2563  0.2150 -0.1177
 3710TIP3   OH211135   5.203   2.765   3.352 -0.2737  0.1781 -0.2848
 3710TIP3    H111136   5.120   2.760   3.304 -0.2057 -0.3449 -0.3560
 3710TIP3    H211137   5.191   2.838   3.413 -0.6370  0.3644 -0.5730
 3711TIP3   OH211138   4.884   1.427   3.999 -0.1077 -0.1668 -0.2601
 3711TIP3    H111139   4.903   1.475   3.918 -2.1733 -1.2464 -1.4583
 3711TIP3    H211140   4.789   1.421   4.002 -0.0271 -1.3043  1.5899
 3712TIP3   OH211141   2.145   0.637   5.130  0.3296  0.1823  0.3077
 3712TIP3    H111142   2.081   0.661   5.197 -0.1759 -0.4004  0.0372
 3712TIP3    H211143   2.093   0.626   5.050  1.1003  2.3601 -0.5641
 3713TIP3   OH211144   0.590   3.644   1.632  0.5525  0.0422 -0.1636
 3713TIP3    H111145   0.616   3.675   1.545  1.1691  1.1253  0.3796
 3713TIP3    H211146   0.552   3.558   1.617 -0.3257  0.6458 -1.6464
 3714TIP3   OH211147   1.905   3.970   2.821  0.6029 -0.1441  0.1757
 3714TIP3    H111148   1.874   4.042   2.766 -0.7146 -1.4627 -0.8701
 3714TIP3    H211149   1.942   4.014   2.898  2.1886  1.7517 -1.5394
 3715TIP3   OH211150   3.242   0.993   2.293 -0.8293  0.2195  0.2369
 3715TIP3    H111151   3.162   0.945   2.315 -0.2492 -0.3002  1.3029
 3715TIP3    H211152   3.309   0.956   2.351  0.0690  1.0143 -0.2596
 3716TIP3   OH211153   5.113   0.735   4.182  0.0091  0.0793 -0.2635
 3716TIP3    H111154   5.178   0.738   4.113 -0.5380 -0.9630 -0.8621
 3716TIP3    H211155   5.075   0.647   4.175 -1.0505  0.4578  0.4373
 3717TIP3   OH211156   0.532   1.094   0.955 -0.5587 -0.4375 -0.1527
 3717TIP3    H111157   0.445   1.103   0.994 -0.1877  2.4309  0.2466
 3717TIP3    H211158   0.592   1.089   1.030 -0.0223  3.0758 -0.1650
 3718TIP3   OH211159   2.569   1.820   0.626 -0.3490  0.5702 -0.0536
 3718TIP3    H111160   2.531   1.747   0.675 -1.1412  1.5939  0.8919
 3718TIP3    H211161   2.572   1.892   0.688  1.9589  0.9279 -0.4742
 3719TIP3   OH211162   0.293   0.386   2.470  0.2981  0.2625  0.6577
 3719TIP3    H111163   0.239   0.315   2.505  1.2760 -0.9639 -0.2379
 3719TIP3    H211164   0.383   0.361   2.493  0.5609  1.9210  1.5272
 3720TIP3   OH211165   5.952   2.201   0.683  0.0474 -0.0596 -0.2241
 3720TIP3    H111166   5.933   2.280   0.632 -1.3618  0.3755  0.8971
 3720TIP3    H211167   6.017   2.229   0.748  0.0091  0.0117 -0.2170
 3721TIP3   OH211168   1.407   1.025   4.266 -0.4314 -0.4326  0.7897
 3721TIP3    H111169   1.488   1.051   4.222 -0.8274 -0.9754 -0.3016
 3721TIP3    H211170   1.338   1.042   4.202 -1.0502 -1.1066  1.2501
 3722TIP3   OH211171   0.197   3.214   3.605 -0.0229  0.0962  0.2191
 3722TIP3    H111172   0.221   3.143   3.545 -0.2062  0.8904 -0.8283
 3722TIP3    H211173   0.239   3.292   3.568  0.0069  0.5801  1.2342
 3723TIP3   OH211174   4.657   0.510   3.392 -0.4524 -0.0776  0.3580
 3723TIP3    H111175   4.622   0.505   3.481 -0.5417  0.2033  0.3402
 3723TIP3    H211176   4.689   0.422   3.374  0.5197  0.1155  1.0503
 3724TIP3   OH211177   5.511   3.633   1.834  0.0597  0.2176  0.1825
 3724TIP3    H111178   5.595   3.609   1.873 -0.9597 -0.8343  1.8154
 3724TIP3    H211179   5.493   3.563   1.771  1.3881  1.5802 -1.8724
 3725TIP3   OH211180   3.834   0.116   2.047  0.1558 -0.3257  0.2148
 3725TIP3    H111181   3.892   0.041   2.053 -2.1857 -2.4862 -1.5849
 3725TIP3    H211182   3.777   0.109   2.124 -0.2773 -0.6452 -0.1252
 3726TIP3   OH211183   3.877   5.220   2.050  0.2174  0.3507  0.1899
 3726TIP3    H111184   3.949   5.225   1.987 -1.6898  0.1276 -2.1919
 3726TIP3    H211185   3.851   5.312   2.063  0.6020  0.3963  0.6235
 3727TIP3   OH211186   2.910   0.685   1.395  0.2482  0.3850  0.1060
 3727TIP3    H111187   2.980   0.624   1.373 -1.1182 -1.0678 -0.3706
 3727TIP3    H211188   2.895   0.733   1.314  1.0643  1.1308  0.3757
 3728TIP3   OH211189   1.122   2.462   5.145 -0.2800  0.3470  0.4696
 3728TIP3    H111190   1.117   2.413   5.227 -0.3088 -0.8912 -0.2430
 3728TIP3    H211191   1.152   2.549   5.170  2.2099 -0.7361  1.5448
 3729TIP3   OH211192   6.306   5.660   3.227  0.5314 -0.2091  0.1232
 3729TIP3    H111193   6.293   5.668   3.133 -0.0876  0.5280  0.2648
 3729TIP3    H211194   6.396   5.689   3.241 -0.3070  2.7290  0.0911
 3730TIP3   OH211195   1.434   0.123   5.187 -0.9168  0.2721  0.2245
 3730TIP3    H111196   1.422   0.070   5.108  0.0564 -0.1283  0.3349
 3730TIP3    H211197   1.515   0.171   5.171 -0.1992 -0.5214  1.3532
 3731TIP3   OH211198   3.893   1.477   5.018 -0.2731  0.9592  0.8714
 3731TIP3    H111199   3.908   1.404   5.078 -2.0348 -0.0541  0.1544
 3731TIP3    H211200   3.870   1.551   5.074 -5.6589 -0.8621  1.5665
 3732TIP3   OH211201   1.663   0.834   2.344 -0.3085 -0.3573  0.3272
 3732TIP3    H111202   1.734   0.825   2.408 -1.4790 -2.4209  1.4185
 3732TIP3    H211203   1.701   0.801   2.263  0.0933 -1.1666  0.8259
 3733TIP3   OH211204   0.906   4.440   0.129 -0.0743 -0.1773  0.0907
 3733TIP3    H111205   0.949   4.521   0.102 -0.9570  1.2456  2.6510
 3733TIP3    H211206   0.835   4.468   0.186 -0.9804 -2.7338  0.3452
 3734TIP3   OH211207   5.780   0.637   1.166  0.1473 -0.1947  0.8140
 3734TIP3    H111208   5.685   0.629   1.171 -0.0154 -0.4985 -1.6416
 3734TIP3    H211209   5.813   0.550   1.186 -0.1790 -0.4093  0.4343
 3735TIP3   OH211210   6.064   0.328   3.888  0.1600  0.4449  0.0316
 3735TIP3    H111211   6.068   0.282   3.972 -0.4363 -1.5018 -0.9262
 3735TIP3    H211212   6.019   0.410   3.907  1.5568  0.8331  1.9029
 3736TIP3   OH211213   1.177   4.866   4.738 -0.0052 -0.2630 -0.4190
 3736TIP3    H111214   1.094   4.913   4.726 -2.1105 -3.3186  0.7184
 3736TIP3    H211215   1.204   4.887   4.827 -0.3897 -0.3719 -0.2718
 3737TIP3   OH211216   1.253   4.767   3.249 -0.4535 -0.5234  0.3663
 3737TIP3    H111217   1.329   4.768   3.191 -0.5283  0.2229  0.2723
 3737TIP3    H211218   1.290   4.774   3.337 -0.4414  0.6299  0.2787
 3738TIP3   OH211219   0.489   5.495   0.396 -0.0715 -0.2346  0.3004
 3738TIP3    H111220   0.536   5.457   0.322 -0.3046  1.1657 -0.6044
 3738TIP3    H211221   0.430   5.559   0.356  0.3473  1.1128  1.7554
 3739TIP3   OH211222   0.942   1.715   1.245  0.1128 -0.7417 -0.7286
 3739TIP3    H111223   0.871   1.737   1.306  1.0998  1.0366 -0.1458
 3739TIP3    H211224   0.905   1.734   1.158 -0.8290 -1.9403 -0.6206
 3740TIP3   OH211225   3.088   4.511   3.924  0.3784  0.0559 -0.3830
 3740TIP3    H111226   3.153   4.477   3.984  0.4197 -0.1310 -0.5325
 3740TIP3    H211227   3.046   4.434   3.886  1.0237  0.1425 -1.3249
 3741TIP3   OH211228   2.171   2.140   4.512  0.2343 -0.3926  0.1614
 3741TIP3    H111229   2.156   2.087   4.590  0.3197 -1.3523 -0.4550
 3741TIP3    H211230   2.172   2.076   4.440  0.4079  0.4442 -0.5900
 3742TIP3   OH211231   0.824   5.748   2.921  0.1503  0.0096 -0.1520
 3742TIP3    H111232   0.868   5.762   3.005  1.0700 -2.2303 -0.1772
 3742TIP3    H211233   0.757   5.682   2.941 -0.9836  0.9416 -0.7993
 3743TIP3   OH211234   0.869   4.899   0.201  0.3556 -0.0004 -0.3621
 3743TIP3    H111235   0.776   4.879   0.197  0.2489  0.5260 -0.5447
 3743TIP3    H211236   0.875   4.992   0.182  0.8695  0.0948  0.2277
 3744TIP3   OH211237   1.856   2.379   4.081 -0.7679 -0.4287 -0.4726
 3744TIP3    H111238   1.832   2.296   4.040  3.5991 -0.7833 -2.9022
 3744TIP3    H211239   1.931   2.357   4.136  0.6700  1.8554 -1.3893
 3745TIP3   OH211240   2.375   1.619   0.701 -0.9589  0.5594 -0.4433
 3745TIP3    H111241   2.345   1.700   0.742 -1.8013 -0.2947  0.6978
 3745TIP3    H211242   2.316   1.552   0.735  0.9637 -0.8753  0.2868
 3746TIP3   OH211243   1.660   1.660   0.608  0.1482 -0.0551  0.4565
 3746TIP3    H111244   1.565   1.662   0.616  0.1491 -0.4125  0.5876
 3746TIP3    H211245   1.692   1.678   0.696  0.2526  3.1084 -0.1387
 3747TIP3   OH211246   2.817   3.664   0.228 -0.2696  0.1791  0.3429
 3747TIP3    H111247   2.883   3.732   0.214 -0.2428  0.1404  0.2806
 3747TIP3    H211248   2.796   3.632   0.140 -0.7594  0.5543  0.3188
 3748TIP3   OH211249   3.224   1.195   3.977  0.7505 -0.0756  0.0257
 3748TIP3    H111250   3.245   1.261   3.911  1.2264 -0.0294  0.2263
 3748TIP3    H211251   3.235   1.111   3.932  0.4708 -0.0303 -0.1305
 3749TIP3   OH211252   0.681   2.618   2.912  0.1495 -0.3811  0.0088
 3749TIP3    H111253   0.761   2.643   2.867 -0.9890  0.9872 -1.3610
 3749TIP3    H211254   0.667   2.685   2.978 -0.9614  0.6436 -1.2064
 3750TIP3   OH211255   1.263   2.054   1.459  0.1066  0.3707 -0.0096
 3750TIP3    H111256   1.341   2.013   1.498 -0.2163 -0.3552 -0.1152
 3750TIP3    H211257   1.297   2.098   1.381  0.4100  0.0619 -0.0554
 3751TIP3   OH211258   4.956   3.662   0.421 -0.0860 -0.0301 -0.1789
 3751TIP3    H111259   4.878   3.709   0.451 -0.4473 -0.4064 -0.5103
 3751TIP3    H211260   4.922   3.595   0.362  0.3551 -1.0932  0.7349
 3752TIP3   OH211261   4.710   1.997   1.825 -0.4625  0.0827 -0.1051
 3752TIP3    H111262   4.762   2.078   1.824 -2.2609  1.3402 -2.0154
 3752TIP3    H211263   4.655   2.004   1.747 -1.0694 -2.7800 -0.0366
 3753TIP3   OH211264   1.722   0.554   5.010 -0.5577  0.2300 -0.7841
 3753TIP3    H111265   1.747   0.467   4.978 -1.7661  0.2703 -1.9593
 3753TIP3    H211266   1.627   0.547   5.023 -0.6363  1.3286 -0.7278
 3754TIP3   OH211267   2.877   0.767   3.960  0.5157  0.4576  0.0380
 3754TIP3    H111268   2.873   0.840   3.898 -1.3690 -0.4813 -1.0411
 3754TIP3    H211269   2.965   0.730   3.948  0.6893  1.1740 -1.0259
 3755TIP3   OH211270   4.306   3.137   3.374 -0.2232 -0.2680  0.1005
 3755TIP3    H111271   4.271   3.075   3.438  1.2360 -0.5938  0.6311
 3755TIP3    H211272   4.349   3.205   3.426 -0.6536  0.4853 -0.5068
 3756TIP3   OH211273   2.204   5.655   4.116 -0.5073 -0.5468 -0.1207
 3756TIP3    H111274   2.149   5.599   4.060  0.2602 -0.6547 -0.7897
 3756TIP3    H211275   2.275   5.684   4.058 -0.2025  0.0934  0.5629
 3757TIP3   OH211276   6.042   0.336   2.764  0.2623 -0.1436  0.0137
 3757TIP3    H111277   6.042   0.423   2.724 -1.2508 -0.0633  0.1233
 3757TIP3    H211278   6.135   0.316   2.778  0.6180  1.9242  1.0000
 3758TIP3   OH211279   1.275   3.315   0.008 -0.3995  0.6225  0.0539
 3758TIP3    H111280   1.300   3.226  -0.014  0.4600  0.8797 -0.0635
 3758TIP3    H211281   1.182   3.310   0.031 -0.1221 -0.4641  0.9928
 3759TIP3   OH211282   0.895   4.752   1.934  0.0008  0.1950  0.0876
 3759TIP3    H111283   0.879   4.660   1.913 -0.9950  0.2986  0.3370
 3759TIP3    H211284   0.813   4.783   1.972  0.1558  1.3202 -0.4349
 3760TIP3   OH211285   1.845   5.219   2.555 -0.2711 -0.8699 -0.2565
 3760TIP3    H111286   1.754   5.218   2.527 -0.0526  3.9424 -2.0402
 3760TIP3    H211287   1.893   5.178   2.483 -0.8773 -2.4236  0.1970
 3761TIP3   OH211288   0.298   1.513   5.163  0.1575 -0.6186  0.3513
 3761TIP3    H111289   0.390   1.529   5.142  0.4576 -2.7772 -0.1503
 3761TIP3    H211290   0.262   1.601   5.181  1.6283  0.5615 -2.0314
 3762TIP3   OH211291   3.836   1.348   4.307  0.2892 -0.5556 -0.2723
 3762TIP3    H111292   3.922   1.307   4.309  0.5290 -0.0445  0.4826
 3762TIP3    H211293   3.847   1.423   4.247  0.0685 -1.1090 -1.0189
 3763TIP3   OH211294   2.932   1.185   3.350  0.0799  0.2117 -0.1325
 3763TIP3    H111295   2.896   1.200   3.263 -0.5556 -1.9241 -0.3039
 3763TIP3    H211296   3.027   1.195   3.339  0.1502 -1.3942 -1.4454
 3764TIP3   OH211297   5.798   2.401   2.439  0.0473 -0.0043  0.3811
 3764TIP3    H111298   5.762   2.326   2.486 -1.4449  0.0822 -0.5714
 3764TIP3    H211299   5.725   2.463   2.432  0.8418  0.9092 -0.1484
 3765TIP3   OH211300   0.650   2.629   2.638  0.7217  0.0249 -0.0460
 3765TIP3    H111301   0.609   2.584   2.712 -1.0721  1.0154 -0.3909
 3765TIP3    H211302   0.731   2.665   2.674  0.4208 -0.4330  1.1460
 3766TIP3   OH211303   5.733   0.091   4.911 -0.0658  0.0197 -0.0307
 3766TIP3    H111304   5.824   0.063   4.912  0.3845  1.3068 -1.3948
 3766TIP3    H211305   5.689   0.028   4.854  0.1905  0.0062 -0.2112
 3767TIP3   OH211306   4.794   2.754   4.549 -0.7310  0.0476  0.5688
 3767TIP3    H111307   4.786   2.673   4.498 -1.5080  0.1874  0.4631
 3767TIP3    H211308   4.888   2.764   4.562 -0.6719 -1.9801  2.3818
 3768TIP3   OH211309   3.491   1.589   4.204 -0.2177 -0.1790  0.2683
 3768TIP3    H111310   3.536   1.547   4.277 -0.3002  0.0611  0.4556
 3768TIP3    H211311   3.453   1.669   4.241  1.2236  0.8573 -0.4334
 3769TIP3   OH211312   4.738   0.206   3.657 -0.0628  0.4992 -0.3059
 3769TIP3    H111313   4.669   0.250   3.706 -0.1966  0.4036 -0.4062
 3769TIP3    H211314   4.707   0.116   3.647 -0.5360  0.7671 -1.4825
 3770TIP3   OH211315   3.015   2.117   4.023  0.0472 -0.7103  0.1492
 3770TIP3    H111316   3.011   2.074   3.937 -1.2147  0.1929 -0.2734
 3770TIP3    H211317   2.936   2.172   4.026  1.5208  1.4776  0.7131
 3771TIP3   OH211318   6.263   0.567   1.438 -0.4865  0.2813  0.1420
 3771TIP3    H111319   6.286   0.486   1.483 -0.1161  0.1757 -0.2335
 3771TIP3    H211320   6.230   0.624   1.507  1.2534  0.5812  0.7787
 3772TIP3   OH211321   0.629   4.667   2.918  0.1999 -0.0886  0.3462
 3772TIP3    H111322   0.629   4.741   2.857  1.2157  0.3363  0.8521
 3772TIP3    H211323   0.550   4.618   2.894 -0.9615  1.5821  0.5502
 3773TIP3   OH211324   1.087   0.006   1.954  0.1575 -0.3468 -0.4032
 3773TIP3    H111325   1.025   0.072   1.985  0.6477  0.3249 -0.8322
 3773TIP3    H211326   1.169   0.027   1.999  0.9293  0.7581 -2.2489
 3774TIP3   OH211327   4.133   0.892   3.267  0.4302 -0.5141 -0.0881
 3774TIP3    H111328   4.135   0.919   3.175  0.7294  2.2097  0.6464
 3774TIP3    H211329   4.200   0.824   3.274 -0.9174 -2.1907 -2.2357
 3775TIP3   OH211330   4.356   0.317   1.948  0.0260 -0.4503  0.2963
 3775TIP3    H111331   4.372   0.235   1.902  0.0395 -0.5305  0.4410
 3775TIP3    H211332   4.340   0.290   2.039 -0.1121 -0.3051  0.3153
 3776TIP3   OH211333   0.339   5.727   1.249 -0.2603 -0.1938  0.3316
 3776TIP3    H111334   0.354   5.658   1.314 -1.0664 -0.4241  0.2914
 3776TIP3    H211335   0.336   5.680   1.166 -1.3196 -0.1904  0.3566
 3777TIP3   OH211336   4.463   0.741   0.386  0.0791  0.0844  0.1842
 3777TIP3    H111337   4.495   0.831   0.397 -0.7239  0.4150 -0.1717
 3777TIP3    H211338   4.383   0.738   0.438 -0.9999  0.1738 -1.4214
 3778TIP3   OH211339   1.344   0.833   4.678 -0.0549 -0.0863  0.2028
 3778TIP3    H111340   1.268   0.835   4.620 -0.1424  0.8593  0.3337
 3778TIP3    H211341   1.309   0.801   4.761 -0.2354  0.0025  0.1626
 3779TIP3   OH211342   1.414   3.130   2.360 -0.0419 -0.3270  0.1169
 3779TIP3    H111343   1.393   3.083   2.280  1.8274 -0.0257 -0.6104
 3779TIP3    H211344   1.396   3.068   2.430 -0.5527 -1.0286 -0.6239
 3780TIP3   OH211345   1.102   5.521   2.715  0.3770  0.3406  0.6562
 3780TIP3    H111346   1.171   5.496   2.776  0.6229 -0.0611  0.2235
 3780TIP3    H211347   1.091   5.615   2.728  1.1473  0.4496  0.5915
 3781TIP3   OH211348   1.155   2.444   4.727 -0.5055  0.3191  0.0109
 3781TIP3    H111349   1.092   2.468   4.659 -0.7129  0.6726  0.3262
 3781TIP3    H211350   1.235   2.422   4.680 -1.0764 -0.8491 -0.4527
 3782TIP3   OH211351   0.289   0.801   3.421 -0.3690  0.9132  0.3261
 3782TIP3    H111352   0.217   0.834   3.475 -0.1614 -0.7292  1.6836
 3782TIP3    H211353   0.327   0.729   3.472  0.7249  0.1784 -1.4135
 3783TIP3   OH211354   0.882   1.900   3.677 -0.3121 -0.2742 -0.6421
 3783TIP3    H111355   0.953   1.936   3.731  0.8000 -0.8080 -1.7272
 3783TIP3    H211356   0.803   1.936   3.717  0.4199 -1.0141  1.6562
 3784TIP3   OH211357   0.043   4.933   3.380  0.4248  0.1827 -1.0295
 3784TIP3    H111358  -0.049   4.926   3.406  1.2138 -0.1348  1.9568
 3784TIP3    H211359   0.048   5.016   3.333 -0.9455  1.5676  1.1058
 3785TIP3   OH211360   3.297   4.871   4.422 -0.1833 -0.3678  0.0705
 3785TIP3    H111361   3.308   4.871   4.517 -3.1902  0.9312  0.5259
 3785TIP3    H211362   3.288   4.779   4.399 -1.6581 -0.5853  1.3990
 3786TIP3   OH211363   3.971   0.325   0.864  0.5725 -0.1787 -0.5524
 3786TIP3    H111364   4.063   0.351   0.864  0.4217  0.3996  0.1740
 3786TIP3    H211365   3.925   0.403   0.896 -0.1001 -0.6663 -0.3203
 3787TIP3   OH211366   3.893   1.209   1.314 -0.2126  0.4021  0.5864
 3787TIP3    H111367   3.863   1.228   1.226  0.6433  0.5530  0.3201
 3787TIP3    H211368   3.963   1.144   1.302  2.6137  3.1935  0.7880
 3788TIP3   OH211369   3.366   0.428   5.165  0.4790 -0.1574 -0.6220
 3788TIP3    H111370   3.324   0.512   5.146 -1.7517 -0.7428  1.2457
 3788TIP3    H211371   3.428   0.447   5.235 -1.3658 -0.2809  1.1367
 3789TIP3   OH211372   2.546   5.066   1.065  0.3851  0.6230  0.2211
 3789TIP3    H111373   2.525   5.120   0.989 -0.1458  1.2677  0.8146
 3789TIP3    H211374   2.582   5.127   1.129 -0.8533  0.4159  1.1548
 3790TIP3   OH211375   4.923   5.678   0.387  0.7377  0.3561 -0.2895
 3790TIP3    H111376   5.012   5.675   0.350  1.4008  2.0305  1.0231
 3790TIP3    H211377   4.933   5.725   0.469 -1.0725 -1.1828  0.9081
 3791TIP3   OH211378   5.095   2.957   2.471  0.1700  0.0536  0.1325
 3791TIP3    H111379   5.076   2.953   2.565 -1.0914 -0.0353 -0.1074
 3791TIP3    H211380   5.116   2.867   2.447 -1.1814 -0.2433  0.0145
 3792TIP3   OH211381   0.269   1.987   5.009  0.3276  0.2855 -0.4047
 3792TIP3    H111382   0.231   2.015   4.926 -0.0344 -2.6936 -1.3782
 3792TIP3    H211383   0.241   1.896   5.018  0.4306  0.4580  2.9767
 3793TIP3   OH211384   4.314   2.282   4.549  0.3280 -0.7983 -0.1883
 3793TIP3    H111385   4.274   2.258   4.465  1.0314  1.4768 -1.2581
 3793TIP3    H211386   4.287   2.373   4.563  0.6071 -0.9776  1.8690
 3794TIP3   OH211387   2.739   2.228   4.058  0.1865  0.4892  0.1421
 3794TIP3    H111388   2.684   2.242   3.980  1.2164  1.0146 -0.5075
 3794TIP3    H211389   2.730   2.309   4.108  0.3207  0.5570  0.0581
 3795TIP3   OH211390   4.767   5.295   3.813  0.0097 -0.6968 -0.3689
 3795TIP3    H111391   4.788   5.236   3.741 -1.3107  0.0449 -1.3927
 3795TIP3    H211392   4.671   5.300   3.813  0.0753  1.0585  0.0189
 3796TIP3   OH211393   4.729   2.269   4.369  0.0111  0.3233 -0.6915
 3796TIP3    H111394   4.688   2.248   4.285  0.4602 -2.0019 -0.3837
 3796TIP3    H211395   4.684   2.214   4.433  0.3998  1.2645  0.4417
 3797TIP3   OH211396   3.739   0.676   4.049  0.6048  0.0500  0.0922
 3797TIP3    H111397   3.775   0.704   4.133  0.5862  0.4754 -0.0369
 3797TIP3    H211398   3.672   0.742   4.028  1.5831  0.7574 -0.9298
 3798TIP3   OH211399   4.462   5.778   2.135  0.5869  0.2016 -0.6647
 3798TIP3    H111400   4.527   5.832   2.181  1.3320  0.0501 -1.4991
 3798TIP3    H211401   4.482   5.791   2.043 -0.3420 -0.1588 -0.9251
 3799TIP3   OH211402   5.508   1.465   3.635 -0.0936 -0.6200 -0.3883
 3799TIP3    H111403   5.556   1.387   3.662 -0.4838 -0.4545  0.8807
 3799TIP3    H211404   5.567   1.511   3.576  0.4912 -1.4222 -0.4404
 3800TIP3   OH211405   2.347   2.768   3.119  0.9210 -0.0289 -0.4850
 3800TIP3    H111406   2.435   2.799   3.139  0.2911  0.6132  1.5262
 3800TIP3    H211407   2.329   2.700   3.184 -0.1104 -0.0562 -0.7748
 3801TIP3   OH211408   1.089   0.919   1.090 -0.2070  0.1184 -0.0298
 3801TIP3    H111409   1.047   0.955   1.012 -1.4723 -0.2039  0.4866
 3801TIP3    H211410   1.103   0.827   1.070  0.3724  0.2477 -0.2413
 3802TIP3   OH211411   1.979   2.137   0.059  0.0306 -0.0773  0.0003
 3802TIP3    H111412   1.954   2.157  -0.031  0.1174  1.6852  0.3135
 3802TIP3    H211413   1.927   2.199   0.112  1.0610 -0.0706  1.0434
 3803TIP3   OH211414   3.992   2.432   2.511 -0.5544  0.5729 -0.0640
 3803TIP3    H111415   4.021   2.516   2.475  0.0112  1.2530  1.8522
 3803TIP3    H211416   3.975   2.378   2.434 -1.1430  2.4976 -1.3740
 3804TIP3   OH211417   1.868   2.020   4.845 -0.6249 -0.6014  0.7161
 3804TIP3    H111418   1.904   1.990   4.761 -1.1737  1.0353 -0.1395
 3804TIP3    H211419   1.775   2.000   4.839 -0.5808 -0.9422  1.1524
 3805TIP3   OH211420   3.391   0.899   0.366  0.5761 -0.3054  0.1985
 3805TIP3    H111421   3.373   0.808   0.343  0.6122 -0.3030  0.1618
 3805TIP3    H211422   3.380   0.947   0.284 -0.5860 -0.1117  0.4447
 3806TIP3   OH211423   2.070   1.825   1.210 -0.5225  0.0415  0.6378
 3806TIP3    H111424   2.052   1.899   1.151  0.2891  0.9538  1.5029
 3806TIP3    H211425   2.010   1.838   1.283 -2.5156 -1.8536 -0.5527
 3807TIP3   OH211426   5.947   1.891   4.878  0.4503 -0.2839  0.1268
 3807TIP3    H111427   6.032   1.846   4.889  1.0604  1.1117  1.5777
 3807TIP3    H211428   5.895   1.861   4.953 -0.1868 -0.7498 -0.4866
 3808TIP3   OH211429  -0.001   4.300   2.737 -0.7911  0.7536  0.2464
 3808TIP3    H111430  -0.024   4.277   2.646 -0.7522 -1.7059  0.7812
 3808TIP3    H211431   0.028   4.391   2.732 -0.1054  0.4780 -2.3278
 3809TIP3   OH211432   3.364   1.511   3.220 -0.3092 -0.6063 -0.1158
 3809TIP3    H111433   3.294   1.574   3.202 -1.3500 -1.6829  0.0056
 3809TIP3    H211434   3.344   1.478   3.307  2.3369  1.5425  1.4782
 3810TIP3   OH211435   2.600   5.662   5.164 -0.5723  0.2116 -0.5404
 3810TIP3    H111436   2.549   5.630   5.238 -0.6927  0.3554 -0.5613
 3810TIP3    H211437   2.548   5.734   5.128  0.0190  0.9080 -0.0573
 3811TIP3   OH211438   6.217   2.958   1.944  0.1443 -0.3583 -0.2962
 3811TIP3    H111439   6.224   2.875   1.991 -1.5901  1.0966  2.8471
 3811TIP3    H211440   6.301   3.001   1.960  0.8705 -1.2320 -1.5481
 3812TIP3   OH211441   0.157   5.713  -0.014 -0.1191  0.5075 -0.0356
 3812TIP3    H111442   0.089   5.646  -0.025 -1.1497  1.8767 -3.1978
 3812TIP3    H211443   0.209   5.682   0.060 -0.2921 -4.0081 -1.4779
 3813TIP3   OH211444   1.612   0.250   1.603  0.0762  0.3368  0.4342
 3813TIP3    H111445   1.633   0.170   1.652  0.1630  1.0120  1.5316
 3813TIP3    H211446   1.519   0.265   1.619 -0.3789 -0.4611 -1.1868
 3814TIP3   OH211447   3.780   0.623   3.124  0.3245  0.1282  0.5125
 3814TIP3    H111448   3.870   0.607   3.096  0.3841  0.1820  0.6742
 3814TIP3    H211449   3.784   0.708   3.167  0.0272  0.5575 -0.2775
 3815TIP3   OH211450   4.958   1.682   0.371  0.1188  0.3744  0.0945
 3815TIP3    H111451   4.976   1.772   0.342 -1.0255  0.2301 -1.1281
 3815TIP3    H211452   4.872   1.662   0.335 -0.0353 -0.9066  1.1229
 3816TIP3   OH211453   1.387   4.025   2.429 -0.3356  0.8131  0.7252
 3816TIP3    H111454   1.458   3.967   2.402 -2.1176 -0.5870 -1.2149
 3816TIP3    H211455   1.418   4.064   2.511  1.6432 -1.6028  1.2415
 3817TIP3   OH211456   5.371   2.350   2.828 -0.1842  0.0838  0.5049
 3817TIP3    H111457   5.303   2.344   2.761 -0.9883  0.1002  1.3011
 3817TIP3    H211458   5.398   2.442   2.826  0.8640 -0.2094 -0.7913
 3818TIP3   OH211459   3.495   2.907   2.561  0.2499  0.3866 -0.1687
 3818TIP3    H111460   3.527   2.853   2.633  2.1319  0.2309 -1.0456
 3818TIP3    H211461   3.478   2.845   2.490 -1.4686  0.5499  0.0617
 3819TIP3   OH211462   0.177   3.258   0.445 -0.6780  0.2753 -0.0933
 3819TIP3    H111463   0.226   3.340   0.453 -1.0579  0.4831  0.1705
 3819TIP3    H211464   0.118   3.272   0.371 -0.0754 -0.1156 -0.6532
 3820TIP3   OH211465   4.070   0.227   3.291  0.0443 -0.0888  0.6267
 3820TIP3    H111466   4.007   0.223   3.219 -0.0131 -0.6647  0.7002
 3820TIP3    H211467   4.037   0.164   3.354  1.4313 -1.4461  0.0626
 3821TIP3   OH211468   3.281   5.052   0.789 -0.3227 -0.3718 -0.0032
 3821TIP3    H111469   3.283   4.982   0.855 -1.5748  0.8998  1.4515
 3821TIP3    H211470   3.208   5.029   0.732  1.3864 -2.0262 -1.6958
 3822TIP3   OH211471   2.748   0.626   2.882  0.0151 -0.0323 -0.2306
 3822TIP3    H111472   2.797   0.687   2.938 -1.6548  1.1715 -0.0087
 3822TIP3    H211473   2.673   0.600   2.936  0.1832 -1.5611 -0.6922
 3823TIP3   OH211474   1.992   5.046   2.379  0.3431  0.0211  0.5188
 3823TIP3    H111475   1.956   5.066   2.293  0.6284  0.1646  0.4336
 3823TIP3    H211476   1.933   4.980   2.415  2.0421 -2.5330 -1.0955
 3824TIP3   OH211477   3.925   2.987   4.601  0.2443 -0.0880  0.5130
 3824TIP3    H111478   4.018   2.987   4.578  0.1588  1.2596  0.1037
 3824TIP3    H211479   3.880   3.013   4.520 -0.2475  2.2554  1.4574
 3825TIP3   OH211480   4.026   4.899   2.694  0.0308 -0.6185 -0.1179
 3825TIP3    H111481   3.954   4.855   2.739  0.7677  0.3706  2.1692
 3825TIP3    H211482   4.076   4.829   2.654 -2.1671 -1.3329 -1.8324
 3826TIP3   OH211483   5.254   5.702   1.611  0.3047  0.1914  0.2820
 3826TIP3    H111484   5.174   5.723   1.564  1.3713  0.2688 -1.6275
 3826TIP3    H211485   5.232   5.713   1.704 -2.0600 -0.5314 -0.1350
 3827TIP3   OH211486   2.334   2.139   5.098  0.4890  0.0455 -0.5335
 3827TIP3    H111487   2.272   2.188   5.153  0.1514 -2.2183  1.2398
 3827TIP3    H211488   2.420   2.165   5.129  0.3250 -2.4612  2.4890
 3828TIP3   OH211489   1.145   4.387   1.009  0.4292 -0.7636  0.0344
 3828TIP3    H111490   1.122   4.422   1.095 -0.0556 -0.2527 -0.2990
 3828TIP3    H211491   1.127   4.459   0.948 -1.3011 -1.8093 -0.7553
 3829TIP3   OH211492   6.144   4.345   4.034  0.0111  0.1175 -0.0851
 3829TIP3    H111493   6.196   4.277   3.993  1.9504  1.2098  0.4229
 3829TIP3    H211494   6.184   4.358   4.121  0.8917  3.0329 -0.7960
 3830TIP3   OH211495   5.111   0.088   2.856 -0.3193  0.0354 -0.4823
 3830TIP3    H111496   5.159   0.053   2.781  0.7320  0.3761  0.0055
 3830TIP3    H211497   5.178   0.099   2.924 -1.3219 -0.6754  0.6584
 3831TIP3   OH211498   5.138   1.276   1.051  0.1920  0.1512 -0.7097
 3831TIP3    H111499   5.057   1.299   1.005  0.5660  1.6142 -0.6782
 3831TIP3    H211500   5.201   1.258   0.982  0.6141  1.8570 -0.8161
 3832TIP3   OH211501   4.686   1.268   1.872 -0.2186  0.1122  1.3352
 3832TIP3    H111502   4.764   1.247   1.923  0.1178  1.0397  1.2224
 3832TIP3    H211503   4.697   1.218   1.791  0.4235  0.4697  1.1901
 3833TIP3   OH211504   1.012   3.471   2.352 -0.1995  0.5608  0.5980
 3833TIP3    H111505   1.075   3.413   2.395  1.4682  1.4858 -0.4757
 3833TIP3    H211506   0.941   3.413   2.324  0.7339 -0.7239  0.8127
 3834TIP3   OH211507   2.283   1.436   4.563  0.0326  0.4820 -0.1208
 3834TIP3    H111508   2.322   1.461   4.647  0.5857 -1.0545  0.1107
 3834TIP3    H211509   2.189   1.432   4.580 -0.0374  1.8809 -0.0570
 3835TIP3   OH211510   1.946   3.135   4.770 -0.6841 -1.0097 -0.1258
 3835TIP3    H111511   2.032   3.096   4.758 -1.2597 -1.6890 -2.4730
 3835TIP3    H211512   1.891   3.094   4.704 -2.1376  1.3717 -0.5350
 3836TIP3   OH211513   5.638   2.630   1.462 -0.4167  0.5545  0.3935
 3836TIP3    H111514   5.626   2.658   1.371  0.6145 -1.0317 -0.2530
 3836TIP3    H211515   5.624   2.536   1.460 -0.8906  0.5649  1.9972
 3837TIP3   OH211516   1.033   0.206   5.071  0.3085  0.5835  0.4067
 3837TIP3    H111517   1.082   0.152   5.133 -0.4299 -1.6522 -0.8217
 3837TIP3    H211518   0.980   0.264   5.125 -1.7570 -2.5740  2.0439
 3838TIP3   OH211519   5.980   5.145   3.546 -0.3246 -0.7335 -0.4263
 3838TIP3    H111520   5.935   5.092   3.612 -0.7356  0.7110  0.5129
 3838TIP3    H211521   6.044   5.196   3.596 -0.0515 -0.2377 -1.2622
 3839TIP3   OH211522   1.409   1.626   0.936 -0.1843 -0.3491  0.4445
 3839TIP3    H111523   1.458   1.546   0.953  0.7334  0.0223 -0.3644
 3839TIP3    H211524   1.379   1.617   0.846 -1.0101 -0.2536  0.7014
 3840TIP3   OH211525   0.638   2.299   3.205 -0.1143  0.3796 -0.1237
 3840TIP3    H111526   0.725   2.290   3.166 -0.0348 -1.3004  0.3428
 3840TIP3    H211527   0.582   2.328   3.133  0.9596  2.3074 -0.2284
 3841TIP3   OH211528   1.423   3.404   1.886  0.1721 -0.0220  0.3391
 3841TIP3    H111529   1.433   3.387   1.980  0.8484  0.3988  0.3497
 3841TIP3    H211530   1.435   3.498   1.877  1.2117 -0.1994 -0.3020
 3842TIP3   OH211531   5.323   0.653   1.342 -0.1443 -0.3887  0.0388
 3842TIP3    H111532   5.300   0.627   1.432 -2.6432  1.9556  0.1902
 3842TIP3    H211533   5.359   0.741   1.351  1.2853 -0.8104 -1.1483
 3843TIP3   OH211534   5.382   4.559   2.584  0.7148 -0.1904  0.4966
 3843TIP3    H111535   5.310   4.501   2.610  1.3679 -1.6985 -0.8868
 3843TIP3    H211536   5.449   4.544   2.651  0.4297 -0.1526  0.7916
 3844TIP3   OH211537   1.625   0.920   3.730  0.0501 -0.3832 -0.7822
 3844TIP3    H111538   1.574   0.839   3.730  2.7978 -2.3469  1.2288
 3844TIP3    H211539   1.681   0.913   3.653  2.0726 -1.8234  0.7015
 3845TIP3   OH211540   2.799   0.194   4.191 -0.5985 -0.4153  0.5516
 3845TIP3    H111541   2.837   0.278   4.219 -1.3323 -0.2538  1.0763
 3845TIP3    H211542   2.813   0.135   4.265  2.3539 -1.5906 -0.7839
 3846TIP3   OH211543   0.349   0.962   1.333  0.1610  0.4617  0.0501
 3846TIP3    H111544   0.340   0.919   1.248  1.0417  2.1745 -0.9693
 3846TIP3    H211545   0.277   1.025   1.337  0.9832  1.4359 -0.1089
 3847TIP3   OH211546   5.511   5.438   5.145  0.0914  0.4529 -0.4415
 3847TIP3    H111547   5.426   5.397   5.164  0.0534  1.2833  1.4125
 3847TIP3    H211548   5.573   5.390   5.199  0.6107  0.6547 -0.8551
 3848TIP3   OH211549   2.296   2.015   0.613  0.3767 -0.1211  0.0908
 3848TIP3    H111550   2.296   2.048   0.523 -1.1422 -0.7101 -0.1554
 3848TIP3    H211551   2.262   2.087   0.665 -0.5364 -0.3958 -0.0966
 3849TIP3   OH211552   0.126   3.840   4.414  0.2095  0.5038 -0.2659
 3849TIP3    H111553   0.189   3.895   4.462  0.1473  1.7809 -1.5612
 3849TIP3    H211554   0.078   3.793   4.482  1.0395  1.2204  0.8496
 3850TIP3   OH211555   3.831   0.804   3.765  0.6364 -0.8389 -0.3997
 3850TIP3    H111556   3.776   0.793   3.843 -2.9967  0.8923 -2.4851
 3850TIP3    H211557   3.858   0.715   3.742  1.4303 -1.4317  2.4705
 3851TIP3   OH211558   5.422   1.994   3.443  0.4503 -0.0127  0.5224
 3851TIP3    H111559   5.500   2.002   3.497  0.0718 -1.5610  1.3696
 3851TIP3    H211560   5.412   1.900   3.429 -0.2783  0.2622 -1.0688
 3852TIP3   OH211561   5.188   3.722   3.759  0.7125 -0.1052 -0.1607
 3852TIP3    H111562   5.248   3.687   3.693  0.1846  0.1548 -0.7976
 3852TIP3    H211563   5.141   3.792   3.713 -0.7104 -0.8912  0.0516
 3853TIP3   OH211564   2.683   2.455   4.227  0.1301  0.4096  0.2686
 3853TIP3    H111565   2.627   2.511   4.281  0.5673  1.6238 -0.5140
 3853TIP3    H211566   2.757   2.433   4.285 -0.6560 -0.4247  0.9906
 3854TIP3   OH211567   3.918   3.427   0.481  0.0993  0.3134  0.1484
 3854TIP3    H111568   3.856   3.398   0.414  1.5938  1.0819 -1.6674
 3854TIP3    H211569   3.873   3.500   0.525 -0.8350 -0.0572 -0.1601
 3855TIP3   OH211570   5.824   1.470   3.837  0.4731  0.0331  0.2206
 3855TIP3    H111571   5.914   1.484   3.806  0.0377  0.4287 -0.9199
 3855TIP3    H211572   5.785   1.411   3.772 -0.2902  0.3832  0.3482
 3856TIP3   OH211573   0.235   0.785   2.615  0.0742  0.2707  0.0517
 3856TIP3    H111574   0.328   0.772   2.633  0.1335  1.6252  0.8888
 3856TIP3    H211575   0.189   0.727   2.676  0.3590  0.4027  0.3902
 3857TIP3   OH211576   1.668   2.261   0.857  0.0097  0.1873 -0.5566
 3857TIP3    H111577   1.573   2.246   0.860 -0.0150  0.3934 -0.2115
 3857TIP3    H211578   1.701   2.217   0.935  0.1281  0.5829 -0.3802
 3858TIP3   OH211579   2.371   3.082   0.585  0.5056 -0.3374 -0.1444
 3858TIP3    H111580   2.412   3.139   0.520 -0.2893  0.5780  0.1294
 3858TIP3    H211581   2.436   3.074   0.655  0.8832 -0.3269 -0.4899
 3859TIP3   OH211582   5.823   4.075   1.114  0.0803  0.1293  0.2665
 3859TIP3    H111583   5.751   4.076   1.050 -0.3585  0.9632  0.7531
 3859TIP3    H211584   5.841   3.982   1.130  1.2976 -0.1695 -2.2787
 3860TIP3   OH211585   5.958   4.100   1.480 -0.2724 -0.3886  0.3426
 3860TIP3    H111586   5.905   4.104   1.559  0.0035  0.4356  0.4943
 3860TIP3    H211587   6.030   4.161   1.496  0.8653 -1.6776  0.2356
 3861TIP3   OH211588   5.944   5.506   1.184  0.0214  1.0052  0.3627
 3861TIP3    H111589   5.971   5.512   1.276  2.3699 -0.2938 -0.1608
 3861TIP3    H211590   5.852   5.534   1.184  0.0098  1.2359  3.0532
 3862TIP3   OH211591   1.609   0.577   0.926  0.2937  0.2524 -0.0263
 3862TIP3    H111592   1.617   0.614   1.013 -1.5202 -1.1923  0.8120
 3862TIP3    H211593   1.693   0.597   0.884  0.4385  2.7964  1.2681
 3863TIP3   OH211594   5.948   4.643   3.838  0.2551  0.5610  0.6158
 3863TIP3    H111595   6.033   4.644   3.883  1.3933 -1.7684 -1.2507
 3863TIP3    H211596   5.912   4.557   3.857  0.2959 -0.1046 -1.9201
 3864TIP3   OH211597   2.033   4.596   2.640 -1.0160 -0.0258 -0.1199
 3864TIP3    H111598   2.020   4.620   2.548 -0.5261  0.0435 -0.1745
 3864TIP3    H211599   1.997   4.507   2.647 -1.4419  0.1284 -0.2759
 3865TIP3   OH211600   5.963   5.846   2.907  0.4744 -0.2139 -0.1312
 3865TIP3    H111601   5.869   5.828   2.904  0.5135 -0.4569  0.1156
 3865TIP3    H211602   5.969   5.942   2.911  0.1769 -0.2309  1.8666
 3866TIP3   OH211603   5.346   2.765   4.436  0.1913  0.0277 -0.5746
 3866TIP3    H111604   5.284   2.827   4.398  1.3737  1.4312 -0.3120
 3866TIP3    H211605   5.323   2.763   4.529 -0.1342 -0.2867 -0.6597
 3867TIP3   OH211606   3.715   4.980   0.555 -0.0132 -0.1421  0.1838
 3867TIP3    H111607   3.776   4.951   0.623  1.3660  1.1367 -0.4394
 3867TIP3    H211608   3.724   5.076   0.554 -0.0629 -0.1140 -1.7238
 3868TIP3   OH211609   6.225   0.276   1.982 -0.0037 -0.2002  0.2098
 3868TIP3    H111610   6.227   0.370   1.997  0.2214 -0.2138  0.2745
 3868TIP3    H211611   6.276   0.239   2.054 -0.4307 -0.4020  0.4178
 3869TIP3   OH211612   6.373   1.582   3.010 -0.1042 -0.3042 -0.3012
 3869TIP3    H111613   6.283   1.559   3.033  0.1664 -0.7938  0.2932
 3869TIP3    H211614   6.364   1.650   2.943 -0.9169 -1.2172 -1.1572
 3870TIP3   OH211615   1.807   0.733   3.544 -0.5588  0.0627  0.5570
 3870TIP3    H111616   1.898   0.735   3.572 -0.3483 -1.3338  0.0487
 3870TIP3    H211617   1.786   0.640   3.536 -2.5146  0.2871  2.1576
 3871TIP3   OH211618   2.657   1.653   0.125  0.0070 -0.4382  0.0569
 3871TIP3    H111619   2.588   1.714   0.098  1.3278  1.1498  0.1277
 3871TIP3    H211620   2.672   1.674   0.217  0.6002 -0.7567  0.0363
 3872TIP3   OH211621   4.453   2.011   0.919 -0.1815 -0.3967 -0.4330
 3872TIP3    H111622   4.405   2.021   0.837 -2.1386  1.5826  0.8427
 3872TIP3    H211623   4.390   1.970   0.979  0.6598 -0.3056  0.5436
 3873TIP3   OH211624   5.800   2.950   0.963  0.7772 -0.1513  0.0056
 3873TIP3    H111625   5.760   3.036   0.956 -0.0182 -0.5592 -0.7277
 3873TIP3    H211626   5.894   2.966   0.953  0.6128  0.5955 -0.4162
 3874TIP3   OH211627   3.241   1.611   1.154 -0.0638 -0.1363 -0.2764
 3874TIP3    H111628   3.149   1.590   1.165 -0.0003 -0.6041 -0.6009
 3874TIP3    H211629   3.267   1.652   1.237 -0.1773 -1.3842  0.3904
 3875TIP3   OH211630   3.023   4.796   2.550 -0.4229  0.0691  0.2393
 3875TIP3    H111631   3.073   4.800   2.469  0.2199  0.7115  0.6594
 3875TIP3    H211632   2.991   4.706   2.554 -0.0826 -0.0911 -0.4931
 3876TIP3   OH211633   0.881   5.775   1.222  0.0573  0.1444  0.6754
 3876TIP3    H111634   0.835   5.721   1.287 -1.6652  0.5466 -0.1405
 3876TIP3    H211635   0.874   5.864   1.256  1.8468  0.0402  1.4206
 3877TIP3   OH211636   3.004   0.358   1.410  0.4101  0.3006 -0.4005
 3877TIP3    H111637   3.074   0.327   1.353  1.5520  0.9811  0.6086
 3877TIP3    H211638   3.013   0.307   1.490  2.0504  2.7785  1.1196
 3878TIP3   OH211639   1.133   5.128   0.082 -0.1794  0.5943  0.1580
 3878TIP3    H111640   1.039   5.148   0.080 -0.2569  0.2300 -0.1509
 3878TIP3    H211641   1.137   5.032   0.077  0.2110  0.6179 -0.0278
 3879TIP3   OH211642   4.363   1.013   4.695 -0.3379 -0.0493 -0.3180
 3879TIP3    H111643   4.314   1.064   4.759  1.2039  0.3403  0.6022
 3879TIP3    H211644   4.389   1.077   4.628  0.2375  0.0691  0.0120
 3880TIP3   OH211645   3.300   1.391   4.975  0.1547 -0.1934  0.0421
 3880TIP3    H111646   3.289   1.477   5.015  2.3373  0.5611 -0.8286
 3880TIP3    H211647   3.245   1.393   4.897  0.6107  0.6305 -0.2639
 3881TIP3   OH211648   3.411   4.232   0.122  0.1954 -0.4624  0.3726
 3881TIP3    H111649   3.319   4.241   0.098  0.6018  1.2221 -0.7433
 3881TIP3    H211650   3.425   4.300   0.188  0.6817 -0.5939  0.4072
 3882TIP3   OH211651   0.432   5.496   2.542  0.6709  0.3122  0.5509
 3882TIP3    H111652   0.483   5.575   2.530  1.5337 -0.4548 -1.2714
 3882TIP3    H211653   0.497   5.427   2.555  0.1399 -0.5830 -1.1789
 3883TIP3   OH211654   1.405   5.002   2.995 -0.2689  0.3964 -0.4662
 3883TIP3    H111655   1.458   4.991   2.916 -0.5790 -1.3995 -0.4737
 3883TIP3    H211656   1.450   5.070   3.045  1.7502 -0.6763 -0.7124
 3884TIP3   OH211657   2.067   3.258   3.785 -0.0605  0.2943  0.3864
 3884TIP3    H111658   1.991   3.315   3.775  0.0962  0.2550 -1.3060
 3884TIP3    H211659   2.056   3.218   3.871 -1.2174  1.3395  0.7587
 3885TIP3   OH211660   3.440   2.595   2.676 -0.2738  0.6378 -0.0111
 3885TIP3    H111661   3.344   2.599   2.680 -0.3259 -0.6648  0.6167
 3885TIP3    H211662   3.467   2.580   2.767  0.6353  2.4030  0.0420
 3886TIP3   OH211663   4.690   5.665   0.815  0.4416 -0.0826 -0.2986
 3886TIP3    H111664   4.772   5.627   0.846  1.1481  0.2193 -1.7028
 3886TIP3    H211665   4.693   5.755   0.847  0.4916 -0.1737 -0.0433
 3887TIP3   OH211666   2.796   5.503   1.142 -0.0113  0.5112 -0.2764
 3887TIP3    H111667   2.817   5.573   1.204  1.6216  1.3360 -1.6851
 3887TIP3    H211668   2.877   5.487   1.095 -0.8572 -1.0216 -1.3185
 3888TIP3   OH211669   1.734   1.067   3.174  0.2475 -0.8288  0.2783
 3888TIP3    H111670   1.735   0.992   3.115  0.1270 -0.5678 -0.0583
 3888TIP3    H211671   1.703   1.140   3.120 -1.4727 -0.9308  1.0493
 3889TIP3   OH211672   6.240   0.369   3.188 -0.0022 -0.0616 -0.8653
 3889TIP3    H111673   6.291   0.440   3.148  0.5663 -1.9863 -3.9539
 3889TIP3    H211674   6.302   0.325   3.246  1.0248 -0.5474 -2.2609
 3890TIP3   OH211675   2.285   2.785   0.545  0.2052  0.2006  0.0456
 3890TIP3    H111676   2.303   2.713   0.606  0.9658 -0.8559 -1.3564
 3890TIP3    H211677   2.348   2.853   0.570 -1.1322  0.8056  1.9736
 3891TIP3   OH211678   5.148   1.226   1.798  0.0322  0.0363  0.1690
 3891TIP3    H111679   5.062   1.266   1.786 -0.3452 -0.6038  0.6902
 3891TIP3    H211680   5.204   1.298   1.827 -0.4418  0.3565  0.3020
 3892TIP3   OH211681   5.878   1.326   3.360 -0.1381 -0.3489 -0.2638
 3892TIP3    H111682   5.844   1.250   3.313  1.6471 -1.2395 -0.2152
 3892TIP3    H211683   5.874   1.301   3.452 -2.6310  0.9706  0.0514
 3893TIP3   OH211684   3.033   1.954   3.776 -0.3483  0.7854  0.1256
 3893TIP3    H111685   2.985   1.911   3.706 -0.3511 -3.5724  2.4859
 3893TIP3    H211686   3.124   1.928   3.763 -0.1638  0.9214  1.0374
 3894TIP3   OH211687   1.715   5.483   2.985 -0.3984 -0.2975 -0.3024
 3894TIP3    H111688   1.637   5.429   2.984 -0.0620 -0.7928 -0.9013
 3894TIP3    H211689   1.745   5.481   3.076 -1.6130  0.6987  0.1354
 3895TIP3   OH211690   0.133   1.600   3.726  0.8521  0.2810  0.0405
 3895TIP3    H111691   0.071   1.531   3.750 -0.2449 -0.0341 -3.2810
 3895TIP3    H211692   0.219   1.566   3.754  0.1048 -1.4799  0.3117
 3896TIP3   OH211693   5.336   2.386   2.179 -0.6503  0.4227 -0.6630
 3896TIP3    H111694   5.406   2.400   2.115 -0.8164  1.8570 -0.5537
 3896TIP3    H211695   5.272   2.332   2.133  0.6090 -1.1165 -0.6884
 3897TIP3   OH211696   0.625   5.304   2.502  0.2348  0.4939 -0.2953
 3897TIP3    H111697   0.653   5.230   2.557 -0.9601  0.6278  0.5404
 3897TIP3    H211698   0.588   5.262   2.424  0.5894  0.2440 -0.3317
 3898TIP3   OH211699   3.880   1.147   0.582  0.0827 -0.3776  0.5744
 3898TIP3    H111700   3.834   1.105   0.509  0.0212  0.8169 -0.1014
 3898TIP3    H211701   3.970   1.117   0.574  0.0404 -0.3843  0.1041
 3899TIP3   OH211702   3.408   1.425   3.469 -0.0135 -0.4735  0.5296
 3899TIP3    H111703   3.503   1.421   3.463  0.3145  1.9529  2.6563
 3899TIP3    H211704   3.386   1.365   3.541  0.0130 -0.2942  0.6877
 3900TIP3   OH211705   4.754   1.055   2.209 -0.7786  0.2837 -0.4535
 3900TIP3    H111706   4.774   1.109   2.132  0.9033 -1.5578 -1.3920
 3900TIP3    H211707   4.667   1.083   2.236 -0.7623  2.0891 -2.0606
 3901TIP3   OH211708   5.674   0.249   0.137 -0.1062 -0.0086 -0.0525
 3901TIP3    H111709   5.616   0.296   0.078  0.2024 -0.2961 -0.5925
 3901TIP3    H211710   5.706   0.176   0.085  0.1941 -0.2482  0.4650
 3902TIP3   OH211711   5.866   1.434   2.503 -0.0326  0.5382 -0.1402
 3902TIP3    H111712   5.851   1.470   2.416  1.1820  0.4669 -0.3835
 3902TIP3    H211713   5.830   1.500   2.563 -2.3914 -0.1340 -0.6883
 3903TIP3   OH211714   2.950   2.630   2.461 -0.1621  0.1283 -0.0346
 3903TIP3    H111715   2.955   2.535   2.469  0.4203  0.1659  0.0803
 3903TIP3    H211716   2.860   2.647   2.430 -0.1846 -0.4705 -0.3103
 3904TIP3   OH211717   5.198   2.809   2.717 -0.2414  0.3777  0.1014
 3904TIP3    H111718   5.197   2.722   2.756  0.3961  0.7126  0.8839
 3904TIP3    H211719   5.134   2.859   2.768 -0.5295  0.4070 -0.2781
 3905TIP3   OH211720   5.350   4.646   4.528 -0.0966  0.4356 -0.2258
 3905TIP3    H111721   5.398   4.715   4.573 -0.4016  1.4048 -1.3359
 3905TIP3    H211722   5.402   4.628   4.449  0.7448 -1.6386  0.7331
 3906TIP3   OH211723   1.899   3.968   1.567  0.4136  0.1284  0.2506
 3906TIP3    H111724   1.852   3.977   1.650 -0.2686  0.2882 -0.1502
 3906TIP3    H211725   1.991   3.958   1.593 -0.0801 -3.0309  1.1915
 3907TIP3   OH211726   3.401   4.743   4.664 -0.3575 -0.0621 -0.4856
 3907TIP3    H111727   3.365   4.816   4.715  0.5275  0.1956 -0.2056
 3907TIP3    H211728   3.483   4.720   4.709 -0.8003 -1.4780 -0.3544
 3908TIP3   OH211729   3.624   1.062   4.611  0.4957 -0.8626  0.5663
 3908TIP3    H111730   3.544   1.010   4.625  0.1469 -0.3070  0.6832
 3908TIP3    H211731   3.603   1.119   4.538  1.2291 -1.5648 -0.2188
 3909TIP3   OH211732   1.384   2.146   1.753 -0.0153 -0.7326  0.2156
 3909TIP3    H111733   1.386   2.056   1.722 -1.9264 -0.6598 -0.2461
 3909TIP3    H211734   1.357   2.140   1.844  3.9569 -0.8277  1.5719
 3910TIP3   OH211735   4.079   4.603   2.862  0.4554  0.0190 -0.2218
 3910TIP3    H111736   4.085   4.509   2.881  1.7381  0.1498  0.1295
 3910TIP3    H211737   3.986   4.618   2.846  0.2918 -1.4142 -0.8481
 3911TIP3   OH211738   2.253   3.229   4.812 -0.1065 -0.0426  0.6108
 3911TIP3    H111739   2.345   3.222   4.838  0.1805 -0.5367 -0.4717
 3911TIP3    H211740   2.239   3.154   4.754 -1.4910 -0.5720  1.5956
 3912TIP3   OH211741   0.013   2.021   1.457 -0.4684  0.7682 -0.1993
 3912TIP3    H111742  -0.011   1.988   1.543 -1.3133 -0.7326 -0.9749
 3912TIP3    H211743   0.065   2.099   1.475  1.4001 -0.8147  1.7063
 3913TIP3   OH211744   4.056   1.211   0.987  0.3567 -0.8357 -0.0783
 3913TIP3    H111745   3.964   1.232   1.008  0.9573  0.4966  1.4304
 3913TIP3    H211746   4.082   1.151   1.056  1.3396  0.8428  1.0881
 3914TIP3   OH211747   4.276   0.887   2.202 -0.7219 -0.0722  0.0354
 3914TIP3    H111748   4.342   0.884   2.134 -0.5835 -1.7196  0.2173
 3914TIP3    H211749   4.219   0.959   2.176 -0.0359  0.0526 -1.2115
 3915TIP3   OH211750   1.009   1.989   1.596 -0.1063 -0.4606 -0.5835
 3915TIP3    H111751   1.057   2.020   1.519 -0.2764 -0.5158 -0.7140
 3915TIP3    H211752   0.930   1.948   1.560 -0.9267  0.8259 -0.3168
 3916TIP3   OH211753   0.231   3.230   4.961  0.1294  0.3918 -0.4376
 3916TIP3    H111754   0.156   3.203   5.014 -0.8119  0.4874 -1.6951
 3916TIP3    H211755   0.273   3.147   4.936 -0.6808  0.2450 -1.3299
 3917TIP3   OH211756   5.773   4.016   2.178 -0.1190  0.4689  0.1867
 3917TIP3    H111757   5.797   3.971   2.259 -0.0449 -2.5083 -1.3491
 3917TIP3    H211758   5.698   4.070   2.202 -0.6168 -0.9574  2.0838
 3918TIP3   OH211759   2.942   1.639   1.232  0.0345 -0.1685  0.2235
 3918TIP3    H111760   2.931   1.668   1.141  2.0590  1.5050  0.4412
 3918TIP3    H211761   2.882   1.564   1.240 -0.6516 -0.0011 -2.2910
 3919TIP3   OH211762   1.642   2.103   2.332  0.5217 -0.6118 -0.5617
 3919TIP3    H111763   1.669   2.122   2.422 -1.3575 -1.0225  0.1279
 3919TIP3    H211764   1.673   2.014   2.316  2.4968  0.1122 -1.0256
 3920TIP3   OH211765   0.647   4.165   1.624  0.7606 -0.1146  0.4297
 3920TIP3    H111766   0.732   4.207   1.616  0.7239  0.1768  1.4418
 3920TIP3    H211767   0.663   4.087   1.676 -0.0533  1.6025  3.5190
 3921TIP3   OH211768   4.467   2.087   3.028 -0.0295  0.1654 -0.5060
 3921TIP3    H111769   4.549   2.081   3.077  0.1491 -1.5259 -0.9594
 3921TIP3    H211770   4.484   2.038   2.947 -1.7502 -1.0031 -0.2046
 3922TIP3   OH211771   2.000   3.083   4.005 -0.2305 -0.9164  0.7158
 3922TIP3    H111772   2.075   3.031   4.035  2.0261  0.8098 -1.5386
 3922TIP3    H211773   2.017   3.171   4.039 -0.1362 -0.0577 -1.4021
 3923TIP3   OH211774   1.222   1.284   4.723 -0.2972 -0.9320 -0.2134
 3923TIP3    H111775   1.252   1.283   4.632  0.4727  0.2737  0.0067
 3923TIP3    H211776   1.134   1.321   4.718 -0.4281 -1.2841 -0.5186
 3924TIP3   OH211777   1.825   2.419   3.188 -0.1502  0.3898 -0.0210
 3924TIP3    H111778   1.773   2.473   3.129  1.3690  1.1289 -0.7414
 3924TIP3    H211779   1.895   2.477   3.218 -0.7420 -0.0202  2.3830
 3925TIP3   OH211780   6.281   0.219   1.742  0.2605  0.0130 -0.1368
 3925TIP3    H111781   6.284   0.206   1.837  1.0999 -0.6668 -0.2469
 3925TIP3    H211782   6.319   0.306   1.729 -0.7087  0.5055  0.2096
 3926TIP3   OH211783   1.945   2.146   1.381 -0.0880 -0.1540 -0.1764
 3926TIP3    H111784   1.901   2.096   1.449  0.7988 -2.8650 -1.4767
 3926TIP3    H211785   2.032   2.165   1.417 -0.2590  0.0421  0.1349
 3927TIP3   OH211786   4.392   4.851   2.986  0.6731  0.4090 -0.4625
 3927TIP3    H111787   4.314   4.818   3.031  0.0890  3.1989  0.8150
 3927TIP3    H211788   4.426   4.776   2.939 -1.0564 -1.6805  1.3906
 3928TIP3   OH211789   3.053   4.163   1.833  1.1300 -0.0679  0.1780
 3928TIP3    H111790   2.965   4.201   1.842  0.8593 -0.4507 -0.7253
 3928TIP3    H211791   3.112   4.238   1.839  0.9285 -0.0280  3.0942
 3929TIP3   OH211792   6.235   2.030   5.065  0.0798 -0.1683 -0.5846
 3929TIP3    H111793   6.153   2.045   5.112  0.5255 -0.3505  0.2689
 3929TIP3    H211794   6.272   2.118   5.053  0.8792 -0.2386  1.1079
 3930TIP3   OH211795   2.973   5.549   0.311 -0.0875  0.0942  0.2035
 3930TIP3    H111796   3.030   5.606   0.260  0.3458 -0.1330  0.4349
 3930TIP3    H211797   2.902   5.607   0.340 -0.0327  0.3510 -0.1721
 3931TIP3   OH211798   0.455   1.988   0.556 -0.2664 -0.6873 -0.3878
 3931TIP3    H111799   0.472   1.924   0.487 -1.5433 -0.7241 -0.6856
 3931TIP3    H211800   0.366   1.969   0.585 -0.3140  0.3465  0.1769
 3932TIP3   OH211801   2.269   3.458   1.742 -0.3075 -0.0320  0.3115
 3932TIP3    H111802   2.198   3.412   1.788 -1.1730 -0.9966 -1.8782
 3932TIP3    H211803   2.224   3.518   1.682  0.7516  0.1281 -0.3462
 3933TIP3   OH211804   1.306   1.548   3.144  0.2109  0.2659 -0.4540
 3933TIP3    H111805   1.253   1.603   3.202  3.2508  3.6054 -0.5380
 3933TIP3    H211806   1.277   1.572   3.056 -1.5450 -1.7667 -0.5120
 3934TIP3   OH211807   2.480   3.713   0.399  0.2793  0.2540 -0.3393
 3934TIP3    H111808   2.433   3.753   0.472  0.2702  1.3055 -0.8950
 3934TIP3    H211809   2.572   3.721   0.424  0.2422 -0.3563  0.0243
 3935TIP3   OH211810   1.091   3.825   2.588  0.0547 -0.2264  0.3643
 3935TIP3    H111811   1.028   3.781   2.530 -0.8685 -1.3023  2.0800
 3935TIP3    H211812   1.078   3.918   2.571 -0.1731 -0.4999 -1.1405
 3936TIP3   OH211813   1.750   2.582   0.463  0.4618  0.2235 -0.3742
 3936TIP3    H111814   1.788   2.659   0.504  1.7524  0.3523 -1.7088
 3936TIP3    H211815   1.673   2.561   0.516 -0.3162  2.8081 -0.3616
 3937TIP3   OH211816   5.203   3.653   2.483 -0.0402 -0.2748  0.4328
 3937TIP3    H111817   5.114   3.688   2.471 -0.4863 -1.0992  1.1694
 3937TIP3    H211818   5.229   3.684   2.569 -0.1009 -1.0194  0.7297
 3938TIP3   OH211819   3.348   1.032   0.118 -0.1057  0.3208 -0.3705
 3938TIP3    H111820   3.310   1.061   0.035  0.4415  0.0924 -0.7053
 3938TIP3    H211821   3.332   1.104   0.178 -1.2258  0.1610 -0.4501
 3939TIP3   OH211822   0.734   2.527   1.274 -0.5484  0.3865 -0.1906
 3939TIP3    H111823   0.814   2.579   1.281 -1.2234  1.4663 -0.2725
 3939TIP3    H211824   0.697   2.529   1.362 -0.3315 -0.3772 -0.0785
 3940TIP3   OH211825   6.042   3.132   4.366 -0.5833  0.0186  0.1699
 3940TIP3    H111826   6.094   3.213   4.370  0.5431 -0.4725 -2.3408
 3940TIP3    H211827   6.104   3.065   4.339 -1.7652 -1.4568  0.9822
 3941TIP3   OH211828   5.181   2.083   1.338 -0.5359  0.3251  0.3675
 3941TIP3    H111829   5.179   2.155   1.275 -0.5969  0.8449  0.9416
 3941TIP3    H211830   5.146   2.008   1.291  2.2917 -0.1608 -1.2246
 3942TIP3   OH211831   0.633   1.969   3.763 -0.6684  0.1372  0.3367
 3942TIP3    H111832   0.540   1.951   3.779 -0.7180  0.5404  0.5079
 3942TIP3    H211833   0.665   2.006   3.846 -0.3317 -0.0917  0.3111
 3943TIP3   OH211834   1.043   0.409   2.200 -0.4293  0.2501 -0.0852
 3943TIP3    H111835   1.053   0.503   2.214  1.7012  0.0582 -0.0011
 3943TIP3    H211836   1.089   0.369   2.274 -1.4720 -0.8636 -0.0188
 3944TIP3   OH211837   4.071   4.993   2.961 -0.1975 -0.3521 -0.0139
 3944TIP3    H111838   4.067   4.953   2.874  1.8928 -0.5784 -0.0424
 3944TIP3    H211839   4.090   4.921   3.020  0.8906  0.1678  0.2889
 3945TIP3   OH211840   0.242   3.719   2.727  0.3382 -0.1819  0.1447
 3945TIP3    H111841   0.326   3.679   2.703  0.2442  0.0247 -0.5498
 3945TIP3    H211842   0.193   3.648   2.769  0.4816 -0.5773 -0.3427
 3946TIP3   OH211843   5.157   3.811   2.116 -0.4018  0.3336 -0.2813
 3946TIP3    H111844   5.156   3.839   2.024 -1.7620 -0.1981 -0.4494
 3946TIP3    H211845   5.155   3.892   2.166  0.5276  0.6339 -0.7012
 3947TIP3   OH211846   1.796   4.963   0.084  0.1097  0.8043  1.0663
 3947TIP3    H111847   1.707   4.981   0.114 -0.2702  0.2698  0.2867
 3947TIP3    H211848   1.802   4.867   0.082  1.5593  0.7374  3.5779
 3948TIP3   OH211849   3.607   4.695   3.600  0.4558 -0.1857  0.8343
 3948TIP3    H111850   3.666   4.620   3.594  1.8014  0.8060  1.2761
 3948TIP3    H211851   3.521   4.660   3.577  1.0003 -1.9186  1.3345
 3949TIP3   OH211852   4.359   4.513   4.823  0.4003  0.1426  0.1267
 3949TIP3    H111853   4.326   4.596   4.787  0.1359  0.2784  0.6811
 3949TIP3    H211854   4.447   4.504   4.784  0.8665  1.2207  0.8845
 3950TIP3   OH211855   5.283   1.389   4.867  0.0515 -0.4875  0.2640
 3950TIP3    H111856   5.233   1.359   4.943  1.6923  1.0771  2.0732
 3950TIP3    H211857   5.233   1.464   4.834 -0.7814 -1.3057 -0.4008
 3951TIP3   OH211858   1.059   3.446   1.717  0.0923  0.1654  0.2288
 3951TIP3    H111859   1.125   3.380   1.695 -0.4449 -0.3782  0.2264
 3951TIP3    H211860   1.039   3.489   1.633  2.2848  2.1012  0.6105
 3952TIP3   OH211861   0.686   0.994   3.751 -0.0883 -0.6981 -0.1504
 3952TIP3    H111862   0.594   1.011   3.731 -0.4068 -1.7598  0.3506
 3952TIP3    H211863   0.706   0.911   3.707  0.3181 -1.0197  0.6070
 3953TIP3   OH211864   4.692   3.881   0.240  0.1803  0.3784  0.5462
 3953TIP3    H111865   4.655   3.960   0.281 -0.4646 -0.6475  2.0255
 3953TIP3    H211866   4.686   3.814   0.308 -0.9833 -1.4441 -1.2552
 3954TIP3   OH211867   5.435   4.137   1.906  0.4603  0.1852 -0.4235
 3954TIP3    H111868   5.476   4.178   1.830  0.2279 -1.1506 -1.3219
 3954TIP3    H211869   5.431   4.044   1.883 -0.8019 -0.0687  0.6808
 3955TIP3   OH211870   5.412   1.063   0.441 -0.4191  0.3151  0.0825
 3955TIP3    H111871   5.445   0.979   0.474  0.7777  0.6662 -0.1951
 3955TIP3    H211872   5.393   1.047   0.349 -3.2720 -0.5194  0.7060
 3956TIP3   OH211873   1.202   1.597   4.180 -0.1550  0.2648 -0.3572
 3956TIP3    H111874   1.288   1.558   4.194 -0.4412 -0.1061  0.4278
 3956TIP3    H211875   1.221   1.690   4.167  0.4344  0.0513 -1.1222
 3957TIP3   OH211876   3.677   4.574   2.460  0.2591 -0.2888  0.1135
 3957TIP3    H111877   3.736   4.625   2.515  1.4120 -1.5587  0.1198
 3957TIP3    H211878   3.735   4.514   2.412 -0.5520  1.3095 -3.1559
 3958TIP3   OH211879   5.768   4.123   1.718  0.1348  0.7310 -0.2751
 3958TIP3    H111880   5.809   4.124   1.804  3.3253 -1.6383 -1.5657
 3958TIP3    H211881   5.721   4.039   1.715  0.3458  0.6242 -0.9192
 3959TIP3   OH211882   6.239   2.724   2.096  0.0569 -0.0514 -0.0647
 3959TIP3    H111883   6.196   2.640   2.078 -1.2766  0.4359  0.6384
 3959TIP3    H211884   6.194   2.756   2.175  1.0781  0.9638  0.1221
 3960TIP3   OH211885   0.509   2.835   1.813 -0.3581  0.4744 -0.6312
 3960TIP3    H111886   0.603   2.848   1.829  0.0716 -0.9959 -1.6779
 3960TIP3    H211887   0.485   2.903   1.751  0.8713 -1.0667 -2.9678
 3961TIP3   OH211888   0.799   0.901   4.433 -0.0460  0.1932  0.4720
 3961TIP3    H111889   0.767   0.947   4.356  0.1622  1.6044  1.1758
 3961TIP3    H211890   0.821   0.971   4.495  1.4314 -0.8165  1.1722
 3962TIP3   OH211891   1.375   2.375   4.586  0.4063  0.0832  0.0668
 3962TIP3    H111892   1.432   2.450   4.568  0.8393  0.2516  1.8822
 3962TIP3    H211893   1.432   2.314   4.632 -0.3738 -0.6414  0.0765
 3963TIP3   OH211894   3.287   0.916   4.119  0.5487 -0.4079 -0.5196
 3963TIP3    H111895   3.211   0.921   4.177  0.8403 -2.1565  0.0994
 3963TIP3    H211896   3.252   0.885   4.035  0.3335  0.6275 -0.8170
 3964TIP3   OH211897   3.836   5.851   3.760 -0.1441 -0.1929 -0.6933
 3964TIP3    H111898   3.860   5.759   3.753  0.7380  0.0839 -1.6000
 3964TIP3    H211899   3.908   5.898   3.717 -1.6426  0.7953 -2.2541
 3965TIP3   OH211900   3.784   3.134   3.362  0.1512 -0.2582 -0.1012
 3965TIP3    H111901   3.747   3.204   3.309  1.5778  0.3205 -0.3983
 3965TIP3    H211902   3.854   3.176   3.412  1.4212 -1.5502 -0.7002
 3966TIP3   OH211903   6.146   0.507   2.313  0.2945  0.0594 -0.0405
 3966TIP3    H111904   6.086   0.467   2.250  1.2374 -0.7054 -0.4827
 3966TIP3    H211905   6.191   0.433   2.354 -0.7480  0.4955  2.0274
 3967TIP3   OH211906   3.805   2.755   1.881  0.0273 -0.0091 -0.4495
 3967TIP3    H111907   3.868   2.689   1.910 -1.2138 -1.1550 -0.2578
 3967TIP3    H211908   3.854   2.810   1.820  1.1591 -0.9616 -0.4381
 3968TIP3   OH211909   2.645   2.564   3.343  0.2342  0.1820 -1.0433
 3968TIP3    H111910   2.709   2.510   3.389 -0.9030 -1.7943 -1.6433
 3968TIP3    H211911   2.561   2.518   3.356 -0.9123  2.1588 -1.0731
 3969TIP3   OH211912   3.031   4.477   1.593 -0.1908 -0.1574  0.2824
 3969TIP3    H111913   3.036   4.422   1.514 -0.8517 -1.0008  0.8079
 3969TIP3    H211914   3.117   4.518   1.599  0.3895 -1.2837 -0.0321
 3970TIP3   OH211915   2.233   3.606   0.002  0.0026  0.5072 -0.1056
 3970TIP3    H111916   2.140   3.626   0.013  0.2699  1.4926  0.5618
 3970TIP3    H211917   2.275   3.650   0.076  0.9272 -0.5273 -0.0030
 3971TIP3   OH211918   5.126   0.742   2.014  0.4868 -0.2244  0.0705
 3971TIP3    H111919   5.136   0.662   2.065  0.7977 -0.5513 -0.4967
 3971TIP3    H211920   5.035   0.768   2.028  0.9972  0.6521  2.1724
 3972TIP3   OH211921   0.584   4.978   0.144  0.5719  0.8800 -0.2716
 3972TIP3    H111922   0.601   4.897   0.094  1.2974 -0.4588  1.9763
 3972TIP3    H211923   0.505   5.014   0.104  0.9945 -0.1867 -2.2391
 3973TIP3   OH211924   4.198   4.168   2.379  0.6450  0.6199 -0.2660
 3973TIP3    H111925   4.234   4.081   2.395  0.4835  1.0633  3.1366
 3973TIP3    H211926   4.263   4.210   2.322  0.4254 -1.8047 -2.5032
 3974TIP3   OH211927   5.948   5.205   2.881 -0.6669  0.5378  0.8626
 3974TIP3    H111928   6.006   5.128   2.885  1.6954  2.1077 -0.5681
 3974TIP3    H211929   5.875   5.177   2.826 -0.7658 -1.1769  1.7867
 3975TIP3   OH211930   3.975   0.721   2.226  0.1840  0.1163 -0.8047
 3975TIP3    H111931   4.040   0.700   2.159  0.2880 -1.5515 -0.2191
 3975TIP3    H211932   3.965   0.640   2.276 -0.2695  1.1701  0.8726
 3976TIP3   OH211933   5.294   3.740   0.601  0.0218  0.0491  0.2653
 3976TIP3    H111934   5.237   3.790   0.543 -1.1150  0.4475  1.6838
 3976TIP3    H211935   5.261   3.651   0.596 -2.0262  0.6028  2.5263
 3977TIP3   OH211936   2.190   1.152   1.077 -0.1276 -1.0131 -0.1126
 3977TIP3    H111937   2.206   1.246   1.090  0.0727 -1.1345  0.5471
 3977TIP3    H211938   2.123   1.130   1.142 -0.1567 -1.3295 -0.2486
 3978TIP3   OH211939   5.380   2.673   4.963  0.4386  0.0567  0.1044
 3978TIP3    H111940   5.440   2.741   4.994  0.3598  0.0359  0.2999
 3978TIP3    H211941   5.322   2.655   5.037  0.6433 -0.4329  0.1496
 3979TIP3   OH211942   3.843   3.981   1.085 -0.3208  0.0277 -0.4138
 3979TIP3    H111943   3.747   3.976   1.094 -0.2480  1.1032  1.6618
 3979TIP3    H211944   3.864   4.072   1.107  1.1279  0.0418 -1.7119
 3980TIP3   OH211945   2.558   2.489   5.051  0.3180  0.2824 -0.1608
 3980TIP3    H111946   2.553   2.461   5.143 -1.7599  0.2097 -0.2494
 3980TIP3    H211947   2.607   2.571   5.054  0.8009 -0.0269  0.9300
 3981TIP3   OH211948   4.139   0.118   3.868 -0.2772 -0.6156 -0.0924
 3981TIP3    H111949   4.132   0.192   3.808 -0.2952 -0.2558  0.3483
 3981TIP3    H211950   4.048   0.093   3.886 -0.2578 -1.5185 -1.1781
 3982TIP3   OH211951   4.969   4.382   4.067 -0.1309  0.2880 -0.8065
 3982TIP3    H111952   5.028   4.372   3.992  1.4717 -1.5393  0.5849
 3982TIP3    H211953   4.884   4.402   4.028  1.0563  1.4979 -2.9795
 3983TIP3   OH211954   3.453   1.084   2.065 -0.2161  0.0166  0.4095
 3983TIP3    H111955   3.374   1.104   2.116 -0.1559  0.9617  0.1545
 3983TIP3    H211956   3.497   1.169   2.057  0.2340 -0.2961 -0.4435
 3984TIP3   OH211957   0.417   4.067   1.259  0.0325 -0.0926 -0.4185
 3984TIP3    H111958   0.455   4.009   1.325 -0.6279 -1.1211 -0.9101
 3984TIP3    H211959   0.377   4.138   1.310 -0.6815 -0.9930  0.3234
 3985TIP3   OH211960   4.041   4.332   2.074 -0.5069  0.0368 -0.3244
 3985TIP3    H111961   4.029   4.337   1.979 -1.0549  1.6710 -0.2092
 3985TIP3    H211962   4.132   4.357   2.088 -0.6369  0.5413 -0.3737
 3986TIP3   OH211963   6.103   4.432   0.744  0.1444 -0.2642  0.0294
 3986TIP3    H111964   6.037   4.381   0.791  0.3924 -0.4660  0.1605
 3986TIP3    H211965   6.174   4.370   0.727  0.5839  0.1092  0.4746
 3987TIP3   OH211966   2.094   0.078   5.161  0.1686  0.4400 -0.4406
 3987TIP3    H111967   2.008   0.107   5.192  1.0950  2.3638  0.4876
 3987TIP3    H211968   2.125   0.150   5.106  1.1201 -0.3046 -0.9126
 3988TIP3   OH211969   1.714   1.057   1.551  0.3958  0.0969 -0.3763
 3988TIP3    H111970   1.740   1.145   1.579  1.4465  0.0227 -1.0683
 3988TIP3    H211971   1.675   1.070   1.465  0.7679 -0.1297 -0.5825
 3989TIP3   OH211972   0.708   1.721   0.670  0.0345  0.1250  0.1901
 3989TIP3    H111973   0.703   1.816   0.682  1.2431  0.6020 -2.4823
 3989TIP3    H211974   0.801   1.701   0.666 -0.2110 -1.0984  0.0598
 3990TIP3   OH211975   2.885   5.189   4.344  0.0110  0.3768  0.0848
 3990TIP3    H111976   2.841   5.268   4.313  1.9168  0.6111 -2.2724
 3990TIP3    H211977   2.849   5.175   4.432 -3.2024  1.6564 -0.8692
 3991TIP3   OH211978   4.730   2.862   0.087 -0.5866  0.2538 -0.3391
 3991TIP3    H111979   4.798   2.927   0.108  0.3939 -0.0163 -2.4660
 3991TIP3    H211980   4.684   2.849   0.170  2.1306  0.2340  1.3049
 3992TIP3   OH211981  -0.014   1.470   1.452 -0.5499  0.0726  0.1108
 3992TIP3    H111982   0.032   1.554   1.450 -1.1414  0.3891 -0.5092
 3992TIP3    H211983   0.055   1.404   1.461 -0.0722  0.6154  0.4356
 3993TIP3   OH211984   4.531   4.784   0.531  0.0444 -0.0040 -0.3531
 3993TIP3    H111985   4.571   4.701   0.553 -1.2118  0.0511  2.4860
 3993TIP3    H211986   4.537   4.837   0.611 -0.9038  1.9312 -1.4662
 3994TIP3   OH211987   0.994   1.782   2.693  0.1938 -0.3060  0.1888
 3994TIP3    H111988   1.001   1.750   2.603 -1.1570  0.6514 -0.2978
 3994TIP3    H211989   0.918   1.736   2.729 -0.2265  0.4733  0.3129
 3995TIP3   OH211990   5.560   4.704   2.113 -0.2429 -0.3262  0.3423
 3995TIP3    H111991   5.567   4.659   2.029  0.8752 -0.2441  0.3753
 3995TIP3    H211992   5.488   4.660   2.158 -2.1081  0.8148 -1.3473
 3996TIP3   OH211993   1.855   4.373   0.366  0.1933  0.3182  1.2689
 3996TIP3    H111994   1.840   4.375   0.461 -1.0982  1.2091  1.0686
 3996TIP3    H211995   1.775   4.334   0.330  1.1507 -1.0939  0.6127
 3997TIP3   OH211996   2.743   5.674   3.384 -0.2804 -0.5159 -0.0771
 3997TIP3    H111997   2.698   5.619   3.449  0.3758  1.8536  2.5917
 3997TIP3    H211998   2.836   5.656   3.397 -0.1204  0.3104 -0.0085
 3998TIP3   OH211999   3.092   5.183   2.882 -0.1877 -0.0034  0.0847
 3998TIP3    H112000   3.162   5.247   2.892  1.6252 -2.1785  2.9167
 3998TIP3    H212001   3.117   5.132   2.804  0.7499 -0.0038  0.3806
 3999TIP3   OH212002   1.313   1.795   1.973 -0.1649 -0.1183 -0.6282
 3999TIP3    H112003   1.324   1.725   2.038  0.6484 -0.5437 -1.2065
 3999TIP3    H212004   1.265   1.754   1.901  1.8508 -0.6355 -1.7560
 4000TIP3   OH212005   1.654   1.415   3.556 -0.1173 -0.3902  0.0244
 4000TIP3    H112006   1.663   1.480   3.626 -0.0954  0.3655 -0.6658
 4000TIP3    H212007   1.612   1.340   3.598  1.4675 -0.6382  1.2745
 4001TIP3   OH212008   1.806   3.264   1.979  0.0027  0.5746 -0.3062
 4001TIP3    H112009   1.746   3.252   1.906  1.8111 -1.0339 -1.6447
 4001TIP3    H212010   1.779   3.199   2.044  0.4710 -0.3795 -1.0463
 4002TIP3   OH212011   1.109   0.849   3.077  0.3197 -0.8578  0.5312
 4002TIP3    H112012   1.033   0.866   3.133 -0.2813 -1.4062 -0.1042
 4002TIP3    H212013   1.180   0.831   3.139 -0.5054 -2.1579  1.1415
 4003TIP3   OH212014   5.587   1.146   0.705  0.4840  0.4279  0.6979
 4003TIP3    H112015   5.534   1.119   0.780  0.4201  0.3944  0.6412
 4003TIP3    H212016   5.530   1.204   0.655  1.1689  1.9727  1.6588
 4004TIP3   OH212017   1.637   2.235   3.782  0.2608  0.2851 -0.0623
 4004TIP3    H112018   1.588   2.224   3.701 -0.2952  0.5124  0.2310
 4004TIP3    H212019   1.678   2.322   3.775  0.3866  0.2149 -0.1892
 4005TIP3   OH212020   2.611   2.512   4.520  0.1891  0.1242 -0.3378
 4005TIP3    H112021   2.551   2.438   4.532 -0.2716  0.4490 -0.6249
 4005TIP3    H212022   2.645   2.529   4.608  0.2864 -0.4207 -0.2672
 4006TIP3   OH212023   4.887   2.365   1.332 -0.3670  0.0576 -0.2626
 4006TIP3    H112024   4.884   2.460   1.334 -2.3460  0.0333  0.9508
 4006TIP3    H212025   4.922   2.339   1.417  0.5283 -0.3064 -0.7314
 4007TIP3   OH212026   0.284   2.916   1.997  0.4480  0.2348 -0.4782
 4007TIP3    H112027   0.303   2.885   2.085  0.3134  0.9633 -0.1840
 4007TIP3    H212028   0.359   2.887   1.945  0.1034 -0.9847 -0.3270
 4008TIP3   OH212029   0.327   4.284   1.421 -0.2077  0.0060  0.9843
 4008TIP3    H112030   0.373   4.350   1.472  0.3363 -1.3492  2.3395
 4008TIP3    H212031   0.265   4.245   1.483 -1.1353 -0.1624 -0.0280
 4009TIP3   OH212032   4.596   2.951   3.673  0.2593  0.4029 -0.2554
 4009TIP3    H112033   4.510   2.985   3.699  1.4170  1.0330  3.2841
 4009TIP3    H212034   4.637   3.023   3.626 -0.0262  1.3001  0.8205
 4010TIP3   OH212035   3.874   0.230   3.086  0.1499  0.6691 -0.1657
 4010TIP3    H112036   3.885   0.254   2.994  1.3351 -0.4079 -0.3487
 4010TIP3    H212037   3.833   0.144   3.084  0.1347  0.6607  0.3183
 4011TIP3   OH212038   5.109   5.579   3.874 -0.2407  0.2195  0.0345
 4011TIP3    H112039   5.095   5.485   3.877  1.3007 -0.0412  0.2737
 4011TIP3    H212040   5.167   5.593   3.799  2.1366  0.5177  1.7959
 4012TIP3   OH212041   0.720   1.966   4.617  0.6979 -0.0085  0.3571
 4012TIP3    H112042   0.778   2.041   4.608  0.5418  0.1571  0.7251
 4012TIP3    H212043   0.653   1.994   4.679  0.3320 -0.2628  0.0873
 4013TIP3   OH212044   5.828   0.989   0.195  0.2040 -0.0168 -0.2783
 4013TIP3    H112045   5.855   1.077   0.170 -0.0751 -0.0352 -0.6540
 4013TIP3    H212046   5.733   0.989   0.183  0.2219 -0.4176 -0.4328
 4014TIP3   OH212047   4.504   4.922   4.832 -0.0601  0.5827  0.2758
 4014TIP3    H112048   4.592   4.956   4.816  0.8554 -1.8103 -0.2148
 4014TIP3    H212049   4.462   4.988   4.888  1.2906  2.7773 -1.1684
 4015TIP3   OH212050   3.185   2.374   0.625 -0.6420 -0.0266 -0.6355
 4015TIP3    H112051   3.159   2.428   0.700 -1.1947 -1.6493  0.3704
 4015TIP3    H212052   3.112   2.314   0.612  0.1620 -0.8570 -1.4544
 4016TIP3   OH212053   5.469   2.071   3.734  0.2512  0.3745  0.6417
 4016TIP3    H112054   5.502   2.161   3.732 -1.4511  1.0419  0.9653
 4016TIP3    H212055   5.390   2.074   3.680 -0.2319 -0.7456  1.2616
 4017TIP3   OH212056   0.534   2.900   4.262  0.0000  0.0409 -0.1979
 4017TIP3    H112057   0.493   2.815   4.247 -1.0284  0.5257 -0.2296
 4017TIP3    H212058   0.615   2.898   4.210 -0.3249 -0.6821 -0.6847
 4018TIP3   OH212059   4.716   4.601   2.303  0.3710  0.1917 -0.1073
 4018TIP3    H112060   4.745   4.590   2.212 -0.8327  0.0719 -0.4974
 4018TIP3    H212061   4.638   4.656   2.296  0.8086  0.9719  0.9562
 4019TIP3   OH212062   2.969   3.107   1.815 -0.0793 -0.6908 -0.1551
 4019TIP3    H112063   3.061   3.088   1.835  0.2451  0.5127 -0.4170
 4019TIP3    H212064   2.921   3.031   1.849  1.0689 -1.6734 -0.6465
 4020TIP3   OH212065   2.944   5.956   1.799  0.5895  0.0299 -0.1194
 4020TIP3    H112066   2.901   6.039   1.779 -0.7589 -0.5689  0.2091
 4020TIP3    H212067   3.012   5.948   1.733 -0.6948  0.3635 -1.5316
 4021TIP3   OH212068   2.049   0.671   2.097  0.4217  0.1711 -0.5551
 4021TIP3    H112069   2.080   0.662   2.007 -0.1008 -0.4566 -0.6809
 4021TIP3    H212070   2.055   0.583   2.134 -0.4604  0.1836 -0.3504
 4022TIP3   OH212071   0.949   4.435   3.291 -0.2362 -0.4531 -0.5634
 4022TIP3    H112072   0.887   4.461   3.223 -2.2882 -2.3683  0.4686
 4022TIP3    H212073   0.908   4.463   3.373  1.8385  1.1394  0.0264
 4023TIP3   OH212074   5.598   4.694   1.580  0.0162  0.0642 -0.3483
 4023TIP3    H112075   5.534   4.638   1.536  0.1262  0.2712 -0.7743
 4023TIP3    H212076   5.671   4.635   1.601 -0.4818 -0.2547  0.4941
 4024TIP3   OH212077   2.648   4.082   4.701  0.5706 -0.0440 -0.6068
 4024TIP3    H112078   2.729   4.111   4.743  1.2340 -0.9874 -1.2006
 4024TIP3    H212079   2.588   4.065   4.774  0.9563  0.4966 -0.1555
 4025TIP3   OH212080   1.387   3.360   4.507 -0.1950 -0.4192  0.2714
 4025TIP3    H112081   1.354   3.301   4.439 -1.4953 -1.3834  1.6642
 4025TIP3    H212082   1.331   3.437   4.500 -0.3784 -0.5497  0.2912
 4026TIP3   OH212083   2.589   3.016   2.433 -0.3046 -0.3387  0.5383
 4026TIP3    H112084   2.659   3.046   2.375  0.4784  2.6864  2.7969
 4026TIP3    H212085   2.634   2.987   2.512 -1.5140 -0.8032  1.0780
 4027TIP3   OH212086   6.172   0.635   4.216  0.1835 -0.2020 -0.1156
 4027TIP3    H112087   6.152   0.551   4.258  0.9025 -0.4931 -0.3396
 4027TIP3    H212088   6.091   0.686   4.225  0.1351 -0.4683  1.1010
 4028TIP3   OH212089   6.329   4.671   4.413 -0.0165 -0.5166  0.0106
 4028TIP3    H112090   6.341   4.674   4.508  2.5779  0.9086 -0.2711
 4028TIP3    H212091   6.236   4.651   4.401 -0.3156 -1.1894  2.8243
 4029TIP3   OH212092   1.598   4.360   5.158  0.0751  0.0767  0.1884
 4029TIP3    H112093   1.643   4.425   5.105 -1.0916  1.2814  0.5915
 4029TIP3    H212094   1.665   4.295   5.180  0.8650  0.1986 -1.6826
 4030TIP3   OH212095   2.579   2.962   3.984 -0.7258  0.3398  0.4470
 4030TIP3    H112096   2.645   3.030   3.999 -1.3663  1.1351 -0.2846
 4030TIP3    H212097   2.622   2.899   3.926 -1.4124  2.1631 -2.1747
 4031TIP3   OH212098   1.632   5.750   2.677 -0.0813 -0.1817 -0.4448
 4031TIP3    H112099   1.652   5.842   2.664  0.8923 -0.4535 -0.9636
 4031TIP3    H212100   1.549   5.736   2.633  0.3499  0.1918 -1.3860
 4032TIP3   OH212101   2.805   1.370   2.769 -0.4422  0.2028 -0.3368
 4032TIP3    H112102   2.775   1.460   2.760  1.1293  0.6063 -2.0986
 4032TIP3    H212103   2.899   1.377   2.785 -0.0028 -1.0995 -1.9904
 4033TIP3   OH212104   2.670   5.816   2.064  0.0980 -0.0510 -0.1737
 4033TIP3    H112105   2.651   5.755   2.135  0.4904 -0.1856 -0.1834
 4033TIP3    H212106   2.647   5.768   1.984 -1.3931  0.4864 -0.0989
 4034TIP3   OH212107   0.707   2.975   2.770  0.4417  0.0122 -0.2960
 4034TIP3    H112108   0.701   3.066   2.801 -1.7558 -0.5199  1.0386
 4034TIP3    H212109   0.700   2.923   2.850 -0.4767 -1.3735 -1.2562
 4035TIP3   OH212110   6.143   1.204   4.647 -0.1145  0.4797  0.2676
 4035TIP3    H112111   6.191   1.213   4.565  0.4426 -0.3775  0.4730
 4035TIP3    H212112   6.056   1.174   4.621 -0.0112  0.4269 -0.0220
 4036TIP3   OH212113   2.203   0.122   4.568 -0.2709 -0.3419 -0.5267
 4036TIP3    H112114   2.253   0.194   4.608  0.8595 -1.1825 -0.3511
 4036TIP3    H212115   2.113   0.154   4.563 -0.0894  0.4918  0.9898
 4037TIP3   OH212116   5.690   0.975   4.994  0.3057 -0.3201 -0.2314
 4037TIP3    H112117   5.640   0.919   4.936  0.2691  0.1721 -0.6832
 4037TIP3    H212118   5.721   0.917   5.064 -2.7864 -0.3064  1.3509
 4038TIP3   OH212119   4.633   2.932   0.338 -0.4279  0.0911  0.3073
 4038TIP3    H112120   4.692   3.006   0.353 -1.2783  0.7940  0.2601
 4038TIP3    H212121   4.546   2.971   0.333 -1.0252 -1.0305  1.3724
 4039TIP3   OH212122   5.960   4.173   2.588  0.3764  0.0230 -0.3268
 4039TIP3    H112123   6.006   4.104   2.635  0.6075 -0.4214 -1.1720
 4039TIP3    H212124   5.881   4.130   2.554  0.3112  0.2804 -0.5074
 4040TIP3   OH212125   5.567   4.121   1.014  0.4007  0.2211  0.5118
 4040TIP3    H112126   5.483   4.085   1.041  1.3743 -1.7031  1.1372
 4040TIP3    H212127   5.550   4.160   0.928 -0.6468 -2.1807 -0.4471
 4041TIP3   OH212128   3.709   0.336   2.788  0.4255 -0.0640 -0.1168
 4041TIP3    H112129   3.664   0.325   2.704  0.5468 -1.2692 -0.0398
 4041TIP3    H212130   3.641   0.320   2.853  0.2313  1.2831  0.0381
 4042TIP3   OH212131   0.071   0.172   2.141 -0.1230  0.8093  0.2936
 4042TIP3    H112132   0.040   0.087   2.172  0.4083  0.7937  0.8045
 4042TIP3    H212133   0.148   0.190   2.195  0.6940  0.8932 -0.8676
 4043TIP3   OH212134   4.157   2.233   2.627  0.3735 -0.6230  0.2516
 4043TIP3    H112135   4.148   2.185   2.544  1.4676  0.1234 -0.3211
 4043TIP3    H212136   4.112   2.316   2.611 -0.8445 -1.1134  0.9833
 4044TIP3   OH212137   6.076   2.725   0.214  0.0083 -0.3475 -0.1060
 4044TIP3    H112138   6.136   2.719   0.288 -1.4119 -0.3113  1.0797
 4044TIP3    H212139   6.051   2.635   0.195  1.0240 -0.4447 -1.1462
 4045TIP3   OH212140   3.176   5.535   4.791  0.2071 -1.1275  0.1633
 4045TIP3    H112141   3.164   5.629   4.807 -1.1276 -1.4455  1.2130
 4045TIP3    H212142   3.161   5.524   4.697 -0.6457 -0.4318  0.2115
 4046TIP3   OH212143   3.652   3.045   3.091 -0.1940  0.1631  0.3368
 4046TIP3    H112144   3.740   3.077   3.072  0.0975  0.4434  2.0764
 4046TIP3    H212145   3.596   3.122   3.085 -0.4734 -0.1178 -1.3891
 4047TIP3   OH212146   0.772   3.934   2.109 -0.1211  1.0219 -0.4191
 4047TIP3    H112147   0.722   3.983   2.174 -0.6342  0.0430 -0.0492
 4047TIP3    H212148   0.706   3.887   2.058  0.3580  0.6454 -0.7053
 4048TIP3   OH212149   2.056   3.839   3.902 -0.0079 -0.0378 -0.0636
 4048TIP3    H112150   2.030   3.849   3.810 -0.1889  2.2476  0.1629
 4048TIP3    H212151   2.085   3.927   3.927  0.9251 -0.8327  1.8166
 4049TIP3   OH212152   5.133   2.591   2.030 -0.3809  0.1553 -0.1442
 4049TIP3    H112153   5.215   2.620   2.068 -0.6425  0.2627  0.3372
 4049TIP3    H212154   5.068   2.602   2.099 -1.4191  2.9339 -1.4175
 4050TIP3   OH212155   0.824   2.238   4.567  0.1159 -0.4463 -0.1459
 4050TIP3    H112156   0.864   2.319   4.535 -2.2535  0.0986 -2.0700
 4050TIP3    H212157   0.761   2.267   4.634  0.9619 -0.9953  0.9170
 4051TIP3   OH212158   3.972   1.259   2.412  0.1109 -0.1034  0.2554
 4051TIP3    H112159   3.905   1.204   2.372  1.7115 -1.9817  0.0188
 4051TIP3    H212160   3.999   1.211   2.490  0.9278  0.8154  0.5537
 4052TIP3   OH212161   3.768   2.079   2.886 -0.0349  0.4106 -0.6640
 4052TIP3    H112162   3.775   2.107   2.978 -0.9134 -0.8876 -0.1743
 4052TIP3    H212163   3.830   2.135   2.840 -0.0117  1.5047  0.6247
 4053TIP3   OH212164   0.256   1.379   3.238 -0.0165  0.2399  0.3135
 4053TIP3    H112165   0.174   1.358   3.283 -0.2423  1.3328  0.4353
 4053TIP3    H212166   0.252   1.473   3.222  0.9476  0.2091 -0.2327
 4054TIP3   OH212167   2.596   5.724   4.264 -0.1813 -0.3310 -0.5549
 4054TIP3    H112168   2.638   5.750   4.345  0.2524  0.5518 -1.0473
 4054TIP3    H212169   2.606   5.800   4.206 -0.9439 -0.7459 -1.2550
 4055TIP3   OH212170   6.142   0.770   1.635 -0.1000 -0.0662  0.5175
 4055TIP3    H112171   6.230   0.796   1.662 -0.1469  0.0295  0.5774
 4055TIP3    H212172   6.093   0.761   1.717 -0.6786  1.7669  0.4046
 4056TIP3   OH212173   4.727   0.092   2.139 -0.0531 -0.3736 -0.0972
 4056TIP3    H112174   4.737   0.011   2.088  1.4755 -0.7930  0.8205
 4056TIP3    H212175   4.775   0.076   2.219  1.2609  1.8827 -0.3630
 4057TIP3   OH212176   5.747   5.304   3.410 -0.2395 -0.3434 -0.0005
 4057TIP3    H112177   5.841   5.291   3.421  0.0361  1.5273  0.1680
 4057TIP3    H212178   5.716   5.223   3.369  1.9533  0.0488 -2.7583
 4058TIP3   OH212179   1.608   1.128   2.637 -0.0208 -0.2479 -0.3851
 4058TIP3    H112180   1.659   1.051   2.660  0.1846 -0.1174 -0.3990
 4058TIP3    H212181   1.518   1.096   2.629 -0.5051  0.0281  2.5710
 4059TIP3   OH212182   4.520   2.240   3.349 -0.3938  0.5892 -0.7051
 4059TIP3    H112183   4.557   2.159   3.315  0.1391  0.5546 -0.0562
 4059TIP3    H212184   4.425   2.225   3.348 -0.2734 -0.5265  0.5348
 4060TIP3   OH212185   5.625   3.348   3.682  0.3390  0.0875  0.0723
 4060TIP3    H112186   5.685   3.371   3.754 -0.2504  0.1475  0.5496
 4060TIP3    H212187   5.547   3.315   3.726 -0.1903  0.5251 -0.5360
 4061TIP3   OH212188   5.246   4.757   3.710  0.0891 -0.1602  0.0793
 4061TIP3    H112189   5.296   4.781   3.788 -1.5971 -0.9709  1.4720
 4061TIP3    H212190   5.311   4.756   3.640  1.5715  1.1032  1.3455
 4062TIP3   OH212191   5.161   3.115   0.043 -0.4422  0.3521 -0.3952
 4062TIP3    H112192   5.160   3.202   0.004 -1.7227  0.0309 -1.1293
 4062TIP3    H212193   5.134   3.130   0.134  2.8836  1.1413  0.5986
 4063TIP3   OH212194   2.469   0.226   0.657  0.3024 -0.2760 -0.1707
 4063TIP3    H112195   2.542   0.251   0.714  0.1822  1.6153 -0.7753
 4063TIP3    H212196   2.399   0.286   0.681 -0.3703 -0.6977 -1.0416
 4064TIP3   OH212197   4.009   1.781   0.457 -0.3384  0.0840  0.3967
 4064TIP3    H112198   3.944   1.851   0.446 -1.0581 -0.8847 -2.2614
 4064TIP3    H212199   4.091   1.818   0.425 -0.1277  0.4737  1.3454
 4065TIP3   OH212200   3.163   3.194   2.093  0.4772  0.3571 -0.5102
 4065TIP3    H112201   3.154   3.111   2.046  0.4142  0.8466 -1.3873
 4065TIP3    H212202   3.103   3.254   2.048 -1.7529  0.1374  1.9419
 4066TIP3   OH212203   1.066   4.515   1.220  0.3324  0.5048  0.1629
 4066TIP3    H112204   1.090   4.602   1.254 -0.3310  0.9093 -0.3728
 4066TIP3    H212205   0.994   4.487   1.275  1.1986 -0.1700  0.9862
 4067TIP3   OH212206   1.033   3.565   3.612  0.0436  0.1982  0.1247
 4067TIP3    H112207   0.993   3.483   3.640 -1.8843  1.1748  0.3965
 4067TIP3    H212208   0.960   3.626   3.604  1.4507  1.9733  0.1869
 4068TIP3   OH212209   5.347   2.812   3.841  0.1759  0.5081  0.0494
 4068TIP3    H112210   5.415   2.811   3.774 -1.2251 -0.4739 -1.4400
 4068TIP3    H212211   5.373   2.742   3.902 -1.4171 -2.7520 -2.6818
 4069TIP3   OH212212   5.591   5.748   3.355 -0.4351  0.2640  1.0286
 4069TIP3    H112213   5.565   5.676   3.299  1.5020 -0.1710  0.6075
 4069TIP3    H212214   5.666   5.787   3.311  0.1274  0.9291  2.4926
 4070TIP3   OH212215   1.381   3.696   4.123 -0.1692 -0.4054 -0.0680
 4070TIP3    H112216   1.411   3.685   4.032  1.3830  1.2369  0.1887
 4070TIP3    H212217   1.459   3.723   4.171 -0.4817 -3.0925  2.2233
 4071TIP3   OH212218   1.442   5.773   0.641  0.3582 -0.7239 -0.9019
 4071TIP3    H112219   1.368   5.728   0.599 -0.7480 -0.6531  0.8627
 4071TIP3    H212220   1.483   5.706   0.695  0.3015 -0.2662 -0.2813
 4072TIP3   OH212221   2.982   2.293   2.128 -0.5153 -0.3846 -0.1819
 4072TIP3    H112222   2.903   2.336   2.095 -1.2618 -1.2544  0.4151
 4072TIP3    H212223   3.026   2.260   2.049  0.5696  2.1943 -0.7449
 4073TIP3   OH212224   5.441   2.220   3.280 -0.5558  0.4931 -1.0029
 4073TIP3    H112225   5.504   2.291   3.293  0.5845 -0.1828 -2.5808
 4073TIP3    H212226   5.464   2.154   3.345  1.3323 -0.3571 -2.4381
 4074TIP3   OH212227   2.162   1.568   1.363  0.1616  0.2935  0.2527
 4074TIP3    H112228   2.179   1.501   1.428  0.9176 -0.2403 -0.4751
 4074TIP3    H212229   2.179   1.651   1.408  1.4923 -0.0998  0.5097
 4075TIP3   OH212230   3.256   5.714   3.355 -0.5420  0.3472 -0.2189
 4075TIP3    H112231   3.346   5.681   3.354 -0.2968  1.0076 -1.8258
 4075TIP3    H212232   3.257   5.784   3.420  0.7041  1.8480 -1.7534
 4076TIP3   OH212233   6.187   2.502   1.790 -0.3814  0.2009  0.9973
 4076TIP3    H112234   6.127   2.525   1.860  0.2076  0.6190  1.3679
 4076TIP3    H212235   6.160   2.556   1.715 -0.4822  0.3694  1.1560
 4077TIP3   OH212236   1.527   4.735   3.143 -0.0696 -0.0447 -0.0389
 4077TIP3    H112237   1.591   4.722   3.214  0.3552  1.2100 -0.1671
 4077TIP3    H212238   1.512   4.830   3.141 -0.0531 -0.0427 -1.6376
 4078TIP3   OH212239   3.890   4.884   1.737  0.1139 -0.7940  0.3256
 4078TIP3    H112240   3.931   4.958   1.693 -1.6195 -0.0908 -0.1644
 4078TIP3    H212241   3.914   4.808   1.683 -2.8037  0.1572 -2.5908
 4079TIP3   OH212242   2.558   1.182   0.559 -0.1370  0.5835 -0.2132
 4079TIP3    H112243   2.481   1.237   0.547 -0.5375 -0.0616 -0.6452
 4079TIP3    H212244   2.605   1.187   0.475  0.4810  1.2434  0.1568
 4080TIP3   OH212245   3.050   2.596   1.951  0.0604  0.0050  0.9094
 4080TIP3    H112246   3.006   2.553   1.877  0.4779  1.4728 -0.2486
 4080TIP3    H212247   3.131   2.545   1.964  0.0636 -0.1658  0.2497
 4081TIP3   OH212248   0.354   2.718   2.590 -0.1556  0.1778  0.6197
 4081TIP3    H112249   0.307   2.801   2.595 -0.2589  0.1822 -0.1716
 4081TIP3    H212250   0.440   2.741   2.555 -0.6778 -0.1835 -1.0387
 4082TIP3   OH212251   1.267   0.444   1.986 -0.2416  0.0778  0.0106
 4082TIP3    H112252   1.283   0.509   1.917  0.0394  0.0804  0.0783
 4082TIP3    H212253   1.299   0.486   2.066  0.5069 -0.3832 -0.0411
 4083TIP3   OH212254   4.161   3.134   0.766  0.6275  0.3184  0.0011
 4083TIP3    H112255   4.200   3.049   0.747  0.9877  0.6366 -0.7361
 4083TIP3    H212256   4.158   3.179   0.682 -1.8023  0.1367 -0.0629
 4084TIP3   OH212257   2.195   1.485   4.039  0.2719  0.2972 -0.2483
 4084TIP3    H112258   2.281   1.505   4.002  0.3135  1.7258  0.5440
 4084TIP3    H212259   2.192   1.535   4.120 -1.2745  0.1821 -0.2071
 4085TIP3   OH212260   2.328   5.025   0.636 -0.8459 -0.3251 -0.8350
 4085TIP3    H112261   2.278   5.105   0.616 -0.8802  0.0486  0.6720
 4085TIP3    H212262   2.419   5.054   0.639 -0.8991 -0.2394  0.1626
 4086TIP3   OH212263   3.506   0.715   4.809  0.0844  0.9188 -0.0354
 4086TIP3    H112264   3.536   0.769   4.882  1.1039  0.0567  0.2200
 4086TIP3    H212265   3.584   0.702   4.755 -0.7140  1.7621 -1.4456
 4087TIP3   OH212266   6.233   5.467   4.863  0.7967 -0.5221  0.3833
 4087TIP3    H112267   6.146   5.488   4.897 -0.7064 -1.3826 -2.5302
 4087TIP3    H212268   6.251   5.378   4.894  0.6891 -0.3131  1.0580
 4088TIP3   OH212269   1.748   0.444   3.117 -0.0460 -0.5465 -0.5313
 4088TIP3    H112270   1.839   0.440   3.148 -0.6084 -1.2247  1.1890
 4088TIP3    H212271   1.749   0.509   3.047  1.4023  0.9375  0.7829
 4089TIP3   OH212272   0.398   1.230   5.093 -0.2774 -0.1915  0.6839
 4089TIP3    H112273   0.469   1.287   5.063 -1.2903  0.3381 -0.8534
 4089TIP3    H212274   0.376   1.177   5.017 -3.3176  1.5696  0.1549
 4090TIP3   OH212275   2.895   5.123   4.889 -0.1603 -0.0769 -0.2631
 4090TIP3    H112276   2.893   5.217   4.872 -0.0014  0.3938  1.9965
 4090TIP3    H212277   2.803   5.098   4.901 -0.1299  0.0223  0.1943
 4091TIP3   OH212278   5.379   2.194   2.423  0.3186  0.1370  0.2462
 4091TIP3    H112279   5.306   2.206   2.362  0.2853  1.1303  0.4593
 4091TIP3    H212280   5.429   2.275   2.417  1.4843 -0.5770  0.0194
 4092TIP3   OH212281   3.878   4.303   0.981 -0.4096  0.3450 -0.4409
 4092TIP3    H112282   3.918   4.388   0.962  0.6979  0.0306  0.3591
 4092TIP3    H212283   3.899   4.287   1.073  0.4995 -1.3667 -0.9126
 4093TIP3   OH212284   1.349   3.458   0.513  0.1586  0.1376 -0.1273
 4093TIP3    H112285   1.329   3.382   0.458  3.2206 -0.0560 -1.1702
 4093TIP3    H212286   1.379   3.525   0.451  0.0404  1.2811  1.0013
 4094TIP3   OH212287   4.954   1.047   5.063  0.7582 -0.2671  0.1357
 4094TIP3    H112288   4.932   0.978   5.000  1.0521 -0.2757  0.0410
 4094TIP3    H212289   5.033   1.016   5.106  0.6409 -0.1897  0.4048
 4095TIP3   OH212290   3.892   0.528   3.700 -0.4364  0.3903 -0.1032
 4095TIP3    H112291   3.952   0.551   3.629 -0.2022 -1.4329 -0.5434
 4095TIP3    H212292   3.810   0.505   3.655 -0.5989  0.1794  0.2967
 4096TIP3   OH212293   2.375   0.739   0.724 -0.3303  0.4175  0.4118
 4096TIP3    H112294   2.444   0.798   0.754  0.6648 -0.0118 -0.9074
 4096TIP3    H212295   2.351   0.772   0.637 -0.6851 -0.3385  0.2066
 4097TIP3   OH212296   1.096   5.801   1.578  0.3714  0.1295  0.6703
 4097TIP3    H112297   1.151   5.804   1.500  2.4031  0.4229  2.0351
 4097TIP3    H212298   1.143   5.855   1.642 -1.6721  0.6198  1.8389
 4098TIP3   OH212299   5.014   4.223   1.209 -0.5118 -0.2747 -0.9139
 4098TIP3    H112300   4.961   4.231   1.129  0.1387  0.8126 -1.2721
 4098TIP3    H212301   5.084   4.288   1.197 -0.3685 -0.1406  0.5219
 4099TIP3   OH212302   3.964   3.148   1.994  0.1740  0.2513 -0.6334
 4099TIP3    H112303   3.933   3.164   1.905  1.2532 -0.2833 -1.1242
 4099TIP3    H212304   3.893   3.100   2.036  0.2732 -0.9109 -1.7206
 4100TIP3   OH212305   1.330   2.000   3.382 -0.1077  0.0710  0.3115
 4100TIP3    H112306   1.421   2.030   3.387  0.6131 -1.0516 -3.0062
 4100TIP3    H212307   1.333   1.908   3.410 -0.0542 -0.1749 -0.4785
 4101TIP3   OH212308   1.345   4.111   1.211 -0.0954 -0.5334 -0.2036
 4101TIP3    H112309   1.339   4.016   1.205 -0.4612 -0.4855 -0.5852
 4101TIP3    H212310   1.255   4.142   1.201 -0.1375 -0.1984  0.9521
 4102TIP3   OH212311   0.409   0.443   0.157 -0.8117  0.5249 -0.1110
 4102TIP3    H112312   0.467   0.490   0.097 -1.5230  0.8725 -0.5262
 4102TIP3    H212313   0.444   0.354   0.159  1.4294  1.3490  1.7701
 4103TIP3   OH212314   4.425   4.606   2.833 -0.1687 -0.0832 -0.9214
 4103TIP3    H112315   4.432   4.542   2.763 -0.4903 -1.1402 -0.0078
 4103TIP3    H212316   4.494   4.582   2.895 -0.1762  0.5640 -0.6520
 4104TIP3   OH212317   5.655   5.227   4.993  0.1100 -0.1166 -0.1390
 4104TIP3    H112318   5.700   5.158   5.042  0.8215  0.1863 -0.3684
 4104TIP3    H212319   5.696   5.226   4.907  0.5049  0.9659  0.0302
 4105TIP3   OH212320   5.923   1.798   3.480 -0.3541  0.1764 -0.1697
 4105TIP3    H112321   5.998   1.802   3.421  0.6244  0.7839  1.0661
 4105TIP3    H212322   5.854   1.846   3.434  0.9778  2.3682 -0.0406
 4106TIP3   OH212323   3.281   4.853   3.755 -0.4692 -0.4679  0.9131
 4106TIP3    H112324   3.233   4.791   3.811 -1.1873  1.5054  2.5878
 4106TIP3    H212325   3.287   4.933   3.807  1.5767  0.4960 -0.6773
 4107TIP3   OH212326   1.807   4.059   2.218 -0.5199 -0.4524  0.1703
 4107TIP3    H112327   1.887   4.102   2.248 -0.3010 -0.6422 -0.1323
 4107TIP3    H212328   1.797   4.088   2.127 -0.5237 -0.8188  0.0527
 4108TIP3   OH212329   2.641   5.679   1.002  0.0091 -0.1680 -0.6902
 4108TIP3    H112330   2.705   5.749   1.014 -0.3344  0.2148 -1.0487
 4108TIP3    H212331   2.694   5.601   0.985  0.3803  0.3422 -2.0258
 4109TIP3   OH212332   4.987   5.149   0.765 -0.0812  0.7629  0.3251
 4109TIP3    H112333   4.893   5.163   0.752 -0.5483 -1.8483  0.3741
 4109TIP3    H212334   5.017   5.108   0.685 -0.1704 -3.1858  2.1089
 4110TIP3   OH212335   2.010   3.628   4.848  0.0177 -0.0805 -0.0891
 4110TIP3    H112336   1.954   3.554   4.824  0.1850 -0.4622  0.6653
 4110TIP3    H212337   2.097   3.590   4.858 -0.0493  0.0441  1.1327
 4111TIP3   OH212338   0.484   4.694   2.283  0.3388 -0.1038  0.1112
 4111TIP3    H112339   0.534   4.771   2.256  1.8559 -1.0140  0.2104
 4111TIP3    H212340   0.480   4.700   2.378 -0.8181  0.5871  0.0379
 4112TIP3   OH212341   1.770   0.487   1.533 -0.1612  0.3939 -0.4985
 4112TIP3    H112342   1.700   0.424   1.548  0.7834 -0.9525 -1.4012
 4112TIP3    H212343   1.804   0.506   1.621 -0.9204  0.1895 -0.1518
 4113TIP3   OH212344   4.793   4.718   3.352 -0.1584  0.0194  0.2781
 4113TIP3    H112345   4.753   4.740   3.437 -2.0548 -2.9246  0.2876
 4113TIP3    H212346   4.750   4.777   3.290 -0.6395  0.4853  1.0239
 4114TIP3   OH212347   1.091   0.385   1.656  1.0730 -0.1509  0.4651
 4114TIP3    H112348   1.057   0.297   1.646  0.3032  0.1974 -0.1006
 4114TIP3    H212349   1.132   0.405   1.571  1.2541  0.0322  0.5927
 4115TIP3   OH212350   3.871   0.324   4.261  0.5895  0.6889  0.0125
 4115TIP3    H112351   3.899   0.283   4.179  1.2845  0.1388  0.5054
 4115TIP3    H212352   3.829   0.253   4.310 -0.1784  1.1122 -0.0250
 4116TIP3   OH212353   4.723   1.534   3.153  0.0386  0.1368 -0.1431
 4116TIP3    H112354   4.674   1.456   3.178  0.3282 -0.2194 -0.6561
 4116TIP3    H212355   4.815   1.505   3.152  0.1815  0.5731 -0.0021
 4117TIP3   OH212356   5.806   4.419   1.366  0.0465  0.1423  0.3782
 4117TIP3    H112357   5.845   4.471   1.436  1.4689  0.8689 -0.8894
 4117TIP3    H212358   5.854   4.445   1.287  0.0144 -2.2283 -0.5112
 4118TIP3   OH212359   6.105   5.762   3.970  0.2817  0.0442  0.5403
 4118TIP3    H112360   6.195   5.764   4.002  0.1132  2.1584  1.0255
 4118TIP3    H212361   6.091   5.848   3.931 -1.6669 -0.0651  0.8864
 4119TIP3   OH212362   0.720   5.045   4.506 -0.2656  0.7051  0.6929
 4119TIP3    H112363   0.767   4.964   4.488 -0.3482  0.6028  0.9299
 4119TIP3    H212364   0.660   5.055   4.432  0.4224  1.0583  0.1772
 4120TIP3   OH212365   2.158   4.359   4.000 -0.2466 -0.0759 -0.5741
 4120TIP3    H112366   2.180   4.445   4.036 -1.8442 -0.3182  1.1195
 4120TIP3    H212367   2.063   4.354   4.005 -0.0899 -3.2763  2.7860
 4121TIP3   OH212368   1.667   2.413   2.556 -0.3402  0.9298 -0.3419
 4121TIP3    H112369   1.729   2.349   2.591  1.1073  1.6983 -1.4101
 4121TIP3    H212370   1.582   2.384   2.589  0.6240  0.1591  1.6404
 4122TIP3   OH212371   4.214   5.979   4.745 -0.3637 -0.0069 -0.0240
 4122TIP3    H112372   4.248   5.933   4.668  3.6300  1.1335  0.8298
 4122TIP3    H212373   4.246   5.927   4.819 -2.8738 -0.2736  0.9515
 4123TIP3   OH212374   2.620   4.734   0.153  0.2180  0.0168  0.0672
 4123TIP3    H112375   2.635   4.742   0.059 -1.4371  2.2255 -0.0975
 4123TIP3    H212376   2.626   4.640   0.171 -1.0312 -0.6379 -2.5280
 4124TIP3   OH212377   4.191   5.649   1.819  0.1065 -0.3745 -0.2633
 4124TIP3    H112378   4.275   5.669   1.778  1.2889 -0.0959  2.0615
 4124TIP3    H212379   4.143   5.732   1.817 -0.9233 -0.9326 -3.1229
 4125TIP3   OH212380   3.469   3.380   0.495 -0.1005  0.1336  0.3357
 4125TIP3    H112381   3.487   3.322   0.568 -0.3753 -0.0414  0.2629
 4125TIP3    H212382   3.493   3.330   0.417 -0.7126 -0.0245  0.2503
 4126TIP3   OH212383   5.481   0.601   4.103  0.4599  0.4265  0.2927
 4126TIP3    H112384   5.452   0.515   4.134  0.2596  0.2840 -0.2805
 4126TIP3    H212385   5.480   0.593   4.007  2.1123  0.4953  0.2332
 4127TIP3   OH212386   3.714   5.323   4.546  0.4770  0.2718 -0.4006
 4127TIP3    H112387   3.648   5.355   4.485 -2.6764 -2.4668  1.2719
 4127TIP3    H212388   3.789   5.300   4.490 -1.1593  0.5106 -2.8418
 4128TIP3   OH212389   2.348   0.522   3.486 -0.0692  0.6814  0.2802
 4128TIP3    H112390   2.316   0.610   3.465  2.3207  1.4868 -0.3830
 4128TIP3    H212391   2.443   0.529   3.477  0.1945 -1.9929  0.2301
 4129TIP3   OH212392   6.239   1.414   2.634 -0.7268  0.0734  0.3451
 4129TIP3    H112393   6.253   1.506   2.654 -3.8279  0.8461 -0.5954
 4129TIP3    H212394   6.203   1.377   2.714  1.1482 -0.5585  0.9474
 4130TIP3   OH212395   0.683   1.164   0.735 -1.1245  0.4486 -0.2230
 4130TIP3    H112396   0.623   1.167   0.809  1.6869  1.8618  2.2132
 4130TIP3    H212397   0.676   1.251   0.694 -0.3078  0.8505  0.4728
 4131TIP3   OH212398   4.893   0.822   3.521 -0.0211  0.1449  0.4987
 4131TIP3    H112399   4.951   0.898   3.511 -0.1466  0.2757  0.7639
 4131TIP3    H212400   4.924   0.760   3.454 -0.4066  0.7397 -0.2540
 4132TIP3   OH212401   1.669   5.709   4.006 -0.1883 -0.4741  0.1252
 4132TIP3    H112402   1.639   5.631   4.052  0.7759  0.7492  3.1304
 4132TIP3    H212403   1.626   5.781   4.052  1.5880  0.9127 -0.2827
 4133TIP3   OH212404   2.647   0.476   4.240 -0.2081  0.3302 -0.2125
 4133TIP3    H112405   2.651   0.441   4.151  1.4134  0.0467 -0.0561
 4133TIP3    H212406   2.629   0.400   4.295  1.1079  0.0822 -0.0920
 4134TIP3   OH212407   3.113   3.111   2.961  0.4562  0.0770  0.1804
 4134TIP3    H112408   3.026   3.085   2.992  0.2770  1.0953  0.5364
 4134TIP3    H212409   3.151   3.161   3.033  1.6141 -0.9103  0.2861
 4135TIP3   OH212410   3.877   2.379   1.096  0.3514 -0.5724 -0.7400
 4135TIP3    H112411   3.782   2.372   1.090  0.3461 -0.9973 -0.2197
 4135TIP3    H212412   3.894   2.409   1.185  0.7192 -0.9248 -0.6858
 4136TIP3   OH212413   3.054   2.203   3.669 -0.5870 -0.0263  0.4540
 4136TIP3    H112414   3.042   2.114   3.700 -1.6126 -0.3118 -0.6717
 4136TIP3    H212415   2.989   2.255   3.716  1.0299  0.4665  2.2681
 4137TIP3   OH212416   0.026   2.344   4.641 -0.2011  0.0736  0.4601
 4137TIP3    H112417   0.079   2.399   4.583 -0.7705  1.6368  1.3540
 4137TIP3    H212418  -0.064   2.360   4.613 -0.3375 -1.0933  0.1866
 4138TIP3   OH212419   3.052   4.171   0.810  0.4703  0.1631  0.0602
 4138TIP3    H112420   3.116   4.136   0.748  0.4212 -0.1680  0.1939
 4138TIP3    H212421   3.105   4.208   0.880  0.5278  0.6394 -0.2318
 4139TIP3   OH212422   3.183   3.626   4.864 -0.0068 -0.4979  0.3996
 4139TIP3    H112423   3.148   3.539   4.844  0.3331 -0.9801  1.7972
 4139TIP3    H212424   3.167   3.677   4.784 -1.1643 -1.5358 -0.0738
 4140TIP3   OH212425   0.137   3.593   4.335  0.2616 -0.2586  0.4600
 4140TIP3    H112426   0.173   3.680   4.354  1.4531 -0.6907  0.2597
 4140TIP3    H212427   0.119   3.555   4.421 -0.6319  0.3143  0.5452
 4141TIP3   OH212428   5.821   5.390   1.872 -0.3891  0.2779 -0.1466
 4141TIP3    H112429   5.755   5.373   1.804  0.4830 -0.7945 -0.7507
 4141TIP3    H212430   5.798   5.329   1.943 -0.5859  0.5513  0.0262
 4142TIP3   OH212431   2.338   4.235   4.427  0.0527 -0.1226  0.0617
 4142TIP3    H112432   2.379   4.304   4.479  0.9781 -1.9739  1.9757
 4142TIP3    H212433   2.411   4.182   4.396 -0.6820 -1.1063 -0.0275
 4143TIP3   OH212434   4.131   2.932   1.309 -0.4999 -0.1772 -0.0805
 4143TIP3    H112435   4.111   2.929   1.403 -0.1130 -0.0762  0.0091
 4143TIP3    H212436   4.198   2.864   1.298 -1.9926 -1.6185 -0.6577
 4144TIP3   OH212437   2.864   3.854   0.956  0.3274 -0.3372  0.7338
 4144TIP3    H112438   2.852   3.893   1.042  0.9077  0.8000  0.3346
 4144TIP3    H212439   2.872   3.930   0.897  3.3878 -0.9599  0.1642
 4145TIP3   OH212440   2.576   2.247   3.157 -0.4886  0.7910 -0.4797
 4145TIP3    H112441   2.488   2.271   3.130 -0.1993  1.1062 -1.1777
 4145TIP3    H212442   2.585   2.283   3.245 -0.4621  2.2994 -1.0643
 4146TIP3   OH212443   1.619   4.315   0.251  0.5771 -0.0192 -0.1631
 4146TIP3    H112444   1.551   4.247   0.250  0.9222 -0.4097  0.9919
 4146TIP3    H212445   1.663   4.306   0.166  0.3354 -0.9621 -0.1999
 4147TIP3   OH212446   0.374   5.016   1.487  0.4735  0.3946  0.0035
 4147TIP3    H112447   0.279   5.018   1.476  0.1850  1.1836  2.1838
 4147TIP3    H212448   0.394   5.093   1.540  2.4117  0.5431 -0.8596
 4148TIP3   OH212449   0.649   2.970   2.110 -0.4492 -0.1173  0.0433
 4148TIP3    H112450   0.650   3.029   2.185  0.0436 -0.4188  0.2780
 4148TIP3    H212451   0.726   2.994   2.058  1.3482 -2.2839  1.5242
 4149TIP3   OH212452   3.542   2.156   1.664  0.2434 -0.3524  0.5343
 4149TIP3    H112453   3.544   2.135   1.757 -2.6493 -1.3040  0.4839
 4149TIP3    H212454   3.463   2.209   1.653  0.2550 -0.6680 -1.4550
 4150TIP3   OH212455   2.110   2.434   3.684  0.5585  0.0496 -0.1605
 4150TIP3    H112456   2.051   2.361   3.703 -0.8094  0.3936 -2.6918
 4150TIP3    H212457   2.068   2.510   3.724 -0.9906  0.3397 -2.1652
 4151TIP3   OH212458   3.583   3.621   3.966 -0.1990  0.2414 -0.4224
 4151TIP3    H112459   3.597   3.635   4.060  0.1869 -0.4204 -0.3741
 4151TIP3    H212460   3.551   3.705   3.934  0.3471  0.6914  0.1734
 4152TIP3   OH212461   5.503   1.653   2.425 -0.6410  0.0189  0.7000
 4152TIP3    H112462   5.498   1.724   2.360 -1.7525  2.3553  3.1567
 4152TIP3    H212463   5.492   1.573   2.373 -1.4420  1.7195 -1.9880
 4153TIP3   OH212464   2.119   2.477   1.262  0.5850  0.2066  0.4692
 4153TIP3    H112465   2.207   2.496   1.229  0.2099  1.0776 -0.0538
 4153TIP3    H212466   2.134   2.414   1.333  1.4891 -0.9145 -0.6700
 4154TIP3   OH212467   0.855   5.229   4.920  0.2828  0.8172 -0.2560
 4154TIP3    H112468   0.886   5.205   5.008  0.8484  1.9650 -0.1177
 4154TIP3    H212469   0.764   5.201   4.918 -0.2289  2.2204  1.3027
 4155TIP3   OH212470   3.091   5.480   3.651 -0.3524  0.1926  0.0911
 4155TIP3    H112471   3.106   5.558   3.705 -1.3467  0.3579  0.1470
 4155TIP3    H212472   3.035   5.511   3.580 -2.1650 -0.7979  1.0208
 4156TIP3   OH212473   3.284   3.538   1.438  0.4381 -0.0466  0.4369
 4156TIP3    H112474   3.269   3.473   1.370  1.5289 -1.3992  1.4109
 4156TIP3    H212475   3.262   3.493   1.520  0.9340  0.9081  1.1182
 4157TIP3   OH212476   5.400   1.140   4.861 -0.2799  0.3188 -0.5404
 4157TIP3    H112477   5.490   1.161   4.837  0.0084  0.6290  0.7018
 4157TIP3    H212478   5.359   1.225   4.877 -0.8174  0.1828 -1.1709
 4158TIP3   OH212479   4.848   5.165   3.183 -1.0113  0.4110 -0.1632
 4158TIP3    H112480   4.900   5.088   3.208 -1.2065 -0.2864 -1.7223
 4158TIP3    H212481   4.804   5.138   3.102 -0.6219  2.3731 -1.0848
 4159TIP3   OH212482   3.087   0.430   3.674  0.3530 -0.9172 -0.0661
 4159TIP3    H112483   3.168   0.382   3.691  1.5239  1.0477  0.1575
 4159TIP3    H212484   3.083   0.436   3.578 -0.1188 -1.9140 -0.1272
 4160TIP3   OH212485   0.522   5.416   4.635 -0.2075  0.2201  0.2969
 4160TIP3    H112486   0.513   5.400   4.541  0.6038 -0.6506  0.3599
 4160TIP3    H212487   0.601   5.368   4.661 -0.5423  0.2623  1.4632
 4161TIP3   OH212488   2.116   1.157   4.512  0.3845 -0.2670  0.3875
 4161TIP3    H112489   2.209   1.151   4.488  0.2099 -1.7919  0.0061
 4161TIP3    H212490   2.074   1.193   4.434  0.7305  1.1158  0.8125
 4162TIP3   OH212491   2.103   1.831   0.638 -0.5796 -0.3499 -0.2827
 4162TIP3    H112492   2.167   1.902   0.637 -0.8059 -0.1472 -0.9053
 4162TIP3    H212493   2.145   1.761   0.586  0.3517 -1.3263  1.6753
 4163TIP3   OH212494   5.250   2.212   1.798 -0.5001 -0.8636  0.0378
 4163TIP3    H112495   5.281   2.191   1.710  0.5803  1.6803 -0.2497
 4163TIP3    H212496   5.219   2.302   1.792 -0.8485 -0.7923  2.1760
 4164TIP3   OH212497   5.666   4.185   1.376 -0.4935  0.7225 -0.1946
 4164TIP3    H112498   5.745   4.137   1.352 -0.1512  0.6195  1.0479
 4164TIP3    H212499   5.694   4.275   1.388 -0.0862  0.3706  2.1397
 4165TIP3   OH212500   5.890   0.223   2.246  0.3778  0.2165  0.1258
 4165TIP3    H112501   5.849   0.291   2.193  0.1546 -0.0062  0.0109
 4165TIP3    H212502   5.869   0.142   2.201  0.4845  0.0550  0.3659
 4166TIP3   OH212503   4.070   2.901   0.254 -0.8168  0.0447  0.3894
 4166TIP3    H112504   3.989   2.914   0.204 -1.0187  0.4408  0.8104
 4166TIP3    H212505   4.127   2.852   0.195 -1.0925  0.4081 -0.1870
 4167TIP3   OH212506   1.818   6.005   1.396 -0.3397 -0.4019  0.1034
 4167TIP3    H112507   1.809   5.913   1.422  0.4260 -0.8724 -1.1614
 4167TIP3    H212508   1.778   6.009   1.309  0.8246  0.1240 -0.4426
 4168TIP3   OH212509   2.818   5.590   4.634 -0.0649  0.5537 -0.3031
 4168TIP3    H112510   2.801   5.575   4.727  1.7601  0.4065  0.0423
 4168TIP3    H212511   2.876   5.666   4.632  0.7817 -0.0892 -1.2427
 4169TIP3   OH212512   2.973   2.828   4.200 -0.2063 -0.8085  0.0997
 4169TIP3    H112513   3.006   2.799   4.115 -1.3013 -2.1478  0.0978
 4169TIP3    H212514   2.914   2.759   4.228  0.3748 -0.5693  2.1262
 4170TIP3   OH212515   5.336   1.821   4.703 -0.9670  0.3708  0.3977
 4170TIP3    H112516   5.427   1.837   4.731 -0.9838  0.4619  0.4014
 4170TIP3    H212517   5.283   1.857   4.774 -1.0874  3.2133 -0.9701
 4171TIP3   OH212518   4.086   2.235   1.686  0.4560  0.0925  0.1120
 4171TIP3    H112519   4.059   2.191   1.606 -0.4492  1.6920 -0.5135
 4171TIP3    H212520   4.042   2.188   1.756 -0.9070  0.2872 -0.5811
 4172TIP3   OH212521   1.171   0.491   0.959  0.4829 -0.5022 -0.1690
 4172TIP3    H112522   1.118   0.550   0.906 -0.4821 -3.0634 -2.2881
 4172TIP3    H212523   1.212   0.547   1.025 -0.9796  2.3279 -1.5166
 4173TIP3   OH212524   2.661   1.684   4.014 -0.3816 -0.0034 -0.4684
 4173TIP3    H112525   2.686   1.665   4.105 -1.9737  0.4213  0.0983
 4173TIP3    H212526   2.652   1.779   4.011 -1.7022 -0.1165 -0.6675
 4174TIP3   OH212527   1.856   2.300   2.801 -0.5424 -0.2241  0.2917
 4174TIP3    H112528   1.924   2.242   2.835 -0.0677  1.1109  1.7387
 4174TIP3    H212529   1.886   2.324   2.714  1.2182  0.8112  1.1150
 4175TIP3   OH212530   3.934   3.096   3.034  0.0262 -0.5134  0.3645
 4175TIP3    H112531   3.872   3.142   2.977 -0.5681 -1.1026  0.5170
 4175TIP3    H212532   3.973   3.165   3.087  0.7645  0.0798 -0.9027
 4176TIP3   OH212533   5.298   2.275   4.716 -0.1894 -0.0091  0.0860
 4176TIP3    H112534   5.344   2.214   4.659  0.2767 -0.3562  0.8256
 4176TIP3    H212535   5.293   2.230   4.801  0.6213  1.1836  0.7863
 4177TIP3   OH212536   4.490   0.104   1.237 -0.3156  0.2169 -0.2227
 4177TIP3    H112537   4.505   0.078   1.146 -2.3258 -0.8020 -0.3187
 4177TIP3    H212538   4.524   0.031   1.289  1.1338  0.9422 -0.0935
 4178TIP3   OH212539   1.538   5.577   0.790 -0.0287 -0.2922 -0.7293
 4178TIP3    H112540   1.620   5.550   0.832 -0.2618 -0.8390 -0.6241
 4178TIP3    H212541   1.470   5.526   0.834 -0.4595  0.3518 -0.6371
 4179TIP3   OH212542   0.053   1.636   2.350  0.2954  0.1141  0.9888
 4179TIP3    H112543   0.072   1.583   2.427 -2.8468 -1.8171  0.6061
 4179TIP3    H212544  -0.040   1.656   2.357  0.2975  1.3742 -1.4541
 4180TIP3   OH212545   3.159   2.247  -0.031  0.4028  0.0279 -0.1465
 4180TIP3    H112546   3.194   2.163  -0.002  0.2271  0.0994  0.2894
 4180TIP3    H212547   3.114   2.282   0.046 -0.3715  0.0752 -0.6064
 4181TIP3   OH212548   0.789   2.520   0.635 -0.0032 -0.0296  0.4796
 4181TIP3    H112549   0.718   2.544   0.694 -0.9521 -0.7344 -0.3385
 4181TIP3    H212550   0.780   2.580   0.561  0.0399 -0.3365  0.2220
 4182TIP3   OH212551   5.857   1.786   2.405 -0.0856 -0.0512 -0.3513
 4182TIP3    H112552   5.781   1.776   2.348  0.5211 -0.7694 -1.0682
 4182TIP3    H212553   5.826   1.761   2.492 -0.3604 -1.5513 -0.8647
 4183TIP3   OH212554   3.802   2.041   1.679 -0.2335  0.4946 -0.0199
 4183TIP3    H112555   3.830   2.072   1.766 -0.8757 -1.9371  1.1418
 4183TIP3    H212556   3.718   2.085   1.664 -0.8584 -0.1934  1.3073
 4184TIP3   OH212557   0.521   3.737   4.101 -0.2562  0.4852 -0.4614
 4184TIP3    H112558   0.451   3.672   4.104  1.8851 -2.0350 -1.2656
 4184TIP3    H212559   0.572   3.721   4.180 -0.4578  2.1627  0.0308
 4185TIP3   OH212560   4.370   3.002   5.152 -0.1737 -0.2614  0.0910
 4185TIP3    H112561   4.360   2.907   5.144 -0.5743 -0.2091 -0.0373
 4185TIP3    H212562   4.306   3.038   5.092 -1.6795  0.1209  1.8349
 4186TIP3   OH212563   0.930   3.315   3.686  0.4468  0.5390 -0.0749
 4186TIP3    H112564   0.986   3.255   3.637  2.0880  1.5451  0.5113
 4186TIP3    H212565   0.905   3.265   3.764  1.6083  0.5094  0.2962
 4187TIP3   OH212566   5.531   0.314   3.212 -0.3148 -0.2100  0.3746
 4187TIP3    H112567   5.587   0.251   3.166  1.2252  0.6030  1.0453
 4187TIP3    H212568   5.554   0.399   3.174 -1.5195  0.0876  0.2873
 4188TIP3   OH212569   5.655   3.833   3.438  0.0472  0.5096  0.1114
 4188TIP3    H112570   5.594   3.759   3.449 -1.3376  1.3569 -1.4735
 4188TIP3    H212571   5.710   3.808   3.364 -0.9802  1.3752 -0.9812
 4189TIP3   OH212572   3.262   5.435   2.583 -0.0957  0.3813 -0.0436
 4189TIP3    H112573   3.209   5.513   2.563 -0.2048  0.4863  0.6409
 4189TIP3    H212574   3.260   5.429   2.678  0.8643  0.1956 -0.0313
 4190TIP3   OH212575   0.270   1.432   1.708 -0.2440  0.2760  0.4577
 4190TIP3    H112576   0.309   1.395   1.787 -0.2333  0.0818  0.3611
 4190TIP3    H212577   0.341   1.480   1.666 -0.5920  1.5856  1.2978
 4191TIP3   OH212578   4.737   1.715   1.480 -0.1994  0.2931 -0.3031
 4191TIP3    H112579   4.680   1.666   1.422  0.7696  0.6110 -1.5735
 4191TIP3    H212580   4.809   1.656   1.499 -0.0881  0.4847 -0.1183
 4192TIP3   OH212581   2.961   3.326   1.499 -0.0353 -0.2046  0.2424
 4192TIP3    H112582   2.890   3.264   1.514  0.5379 -1.1101 -0.6488
 4192TIP3    H212583   2.961   3.341   1.404  0.9600 -0.2446  0.2198
 4193TIP3   OH212584   2.830   4.621   1.288 -0.6452  0.3088  0.2534
 4193TIP3    H112585   2.922   4.598   1.297 -0.9837 -1.3917 -0.1336
 4193TIP3    H212586   2.830   4.703   1.239  0.6543 -0.3476 -0.9284
 4194TIP3   OH212587   2.363   0.289   1.520 -0.0347 -0.6512 -0.2198
 4194TIP3    H112588   2.373   0.341   1.600 -0.1554 -1.5026  0.3607
 4194TIP3    H212589   2.269   0.285   1.504  0.0101 -0.1386 -0.6443
 4195TIP3   OH212590   2.198   5.327   4.955 -0.1143  0.2351  0.1016
 4195TIP3    H112591   2.207   5.368   4.869 -1.8739 -0.8920 -0.6849
 4195TIP3    H212592   2.110   5.351   4.985 -0.8603 -2.0981  0.0107
 4196TIP3   OH212593   2.244   1.349   2.181  0.1042  0.3622 -0.3745
 4196TIP3    H112594   2.200   1.387   2.257 -0.1683 -0.4683 -0.1104
 4196TIP3    H212595   2.288   1.271   2.214  1.8952  1.2257 -0.6119
 4197TIP3   OH212596   3.599   2.423   3.680  0.1578  0.2789 -0.0868
 4197TIP3    H112597   3.641   2.409   3.595 -0.8828  1.9343 -0.9203
 4197TIP3    H212598   3.515   2.379   3.672  0.2376  0.0611  0.2586
 4198TIP3   OH212599   2.012   0.445   3.757 -0.1664 -0.4878 -0.8313
 4198TIP3    H112600   2.013   0.377   3.824  1.0232 -0.3334 -0.6563
 4198TIP3    H212601   1.977   0.402   3.679  1.7673 -1.7294 -1.1057
 4199TIP3   OH212602   4.503   5.270   0.531  0.3757  0.2309 -0.6098
 4199TIP3    H112603   4.420   5.316   0.546 -0.2296 -1.0551  0.0910
 4199TIP3    H212604   4.477   5.183   0.502  1.4828 -0.1804 -0.3885
 4200TIP3   OH212605   1.052   5.720   4.023 -0.0735 -0.3150  0.6300
 4200TIP3    H112606   1.016   5.764   3.945  1.0093 -0.5342 -0.0218
 4200TIP3    H212607   1.010   5.764   4.097 -0.6660  0.3264 -0.0666
 4201TIP3   OH212608   1.868   4.454   2.136 -0.0375  0.0375 -0.0480
 4201TIP3    H112609   1.919   4.533   2.122  1.2386 -0.9264 -1.1830
 4201TIP3    H212610   1.933   4.385   2.149 -1.1053 -0.8516  0.9083
 4202TIP3   OH212611   5.907   1.303   3.624  0.4363  0.6956  0.1657
 4202TIP3    H112612   5.969   1.327   3.693  1.8861 -0.3847 -0.6957
 4202TIP3    H212613   5.848   1.241   3.665  0.4091  1.1331  0.8010
 4203TIP3   OH212614   3.352   4.544   3.834 -0.3154 -0.5330 -0.1516
 4203TIP3    H112615   3.379   4.561   3.744 -1.2451 -1.5125 -0.6406
 4203TIP3    H212616   3.261   4.515   3.827 -0.4298 -0.5573  1.1090
 4204TIP3   OH212617   5.146   4.236   4.266  0.0678  0.6350  0.1019
 4204TIP3    H112618   5.053   4.219   4.279 -0.0117 -0.4038 -1.4665
 4204TIP3    H212619   5.180   4.254   4.354 -1.3315 -0.4559  0.9114
 4205TIP3   OH212620   1.678   4.807   4.620 -0.3968 -0.1419  0.7460
 4205TIP3    H112621   1.584   4.789   4.616 -0.4679 -0.2321  2.3930
 4205TIP3    H212622   1.718   4.733   4.575 -1.0113 -1.3494  2.1000
 4206TIP3   OH212623   4.345   1.891   2.568 -0.0840  0.1194  0.3222
 4206TIP3    H112624   4.376   1.973   2.530 -1.9407  0.4369 -0.6306
 4206TIP3    H212625   4.281   1.858   2.505 -0.9595 -0.9487  1.7016
 4207TIP3   OH212626   1.756   3.106   0.368  0.4256  0.0483  0.0089
 4207TIP3    H112627   1.782   3.101   0.460  0.1352  3.0029  0.3521
 4207TIP3    H212628   1.690   3.038   0.358 -0.6916  0.6658  2.4376
 4208TIP3   OH212629   0.500   0.324   1.823 -0.2767 -0.1162 -0.2036
 4208TIP3    H112630   0.412   0.334   1.785 -0.7045 -0.7093  0.6067
 4208TIP3    H212631   0.511   0.400   1.879 -0.3859 -0.1939 -0.0781
 4209TIP3   OH212632   3.758   0.395   4.718 -0.4677 -0.0025 -0.2936
 4209TIP3    H112633   3.718   0.423   4.800  0.4265  1.0990 -0.2033
 4209TIP3    H212634   3.739   0.466   4.657  1.6364  0.7873 -0.1301
 4210TIP3   OH212635   4.389   4.229   2.194 -0.1240  0.1219 -0.0147
 4210TIP3    H112636   4.362   4.296   2.131  1.7537 -0.3921 -1.4402
 4210TIP3    H212637   4.439   4.166   2.143  1.1216 -0.5519  1.8992
 4211TIP3   OH212638   5.432   4.062   1.369 -0.0479 -0.7246 -0.3632
 4211TIP3    H112639   5.392   4.120   1.434 -0.2176  0.0200 -1.1213
 4211TIP3    H212640   5.522   4.095   1.360 -0.2377 -0.3707 -1.0268
 4212TIP3   OH212641   6.244   4.694   4.679  0.0695 -0.0287  0.1920
 4212TIP3    H112642   6.272   4.782   4.704  0.4077 -0.3874  1.1056
 4212TIP3    H212643   6.151   4.690   4.704  0.5179 -0.5466  1.9366
 4213TIP3   OH212644   1.558   3.001   1.337  0.2694 -0.3650  0.2795
 4213TIP3    H112645   1.629   3.052   1.377 -1.2829 -0.6455  3.7880
 4213TIP3    H212646   1.601   2.945   1.273  3.1630 -0.2034  1.9368
 4214TIP3   OH212647   5.873   4.868   4.464 -0.1549 -0.1058  0.0912
 4214TIP3    H112648   5.925   4.809   4.519  0.1431 -1.2813 -1.3881
 4214TIP3    H212649   5.846   4.814   4.390 -1.4540  1.1478 -0.3895
 4215TIP3   OH212650   3.523   0.036   4.788 -0.0933 -0.3886 -0.1203
 4215TIP3    H112651   3.601   0.055   4.735 -0.7101 -0.1051 -0.9309
 4215TIP3    H212652   3.475   0.118   4.792  0.0018 -0.3681  1.0054
 4216TIP3   OH212653   1.841   5.125   0.710  0.2839 -0.1235  0.2961
 4216TIP3    H112654   1.758   5.092   0.746 -0.5458  2.1677  0.6206
 4216TIP3    H212655   1.821   5.215   0.683  2.5686  0.3299 -0.0415
 4217TIP3   OH212656   5.377   4.650   2.319  0.3293 -0.4352  0.3780
 4217TIP3    H112657   5.320   4.725   2.299  1.1321  0.0054 -0.3181
 4217TIP3    H212658   5.355   4.628   2.409 -0.3150  0.2941  0.4179
 4218TIP3   OH212659   2.188   4.978   3.473  0.8664  0.9267 -0.3590
 4218TIP3    H112660   2.284   4.976   3.475  0.8841  1.3644  1.5350
 4218TIP3    H212661   2.165   5.058   3.520 -0.4009 -1.4046  3.4853
 4219TIP3   OH212662   1.605   1.426   2.043 -0.3131 -0.2625  0.1188
 4219TIP3    H112663   1.680   1.388   1.997 -0.1186  1.4564 -1.0476
 4219TIP3    H212664   1.642   1.457   2.126  0.8180  2.3522 -1.2252
 4220TIP3   OH212665   2.451   0.304   2.825 -0.0473  0.2322 -0.5633
 4220TIP3    H112666   2.428   0.218   2.859  1.6637 -0.3092 -0.6781
 4220TIP3    H212667   2.536   0.323   2.865 -0.0904  1.5709 -1.0686
 4221TIP3   OH212668   4.496   2.572   1.987 -0.5520  0.2163  0.1453
 4221TIP3    H112669   4.419   2.569   2.043  0.9890 -0.6988  2.3796
 4221TIP3    H212670   4.465   2.545   1.901 -2.3874 -1.9822  1.3924
 4222TIP3   OH212671   5.693   1.339   4.267 -0.1075  0.5762  0.3626
 4222TIP3    H112672   5.606   1.315   4.237  1.0227 -0.6443 -2.3066
 4222TIP3    H212673   5.697   1.309   4.358 -2.0531 -0.4508  0.1512
 4223TIP3   OH212674   4.082   0.668   1.950  0.2538  0.2370  0.0388
 4223TIP3    H112675   4.063   0.625   1.866 -1.3014  1.5563 -0.3396
 4223TIP3    H212676   4.151   0.731   1.930 -1.2360  1.7259 -0.7090
 4224TIP3   OH212677   5.228   2.051   2.630  0.0423 -0.0783  0.0681
 4224TIP3    H112678   5.285   2.100   2.571  1.1184 -2.4849 -1.0345
 4224TIP3    H212679   5.265   1.962   2.631 -2.2088 -1.0949  1.3592
 4225TIP3   OH212680   0.709   4.707   0.840  0.4494 -0.3519 -0.2315
 4225TIP3    H112681   0.662   4.729   0.760 -0.6631 -0.1252  0.4537
 4225TIP3    H212682   0.677   4.771   0.905  1.4768 -0.3984  0.3394
 4226TIP3   OH212683   4.453   0.942   3.165 -0.0370 -0.2706  0.1265
 4226TIP3    H112684   4.402   0.925   3.087  0.8534 -0.8987 -0.3310
 4226TIP3    H212685   4.502   0.861   3.181  0.2499  0.0547  0.9775
 4227TIP3   OH212686   4.248   4.277   5.147 -0.2008 -0.2068  0.0288
 4227TIP3    H112687   4.223   4.206   5.207 -0.6317  0.3205  0.4849
 4227TIP3    H212688   4.323   4.318   5.189 -0.0178 -0.3243 -0.1825
 4228TIP3   OH212689   1.874   4.351   2.473 -0.0671 -0.4652  0.1762
 4228TIP3    H112690   1.797   4.293   2.476 -0.5798  0.1424 -0.6467
 4228TIP3    H212691   1.926   4.317   2.401 -0.7356  0.5062 -0.8005
 4229TIP3   OH212692   0.200   0.600   3.243  0.1160 -0.4741  0.0957
 4229TIP3    H112693   0.204   0.684   3.287  1.1800 -0.7355  0.5214
 4229TIP3    H212694   0.129   0.609   3.179 -1.1433  0.0493  1.5379
 4230TIP3   OH212695   0.572   5.732   1.994  0.2137  0.0516 -0.1915
 4230TIP3    H112696   0.508   5.781   1.942 -0.2442  3.7182  3.3083
 4230TIP3    H212697   0.640   5.707   1.932 -2.4109 -0.0060 -3.2638
 4231TIP3   OH212698   0.505   1.492   2.380 -0.1552  0.2234  0.0228
 4231TIP3    H112699   0.566   1.564   2.389  0.1842 -0.2120  1.5494
 4231TIP3    H212700   0.533   1.428   2.445  0.2079 -1.7790 -1.9720
 4232TIP3   OH212701   3.952   5.533   1.682  0.1365 -0.3041 -0.5410
 4232TIP3    H112702   4.013   5.538   1.756  0.6478 -2.4648 -0.7479
 4232TIP3    H212703   3.903   5.615   1.686 -1.1120 -0.9930  3.3224
 4233TIP3   OH212704   2.516   1.404   0.893  0.0288  0.1200 -0.4800
 4233TIP3    H112705   2.590   1.461   0.915  1.1247 -1.3571 -0.1894
 4233TIP3    H212706   2.450   1.423   0.960  1.0048 -0.0755  0.5634
 4234TIP3   OH212707   1.682   4.205   4.099 -0.1796  0.3347 -0.0850
 4234TIP3    H112708   1.751   4.146   4.069 -0.1428  0.4143 -0.1581
 4234TIP3    H212709   1.726   4.290   4.110 -0.2845  0.4075 -0.2212
 4235TIP3   OH212710   5.528   3.621   0.491  0.3527  0.6966  0.0260
 4235TIP3    H112711   5.510   3.672   0.412  0.8193  0.0619 -0.5017
 4235TIP3    H212712   5.455   3.641   0.549 -0.7263  0.1574 -1.0808
 4236TIP3   OH212713   2.758   0.241   0.090  0.4623 -0.0401  0.2684
 4236TIP3    H112714   2.756   0.293   0.010  0.5233 -0.6321 -0.1305
 4236TIP3    H212715   2.765   0.305   0.161 -0.3472  0.5377 -0.1518
 4237TIP3   OH212716   5.370   0.263   4.126 -0.5782 -0.2771  0.4580
 4237TIP3    H112717   5.279   0.247   4.150 -0.3060  0.3695  2.0289
 4237TIP3    H212718   5.419   0.245   4.206  0.6630 -0.4410 -0.3211
 4238TIP3   OH212719   0.180   4.408   2.177  0.1137 -0.5901 -0.2336
 4238TIP3    H112720   0.132   4.490   2.180 -0.6080 -1.0280  0.6224
 4238TIP3    H212721   0.190   4.389   2.084  0.5896  0.6213 -0.4507
 4239TIP3   OH212722   0.922   2.448   4.146  0.0185 -0.2563 -0.1799
 4239TIP3    H112723   0.875   2.502   4.209 -0.3998 -0.7238 -0.0841
 4239TIP3    H212724   0.853   2.405   4.095  0.3238 -1.1266  0.1141
 4240TIP3   OH212725   1.396   2.134   1.242  0.1711  0.0028 -0.1817
 4240TIP3    H112726   1.344   2.132   1.162 -0.2687  0.3338  0.0979
 4240TIP3    H212727   1.431   2.045   1.249  0.8659  0.1793 -1.1648
 4241TIP3   OH212728   1.224   0.042   4.008  0.1154 -0.1154 -0.0098
 4241TIP3    H112729   1.224  -0.049   3.978  0.1855  0.1301 -0.7869
 4241TIP3    H212730   1.227   0.094   3.927  2.1025  0.5610  0.4543
 4242TIP3   OH212731   3.827   1.022   2.987  0.0635  0.1519 -0.3323
 4242TIP3    H112732   3.773   0.985   2.917  1.7818  0.2271 -1.7554
 4242TIP3    H212733   3.807   1.115   2.986  1.0369  0.3804 -1.6720
 4243TIP3   OH212734   0.411   0.576   1.268  0.3351  0.3698 -0.0494
 4243TIP3    H112735   0.401   0.664   1.231  0.2365  0.8144  1.0180
 4243TIP3    H212736   0.388   0.585   1.360  1.4811 -0.5193  0.3516
 4244TIP3   OH212737   3.924   1.492   1.406 -0.2054  0.5205 -0.5801
 4244TIP3    H112738   3.907   1.408   1.363 -1.5548  0.0498  0.7899
 4244TIP3    H212739   4.016   1.488   1.430 -0.6650 -1.4845  1.2352
 4245TIP3   OH212740   4.407   4.530   4.139 -0.3787 -0.4115  0.2374
 4245TIP3    H112741   4.432   4.589   4.068 -0.0800  0.1372  0.7890
 4245TIP3    H212742   4.481   4.470   4.147 -0.8320 -1.1039 -0.5576
 4246TIP3   OH212743   0.147   0.981   3.260 -0.6999 -0.3400  0.5127
 4246TIP3    H112744   0.152   0.919   3.333 -1.6984 -0.3176  0.6106
 4246TIP3    H212745   0.238   1.007   3.245 -0.1950 -2.0917  0.2311
 4247TIP3   OH212746   3.932   5.599   3.791  0.3489  0.1809  0.0832
 4247TIP3    H112747   3.940   5.521   3.736 -0.5414 -0.4212  0.7844
 4247TIP3    H212748   3.989   5.581   3.866 -0.4890 -0.1675  0.6492
 4248TIP3   OH212749   0.524   0.199   0.207 -0.0752 -0.3714 -0.2139
 4248TIP3    H112750   0.596   0.143   0.235 -0.3325 -0.7594 -0.3306
 4248TIP3    H212751   0.445   0.150   0.227 -0.3966  0.7612  1.4897
 4249TIP3   OH212752   1.459   0.709   0.225 -0.1728  0.1373 -0.3909
 4249TIP3    H112753   1.429   0.656   0.299  0.8894  0.6352  0.4161
 4249TIP3    H212754   1.422   0.796   0.240  2.2366  0.9971  1.0755
 4250TIP3   OH212755   4.384   2.213   1.241 -0.5098 -0.0960 -0.1984
 4250TIP3    H112756   4.438   2.174   1.311 -1.7464 -4.0913 -1.2064
 4250TIP3    H212757   4.309   2.250   1.288 -1.0990 -2.3041  0.7792
 4251TIP3   OH212758   6.022   2.313   5.055  0.4338  0.0195 -0.1533
 4251TIP3    H112759   6.084   2.373   5.013  0.1309  0.3931 -0.0623
 4251TIP3    H212760   5.988   2.260   4.982  1.5878 -0.8590 -0.0779
 4252TIP3   OH212761   5.207   4.486   1.413 -0.2776  0.0755  0.1934
 4252TIP3    H112762   5.249   4.570   1.429  1.2382 -0.5772 -0.1781
 4252TIP3    H212763   5.201   4.445   1.499  0.4415 -0.0761  0.1814
 4253TIP3   OH212764   5.683   3.428   1.528 -0.0549 -0.0028  0.4342
 4253TIP3    H112765   5.680   3.392   1.440 -0.5097 -0.2793  0.5610
 4253TIP3    H212766   5.717   3.517   1.517 -1.3515  0.4434 -0.1744
 4254TIP3   OH212767   4.027   0.514   1.252  0.0028  0.4322 -0.1589
 4254TIP3    H112768   4.025   0.504   1.157  0.2171  0.8385 -0.2093
 4254TIP3    H212769   4.101   0.460   1.280 -0.5892 -0.3793 -0.1286
 4255TIP3   OH212770   0.603   4.109   2.253  0.2505 -0.6246  0.2575
 4255TIP3    H112771   0.620   4.128   2.346  1.7783  2.8110 -0.5619
 4255TIP3    H212772   0.510   4.126   2.242  0.3853  0.6282  0.8644
 4256TIP3   OH212773   6.160   2.948   1.660 -0.0129 -0.4764  0.6161
 4256TIP3    H112774   6.169   2.957   1.755  1.1629 -0.7639  0.5382
 4256TIP3    H212775   6.065   2.947   1.645 -0.2616 -2.2456  1.9678
 4257TIP3   OH212776   5.710   3.375   4.732  0.0090 -0.1560 -0.4805
 4257TIP3    H112777   5.628   3.393   4.686 -1.7357 -1.7450  1.8063
 4257TIP3    H212778   5.763   3.328   4.667 -2.5613 -2.8189 -0.8963
 4258TIP3   OH212779   2.088   4.823   1.654  0.5960 -0.6064  0.1841
 4258TIP3    H112780   2.087   4.770   1.734  0.1290  2.0677  2.0788
 4258TIP3    H212781   2.169   4.875   1.661 -0.9925  1.9959  0.6720
 4259TIP3   OH212782   1.753   1.064   0.814  0.4078 -0.1932  0.4843
 4259TIP3    H112783   1.743   0.972   0.791  0.0737  0.2608 -1.3620
 4259TIP3    H212784   1.803   1.101   0.741 -0.1328  1.2314  0.8122
 4260TIP3   OH212785   4.847   0.398   1.056  0.2309 -0.8913  0.3727
 4260TIP3    H112786   4.912   0.426   1.120 -0.6980 -0.0415  0.9742
 4260TIP3    H212787   4.840   0.304   1.068  0.1930 -0.7664  1.4286
 4261TIP3   OH212788   5.105   4.925   5.071  0.7237  0.5345 -0.2974
 4261TIP3    H112789   5.053   4.886   5.001  0.0449  1.2189 -0.1875
 4261TIP3    H212790   5.043   4.941   5.142  1.1567  1.0154 -0.0191
 4262TIP3   OH212791   2.727   2.843   1.019 -0.2299  0.2397  0.2556
 4262TIP3    H112792   2.747   2.935   1.000 -0.6030  0.2438 -0.1201
 4262TIP3    H212793   2.646   2.845   1.069 -0.4797  0.0860 -0.1430
 4263TIP3   OH212794   6.218   0.319   3.661  0.9251 -0.4087 -0.1956
 4263TIP3    H112795   6.310   0.344   3.672  0.5908  1.4869 -1.3258
 4263TIP3    H212796   6.183   0.318   3.750  1.5505  0.9985  0.1006
 4264TIP3   OH212797   6.272   5.942   3.585 -0.0713 -0.6281 -0.0101
 4264TIP3    H112798   6.355   5.975   3.551 -0.4983 -0.8881 -1.4079
 4264TIP3    H212799   6.295   5.862   3.633  0.5612 -0.2959  0.2386
 4265TIP3   OH212800   3.437   1.860   1.836 -0.4889 -0.1286  0.2126
 4265TIP3    H112801   3.451   1.955   1.842 -0.6990 -0.0252 -0.7877
 4265TIP3    H212802   3.446   1.840   1.743  0.9950 -1.3315  0.5587
 4266TIP3   OH212803   4.498   3.784   1.938 -0.1810  0.0476  0.6232
 4266TIP3    H112804   4.493   3.806   1.845  1.5526  0.8488  0.6871
 4266TIP3    H212805   4.414   3.743   1.957  0.2826 -2.2705 -1.8210
 4267TIP3   OH212806   1.603   2.505   3.340 -0.2884  0.5854 -0.1602
 4267TIP3    H112807   1.675   2.456   3.301 -1.0889 -0.5687 -0.2542
 4267TIP3    H212808   1.637   2.532   3.426  0.4809  0.6326 -0.4714
 4268TIP3   OH212809   1.802   3.692   0.877  0.0982 -0.2745 -0.0709
 4268TIP3    H112810   1.832   3.766   0.930 -1.3205 -1.3431  2.4165
 4268TIP3    H212811   1.840   3.615   0.919 -1.1949 -1.1854 -0.5024
 4269TIP3   OH212812   6.363   1.452   4.694 -0.1834  0.0825 -0.4418
 4269TIP3    H112813   6.319   1.370   4.672  0.3510 -0.1003 -0.8639
 4269TIP3    H212814   6.349   1.463   4.788  0.9333 -1.2154 -0.1041
 4270TIP3   OH212815   4.296   1.102   4.168 -0.0095  0.0209  0.2434
 4270TIP3    H112816   4.268   1.047   4.095 -0.3154  0.6611 -0.1355
 4270TIP3    H212817   4.383   1.133   4.143  0.7112 -1.2893  1.0351
 4271TIP3   OH212818   0.278   3.887   2.379 -0.3737  0.8652 -0.2445
 4271TIP3    H112819   0.215   3.905   2.449 -0.9170  1.5712 -0.8909
 4271TIP3    H212820   0.304   3.974   2.348  0.1584  0.5645 -0.6490
 4272TIP3   OH212821   4.116   5.088   1.635  0.4555 -0.5121  0.1823
 4272TIP3    H112822   4.186   5.029   1.664  0.9033 -0.3872 -0.6185
 4272TIP3    H212823   4.160   5.172   1.620 -0.3159  0.2877  2.0861
 4273TIP3   OH212824   2.386   4.653   1.334  0.2479 -0.0562 -0.0833
 4273TIP3    H112825   2.378   4.680   1.242 -1.5497 -0.8823 -0.2221
 4273TIP3    H212826   2.298   4.668   1.371  0.1443 -2.3153  0.7387
 4274TIP3   OH212827   2.173   4.123   0.944 -0.3521  0.7581  0.1235
 4274TIP3    H112828   2.113   4.055   0.974 -3.1621  3.1132  0.3708
 4274TIP3    H212829   2.229   4.141   1.019 -2.7804  1.9076  1.8073
 4275TIP3   OH212830   4.804   5.616   4.023 -0.0970  0.3159  0.3937
 4275TIP3    H112831   4.859   5.539   4.007 -1.3037 -0.5259  0.1873
 4275TIP3    H212832   4.828   5.678   3.954  0.8422  0.1174  0.5269
 4276TIP3   OH212833   3.670   2.786   2.275 -0.0927  0.6136  0.3048
 4276TIP3    H112834   3.582   2.767   2.307 -0.3818  1.7116  0.2054
 4276TIP3    H212835   3.728   2.760   2.347 -0.5581  0.6575  0.7012
 4277TIP3   OH212836   2.476   5.423   5.046  0.1576 -0.1458  0.6042
 4277TIP3    H112837   2.449   5.462   4.963 -1.7954 -1.8711  0.3259
 4277TIP3    H212838   2.536   5.486   5.084 -0.8271  1.8608 -0.9681
 4278TIP3   OH212839   5.316   0.312   0.190 -0.2201 -0.1309 -0.5725
 4278TIP3    H112840   5.266   0.247   0.141  0.0420  0.8569 -2.2305
 4278TIP3    H212841   5.292   0.298   0.281 -2.7890 -0.3101 -1.2170
 4279TIP3   OH212842   5.019   2.818   5.003 -0.6193 -0.0425 -0.1111
 4279TIP3    H112843   5.028   2.723   4.991 -0.9672  0.2396 -3.8720
 4279TIP3    H212844   5.090   2.855   4.951  1.4291  1.9071  3.6304
 4280TIP3   OH212845   6.136   3.139   0.318  0.1074 -0.2168 -0.0989
 4280TIP3    H112846   6.220   3.183   0.320  0.7469 -1.3996 -0.2640
 4280TIP3    H212847   6.073   3.205   0.348  1.0856  0.6666  0.0341
 4281TIP3   OH212848   0.143   1.747   4.937 -0.3586  0.3802 -0.5959
 4281TIP3    H112849   0.074   1.750   5.004 -0.2138 -1.6740 -0.2881
 4281TIP3    H212850   0.122   1.818   4.877 -2.1842  0.4291  0.0478
 4282TIP3   OH212851   3.686   0.661   0.666  0.0215  0.6109  0.3177
 4282TIP3    H112852   3.646   0.741   0.701  0.5956  1.2433 -0.4321
 4282TIP3    H212853   3.622   0.628   0.603 -0.3305  0.3280  0.8162
 4283TIP3   OH212854   0.482   0.645   0.658  0.9184  0.1122 -0.0990
 4283TIP3    H112855   0.489   0.585   0.583 -1.1534 -0.5176  0.1322
 4283TIP3    H212856   0.394   0.682   0.651  0.9337  0.5764  1.6335
 4284TIP3   OH212857   5.208   2.529   1.290 -0.3389 -0.1409 -0.1454
 4284TIP3    H112858   5.242   2.614   1.261  0.5752 -0.3131  0.3740
 4284TIP3    H212859   5.145   2.550   1.358 -0.4216  0.1359 -0.3048
 4285TIP3   OH212860   1.726   4.797   1.918  0.3156  0.3226  0.0242
 4285TIP3    H112861   1.796   4.759   1.971 -0.1329 -0.1487  0.2890
 4285TIP3    H212862   1.735   4.891   1.931 -0.0880  0.2060  1.3509
 4286TIP3   OH212863   4.659   1.387   1.066 -0.5581 -1.0975 -0.2221
 4286TIP3    H112864   4.652   1.480   1.046 -0.5792 -1.0565 -0.0302
 4286TIP3    H212865   4.751   1.366   1.051 -0.4196 -0.9016  0.3376
 4287TIP3   OH212866   2.734   4.133   4.442 -0.4949 -0.2471  0.6742
 4287TIP3    H112867   2.768   4.222   4.447 -0.2755 -0.3119  0.3710
 4287TIP3    H212868   2.693   4.118   4.527  0.8576 -0.4263  1.3019
 4288TIP3   OH212869   5.034   3.757   4.772 -0.0835  0.6292  0.4393
 4288TIP3    H112870   4.985   3.674   4.767  0.2289  0.5021 -3.8750
 4288TIP3    H212871   5.123   3.734   4.743 -0.0433  2.4296 -1.0560
 4289TIP3   OH212872   2.032   1.474   4.613  0.1335 -0.8043  0.0023
 4289TIP3    H112873   1.955   1.457   4.560  0.3141 -0.0878 -0.5051
 4289TIP3    H212874   2.022   1.417   4.689 -0.3411 -1.5266 -0.5908
 4290TIP3   OH212875   5.533   0.053   3.711  0.4753 -0.2592  0.0226
 4290TIP3    H112876   5.472   0.127   3.713 -0.6435 -1.1294 -0.4806
 4290TIP3    H212877   5.597   0.076   3.644 -0.2548 -0.0229 -0.6091
 4291TIP3   OH212878   3.462   3.972   2.711  0.0485 -0.6683 -0.0904
 4291TIP3    H112879   3.400   3.986   2.783 -0.0354  0.1661 -0.3148
 4291TIP3    H212880   3.408   3.975   2.632  0.4043  0.3223 -0.3033
 4292TIP3   OH212881   4.972   4.870   3.834 -0.0621 -0.0053 -0.0549
 4292TIP3    H112882   5.055   4.829   3.860  0.5523  0.7681 -0.7117
 4292TIP3    H212883   4.922   4.879   3.915  0.0195 -1.5091  0.1885
 4293TIP3   OH212884   6.045   5.409   2.546 -0.5094  0.8854  0.2133
 4293TIP3    H112885   6.039   5.434   2.638  2.9595  2.6644  0.0814
 4293TIP3    H212886   6.093   5.326   2.546  0.4155  1.4133 -0.0258
 4294TIP3   OH212887   3.714   2.689   4.414 -0.1592  0.5117  0.1438
 4294TIP3    H112888   3.724   2.595   4.400  0.4088  0.6367 -0.3113
 4294TIP3    H212889   3.722   2.700   4.509 -1.3169 -0.0188  0.3270
 4295TIP3   OH212890   5.041   5.202   4.655  0.0294  0.2545  0.3261
 4295TIP3    H112891   5.112   5.250   4.611  0.3924 -0.0457  0.5737
 4295TIP3    H212892   5.041   5.237   4.744 -0.4629  0.6011  0.1951
 4296TIP3   OH212893   3.105   5.220   3.714 -0.0473 -0.5307 -0.6794
 4296TIP3    H112894   3.036   5.179   3.766  0.6118 -0.6794  0.0824
 4296TIP3    H212895   3.087   5.314   3.720 -0.5124 -0.5939 -0.9640
 4297TIP3   OH212896   6.087   1.290   2.137  0.2618  0.7786  0.3202
 4297TIP3    H112897   6.094   1.195   2.131 -0.1285  0.8068 -1.0573
 4297TIP3    H212898   6.109   1.311   2.228 -0.6054 -0.7010  0.8951
 4298TIP3   OH212899   5.944   2.952   0.308 -0.2348 -0.6351  0.2190
 4298TIP3    H112900   5.985   2.875   0.268  0.6909  1.1823 -2.7006
 4298TIP3    H212901   6.015   3.016   0.314 -0.8447 -0.1142  3.1258
 4299TIP3   OH212902   1.478   3.129   2.799  0.2711  0.2575 -0.2122
 4299TIP3    H112903   1.509   3.090   2.881  1.8451  0.2587 -0.7749
 4299TIP3    H212904   1.466   3.222   2.820  1.2805  0.3804 -0.1332
 4300TIP3   OH212905   2.078   5.411   1.050 -0.0090 -0.3282 -0.4732
 4300TIP3    H112906   1.984   5.426   1.046 -0.5002 -1.6952  2.8221
 4300TIP3    H212907   2.089   5.317   1.037  0.3022 -0.9737  3.2690
 4301TIP3   OH212908   0.005   2.936   3.282 -0.0074 -0.3886  0.2274
 4301TIP3    H112909  -0.058   2.870   3.309 -0.1484  0.3148  1.7581
 4301TIP3    H212910   0.075   2.886   3.240  0.0260 -1.5773  1.5882
 4302TIP3   OH212911   5.563   3.056   0.758  0.2022 -0.6265  0.3073
 4302TIP3    H112912   5.649   3.097   0.755 -1.1214  2.4145  0.4132
 4302TIP3    H212913   5.516   3.093   0.683 -1.2162 -1.7432  0.6047
 4303TIP3   OH212914   3.775   5.268   0.612 -0.3974 -0.5929 -0.2359
 4303TIP3    H112915   3.732   5.314   0.540  1.5561  0.5810 -0.7314
 4303TIP3    H212916   3.867   5.292   0.604 -0.0556 -0.6895  2.4749
 4304TIP3   OH212917   4.641   4.310   4.212 -0.4005  0.0154  0.2523
 4304TIP3    H112918   4.569   4.267   4.257 -1.3478  1.1754 -0.1126
 4304TIP3    H212919   4.642   4.269   4.125  0.0336 -0.6846  0.5722
 4305TIP3   OH212920   1.818   3.046   4.208 -0.1442 -0.1025  0.0218
 4305TIP3    H112921   1.773   2.963   4.191  0.2749 -0.9023  2.5037
 4305TIP3    H212922   1.871   3.060   4.129 -0.1159 -2.2713 -0.4110
 4306TIP3   OH212923   5.307   5.283   4.622  0.6441  0.2714 -0.2713
 4306TIP3    H112924   5.365   5.325   4.558  0.6496  1.9714  0.7903
 4306TIP3    H212925   5.338   5.315   4.707 -0.7913 -0.1200  0.4221
 4307TIP3   OH212926   5.694   4.003   5.152  0.3467 -0.0407  0.4317
 4307TIP3    H112927   5.641   3.996   5.072  1.1863 -0.6468 -0.0909
 4307TIP3    H212928   5.630   4.018   5.222 -0.6516 -2.0157  0.0135
 4308TIP3   OH212929   5.915   0.434   0.150 -0.2837 -0.0601  0.4194
 4308TIP3    H112930   5.889   0.520   0.182  0.0688  0.9863 -1.9102
 4308TIP3    H212931   5.834   0.393   0.122 -0.6539 -1.1561  2.8416
 4309TIP3   OH212932   0.835   1.819   1.003  0.0866  0.3019  0.2000
 4309TIP3    H112933   0.750   1.776   0.996  0.2886  0.1210 -1.5922
 4309TIP3    H212934   0.815   1.911   1.016 -0.3477  0.0254  1.7312
 4310TIP3   OH212935   5.156   2.377   2.619  0.2829 -0.4223  0.1287
 4310TIP3    H112936   5.134   2.289   2.589 -1.3836 -0.0748  0.2329
 4310TIP3    H212937   5.169   2.427   2.538  2.7257 -1.0667  0.0629
 4311TIP3   OH212938   1.682   3.926   4.429  0.1149  0.2086  0.5662
 4311TIP3    H112939   1.760   3.981   4.419 -0.1779  0.5471  0.1007
 4311TIP3    H212940   1.678   3.876   4.348  0.4308 -0.5808  1.0237
 4312TIP3   OH212941   0.584   4.254   0.083 -0.5143 -0.1240 -0.1713
 4312TIP3    H112942   0.525   4.180   0.075  1.8106 -2.7520  3.7884
 4312TIP3    H212943   0.671   4.217   0.068  0.6034  2.3436 -0.3030
 4313TIP3   OH212944   0.388   4.527   2.835  0.3215  0.0791 -0.5238
 4313TIP3    H112945   0.298   4.539   2.866 -0.0966 -0.0717 -1.6453
 4313TIP3    H212946   0.404   4.433   2.841  0.5952  0.1660  0.1710
 4314TIP3   OH212947   3.356   4.504   1.207  0.0014 -0.1260 -0.3421
 4314TIP3    H112948   3.330   4.524   1.117 -2.4041 -2.5008 -0.2939
 4314TIP3    H212949   3.284   4.536   1.261  2.3254  3.1733  1.1050
 4315TIP3   OH212950   2.542   5.410   0.065 -0.7408 -0.2124 -0.4803
 4315TIP3    H112951   2.540   5.315   0.050  0.2276 -0.5432  1.2053
 4315TIP3    H212952   2.544   5.418   0.160  1.1794  1.4564 -0.6232
 4316TIP3   OH212953   5.526   0.844   3.214 -0.0297  1.0116 -0.3330
 4316TIP3    H112954   5.607   0.823   3.167  0.6130  1.4211  0.5511
 4316TIP3    H212955   5.537   0.936   3.239 -0.8107  1.0924 -0.2642
 4317TIP3   OH212956   5.862   2.218   4.274 -0.3317 -0.2944 -0.5748
 4317TIP3    H112957   5.894   2.220   4.184 -0.5039  0.4209 -0.6235
 4317TIP3    H212958   5.773   2.253   4.269 -0.6076 -0.9234 -0.2291
 4318TIP3   OH212959   6.106   5.533   3.587  0.0503  0.2398  0.3619
 4318TIP3    H112960   6.114   5.440   3.609  0.1783 -0.1347 -1.1728
 4318TIP3    H212961   6.192   5.570   3.607  0.1152 -0.0473  0.6189
 4319TIP3   OH212962   2.982   4.479   4.758  0.2172  0.1894  0.1666
 4319TIP3    H112963   3.018   4.553   4.708 -0.7399 -0.4112 -1.4844
 4319TIP3    H212964   3.057   4.422   4.774  0.1614 -1.0129 -3.1649
 4320TIP3   OH212965   2.862   5.827   1.002  0.3113 -0.0791 -0.4049
 4320TIP3    H112966   2.874   5.867   0.916  1.6751  1.5538  0.5043
 4320TIP3    H212967   2.948   5.830   1.043 -0.4071 -0.3601  1.2165
 4321TIP3   OH212968   0.145   2.852   3.599  0.1638 -0.2563 -0.1646
 4321TIP3    H112969   0.149   2.757   3.588  1.6487 -0.2017 -0.2002
 4321TIP3    H212970   0.085   2.865   3.672  1.0253 -1.3022  0.7553
 4322TIP3   OH212971   5.794   2.527   2.745  0.0720  0.4075 -0.1729
 4322TIP3    H112972   5.725   2.564   2.799 -0.0039  0.5409 -0.3623
 4322TIP3    H212973   5.750   2.501   2.663 -0.2534 -1.7031  0.5916
 4323TIP3   OH212974   3.180   1.533   1.815 -0.3855 -0.4607  0.5148
 4323TIP3    H112975   3.106   1.555   1.872 -1.1004 -0.0196 -0.5528
 4323TIP3    H212976   3.257   1.565   1.862 -0.6757 -2.2501  2.3559
 4324TIP3   OH212977   6.062   2.644   3.867  0.0862  0.2067  0.1633
 4324TIP3    H112978   6.064   2.693   3.784 -1.3300  0.7381  0.4171
 4324TIP3    H212979   6.007   2.696   3.924 -0.9821 -1.3960  0.6478
 4325TIP3   OH212980   0.186   2.439   1.099  0.2404 -0.5847  0.1227
 4325TIP3    H112981   0.210   2.348   1.081 -0.2718 -0.8556  0.7800
 4325TIP3    H212982   0.263   2.489   1.073  0.2820 -1.1379 -0.8796
 4326TIP3   OH212983   1.685   2.558   0.867  0.2551 -0.4761 -0.0522
 4326TIP3    H112984   1.693   2.549   0.962 -0.3076  0.1639  0.0615
 4326TIP3    H212985   1.699   2.469   0.833  2.9034 -0.3291  0.4282
 4327TIP3   OH212986   2.708   4.727   0.944  0.1370 -0.2430  0.5673
 4327TIP3    H112987   2.679   4.655   0.889  0.6325  0.1377 -0.2044
 4327TIP3    H212988   2.627   4.772   0.970 -0.0714 -0.1018 -0.3023
 4328TIP3   OH212989   1.255   5.061   3.676  0.4402 -0.2529  0.1967
 4328TIP3    H112990   1.318   5.023   3.737  0.5806  0.7495  0.7016
 4328TIP3    H212991   1.241   5.150   3.709  0.7245  0.4173 -1.3848
 4329TIP3   OH212992   4.604   4.846   4.571  0.0542  0.1696 -0.1668
 4329TIP3    H112993   4.591   4.751   4.571 -2.3217  0.4422 -0.7616
 4329TIP3    H212994   4.647   4.864   4.654  0.7564 -1.4216 -0.1318
 4330TIP3   OH212995   2.250   2.641   4.630  0.0952  0.0555 -0.4950
 4330TIP3    H112996   2.156   2.646   4.645 -0.0053  0.4331 -1.2242
 4330TIP3    H212997   2.265   2.550   4.604  0.0848 -0.2651  0.5737
 4331TIP3   OH212998   1.222   2.834   1.325  0.9257 -0.0706 -0.3342
 4331TIP3    H112999   1.188   2.910   1.372 -0.0105  0.2879 -1.5398
 4331TIP3    H213000   1.178   2.837   1.240  0.6844 -2.0737 -0.3338
 4332TIP3   OH213001   5.844   4.804   1.172 -0.3680 -0.2307  0.3338
 4332TIP3    H113002   5.755   4.823   1.201 -0.5807 -1.7373  0.7566
 4332TIP3    H213003   5.839   4.800   1.077 -0.9873 -1.2725  0.3917
 4333TIP3   OH213004   3.523   3.305   1.858  0.7237  0.0992 -0.0282
 4333TIP3    H113005   3.574   3.255   1.922 -0.1922 -0.2635  0.4407
 4333TIP3    H213006   3.510   3.390   1.898 -1.2472 -0.6419  1.0583
 4334TIP3   OH213007   0.602   4.436   2.561  0.3106 -0.0418  0.3133
 4334TIP3    H113008   0.537   4.369   2.544  0.1669  0.2534 -0.3529
 4334TIP3    H213009   0.552   4.516   2.574  0.5135  0.0993  0.2429
 4335TIP3   OH213010   3.197   0.354   1.865 -0.3835  0.2255  0.4868
 4335TIP3    H113011   3.181   0.274   1.915  2.1078 -0.6925 -0.0717
 4335TIP3    H213012   3.249   0.409   1.923  2.7761 -0.9630 -0.9943
 4336TIP3   OH213013   5.832   3.548   0.242  0.1295  0.4998 -0.6087
 4336TIP3    H113014   5.782   3.468   0.222 -1.0649  1.1002 -0.1558
 4336TIP3    H213015   5.897   3.554   0.172  2.0347 -2.2605  0.7597
 4337TIP3   OH213016   5.094   3.203   1.832 -0.4019  0.1779 -0.1228
 4337TIP3    H113017   5.055   3.119   1.857 -1.7991  0.7592 -0.2803
 4337TIP3    H213018   5.091   3.204   1.736  0.1322  0.1839 -0.1467
 4338TIP3   OH213019   2.178   5.198   3.646 -0.2827 -0.5488  0.0712
 4338TIP3    H113020   2.176   5.234   3.735  1.5660 -0.4321  0.1017
 4338TIP3    H213021   2.253   5.139   3.646 -1.0610 -1.5877 -1.0534
 4339TIP3   OH213022   2.553   2.701   0.791  0.3006 -0.1171 -0.0683
 4339TIP3    H113023   2.475   2.656   0.759 -1.0325  1.9862  0.0552
 4339TIP3    H213024   2.570   2.661   0.876 -0.0585 -1.2158 -0.4836
 4340TIP3   OH213025   0.710   0.683   5.104  0.5522 -0.4284  0.1365
 4340TIP3    H113026   0.735   0.617   5.040 -0.1391  0.7874 -1.4644
 4340TIP3    H213027   0.762   0.760   5.079 -0.0097  0.1803  0.8131
 4341TIP3   OH213028   2.860   5.857   5.038  0.4298  0.0610 -0.4088
 4341TIP3    H113029   2.826   5.770   5.018  3.3760 -1.3098  0.0584
 4341TIP3    H213030   2.806   5.916   4.986 -2.3826 -1.8742  0.0748
 4342TIP3   OH213031   6.235   4.687   0.141 -0.1923 -0.7533  0.2475
 4342TIP3    H113032   6.145   4.678   0.110  0.1989  0.3545 -1.3122
 4342TIP3    H213033   6.229   4.755   0.209 -0.3517  0.2697 -0.7713
 4343TIP3   OH213034   2.573   5.441   1.480 -0.1965 -0.6005  0.0236
 4343TIP3    H113035   2.483   5.424   1.452  0.7484 -2.6404 -2.2055
 4343TIP3    H213036   2.602   5.514   1.426 -0.2819 -0.4570  0.1726
 4344TIP3   OH213037   5.117   4.832   1.980 -0.3277  0.0915  0.3959
 4344TIP3    H113038   5.128   4.772   1.907 -0.6288  0.4391  0.0645
 4344TIP3    H213039   5.119   4.919   1.941 -2.8408  0.2472  0.4601
 4345TIP3   OH213040   3.456   2.298   4.062  0.2442  0.4157 -0.1858
 4345TIP3    H113041   3.423   2.287   4.151  1.0368  1.6089  0.2846
 4345TIP3    H213042   3.401   2.242   4.008  1.1778 -2.1263  1.3501
 4346TIP3   OH213043   5.254   4.840   4.772 -0.0065  0.2836  0.1473
 4346TIP3    H113044   5.232   4.924   4.812 -0.8476  0.5433 -0.8064
 4346TIP3    H213045   5.237   4.776   4.841 -1.6004  0.7026  0.1921
 4347TIP3   OH213046   5.518   0.691   2.563  0.8041  0.5895  0.2219
 4347TIP3    H113047   5.495   0.746   2.488 -0.3074  0.9091  0.7858
 4347TIP3    H213048   5.596   0.643   2.533 -0.2113 -0.0816 -1.5186
 4348TIP3   OH213049   2.769   3.539   0.895 -0.5704  0.4155  0.7154
 4348TIP3    H113050   2.816   3.616   0.929 -1.6639  1.3015  0.3010
 4348TIP3    H213051   2.698   3.525   0.957  0.3044 -1.0402  1.4490
 4349TIP3   OH213052   3.322   4.582   0.422  0.5647 -0.2557  0.4409
 4349TIP3    H113053   3.258   4.578   0.493  1.4843  0.5175  1.3507
 4349TIP3    H213054   3.373   4.662   0.440  2.4040 -1.3315  0.3338
 4350TIP3   OH213055   1.237   4.839   1.138  0.0522  0.0261 -0.0472
 4350TIP3    H113056   1.175   4.832   1.065  0.6575  0.4878 -0.6233
 4350TIP3    H213057   1.222   4.927   1.173  0.7852  0.3870 -0.5894
 4351TIP3   OH213058   1.997   2.314   1.937 -0.3190 -0.3052 -0.6330
 4351TIP3    H113059   2.082   2.356   1.953  0.2466 -1.3369 -0.9117
 4351TIP3    H213060   1.955   2.369   1.870  0.9695 -0.9030 -1.9722
 4352TIP3   OH213061   4.589   3.258   1.143 -0.3990  0.3248  0.1603
 4352TIP3    H113062   4.677   3.265   1.181 -0.9158 -1.0995  1.7272
 4352TIP3    H213063   4.535   3.224   1.213 -1.9522 -0.0950 -1.1747
 4353TIP3   OH213064   2.773   4.361   2.630  0.1322  0.1681  0.1010
 4353TIP3    H113065   2.771   4.298   2.558 -1.7497 -1.7246  1.6666
 4353TIP3    H213066   2.814   4.314   2.703 -0.3568  1.1050  1.0122
 4354TIP3   OH213067   2.729   3.346   4.160 -0.4982 -0.2553  0.6382
 4354TIP3    H113068   2.691   3.356   4.247  0.6520 -0.4781  1.1750
 4354TIP3    H213069   2.792   3.417   4.152 -1.8145  0.8478 -0.7162
 4355TIP3   OH213070   5.453   3.381   4.931  0.2273 -0.1399  0.4727
 4355TIP3    H113071   5.475   3.451   4.992  0.9305 -0.3115  0.4281
 4355TIP3    H213072   5.537   3.359   4.889  0.2919 -1.9142  1.4412
 4356TIP3   OH213073   0.600   0.066   4.728  0.0464 -0.3530  0.4351
 4356TIP3    H113074   0.547   0.039   4.653  1.1683 -0.3758 -0.3664
 4356TIP3    H213075   0.624  -0.016   4.771  0.4304 -0.4192  0.0998
 4357TIP3   OH213076   5.514   2.432   4.100  0.4630 -0.2207  0.3845
 4357TIP3    H113077   5.522   2.346   4.059  2.1349 -0.2067  0.6142
 4357TIP3    H213078   5.527   2.416   4.193  0.4403  0.2406  0.4699
 4358TIP3   OH213079   0.071   3.636   5.034 -0.8315 -0.0509 -0.7796
 4358TIP3    H113080   0.164   3.616   5.029 -0.6821  0.0539  1.0260
 4358TIP3    H213081   0.067   3.730   5.053 -1.1032 -0.6441  2.8057
 4359TIP3   OH213082   0.789   0.595   1.713 -0.1319  0.6015  0.4749
 4359TIP3    H113083   0.864   0.586   1.772  2.5083  2.0622 -2.4045
 4359TIP3    H213084   0.780   0.509   1.672 -1.4240 -0.1628  2.2500
 4360TIP3   OH213085   0.342   5.666   3.707  0.3505  0.0891  0.2142
 4360TIP3    H113086   0.320   5.644   3.617  1.6504  1.9373 -0.6223
 4360TIP3    H213087   0.276   5.731   3.732  0.6126  0.3644  0.2028
 4361TIP3   OH213088   5.892   2.809   4.019 -0.0143 -0.3162  0.2818
 4361TIP3    H113089   5.883   2.787   4.112 -0.9297  0.9080  0.5130
 4361TIP3    H213090   5.818   2.867   4.001  1.9967  2.3034 -0.2890
 4362TIP3   OH213091   3.556   2.940   3.423  0.3701  0.0913 -0.0484
 4362TIP3    H113092   3.618   3.009   3.401  1.7692 -0.8821  0.6844
 4362TIP3    H213093   3.505   2.926   3.343  0.1527  1.8313 -0.2504
 4363TIP3   OH213094   1.109   3.634   4.786 -0.2911 -0.0510  0.5948
 4363TIP3    H113095   1.061   3.597   4.711  0.8223 -1.3742  0.4957
 4363TIP3    H213096   1.073   3.589   4.862  0.3549 -0.6038  0.5807
 4364TIP3   OH213097   4.596   5.512   1.021  0.4399  0.2882  0.4713
 4364TIP3    H113098   4.604   5.567   0.942 -2.0016  1.4963  0.9655
 4364TIP3    H213099   4.631   5.566   1.091  0.2313  0.2471  0.6060
 4365TIP3   OH213100   5.870   0.892   3.771  0.7729 -0.0864 -0.3759
 4365TIP3    H113101   5.837   0.805   3.791 -0.2452  0.8168  2.4308
 4365TIP3    H213102   5.792   0.947   3.767  1.5382  1.2001  1.1563
 4366TIP3   OH213103   6.008   3.749   4.730  0.7878 -0.1572 -0.2713
 4366TIP3    H113104   5.957   3.793   4.662 -0.5075  1.4943  1.6549
 4366TIP3    H213105   5.947   3.687   4.770  1.4103 -0.8182 -0.3266
 4367TIP3   OH213106   5.762   2.834   4.705  0.0094  0.6811  0.1048
 4367TIP3    H113107   5.750   2.898   4.635  2.1031  0.6006 -0.3967
 4367TIP3    H213108   5.808   2.883   4.774  3.0730 -0.5363 -0.9106
 4368TIP3   OH213109   1.364   5.369   4.473  0.5525  0.0318  0.2417
 4368TIP3    H113110   1.457   5.347   4.465  0.3481 -0.3980 -1.2153
 4368TIP3    H213111   1.325   5.293   4.517  0.5222 -0.8292 -1.2170
 4369TIP3   OH213112   1.334   1.558   0.038  0.0505  0.0034 -0.0052
 4369TIP3    H113113   1.266   1.516   0.091  1.0587 -1.7610 -0.0552
 4369TIP3    H213114   1.389   1.604   0.102 -0.3571  0.2641  0.1677
 4370TIP3   OH213115   2.078   1.378   4.856 -0.1736 -0.8180  0.0086
 4370TIP3    H113116   2.159   1.338   4.886 -1.2455 -2.7407  0.4481
 4370TIP3    H213117   2.049   1.433   4.929  0.7999  0.0301 -0.2240
 4371TIP3   OH213118   1.611   1.338   4.000 -0.4381 -0.2052 -0.2154
 4371TIP3    H113119   1.674   1.384   3.945 -1.2974 -0.0109 -1.0623
 4371TIP3    H213120   1.578   1.267   3.945  0.0653 -1.1677  0.7063
 4372TIP3   OH213121   3.424   2.722   2.382  0.0354 -0.2164  0.0366
 4372TIP3    H113122   3.394   2.631   2.378  1.0481 -0.6405  1.4526
 4372TIP3    H213123   3.345   2.772   2.398 -0.2786 -1.0754  1.3310
 4373TIP3   OH213124   3.697   5.825   4.254  0.1220  0.1341  0.0530
 4373TIP3    H113125   3.749   5.805   4.176 -0.5873 -0.8275 -0.1941
 4373TIP3    H213126   3.642   5.899   4.229 -1.3484 -1.2317 -0.9849
 4374TIP3   OH213127   0.163   5.125   4.531 -0.3968 -0.3366 -0.0527
 4374TIP3    H113128   0.209   5.059   4.479  0.1995 -1.1749  1.4846
 4374TIP3    H213129   0.191   5.209   4.494  1.8007 -0.8444  0.3476
 4375TIP3   OH213130   0.065   3.525   2.794  0.2097 -0.2165  0.4028
 4375TIP3    H113131   0.019   3.500   2.874 -0.5110  1.1644  0.4498
 4375TIP3    H213132  -0.004   3.553   2.734  0.9372  1.9100  0.4741
 4376TIP3   OH213133   0.064   4.949   0.452  0.0515 -0.1438  0.2248
 4376TIP3    H113134   0.028   5.011   0.515  2.3925  1.6717 -0.0552
 4376TIP3    H213135  -0.011   4.899   0.421 -1.5209  0.5603  2.6072
 4377TIP3   OH213136   1.194   4.237   2.720  0.6003 -0.1588 -0.1173
 4377TIP3    H113137   1.285   4.208   2.709 -0.0496 -1.3467 -3.9742
 4377TIP3    H213138   1.189   4.317   2.667 -0.4784  0.1999  0.5177
 4378TIP3   OH213139   5.172   1.285   2.314 -0.0661  0.3078  0.6521
 4378TIP3    H113140   5.202   1.246   2.396 -0.3679 -0.9323  0.2022
 4378TIP3    H213141   5.183   1.215   2.249  0.4409  1.3661 -0.4213
 4379TIP3   OH213142   2.087   5.466   3.524 -0.7184 -0.1703  0.0504
 4379TIP3    H113143   2.080   5.371   3.532 -0.1816 -0.1537  0.7780
 4379TIP3    H213144   2.055   5.500   3.607 -2.0308  0.3541 -0.6360
 4380TIP3   OH213145   3.198   2.440   2.615 -0.1531 -0.0063  0.8249
 4380TIP3    H113146   3.174   2.532   2.624  0.3695  0.2643 -0.3512
 4380TIP3    H213147   3.201   2.407   2.704  0.8404  1.4309  1.3538
 4381TIP3   OH213148   4.456   4.602   5.126  0.8378 -0.3446  0.6323
 4381TIP3    H113149   4.390   4.652   5.173  0.9679  0.5149 -0.0802
 4381TIP3    H213150   4.449   4.513   5.161 -1.3701 -0.5141 -0.1325
 4382TIP3   OH213151   1.451   1.259   3.408  0.3143  0.0181 -0.0170
 4382TIP3    H113152   1.477   1.243   3.499  0.2131 -1.2049 -0.1904
 4382TIP3    H213153   1.532   1.284   3.364  0.2621  1.1944  0.5215
 4383TIP3   OH213154   0.775   1.325   3.849 -0.1619 -0.3289 -0.0248
 4383TIP3    H113155   0.684   1.299   3.834 -0.3409 -0.3871  1.1241
 4383TIP3    H213156   0.820   1.300   3.768 -1.2219  0.0212 -0.7629
 4384TIP3   OH213157   4.276   4.051   3.627 -0.3901  0.4021  0.2988
 4384TIP3    H113158   4.279   4.057   3.532  0.8489  0.1601  0.3058
 4384TIP3    H213159   4.222   4.125   3.654 -0.7351  0.4885 -0.5862
 4385TIP3   OH213160   3.319   5.025   2.437  0.0900  0.0782  0.2173
 4385TIP3    H113161   3.367   4.976   2.370 -0.9490 -0.9267  0.1983
 4385TIP3    H213162   3.385   5.043   2.504  0.9830  0.5054 -0.7276
 4386TIP3   OH213163   1.368   1.895   2.503 -0.0422  0.0997  0.0273
 4386TIP3    H113164   1.433   1.825   2.512 -2.3770 -2.4515 -1.2812
 4386TIP3    H213165   1.372   1.919   2.410 -1.0682 -0.2539 -0.1191
 4387TIP3   OH213166   3.636   0.682   1.044  0.0255 -0.1505 -0.4165
 4387TIP3    H113167   3.722   0.718   1.065 -0.1025 -0.0135 -0.1241
 4387TIP3    H213168   3.618   0.715   0.956 -0.9567  2.1933  0.5722
 4388TIP3   OH213169   5.259   0.506   3.154 -0.0190  0.3316 -0.0202
 4388TIP3    H113170   5.308   0.480   3.232  0.0568 -0.0763 -0.2049
 4388TIP3    H213171   5.266   0.602   3.153 -1.9716  0.5580  1.7759
 4389TIP3   OH213172   5.548   1.931   1.507  0.4173 -0.4709  0.4335
 4389TIP3    H113173   5.570   1.850   1.554  0.3287 -0.4167  0.5688
 4389TIP3    H213174   5.471   1.908   1.454  0.6662 -0.6002  0.1267
 4390TIP3   OH213175   0.708   2.158   4.270  0.0297 -0.4571  0.2439
 4390TIP3    H113176   0.682   2.216   4.342 -0.9481 -0.4523 -0.0874
 4390TIP3    H213177   0.703   2.070   4.307 -0.7729 -0.4768  0.1170
 4391TIP3   OH213178   3.043   3.148   2.344  0.2255 -0.4040 -0.2604
 4391TIP3    H113179   3.131   3.117   2.366  0.7647  0.5991 -0.9342
 4391TIP3    H213180   3.056   3.204   2.268 -0.6627  1.6182  0.9877
 4392TIP3   OH213181   3.450   4.256   1.029 -0.2994  0.1017  0.3250
 4392TIP3    H113182   3.472   4.343   0.997 -1.8480  0.7958  1.0249
 4392TIP3    H213183   3.358   4.244   1.005  0.2998 -2.0329 -1.1905
 4393TIP3   OH213184   5.555   0.772   3.513 -0.9395 -0.2332  0.1536
 4393TIP3    H113185   5.638   0.752   3.469 -1.3701 -1.6750 -0.0464
 4393TIP3    H213186   5.567   0.861   3.547  0.8072 -0.5287  0.4121
 4394TIP3   OH213187   4.157   0.527   4.516  0.0955  0.0292  0.5164
 4394TIP3    H113188   4.154   0.535   4.420 -1.1077 -0.4057  0.4981
 4394TIP3    H213189   4.227   0.586   4.543  0.1389  0.5151 -0.6046
 4395TIP3   OH213190   0.596   5.748   0.013 -0.2197 -0.3642  0.3613
 4395TIP3    H113191   0.611   5.815   0.081  1.9356 -2.2252  1.8870
 4395TIP3    H213192   0.666   5.763  -0.051 -0.6013 -0.2805 -0.0355
 4396TIP3   OH213193   3.787   0.096   0.633  0.4043 -0.1061  0.0586
 4396TIP3    H113194   3.773   0.034   0.562  0.2963 -0.1039  0.0780
 4396TIP3    H213195   3.705   0.145   0.639  0.1018 -0.6993  0.7646
 4397TIP3   OH213196   1.082   3.411   3.040 -0.0241 -0.0042  0.2819
 4397TIP3    H113197   1.083   3.402   3.135 -1.0491  0.4490  0.3486
 4397TIP3    H213198   0.995   3.379   3.014  0.7802 -1.5435 -0.6633
 4398TIP3   OH213199   0.342   0.707   0.281  0.1154 -0.5202  0.3497
 4398TIP3    H113200   0.402   0.645   0.240  0.4506 -0.2832  0.4801
 4398TIP3    H213201   0.280   0.653   0.329  0.3754 -0.7571  0.4196
 4399TIP3   OH213202   0.299   0.519   1.521  0.3466  0.1578  0.3414
 4399TIP3    H113203   0.336   0.478   1.599 -0.7059  0.4019  0.9818
 4399TIP3    H213204   0.282   0.609   1.547 -1.3989 -0.1294  0.3331
 4400TIP3   OH213205   3.657   4.984   4.912 -0.1263 -0.5990 -0.2128
 4400TIP3    H113206   3.713   4.942   4.976  1.9215 -1.5747 -2.4961
 4400TIP3    H213207   3.592   4.918   4.889  0.8133 -1.2582 -1.0704
 4401TIP3   OH213208   6.325   4.831   0.874  0.2312 -0.0642 -0.1139
 4401TIP3    H113209   6.358   4.795   0.957 -0.8593 -1.3339 -0.2117
 4401TIP3    H213210   6.292   4.918   0.898  1.2579  0.1846  0.4810
 4402TIP3   OH213211   1.441   5.367   0.054  0.1383  0.0472  0.1938
 4402TIP3    H113212   1.367   5.359  -0.006 -0.6815  1.5719  0.9575
 4402TIP3    H213213   1.420   5.308   0.126  0.6150 -0.9721 -0.4715
 4403TIP3   OH213214   2.033   0.030   0.725  0.1986  0.0071  0.2090
 4403TIP3    H113215   2.119   0.048   0.687 -0.3737  1.7338 -0.3638
 4403TIP3    H213216   2.052   0.002   0.815  1.3478  0.9571  0.2908
 4404TIP3   OH213217   5.968   2.578   2.292 -0.0627  0.1804  0.6085
 4404TIP3    H113218   5.976   2.650   2.354  0.5868 -0.5135  1.3458
 4404TIP3    H213219   5.927   2.508   2.342 -0.6849  0.0211 -0.1005
 4405TIP3   OH213220   4.277   1.728   1.989 -0.5693  0.4198 -0.0990
 4405TIP3    H113221   4.283   1.781   2.068  1.7843  0.0472  0.0479
 4405TIP3    H213222   4.299   1.787   1.918  0.7925 -0.0185 -0.0696
 4406TIP3   OH213223   6.304   5.622   2.616  0.0996 -0.5627  0.4041
 4406TIP3    H113224   6.378   5.653   2.565  0.3868 -2.1361 -0.1728
 4406TIP3    H213225   6.269   5.701   2.657  3.6404 -0.0124  2.8571
 4407TIP3   OH213226   6.358   1.793   4.095 -1.0211  0.2620  0.1702
 4407TIP3    H113227   6.399   1.783   4.181 -1.3618 -2.7935  0.0884
 4407TIP3    H213228   6.286   1.730   4.095 -0.2365 -0.7903 -2.7663
 4408TIP3   OH213229   0.871   5.151   0.136 -0.2819 -0.2635 -0.4222
 4408TIP3    H113230   0.851   5.185   0.223  1.5854  0.2564 -0.1402
 4408TIP3    H213231   0.792   5.168   0.085 -1.0403  0.3692  0.9071
 4409TIP3   OH213232   4.193   5.002   0.838 -0.0293 -0.3164  0.3319
 4409TIP3    H113233   4.191   5.090   0.876  0.1626 -0.7066  1.2849
 4409TIP3    H213234   4.133   4.951   0.892  1.8594 -1.4123  1.5079
 4410TIP3   OH213235   3.404   2.854   1.411  0.4635 -0.1249 -0.2004
 4410TIP3    H113236   3.385   2.947   1.408 -0.2742 -0.2402  0.5827
 4410TIP3    H213237   3.461   2.843   1.487 -0.8792 -0.5286  0.7914
 4411TIP3   OH213238   1.516   2.291   3.536  0.5818 -0.1077 -0.5998
 4411TIP3    H113239   1.475   2.370   3.570  0.3970 -0.4785  0.0601
 4411TIP3    H213240   1.507   2.298   3.441  3.5005  2.2387 -0.8356
 4412TIP3   OH213241   3.341   0.243   3.204  0.5013  0.3927  0.3213
 4412TIP3    H113242   3.267   0.184   3.189  1.2020 -0.2414 -0.7845
 4412TIP3    H213243   3.409   0.187   3.240 -0.0012  1.2524  2.7643
 4413TIP3   OH213244   0.134   4.414   1.160 -1.1840  0.3580 -0.2593
 4413TIP3    H113245   0.119   4.508   1.175  0.5969  0.6813 -0.2745
 4413TIP3    H213246   0.182   4.411   1.077 -2.0892 -0.6709 -0.7816
 4414TIP3   OH213247   5.718   0.935   4.418 -0.1198 -0.3117  0.7370
 4414TIP3    H113248   5.703   0.845   4.389 -0.0479  0.4262 -1.8591
 4414TIP3    H213249   5.661   0.988   4.363  1.0356  1.3527  1.0653
 4415TIP3   OH213250   2.375   0.244   1.241 -0.2196 -0.3126  0.9281
 4415TIP3    H113251   2.416   0.160   1.262 -0.6868 -0.2582  2.1521
 4415TIP3    H213252   2.390   0.298   1.319  1.6811  1.4054 -0.5135
 4416TIP3   OH213253   0.969   3.349   4.260 -0.4384 -0.3991  0.4889
 4416TIP3    H113254   0.970   3.398   4.178 -2.3336 -0.8164  0.1590
 4416TIP3    H213255   0.991   3.259   4.234  0.8563 -0.1777  0.7579
 4417TIP3   OH213256   3.249   0.536   2.816  0.3870  0.6352 -0.1677
 4417TIP3    H113257   3.290   0.585   2.887 -1.5792 -0.7782  2.0651
 4417TIP3    H213258   3.212   0.604   2.759  0.2024  1.8046  1.2996
 4418TIP3   OH213259   3.182   2.131   1.466 -0.0283  0.1348 -0.0056
 4418TIP3    H113260   3.112   2.193   1.447  1.1466  1.0393 -1.6325
 4418TIP3    H213261   3.224   2.167   1.545 -0.8169  0.0624  0.4608
 4419TIP3   OH213262   6.013   4.627   2.993  0.0236  0.7464 -0.1060
 4419TIP3    H113263   5.972   4.609   3.077 -0.7236  2.0698 -0.1549
 4419TIP3    H213264   6.086   4.685   3.014 -0.0872  0.9752 -0.3485
 4420TIP3   OH213265   3.870   1.834   1.501  0.1684  0.3373  0.6940
 4420TIP3    H113266   3.828   1.749   1.517  0.9670 -0.0360  0.8364
 4420TIP3    H213267   3.808   1.898   1.537 -0.6764 -0.1371  0.1375
 4421TIP3   OH213268   2.994   0.475   4.440  0.5007  0.0196 -0.1475
 4421TIP3    H113269   3.066   0.457   4.501 -0.1962 -1.0169  0.3954
 4421TIP3    H213270   2.922   0.420   4.471 -0.7999  1.6138 -0.1857
 4422TIP3   OH213271   5.825   4.501   0.185 -0.1949  0.2210 -0.4447
 4422TIP3    H113272   5.750   4.445   0.203  0.4231 -0.7667 -0.8490
 4422TIP3    H213273   5.888   4.481   0.255 -0.1489  0.7632 -0.3214
 4423TIP3   OH213274   4.844   3.325   2.581 -0.1791  0.0647 -0.0628
 4423TIP3    H113275   4.911   3.297   2.642 -0.9296  0.2132  0.8469
 4423TIP3    H213276   4.888   3.327   2.496  0.8766 -0.1246  0.4687
 4424TIP3   OH213277   1.048   3.837   0.275  0.0184 -0.2429  0.3954
 4424TIP3    H113278   0.994   3.777   0.326 -2.2324  0.6028 -0.8920
 4424TIP3    H213279   1.039   3.807   0.184  4.0252 -1.7786  0.2916
 4425TIP3   OH213280   0.809   1.053   4.690  0.0127 -0.5943  0.1062
 4425TIP3    H113281   0.739   1.017   4.745 -1.2776 -0.9323 -1.6802
 4425TIP3    H213282   0.773   1.133   4.654  0.7838 -0.4483 -0.3644
 4426TIP3   OH213283   0.761   0.465   0.746 -0.3349  0.1474  0.2306
 4426TIP3    H113284   0.841   0.514   0.762  0.9572 -1.7131 -0.1558
 4426TIP3    H213285   0.752   0.407   0.822  0.3196 -1.6659 -0.9999
 4427TIP3   OH213286   1.412   3.719   4.918 -0.0530 -0.3558  0.2718
 4427TIP3    H113287   1.436   3.711   5.011 -1.8124 -0.8276  0.7176
 4427TIP3    H213288   1.431   3.633   4.881 -1.4648 -0.8860  0.7377
 4428TIP3   OH213289   1.322   5.665   1.451  0.0950  0.2614 -0.2813
 4428TIP3    H113290   1.346   5.615   1.373  1.8607 -0.2235  0.5319
 4428TIP3    H213291   1.372   5.746   1.445  1.1480 -0.2712  0.8909
 4429TIP3   OH213292   3.555   2.327   3.089 -0.0630 -0.4582  0.1076
 4429TIP3    H113293   3.620   2.258   3.098  0.4690  0.0573  0.2950
 4429TIP3    H213294   3.471   2.282   3.095  0.2146 -0.7469  3.3075
 4430TIP3   OH213295   5.456   0.560   3.340  0.0851 -0.2323  0.3194
 4430TIP3    H113296   5.539   0.563   3.293  0.7456 -0.3608  1.4437
 4430TIP3    H213297   5.465   0.624   3.410 -0.3696 -0.9529  1.0647
 4431TIP3   OH213298   3.925   4.433   2.312 -0.0255  0.3042 -0.0820
 4431TIP3    H113299   3.948   4.415   2.221  0.5727  0.2303  0.0809
 4431TIP3    H213300   3.902   4.347   2.348  0.5166  0.2100  0.0495
 4432TIP3   OH213301   4.187   0.362   3.733  0.2652 -0.1348 -0.7033
 4432TIP3    H113302   4.266   0.410   3.708 -0.4857  1.5465  0.0217
 4432TIP3    H213303   4.122   0.387   3.666 -0.2590  0.2450 -0.0639
 4433TIP3   OH213304   5.149   1.722   2.764 -0.6640 -0.4744  0.4198
 4433TIP3    H113305   5.146   1.659   2.836  0.3664 -2.8739 -1.5068
 4433TIP3    H213306   5.071   1.704   2.712 -0.1574 -0.4638 -0.3675
 4434TIP3   OH213307   0.539   1.610   5.040  0.6345  0.2853  0.4542
 4434TIP3    H113308   0.582   1.536   4.998  1.9076 -0.0497  2.2089
 4434TIP3    H213309   0.568   1.686   4.991 -1.2233 -0.3566 -1.8069
 4435TIP3   OH213310   5.380   5.476   1.562  0.4640  0.3188  0.3268
 4435TIP3    H113311   5.379   5.493   1.468 -0.1658 -1.4901 -0.0344
 4435TIP3    H213312   5.319   5.541   1.599 -2.5306 -1.4985 -1.0755
 4436TIP3   OH213313   0.211   0.008   0.826 -0.0859  0.0125 -0.3453
 4436TIP3    H113314   0.201  -0.070   0.880  0.2562 -0.3945 -0.8662
 4436TIP3    H213315   0.164   0.076   0.874 -0.3090 -0.4886  0.1576
 4437TIP3   OH213316   1.065   2.186   0.074 -0.1007  0.1733 -0.1152
 4437TIP3    H113317   1.139   2.239   0.103  0.2921 -1.6363  2.4905
 4437TIP3    H213318   1.000   2.194   0.144 -1.0042 -0.8871 -0.7824
 4438TIP3   OH213319   3.512   4.175   3.013  0.2882 -0.2345 -0.7656
 4438TIP3    H113320   3.464   4.096   3.040  1.8906 -1.3359 -1.0079
 4438TIP3    H213321   3.446   4.245   3.017 -0.2872 -0.7364  3.4412
 4439TIP3   OH213322   6.333   5.531   2.203 -0.3065  0.0471  0.1096
 4439TIP3    H113323   6.250   5.558   2.163  0.1543 -1.2361 -1.8202
 4439TIP3    H213324   6.378   5.482   2.134  0.6986 -2.0105  2.1223
 4440TIP3   OH213325   1.967   4.395   0.030 -0.6936 -0.6822  0.1974
 4440TIP3    H113326   2.013   4.346   0.098 -0.4205 -0.0322  0.4877
 4440TIP3    H213327   1.875   4.382   0.050 -0.6274  0.8029  1.6668
 4441TIP3   OH213328   3.329   2.157   2.214  0.0660  0.3144  0.2622
 4441TIP3    H113329   3.409   2.103   2.211 -0.7110 -0.8463 -2.1476
 4441TIP3    H213330   3.324   2.187   2.305  2.7756 -0.2669  0.6890
 4442TIP3   OH213331   4.679   3.178   2.728 -0.0281 -0.3144  0.6284
 4442TIP3    H113332   4.751   3.220   2.681  1.1549 -1.4828  1.3186
 4442TIP3    H213333   4.600   3.218   2.692  0.8857 -0.1728 -1.3569
 4443TIP3   OH213334   3.448   5.615   0.526 -0.7740 -0.4885 -0.0593
 4443TIP3    H113335   3.441   5.707   0.503 -0.2253 -0.7374 -1.2622
 4443TIP3    H213336   3.365   5.576   0.496 -0.7285 -0.5078 -0.1611
 4444TIP3   OH213337   5.213   2.184   3.124  0.8809 -0.2527 -0.2760
 4444TIP3    H113338   5.292   2.178   3.179  1.0209 -1.5384 -0.5796
 4444TIP3    H213339   5.218   2.108   3.066 -1.3426 -1.2546  0.7177
 4445TIP3   OH213340   2.009   1.684   3.088  0.4207  0.4151 -0.9251
 4445TIP3    H113341   1.935   1.623   3.089  1.1448 -0.5093  1.0405
 4445TIP3    H213342   2.080   1.636   3.046  0.8970 -0.0521  0.3420
 4446TIP3   OH213343   3.484   4.826   0.497  0.1506  0.4073  0.0278
 4446TIP3    H113344   3.555   4.888   0.518  0.1156  0.5513 -0.2725
 4446TIP3    H213345   3.406   4.880   0.490  0.0953  0.3116 -0.1038
 4447TIP3   OH213346   3.148   5.864   3.140 -0.4632  0.2185 -0.4036
 4447TIP3    H113347   3.058   5.834   3.129  0.4396 -1.9314 -2.9955
 4447TIP3    H213348   3.177   5.822   3.221 -1.4092 -0.1512 -0.2451
 4448TIP3   OH213349   4.835   2.238   1.750  0.5963  0.5394 -0.1835
 4448TIP3    H113350   4.884   2.312   1.785 -0.2796  1.9835 -1.8565
 4448TIP3    H213351   4.755   2.276   1.715  0.2672 -1.1479 -1.4103
 4449TIP3   OH213352   2.124   0.685   4.454 -0.0355 -0.3285 -0.1066
 4449TIP3    H113353   2.040   0.730   4.444 -0.2924 -0.8270 -0.2281
 4449TIP3    H213354   2.189   0.755   4.449 -0.4082 -0.0097 -0.7121
 4450TIP3   OH213355   3.312   4.270   1.528 -0.2858 -0.1861 -0.0042
 4450TIP3    H113356   3.363   4.194   1.498 -0.3386 -1.2792  2.4484
 4450TIP3    H213357   3.231   4.266   1.477  0.4218 -0.7531 -1.1311
 4451TIP3   OH213358   6.064   2.486   2.705  0.4593  0.0127  0.2045
 4451TIP3    H113359   6.114   2.518   2.780 -1.1887  0.4883  1.1392
 4451TIP3    H213360   5.974   2.514   2.722 -0.2601 -1.3511 -1.1157
 4452TIP3   OH213361   0.095   2.403   1.359 -0.4495  0.0714  0.1744
 4452TIP3    H113362   0.155   2.464   1.401  1.6085 -1.9258  0.3579
 4452TIP3    H213363   0.134   2.386   1.273 -1.6022 -0.1101 -0.3298
 4453TIP3   OH213364   2.402   3.220   5.150 -0.4330 -0.7219 -0.2377
 4453TIP3    H113365   2.362   3.139   5.117  1.0168 -1.2002 -0.9086
 4453TIP3    H213366   2.447   3.257   5.074  0.7677 -0.4608  0.5671
 4454TIP3   OH213367   2.326   5.660   4.347  0.3864 -0.2775 -0.1529
 4454TIP3    H113368   2.407   5.690   4.306  0.4753 -0.4497 -0.1062
 4454TIP3    H213369   2.267   5.641   4.274 -0.1246  1.2204 -0.1656
 4455TIP3   OH213370   3.106   0.694   0.511  0.0906  0.3456 -0.2777
 4455TIP3    H113371   3.078   0.609   0.477  3.2764 -0.4421 -1.2507
 4455TIP3    H213372   3.138   0.741   0.434  1.4978  1.0919  0.7321
 4456TIP3   OH213373   2.737   4.798   5.119  0.1843  0.0089  0.2107
 4456TIP3    H113374   2.831   4.816   5.116  0.0187  1.0541  0.8518
 4456TIP3    H213375   2.706   4.816   5.030  0.5000  0.1785  0.1352
 4457TIP3   OH213376   3.363   1.342   3.721  0.3868 -0.0099  0.3201
 4457TIP3    H113377   3.298   1.373   3.784 -0.1011  1.2030 -0.7284
 4457TIP3    H213378   3.424   1.415   3.710 -0.2969  0.3478 -1.5732
 4458TIP3   OH213379   0.592   1.824   3.415  0.0296  0.0863  0.6014
 4458TIP3    H113380   0.542   1.905   3.403 -0.2870 -0.1556  0.2428
 4458TIP3    H213381   0.541   1.773   3.478 -0.0915 -0.0943  0.3573
 4459TIP3   OH213382   3.271   5.839   4.827  0.2421  0.1446  0.5856
 4459TIP3    H113383   3.203   5.906   4.820 -0.7898 -0.5297  3.0423
 4459TIP3    H213384   3.346   5.876   4.782 -1.0220  1.9234 -0.1727
 4460TIP3   OH213385   0.848   5.152   4.240  0.1147  0.0249 -0.3120
 4460TIP3    H113386   0.761   5.161   4.280  0.5919 -1.0747  1.0659
 4460TIP3    H213387   0.832   5.115   4.154 -0.8042  0.0242 -0.1484
 4461TIP3   OH213388   0.857   0.341   4.676  0.5331 -0.0675 -0.1952
 4461TIP3    H113389   0.774   0.364   4.719 -0.4946 -2.2885 -0.8157
 4461TIP3    H213390   0.865   0.404   4.605 -2.1760 -1.4086 -1.8910
 4462TIP3   OH213391   3.193   2.193   2.849 -0.6070 -0.6244 -0.2896
 4462TIP3    H113392   3.286   2.175   2.857 -0.9545 -1.9576  1.4994
 4462TIP3    H213393   3.181   2.279   2.891  0.0872  0.7606 -2.7153
 4463TIP3   OH213394   1.356   2.845   4.029 -0.0265 -0.1372 -1.0085
 4463TIP3    H113395   1.313   2.794   4.096  2.3231  0.1709  0.8647
 4463TIP3    H213396   1.293   2.914   4.006 -0.3240  0.7869  2.1584
 4464TIP3   OH213397   3.080   0.370   0.527 -0.1663 -0.0724  0.0734
 4464TIP3    H113398   3.072   0.408   0.439 -0.9414  2.0031  0.9757
 4464TIP3    H213399   3.015   0.299   0.529 -0.6776  0.3570 -0.7800
 4465TIP3   OH213400   0.287   5.930   3.415 -0.0983  0.7601  0.3045
 4465TIP3    H113401   0.277   5.857   3.354  0.3595 -0.3114  1.4651
 4465TIP3    H213402   0.380   5.930   3.437 -0.3963  0.5869  1.6312
 4466TIP3   OH213403   4.475   0.471   2.685 -0.2666  0.4240 -0.3185
 4466TIP3    H113404   4.506   0.486   2.774  0.7035  1.1884 -0.7654
 4466TIP3    H213405   4.525   0.395   2.654  0.8620  1.3477 -0.8624
 4467TIP3   OH213406   1.546   1.061   4.601  0.2772 -0.1770 -0.3742
 4467TIP3    H113407   1.455   1.084   4.586  0.4258  0.2897 -0.5736
 4467TIP3    H213408   1.577   1.123   4.667  0.4088 -0.4337 -0.1895
 4468TIP3   OH213409   3.706   4.681   4.967 -0.3393 -0.1315 -0.1055
 4468TIP3    H113410   3.699   4.590   4.995 -0.2714 -0.1288 -0.0781
 4468TIP3    H213411   3.726   4.676   4.874  1.9752 -0.2102  0.3240
 4469TIP3   OH213412   2.992   0.969   1.400 -0.6485 -0.6613 -0.6465
 4469TIP3    H113413   2.916   1.009   1.356 -0.6734 -0.6679 -0.6092
 4469TIP3    H213414   2.958   0.887   1.436 -0.5289 -0.8530 -0.9669
 4470TIP3   OH213415   6.063   5.188   4.779  0.9956  0.9360 -0.1260
 4470TIP3    H113416   6.131   5.194   4.846  0.2314  0.5528  0.7093
 4470TIP3    H213417   5.985   5.159   4.827  0.3890  0.8168 -1.1596
 4471TIP3   OH213418   5.105   4.454   2.165 -0.2430 -0.0483 -0.1137
 4471TIP3    H113419   5.195   4.475   2.139  0.5052 -2.1647  0.5941
 4471TIP3    H213420   5.101   4.479   2.257 -0.0464 -0.8983  0.1298
 4472TIP3   OH213421   1.414   2.681   0.229 -0.0716  0.2310  0.8364
 4472TIP3    H113422   1.325   2.660   0.259 -0.2208 -0.9228 -0.3034
 4472TIP3    H213423   1.465   2.603   0.250 -0.4354 -1.1602 -2.7410
 4473TIP3   OH213424   2.681   4.457   5.075  0.0929  0.0966 -0.0981
 4473TIP3    H113425   2.624   4.514   5.126 -1.2498 -1.9335  0.7975
 4473TIP3    H213426   2.651   4.369   5.095  3.0808 -1.0569 -0.2073
 4474TIP3   OH213427   2.525   3.666   3.950  0.3200  0.4376  0.1706
 4474TIP3    H113428   2.451   3.623   3.995  0.3628  0.2767  0.0885
 4474TIP3    H213429   2.550   3.737   4.008  1.1301 -0.4758  0.9906
 4475TIP3   OH213430   0.071   4.923   0.149 -0.1135 -0.0025 -0.0784
 4475TIP3    H113431  -0.014   4.882   0.132  0.2512 -0.5215 -0.7118
 4475TIP3    H213432   0.063   4.959   0.237 -0.9864 -0.0477 -0.1304
 4476TIP3   OH213433   4.273   3.583   3.989 -0.6580 -0.0818 -0.6343
 4476TIP3    H113434   4.194   3.528   3.988  0.5912 -2.0158  0.2534
 4476TIP3    H213435   4.292   3.596   4.082  0.4810 -0.2995 -0.8216
 4477TIP3   OH213436   5.858   4.822   1.934  0.6613 -0.8104 -0.4702
 4477TIP3    H113437   5.936   4.788   1.890 -0.7690 -3.0000 -1.5076
 4477TIP3    H213438   5.811   4.744   1.962 -0.7765  0.4724  0.8638
 4478TIP3   OH213439   4.457   2.522   4.423  0.0818  0.3839  0.4243
 4478TIP3    H113440   4.550   2.535   4.405  0.2907 -1.2325  0.2042
 4478TIP3    H213441   4.452   2.522   4.519  0.2224  0.9387  0.4375
 4479TIP3   OH213442   5.377   2.189   1.508 -0.3091  0.2240  0.3015
 4479TIP3    H113443   5.422   2.105   1.521  1.2603  0.9069 -0.4443
 4479TIP3    H213444   5.303   2.168   1.451 -0.1190 -0.7043  0.3858
 4480TIP3   OH213445   5.109   3.883   0.477  0.6276  0.5101 -0.4478
 4480TIP3    H113446   5.045   3.945   0.440 -1.6634 -0.3789  1.7350
 4480TIP3    H213447   5.066   3.798   0.472  1.5337 -0.0980  1.2665
 4481TIP3   OH213448   4.066   3.549   2.154  0.4266 -0.2009 -0.1321
 4481TIP3    H113449   4.107   3.580   2.234  0.9603  0.3845 -0.6273
 4481TIP3    H213450   4.127   3.573   2.085 -0.2542 -0.2680 -0.7652
 4482TIP3   OH213451   3.701   0.627   2.206  0.1653  0.4106 -0.3600
 4482TIP3    H113452   3.667   0.637   2.117 -0.0465 -1.0096 -0.4514
 4482TIP3    H213453   3.773   0.689   2.210  0.0564  0.6373 -1.4590
 4483TIP3   OH213454   3.793   2.697   2.954 -0.3159 -0.0267  0.3593
 4483TIP3    H113455   3.850   2.772   2.964  0.9729 -0.6235 -1.8599
 4483TIP3    H213456   3.844   2.623   2.988 -0.7029 -0.2242  0.5170
 4484TIP3   OH213457   2.497   4.040   4.121  0.4511 -0.4966  0.2385
 4484TIP3    H113458   2.506   4.134   4.108  1.7563 -0.5560  0.5626
 4484TIP3    H213459   2.548   4.001   4.050 -2.5400 -1.0683 -1.7638
 4485TIP3   OH213460   5.993   3.725   0.881 -0.3235 -0.1690 -0.2514
 4485TIP3    H113461   5.913   3.772   0.903 -0.2988  0.5698 -1.6352
 4485TIP3    H213462   5.966   3.655   0.822  0.1372  0.6759 -1.5050
 4486TIP3   OH213463   3.573   2.771   1.630  0.1987  0.6002 -0.0699
 4486TIP3    H113464   3.620   2.810   1.704  0.5395  0.0432  0.0126
 4486TIP3    H213465   3.638   2.716   1.587 -0.2622  0.1638 -0.2148
 4487TIP3   OH213466   3.407   3.310   3.379 -0.1840 -0.4127  0.4265
 4487TIP3    H113467   3.315   3.320   3.353  0.1525  3.6687  0.2879
 4487TIP3    H213468   3.407   3.322   3.474  0.2541 -0.1869  0.3976
 4488TIP3   OH213469   5.024   3.045   1.295  0.0078 -0.1410 -0.4525
 4488TIP3    H113470   5.070   3.052   1.211 -0.5606  0.3113 -0.7329
 4488TIP3    H213471   5.094   3.053   1.360  0.2200  2.0712 -0.8475
 4489TIP3   OH213472   2.425   1.892   3.948 -0.4618 -0.6038 -0.0463
 4489TIP3    H113473   2.374   1.839   4.009  0.2621  0.3272  1.4163
 4489TIP3    H213474   2.482   1.945   4.003 -0.4020  0.9454 -1.4976
 4490TIP3   OH213475   0.597   0.344   4.785  0.1575  0.1484 -0.7007
 4490TIP3    H113476   0.607   0.252   4.761 -0.3372  0.1337 -0.8533
 4490TIP3    H213477   0.553   0.384   4.710  0.6780  0.5861 -0.7868
 4491TIP3   OH213478   5.130   0.103   4.190 -0.0013  0.1706  0.1667
 4491TIP3    H113479   5.041   0.086   4.158  0.8005 -1.9931 -1.1459
 4491TIP3    H213480   5.186   0.053   4.131  2.0632  0.9718  1.3560
 4492TIP3   OH213481   4.547   1.797   1.664 -0.2334 -0.8561 -0.0551
 4492TIP3    H113482   4.623   1.786   1.608  1.2098 -1.2811  1.8875
 4492TIP3    H213483   4.532   1.710   1.701 -2.0337 -0.9113 -0.8188
 4493TIP3   OH213484   2.602   0.226   4.021  0.0487 -0.0209  0.1676
 4493TIP3    H113485   2.538   0.175   4.071  0.4439 -0.8494 -0.1493
 4493TIP3    H213486   2.687   0.204   4.060  0.2911 -0.1289 -0.4023
 4494TIP3   OH213487   4.689   5.970   2.940  0.4598  0.1600  0.1442
 4494TIP3    H113488   4.745   6.016   3.003  1.1972 -0.6517  0.1013
 4494TIP3    H213489   4.675   5.884   2.979 -1.2129  0.5147  0.4003
 4495TIP3   OH213490   6.161   4.841   3.127 -0.3615  0.0546  0.1773
 4495TIP3    H113491   6.248   4.878   3.118 -0.8367  1.0237 -0.5817
 4495TIP3    H213492   6.121   4.890   3.199  0.0675 -1.1186  1.2562
 4496TIP3   OH213493   0.954   4.037   5.007  0.1381  0.4414 -0.1228
 4496TIP3    H113494   1.008   4.092   5.063  0.2901 -0.1409  0.3054
 4496TIP3    H213495   1.017   3.985   4.957 -0.0196  0.0069  0.1297
 4497TIP3   OH213496   3.497   2.367   1.205 -0.3782 -0.0641 -0.1489
 4497TIP3    H113497   3.525   2.312   1.278  2.1182  1.6129  0.3000
 4497TIP3    H213498   3.522   2.319   1.126 -0.2755 -0.5504  0.1806
 4498TIP3   OH213499   0.816   4.059   0.424  0.0953 -0.8133 -0.2642
 4498TIP3    H113500   0.901   4.034   0.460  0.2548 -2.3080 -1.5514
 4498TIP3    H213501   0.837   4.115   0.349 -0.0903 -0.4920 -0.0770
 4499TIP3   OH213502   5.227   1.549   3.150 -0.0189 -0.5222  0.0590
 4499TIP3    H113503   5.218   1.574   3.242 -1.0087 -2.2548  0.4670
 4499TIP3    H213504   5.168   1.607   3.103 -0.3601 -0.3829  0.6575
 4500TIP3   OH213505   5.855   4.590   1.577  0.6780  0.7407  0.0046
 4500TIP3    H113506   5.930   4.644   1.552  2.2964 -2.0946 -1.8540
 4500TIP3    H213507   5.891   4.524   1.636 -0.7138  0.3061  0.4021
 4501TIP3   OH213508   3.144   5.003   2.694  0.3347  0.0306  0.0320
 4501TIP3    H113509   3.096   4.924   2.668 -0.3727  0.8881 -1.3399
 4501TIP3    H213510   3.212   5.012   2.628  0.1774  0.7880 -0.0294
 4502TIP3   OH213511   4.590   3.971   4.335  0.2146 -0.1457 -0.2850
 4502TIP3    H113512   4.495   3.966   4.343  0.2776 -0.9989  0.0012
 4502TIP3    H213513   4.607   3.962   4.241 -0.0416  1.1559 -0.4710
 4503TIP3   OH213514   0.063   4.555   5.118 -0.3463  0.2559  0.6495
 4503TIP3    H113515   0.087   4.466   5.146  1.2861  0.7464  0.8848
 4503TIP3    H213516   0.086   4.559   5.026  0.9592  0.8759  0.9856
 4504TIP3   OH213517   3.636   3.292   1.367  0.1050  0.4159 -0.1676
 4504TIP3    H113518   3.542   3.272   1.370  0.3068 -0.4770  0.8773
 4504TIP3    H213519   3.659   3.312   1.457  1.0736 -0.1326 -0.2791
 4505TIP3   OH213520   3.519   0.819   2.626 -0.4556  0.2038 -0.1566
 4505TIP3    H113521   3.557   0.739   2.662 -1.5642  0.0231  0.6332
 4505TIP3    H213522   3.547   0.888   2.687 -0.0616  0.3289 -0.4704
 4506TIP3   OH213523   4.128   1.446   0.509  0.2423  0.2901 -0.6127
 4506TIP3    H113524   4.101   1.413   0.594 -1.0153  0.6494 -0.8581
 4506TIP3    H213525   4.211   1.490   0.526 -1.1598  2.5429  0.9546
 4507TIP3   OH213526   5.221   2.636   0.672 -0.6696 -0.8377 -0.3430
 4507TIP3    H113527   5.130   2.665   0.669 -0.2500  0.6896  0.5271
 4507TIP3    H213528   5.271   2.716   0.687  0.7336 -1.7920  0.2839
 4508TIP3   OH213529   3.824   2.982   2.178  0.4992 -0.5868  0.0770
 4508TIP3    H113530   3.904   2.981   2.229 -0.7807  0.0990  2.2374
 4508TIP3    H213531   3.783   2.897   2.195  0.5145 -0.7340 -0.5983
 4509TIP3   OH213532   4.959   1.134   1.976 -0.4161  0.3398  0.1877
 4509TIP3    H113533   4.944   1.043   2.002  0.7141  0.5705  1.7928
 4509TIP3    H213534   5.048   1.135   1.942 -0.3650  0.8954  0.3403
 4510TIP3   OH213535   3.100   4.794   2.265  0.5589  0.1630  0.2977
 4510TIP3    H113536   3.196   4.806   2.265  0.6233 -0.1449 -1.6450
 4510TIP3    H213537   3.066   4.883   2.272  0.9280  0.1989  2.4778
 4511TIP3   OH213538   1.924   3.329   1.456 -0.3727  0.6282  0.2531
 4511TIP3    H113539   1.860   3.270   1.495 -1.0488  0.9385 -0.3643
 4511TIP3    H213540   1.881   3.362   1.377  0.7737  0.3832 -0.5014
 4512TIP3   OH213541   2.210   2.047   1.991 -0.0788  0.3464  0.2180
 4512TIP3    H113542   2.225   2.127   2.041  0.1261 -0.5619  1.6798
 4512TIP3    H213543   2.288   1.994   2.005 -1.0460 -0.9560  1.0359
 4513TIP3   OH213544   5.347   3.876   1.884  0.0083  0.1947 -0.2534
 4513TIP3    H113545   5.397   3.799   1.857 -0.2382  0.0028 -0.1663
 4513TIP3    H213546   5.383   3.900   1.970  0.7184  0.7397 -0.6938
 4514TIP3   OH213547   1.903   2.493   4.426  0.4301 -0.0158 -0.3584
 4514TIP3    H113548   1.981   2.446   4.398  0.9277  1.7254 -2.0763
 4514TIP3    H213549   1.831   2.452   4.378  0.5605 -0.3077 -0.3089
 4515TIP3   OH213550   3.360   4.150   2.138 -0.3799 -0.1283  0.1300
 4515TIP3    H113551   3.444   4.193   2.121 -0.1647 -0.2932  0.7660
 4515TIP3    H213552   3.295   4.220   2.129  0.0263  0.5193  1.8847
 4516TIP3   OH213553   4.088   4.072   0.774  0.1584 -0.4465 -0.2868
 4516TIP3    H113554   4.093   4.167   0.790  0.6819 -0.5148 -0.0328
 4516TIP3    H213555   4.107   4.033   0.859  1.7666 -0.7995 -0.7721
 4517TIP3   OH213556   3.745   1.221   5.051 -0.2017  0.2766  0.0913
 4517TIP3    H113557   3.787   1.240   4.967  0.4127  0.0406  0.3404
 4517TIP3    H213558   3.814   1.184   5.105 -0.7246 -0.0903  0.5258
 4518TIP3   OH213559   4.174   2.933   3.504  0.0746 -0.0055 -0.5295
 4518TIP3    H113560   4.088   2.907   3.470  0.3454 -0.4659 -0.8910
 4518TIP3    H213561   4.230   2.856   3.487  0.9231  0.8264 -1.6741
 4519TIP3   OH213562   1.806   0.311   2.728 -0.0083 -0.1963  0.3041
 4519TIP3    H113563   1.799   0.239   2.666  2.5365  1.4022 -2.0485
 4519TIP3    H213564   1.729   0.365   2.712 -0.9870 -1.3803  0.8238
 4520TIP3   OH213565   4.823   3.238   1.296  0.1511 -0.1503 -0.2741
 4520TIP3    H113566   4.793   3.250   1.385  1.5614  0.8450  0.1083
 4520TIP3    H213567   4.889   3.168   1.302 -0.3777 -0.7007 -0.7010
 4521TIP3   OH213568   2.551   2.856   1.227  0.3604 -0.4345  0.3189
 4521TIP3    H113569   2.614   2.905   1.280 -0.3041 -1.2243  1.9068
 4521TIP3    H213570   2.475   2.845   1.284 -0.3248 -1.4676 -0.7451
 4522TIP3   OH213571   1.816   0.532   4.413  0.8776 -0.1892  0.7626
 4522TIP3    H113572   1.895   0.501   4.368  0.4077 -0.7363  0.3132
 4522TIP3    H213573   1.783   0.456   4.460  0.9114  0.1746  1.3959
 4523TIP3   OH213574   2.546   0.614   1.959  0.3801  0.1139  0.8144
 4523TIP3    H113575   2.600   0.571   1.893 -0.5078  1.2732 -0.7349
 4523TIP3    H213576   2.479   0.660   1.909  0.2241  1.8303  2.4590
 4524TIP3   OH213577   5.537   1.900   3.069 -0.3772  0.4410  0.1036
 4524TIP3    H113578   5.521   1.994   3.071 -0.7911  0.3737  1.7277
 4524TIP3    H213579   5.560   1.878   3.159 -0.8459 -1.0981 -0.1198
 4525TIP3   OH213580   3.707   5.796   0.580  0.0821 -0.5568 -0.6312
 4525TIP3    H113581   3.617   5.799   0.549  0.2273  0.8353 -1.0044
 4525TIP3    H213582   3.705   5.836   0.667  0.4434  0.2633 -0.9834
 4526TIP3   OH213583   6.156   3.442   0.885  0.2612  0.7122  0.0282
 4526TIP3    H113584   6.174   3.353   0.856  1.6107  0.7259  0.7528
 4526TIP3    H213585   6.155   3.437   0.981 -0.9720  1.2421  0.0609
 4527TIP3   OH213586   1.815   4.233   5.175 -0.0350 -0.0265  0.0796
 4527TIP3    H113587   1.876   4.230   5.248 -0.9339  1.3333  0.9558
 4527TIP3    H213588   1.868   4.214   5.098  1.1352 -0.5218  0.9731
 4528TIP3   OH213589   5.492   3.713   1.274 -0.6217  0.2627 -0.4839
 4528TIP3    H113590   5.419   3.696   1.214  0.2128  2.1038 -2.1099
 4528TIP3    H213591   5.450   3.745   1.354 -1.6381  0.4083 -1.0567
 4529TIP3   OH213592   5.937   1.904   0.231  0.1717 -0.4992 -0.0231
 4529TIP3    H113593   5.984   1.914   0.314 -0.0670  0.1018  0.0464
 4529TIP3    H213594   5.972   1.974   0.175  0.3198 -0.8908 -0.4243
 4530TIP3   OH213595   1.454   1.032   0.302  0.1026  0.4430 -0.1384
 4530TIP3    H113596   1.473   1.027   0.208  1.2054 -0.5033  0.1152
 4530TIP3    H213597   1.534   1.002   0.344 -1.1642 -1.5002  1.0571
 4531TIP3   OH213598   3.748   4.122   4.503  0.1732 -0.1369 -0.8568
 4531TIP3    H113599   3.717   4.049   4.556  0.2117 -0.2906 -1.0462
 4531TIP3    H213600   3.714   4.200   4.547  2.9010 -0.0303  1.2904
 4532TIP3   OH213601   0.846   2.897   5.088  0.1054  0.1375  0.3171
 4532TIP3    H113602   0.818   2.867   5.174  0.0034 -0.8067 -0.0263
 4532TIP3    H213603   0.822   2.825   5.029  2.6302 -0.4640 -0.0966
 4533TIP3   OH213604   3.754   1.831   4.138 -0.1674 -0.0405  0.1203
 4533TIP3    H113605   3.712   1.895   4.195 -0.2078 -1.5861  1.9202
 4533TIP3    H213606   3.816   1.882   4.086  1.9144  1.1875  3.4875
 4534TIP3   OH213607   1.934   4.366   2.755 -0.7561  0.4235 -0.6593
 4534TIP3    H113608   1.904   4.339   2.669 -0.7938 -1.3701 -0.1128
 4534TIP3    H213609   1.864   4.339   2.815 -0.8116  1.7921 -0.0665
 4535TIP3   OH213610   3.746   4.462   3.531  0.0910  0.2119  0.3735
 4535TIP3    H113611   3.801   4.418   3.595 -0.0675  2.3261  2.0605
 4535TIP3    H213612   3.808   4.495   3.465  0.4553 -0.3145  0.4448
 4536TIP3   OH213613   1.291   5.797   4.205 -0.0319 -0.0016 -0.1474
 4536TIP3    H113614   1.377   5.840   4.209 -0.3109  0.7870 -1.6890
 4536TIP3    H213615   1.242   5.850   4.142 -1.2562 -1.1421 -0.1733
 4537TIP3   OH213616   5.692   2.053   1.150 -0.5885 -0.3718 -0.9501
 4537TIP3    H113617   5.689   2.139   1.193 -0.5327 -0.4487 -0.7933
 4537TIP3    H213618   5.603   2.040   1.117 -0.8723 -0.7230 -0.0610
 4538TIP3   OH213619   2.913   3.338   3.928  0.2012  0.7890  0.0894
 4538TIP3    H113620   2.941   3.247   3.918  0.3128  0.5790  1.8891
 4538TIP3    H213621   2.818   3.335   3.920  0.3454  0.8842 -2.0580
 4539TIP3   OH213622   2.990   1.580   2.019 -0.2390 -0.6913 -0.0956
 4539TIP3    H113623   2.967   1.495   2.056 -1.5989  0.8006  2.9014
 4539TIP3    H213624   2.913   1.607   1.970 -0.2917 -0.6915 -0.0135
 4540TIP3   OH213625   5.778   4.023   0.231 -0.1468  0.0881 -0.2563
 4540TIP3    H113626   5.786   3.940   0.278 -1.7175 -0.0245 -0.1122
 4540TIP3    H213627   5.792   4.090   0.297 -0.4856 -0.0707 -0.0203
 4541TIP3   OH213628   3.774   2.892   3.664 -0.4169 -0.0804 -0.3139
 4541TIP3    H113629   3.758   2.986   3.654 -0.3863 -0.0993 -0.5441
 4541TIP3    H213630   3.845   2.873   3.602 -0.0936 -0.1618  0.0793
 4542TIP3   OH213631   5.231   2.039   0.273 -0.0178 -0.5750  0.1641
 4542TIP3    H113632   5.311   1.992   0.296  1.6588 -0.4336 -4.4864
 4542TIP3    H213633   5.253   2.132   0.286 -0.2434 -0.6215  0.9409
 4543TIP3   OH213634   1.208   4.119   4.076 -0.1034  0.7083 -0.2257
 4543TIP3    H113635   1.162   4.155   4.152  0.0101 -1.2100  0.8216
 4543TIP3    H213636   1.192   4.024   4.080  4.4472 -0.2751  0.7130
 4544TIP3   OH213637   5.460   1.423   4.120 -0.0189 -0.2627  0.0631
 4544TIP3    H113638   5.428   1.415   4.030  1.4609 -1.4965 -0.3957
 4544TIP3    H213639   5.513   1.502   4.120  0.8193 -0.8142 -0.4362
 4545TIP3   OH213640   1.575   0.957   1.329  0.7131  0.2884 -0.4094
 4545TIP3    H113641   1.607   0.872   1.359  0.8838  0.9656  1.4468
 4545TIP3    H213642   1.480   0.954   1.344  0.7237  0.4401 -0.3097
 4546TIP3   OH213643   0.805   4.252   4.953  0.4101  0.4787 -0.1136
 4546TIP3    H113644   0.869   4.287   4.891  1.3840 -1.1968 -0.0995
 4546TIP3    H213645   0.849   4.179   4.995 -0.9408  0.3347  1.1386
 4547TIP3   OH213646   2.722   5.274   1.935  0.5714  0.2080 -0.1005
 4547TIP3    H113647   2.817   5.274   1.924  0.7266  1.0796  1.0985
 4547TIP3    H213648   2.695   5.364   1.916  0.0092  0.0334 -0.1637
 4548TIP3   OH213649   6.357   2.547   3.258  0.1148  0.2797  0.1148
 4548TIP3    H113650   6.268   2.554   3.293 -0.9075  0.8826 -2.4061
 4548TIP3    H213651   6.364   2.617   3.193  2.1031 -0.3544 -0.4433
 4549TIP3   OH213652   2.431   0.354   3.690 -0.1417  0.0278  0.5593
 4549TIP3    H113653   2.402   0.409   3.617  0.7927  0.4014  0.4615
 4549TIP3    H213654   2.384   0.389   3.766 -3.1298 -1.9671 -0.1934
 4550TIP3   OH213655   4.108   1.691   4.644 -0.0590 -0.4247  0.7213
 4550TIP3    H113656   4.158   1.769   4.668  1.5130 -1.1182 -0.0848
 4550TIP3    H213657   4.163   1.648   4.578 -2.7892 -0.0694 -2.0134
 4551TIP3   OH213658   2.891   0.051   4.428  0.5659  0.2351 -0.0236
 4551TIP3    H113659   2.882   0.134   4.476 -2.3688 -0.7657  1.3771
 4551TIP3    H213660   2.879  -0.017   4.494  1.5144 -1.3289 -1.3809
 4552TIP3   OH213661   1.231   5.565   1.737  0.8230 -0.3005  0.2434
 4552TIP3    H113662   1.255   5.559   1.644  0.9067  0.6485  0.1952
 4552TIP3    H213663   1.161   5.630   1.739  2.6961  1.8383  1.1513
 4553TIP3   OH213664   5.126   4.195   1.801 -0.2708 -0.5054 -0.4448
 4553TIP3    H113665   5.161   4.283   1.815  0.0942 -0.8647  1.0885
 4553TIP3    H213666   5.086   4.172   1.885  0.2984 -2.0926 -0.5883
 4554TIP3   OH213667   3.523   2.593   4.672 -0.1242 -0.6675 -0.2022
 4554TIP3    H113668   3.569   2.517   4.635 -0.7885 -0.9997 -0.3592
 4554TIP3    H213669   3.569   2.612   4.754  0.7636 -0.5241 -0.7185
 4555TIP3   OH213670   4.893   3.624   3.447  0.1186  0.4104  0.5638
 4555TIP3    H113671   4.968   3.679   3.470  0.5716  0.6333 -1.2579
 4555TIP3    H213672   4.848   3.674   3.379  0.2685 -1.2312 -0.8012
 4556TIP3   OH213673   1.775   0.331   0.673 -0.0885 -0.3053 -0.2788
 4556TIP3    H113674   1.782   0.270   0.599  0.5981  0.3564 -0.7685
 4556TIP3    H213675   1.700   0.299   0.723 -1.1467 -0.2376 -1.7610
 4557TIP3   OH213676   5.984   5.832   3.603 -1.3690  0.5869 -0.3462
 4557TIP3    H113677   6.027   5.871   3.528 -0.2261 -0.6025 -0.3401
 4557TIP3    H213678   6.034   5.752   3.622 -0.3724  1.8155  2.8818
 4558TIP3   OH213679   6.156   0.162   4.601  0.0659 -0.5679 -0.1127
 4558TIP3    H113680   6.138   0.227   4.669 -1.8927 -2.0807  0.9206
 4558TIP3    H213681   6.208   0.095   4.645  0.5130 -0.6070 -0.6792
 4559TIP3   OH213682   6.283   5.619   1.098 -0.5130 -0.1576  0.5081
 4559TIP3    H113683   6.259   5.577   1.181 -1.3868  1.0398  0.8890
 4559TIP3    H213684   6.376   5.598   1.087 -0.9865 -2.5467  0.4318
 4560TIP3   OH213685   0.866   4.811   4.855 -0.0627 -0.2566 -0.3359
 4560TIP3    H113686   0.771   4.818   4.866  0.1574  1.0095  1.1189
 4560TIP3    H213687   0.878   4.741   4.791 -1.9965  0.0204 -1.0686
 4561TIP3   OH213688   1.821   4.892   4.852  0.1024 -0.6213 -0.0219
 4561TIP3    H113689   1.888   4.926   4.794 -0.5560 -0.5366 -0.7533
 4561TIP3    H213690   1.745   4.878   4.795 -0.9051  0.4739  1.0051
 4562TIP3   OH213691   1.340   4.008   3.024  1.0588  0.1399 -0.4555
 4562TIP3    H113692   1.297   3.947   2.964  1.1496 -0.3865  0.0129
 4562TIP3    H213693   1.273   4.027   3.091  1.6950 -1.0526  0.5432
 4563TIP3   OH213694   1.274   0.304   0.686  0.1795 -0.9646  0.0864
 4563TIP3    H113695   1.231   0.235   0.736  0.1956 -0.4485  0.8292
 4563TIP3    H213696   1.219   0.381   0.698  1.0258 -0.4259  0.6270
 4564TIP3   OH213697   5.852   4.194   5.021  0.1120 -0.2550  0.0459
 4564TIP3    H113698   5.827   4.137   5.094  0.6068 -0.6098 -0.0589
 4564TIP3    H213699   5.771   4.239   4.997  0.1694  0.6867  1.5293
 4565TIP3   OH213700   1.238   0.648   4.075 -0.1556  0.1225 -0.0196
 4565TIP3    H113701   1.239   0.561   4.114  1.0511  0.1078 -0.0423
 4565TIP3    H213702   1.170   0.695   4.122  0.6251 -0.1809  1.4657
 4566TIP3   OH213703   0.700   4.722   3.219  0.6547 -0.1196 -0.1267
 4566TIP3    H113704   0.670   4.658   3.155  0.5387  1.4260 -1.7108
 4566TIP3    H213705   0.790   4.696   3.239  0.8434 -0.3871 -1.2688
 4567TIP3   OH213706   4.651   5.840   1.387  0.4389 -0.4686 -0.2077
 4567TIP3    H113707   4.581   5.795   1.435  0.8843 -1.1029 -0.1455
 4567TIP3    H213708   4.606   5.910   1.339 -0.2866 -1.0669 -0.4193
 4568TIP3   OH213709   1.628   5.182   4.908  0.3106 -0.2564 -0.5800
 4568TIP3    H113710   1.557   5.210   4.850 -1.4754  1.1373  2.0548
 4568TIP3    H213711   1.708   5.214   4.866 -0.6247 -1.0618 -3.1876
 4569TIP3   OH213712   3.921   5.307   3.066 -0.0361 -0.2046 -0.4514
 4569TIP3    H113713   3.878   5.250   3.002  1.9288 -0.4144 -1.6764
 4569TIP3    H213714   3.999   5.340   3.020  1.6979 -0.7118  1.9304
 4570TIP3   OH213715   2.911   5.936   0.760 -0.5557  0.3170  0.0984
 4570TIP3    H113716   2.889   5.855   0.712  0.4444 -0.3305  0.6821
 4570TIP3    H213717   2.896   6.006   0.697  0.8130 -0.5240 -1.2465
 4571TIP3   OH213718   2.350   2.909   2.426  0.4690  0.1007  0.2093
 4571TIP3    H113719   2.424   2.961   2.455  0.5813  0.5154 -0.7638
 4571TIP3    H213720   2.383   2.819   2.425  0.6426  0.1571  0.7468
 4572TIP3   OH213721   3.140   3.417   2.276 -0.6082  0.2510 -0.0972
 4572TIP3    H113722   3.180   3.373   2.201  1.1452  2.6681 -0.6857
 4572TIP3    H213723   3.069   3.468   2.239 -1.6511 -0.8191  0.3646
 4573TIP3   OH213724   1.903   3.915   1.031  0.5392 -0.1859 -0.1745
 4573TIP3    H113725   1.860   3.986   0.984  1.4247 -0.3281 -1.2484
 4573TIP3    H213726   1.940   3.956   1.109  0.4050  0.3748 -0.4031
 4574TIP3   OH213727   2.332   3.492   4.447 -0.1514 -0.1259 -0.0540
 4574TIP3    H113728   2.247   3.456   4.473 -1.2699  1.7217 -0.8721
 4574TIP3    H213729   2.377   3.511   4.529 -1.0900  0.0406  0.4393
 4575TIP3   OH213730   3.234   0.728   1.360 -0.3641  0.1173 -0.8216
 4575TIP3    H113731   3.265   0.702   1.447  1.6629 -1.3828 -1.9029
 4575TIP3    H213732   3.196   0.814   1.373 -0.7297 -0.3375  1.6661
 4576TIP3   OH213733   5.666   2.679   2.413 -0.2875 -0.2986  0.2563
 4576TIP3    H113734   5.757   2.671   2.442  0.0297  1.3655 -0.1921
 4576TIP3    H213735   5.630   2.749   2.467 -1.0750 -0.4019 -0.1227
 4577TIP3   OH213736   1.469   3.597   3.853  0.0345 -0.4522  0.1721
 4577TIP3    H113737   1.432   3.599   3.765  1.8644 -0.4717 -0.6534
 4577TIP3    H213738   1.438   3.515   3.890 -2.1969  0.3580  0.2497
 4578TIP3   OH213739   4.541   2.695   0.454  0.0901  0.0028  0.0093
 4578TIP3    H113740   4.588   2.761   0.403  1.6718 -0.8326  0.3173
 4578TIP3    H213741   4.570   2.611   0.416  0.3319 -0.5931  1.4509
 4579TIP3   OH213742   3.516   0.981   2.388 -0.2661  0.1052 -0.3757
 4579TIP3    H113743   3.538   0.923   2.316  0.9536  0.1882 -0.0922
 4579TIP3    H213744   3.519   0.925   2.466 -1.4092  0.0517 -0.3530
 4580TIP3   OH213745   0.252   2.388   4.923 -0.4079 -0.2037  0.5433
 4580TIP3    H113746   0.239   2.483   4.934  1.0288  0.0885  0.0147
 4580TIP3    H213747   0.347   2.376   4.934 -0.3469 -1.3507 -0.9362
 4581TIP3   OH213748   2.779   0.079   1.402  0.4856  0.1879  0.0670
 4581TIP3    H113749   2.763   0.136   1.326  1.0427 -0.9480 -0.9408
 4581TIP3    H213750   2.705   0.017   1.401  0.5215  0.1387  0.4212
 4582TIP3   OH213751   5.964   5.544   3.854  0.4766 -0.2393  0.0582
 4582TIP3    H113752   6.024   5.598   3.905  0.0092  0.1068  0.2538
 4582TIP3    H213753   6.017   5.511   3.782  0.7569  0.5595 -0.1198
 4583TIP3   OH213754   2.938   2.561   0.011  0.1488  0.4547  0.1026
 4583TIP3    H113755   2.956   2.497   0.079  0.3715  0.5091  0.0958
 4583TIP3    H213756   2.928   2.509  -0.069  1.5240  0.5052 -0.1365
 4584TIP3   OH213757   1.737   4.517   4.944  0.5114  0.2631  0.1153
 4584TIP3    H113758   1.735   4.430   4.904  1.3809 -0.4341  1.5440
 4584TIP3    H213759   1.758   4.576   4.871  1.4159 -0.8948 -0.5952
 4585TIP3   OH213760   3.783   4.738   0.874 -0.9484  0.2299  0.6000
 4585TIP3    H113761   3.744   4.754   0.961 -2.6971  1.1477 -0.2888
 4585TIP3    H213762   3.716   4.688   0.827  0.6411 -1.6694  0.2477
 4586TIP3   OH213763   4.424   4.599   3.294 -0.8496  0.1256 -0.3620
 4586TIP3    H113764   4.383   4.551   3.366 -1.6220 -0.6303 -1.2741
 4586TIP3    H213765   4.380   4.566   3.215  1.1758 -0.4038 -1.3578
 4587TIP3   OH213766   3.073   1.321   4.209 -0.1218 -0.2147  0.1527
 4587TIP3    H113767   3.133   1.270   4.155 -1.9644 -3.3842  0.8247
 4587TIP3    H213768   3.086   1.412   4.182  3.8250 -0.8914 -0.7352
 4588TIP3   OH213769   0.534   1.317   0.441 -0.2417  0.1371  0.2719
 4588TIP3    H113770   0.526   1.387   0.507 -1.2556  0.1021  0.2037
 4588TIP3    H213771   0.577   1.359   0.367 -1.3262  0.8612  0.0218
 4589TIP3   OH213772   2.836   3.184   4.825  0.6509  0.3641 -0.1099
 4589TIP3    H113773   2.816   3.133   4.904  2.2599 -0.5041 -0.2162
 4589TIP3    H213774   2.792   3.137   4.755  0.2009  0.4592  0.1063
 4590TIP3   OH213775   5.396   1.914   1.941 -0.7371 -0.5372 -0.2957
 4590TIP3    H113776   5.358   1.931   2.027 -0.7854  0.6703 -0.5431
 4590TIP3    H213777   5.328   1.942   1.879 -0.8642 -1.7616 -0.7374
 4591TIP3   OH213778   4.426   3.347   2.693  0.7120  0.7445 -0.2020
 4591TIP3    H113779   4.381   3.383   2.769  2.0933 -0.1404  1.0905
 4591TIP3    H213780   4.374   3.270   2.669  1.4905 -0.3165  1.3238
 4592TIP3   OH213781   2.477   0.360   0.403  0.5353 -0.0127 -0.1717
 4592TIP3    H113782   2.512   0.366   0.491  0.7216 -1.0296 -0.1606
 4592TIP3    H213783   2.477   0.450   0.370  1.9057  0.1807  0.3097
 4593TIP3   OH213784   3.995   4.354   4.294 -0.7625  0.1205 -0.1567
 4593TIP3    H113785   4.025   4.300   4.367 -0.8253  2.6848  1.9484
 4593TIP3    H213786   3.905   4.377   4.318 -1.0883  0.3040 -1.5086
 4594TIP3   OH213787   3.896   2.414   3.700  0.2021 -0.1725  0.1886
 4594TIP3    H113788   3.847   2.348   3.750  2.1657 -3.4500 -1.8714
 4594TIP3    H213789   3.976   2.427   3.750 -0.2685  0.9091  0.6964
 4595TIP3   OH213790   6.063   3.584   4.015 -0.0344  0.0423  0.2520
 4595TIP3    H113791   6.066   3.673   3.977 -0.0865  0.4261  1.1284
 4595TIP3    H213792   6.149   3.573   4.056  0.6761 -1.0354 -1.4024
 4596TIP3   OH213793   3.188   5.044   1.223 -0.4420 -0.2699 -0.7573
 4596TIP3    H113794   3.120   5.107   1.245 -0.0422  0.2719 -1.0526
 4596TIP3    H213795   3.251   5.093   1.170 -0.1977 -0.9520 -1.1143
 4597TIP3   OH213796   1.734   4.136   0.990  0.1526 -0.0410  0.4181
 4597TIP3    H113797   1.656   4.127   1.045  0.3111 -0.2919  0.6027
 4597TIP3    H213798   1.718   4.216   0.939 -0.6513 -0.5886 -0.2207
 4598TIP3   OH213799   0.533   1.395   3.234  0.5042  0.3223  0.1295
 4598TIP3    H113800   0.439   1.413   3.244  0.6337  1.0216  0.1058
 4598TIP3    H213801   0.561   1.368   3.321  0.3847  0.6027  0.2560
 4599TIP3   OH213802   4.269   0.051   3.152  0.6160  0.5805  0.2504
 4599TIP3    H113803   4.306   0.011   3.231 -1.0984  0.4924  1.0390
 4599TIP3    H213804   4.202   0.111   3.185 -0.3163  0.3278 -1.1583
 4600TIP3   OH213805   1.461   4.993   4.440  0.5760  0.5662 -0.2504
 4600TIP3    H113806   1.446   4.932   4.512  0.9668 -0.3142 -0.8816
 4600TIP3    H213807   1.374   5.029   4.420  0.4521  0.7309  0.5784
 4601TIP3   OH213808   3.351   3.168   3.126  0.2525 -0.5077  0.2125
 4601TIP3    H113809   3.339   3.250   3.078 -0.7456 -0.1430  1.0405
 4601TIP3    H213810   3.392   3.194   3.208  2.0664 -1.1461 -0.4313
 4602TIP3   OH213811   0.617   1.510   4.765 -0.4727 -0.2162  0.3226
 4602TIP3    H113812   0.550   1.477   4.706 -1.3381  2.0116 -0.0687
 4602TIP3    H213813   0.676   1.561   4.709 -1.1651  1.7201  1.2770
 4603TIP3   OH213814   0.211   3.663   1.483 -0.1394 -0.4272  0.3059
 4603TIP3    H113815   0.207   3.602   1.557  0.6490  0.1632  0.8465
 4603TIP3    H213816   0.218   3.607   1.406  0.6390 -1.0320  0.8040
 4604TIP3   OH213817   1.188   2.110   1.054 -0.0507  0.5571  0.4375
 4604TIP3    H113818   1.115   2.139   0.999  0.3230  2.0888  0.7062
 4604TIP3    H213819   1.148   2.050   1.118 -0.9181  0.7100  0.0444
 4605TIP3   OH213820   2.490   5.734   1.866 -0.0163 -0.0732  0.7478
 4605TIP3    H113821   2.480   5.823   1.900 -1.3970  0.0775  0.0026
 4605TIP3    H213822   2.432   5.731   1.789  0.7688 -1.3113  0.1724
 4606TIP3   OH213823   6.259   5.218   4.957 -0.1099  0.4035 -0.4223
 4606TIP3    H113824   6.271   5.211   5.052 -0.0871 -0.4687 -0.4826
 4606TIP3    H213825   6.347   5.207   4.921 -0.1699  0.3709 -0.5597
 4607TIP3   OH213826   1.310   3.246   4.270 -0.1906 -0.0554 -0.4556
 4607TIP3    H113827   1.232   3.196   4.247  0.1418 -0.0792 -1.6165
 4607TIP3    H213828   1.383   3.187   4.251  0.1563  0.4577 -0.7723
 4608TIP3   OH213829   3.939   0.076   3.501  0.9318  0.0152 -0.0863
 4608TIP3    H113830   3.942   0.086   3.596  0.4625  0.2544 -0.0923
 4608TIP3    H213831   3.848   0.094   3.478  0.7513 -1.3187 -0.4489
 4609TIP3   OH213832   1.876   5.766   2.340 -0.0487 -0.0340  0.4709
 4609TIP3    H113833   1.890   5.827   2.413 -0.8289  0.9410 -0.1660
 4609TIP3    H213834   1.887   5.679   2.379  0.2247  0.4796  1.5945
 4610TIP3   OH213835   2.757   1.697   1.915  0.4298 -0.0366 -0.5162
 4610TIP3    H113836   2.751   1.653   1.830  1.0978 -0.7824 -0.1892
 4610TIP3    H213837   2.712   1.639   1.976  1.2504 -0.2560 -0.0955
 4611TIP3   OH213838   2.217   1.349   5.079  0.6168  0.7756 -0.4016
 4611TIP3    H113839   2.170   1.384   5.155  1.3471  0.4260  0.2297
 4611TIP3    H213840   2.271   1.423   5.048  0.6857  0.7795 -0.2744
 4612TIP3   OH213841   2.835   3.093   0.948  0.3016 -0.3500 -0.1290
 4612TIP3    H113842   2.894   3.107   1.022 -1.9458  0.2757  1.6533
 4612TIP3    H213843   2.893   3.085   0.872  2.5587  2.4244  1.1423
 4613TIP3   OH213844   2.976   2.741   3.505  0.5861  0.1924  0.0836
 4613TIP3    H113845   3.007   2.830   3.522  0.5840  0.4254 -1.0883
 4613TIP3    H213846   2.993   2.726   3.412 -0.9172 -0.4170 -0.1356
 4614TIP3   OH213847   1.705   0.597   2.897  0.2435  0.0504  0.0642
 4614TIP3    H113848   1.759   0.573   2.822  0.0567  0.6252 -0.2529
 4614TIP3    H213849   1.618   0.564   2.875  0.8374 -2.7852  1.4788
 4615TIP3   OH213850   4.096   1.220   4.380  0.2250 -0.6055  0.1388
 4615TIP3    H113851   4.136   1.200   4.296  0.2726 -0.2222  0.0706
 4615TIP3    H213852   4.167   1.213   4.443  0.0123 -1.7423  0.2670
 4616TIP3   OH213853   2.575   2.299   1.257  0.0346 -0.2978  0.1505
 4616TIP3    H113854   2.663   2.317   1.222  0.5798 -0.6154  1.3144
 4616TIP3    H213855   2.589   2.284   1.350 -1.3610  0.4080  0.5067
 4617TIP3   OH213856   0.997   0.121   1.714 -0.2543 -0.2723  0.5042
 4617TIP3    H113857   1.040   0.059   1.772  0.3840 -1.5224 -1.2045
 4617TIP3    H213858   0.903   0.108   1.730 -0.1524 -2.0137 -0.0882
 4618TIP3   OH213859   5.440   5.261   3.512  0.0337  0.3378 -0.0317
 4618TIP3    H113860   5.426   5.209   3.432  0.4307  2.1018 -1.2991
 4618TIP3    H213861   5.535   5.259   3.524  0.0442  0.7420 -0.0617
 4619TIP3   OH213862   5.650   1.695   3.828  0.2167  0.3952 -0.0670
 4619TIP3    H113863   5.723   1.634   3.819  2.4512  2.5734  1.8967
 4619TIP3    H213864   5.609   1.673   3.911 -1.2646 -0.6112 -1.0105
 4620TIP3   OH213865   1.815   4.122   3.284  0.1666  0.4611 -0.2266
 4620TIP3    H113866   1.724   4.098   3.301  0.5949 -0.1317  1.3935
 4620TIP3    H213867   1.811   4.213   3.255 -1.0319  0.0685 -1.3704
 4621TIP3   OH213868   2.375   5.565   4.818 -0.4929 -0.0971 -0.4866
 4621TIP3    H113869   2.436   5.619   4.768 -1.8201  1.0751 -0.9134
 4621TIP3    H213870   2.341   5.501   4.756 -2.1508  1.3666 -1.1621
 4622TIP3   OH213871   5.289   1.475   3.900  0.3926 -0.2325 -0.7946
 4622TIP3    H113872   5.266   1.422   3.824 -0.3562 -0.5147 -0.3829
 4622TIP3    H213873   5.289   1.565   3.868  0.9291 -0.4160 -1.3226
 4623TIP3   OH213874   5.052   3.888   3.932 -0.0973  0.2034  0.2739
 4623TIP3    H113875   5.063   3.912   4.024  0.3923  1.0160  0.0116
 4623TIP3    H213876   5.114   3.816   3.919  0.2209  0.4407  0.4527
 4624TIP3   OH213877   4.760   2.979   1.848  0.2418 -0.3350 -0.4172
 4624TIP3    H113878   4.689   2.984   1.784  0.0093  0.5714 -0.1135
 4624TIP3    H213879   4.743   3.054   1.907  1.1721 -0.4019 -0.0580
 4625TIP3   OH213880   5.861   3.849   3.235 -0.1525  0.3658 -0.3877
 4625TIP3    H113881   5.944   3.830   3.280  0.9924  1.4645 -1.9433
 4625TIP3    H213882   5.881   3.837   3.142 -2.2473 -1.0770 -0.7184
 4626TIP3   OH213883   1.672   2.832   0.035 -0.1088  0.4153 -0.2351
 4626TIP3    H113884   1.765   2.814   0.024  0.2445  0.4835  2.2035
 4626TIP3    H213885   1.629   2.748   0.017  0.5788 -0.0549  0.2735
 4627TIP3   OH213886   1.616   6.003   1.181  0.9061 -0.1942  0.0386
 4627TIP3    H113887   1.634   6.040   1.094  0.5586  0.1402  0.1084
 4627TIP3    H213888   1.622   5.908   1.168 -1.3825 -0.2755 -0.8854
 4628TIP3   OH213889   4.967   3.838   2.377  0.4279 -0.3476  0.5300
 4628TIP3    H113890   4.965   3.781   2.300 -0.4046 -0.3173  0.5253
 4628TIP3    H213891   4.989   3.924   2.342  3.1906 -0.8883  0.7006
 4629TIP3   OH213892   5.298   2.650   4.684 -0.6596 -0.1781  0.3688
 4629TIP3    H113893   5.297   2.651   4.779 -0.6341 -0.1963  0.3695
 4629TIP3    H213894   5.211   2.619   4.659 -0.3022 -1.2404  0.4031
 4630TIP3   OH213895   4.180   0.492   0.605  0.2298  0.3533  0.1724
 4630TIP3    H113896   4.132   0.444   0.537  1.9743  1.6463 -2.1332
 4630TIP3    H213897   4.129   0.572   0.619  1.2016  1.3477 -1.6731
 4631TIP3   OH213898   4.145   4.722   4.292  0.1244 -0.3358  0.5733
 4631TIP3    H113899   4.231   4.754   4.265 -0.4676  0.8953  0.0593
 4631TIP3    H213900   4.108   4.680   4.214  0.8302 -2.2350  1.2007
 4632TIP3   OH213901   1.378   4.868   1.657  0.3183  0.3173 -0.1807
 4632TIP3    H113902   1.450   4.806   1.652 -1.1344 -1.4215 -0.8830
 4632TIP3    H213903   1.318   4.842   1.587 -0.4527  2.4511 -0.4191
 4633TIP3   OH213904   2.422   0.629   0.339 -0.2632 -0.1180  0.8021
 4633TIP3    H113905   2.496   0.688   0.325  0.2186 -0.8786 -0.0247
 4633TIP3    H213906   2.356   0.658   0.277  0.4143 -1.1282 -0.4367
 4634TIP3   OH213907   0.229   2.818   3.150  0.5092 -0.0137 -0.3560
 4634TIP3    H113908   0.290   2.816   3.224 -1.2261 -1.2496  1.1349
 4634TIP3    H213909   0.270   2.876   3.086  3.0886 -0.6039  0.6711
 4635TIP3   OH213910   5.013   3.593   2.710  0.2641  0.1484 -0.0325
 4635TIP3    H113911   5.027   3.498   2.704  0.3226  0.1796 -0.4629
 4635TIP3    H213912   5.029   3.614   2.802 -1.4786 -0.5393  0.4771
 4636TIP3   OH213913   5.826   3.573   3.762 -0.4807  0.1409 -0.1035
 4636TIP3    H113914   5.918   3.600   3.757 -0.7626  1.5315  1.3019
 4636TIP3    H213915   5.792   3.584   3.673  0.4775  0.5407 -0.4328
 4637TIP3   OH213916   0.253   4.670   1.460  0.1942 -0.4015  0.2971
 4637TIP3    H113917   0.242   4.709   1.547 -0.2691  1.1003 -0.4011
 4637TIP3    H213918   0.348   4.654   1.453  0.1961 -0.8578  1.1922
 4638TIP3   OH213919   3.697   1.319   3.145  0.1038 -0.0126 -0.2051
 4638TIP3    H113920   3.639   1.242   3.144 -0.4018  0.3652 -0.1870
 4638TIP3    H213921   3.747   1.312   3.064 -0.2763 -0.1070 -0.4344
 4639TIP3   OH213922   4.626   5.819   4.790 -0.1197  0.2368 -0.2892
 4639TIP3    H113923   4.619   5.815   4.886  0.4106  0.7262 -0.2258
 4639TIP3    H213924   4.656   5.732   4.765  0.1279  0.2306  0.0237
 4640TIP3   OH213925   6.227   0.813   4.683 -0.1875 -0.1298 -0.1941
 4640TIP3    H113926   6.275   0.735   4.654  1.1457  0.9781 -1.0842
 4640TIP3    H213927   6.156   0.821   4.619  0.7795  0.4175 -1.2296
 4641TIP3   OH213928   2.960   1.121   1.660 -0.2797 -0.3358 -0.2616
 4641TIP3    H113929   3.019   1.179   1.706 -2.7168  1.9315  0.2610
 4641TIP3    H213930   3.010   1.090   1.584  2.5042 -1.0677  1.7364
 4642TIP3   OH213931   4.590   2.883   1.386  0.6998 -0.3951 -0.2134
 4642TIP3    H113932   4.601   2.827   1.309 -0.2230  1.3950 -1.7182
 4642TIP3    H213933   4.540   2.958   1.354  1.4909  1.0784  1.8159
 4643TIP3   OH213934   5.477   4.085   2.715 -0.1299 -0.6440  0.0495
 4643TIP3    H113935   5.541   4.149   2.682 -0.1754 -0.7874 -0.3155
 4643TIP3    H213936   5.461   4.113   2.805 -1.2072  0.7012 -0.5102
 4644TIP3   OH213937   5.545   5.638   3.016 -0.2042  0.2233 -0.2164
 4644TIP3    H113938   5.478   5.607   2.954 -0.4715  1.0819 -0.3652
 4644TIP3    H213939   5.604   5.563   3.027 -0.9483 -0.4049 -0.4153
 4645TIP3   OH213940   1.246   1.986   3.129  0.3615 -0.0284 -0.6161
 4645TIP3    H113941   1.281   1.962   3.215  1.5712  0.2883 -1.0036
 4645TIP3    H213942   1.152   1.973   3.137  0.2716  1.3720  1.2123
 4646TIP3   OH213943   0.049   0.968   4.358 -0.0589  0.2513 -0.1228
 4646TIP3    H113944  -0.019   0.973   4.291 -0.7408  0.4213  0.5588
 4646TIP3    H213945   0.001   0.945   4.438  0.1424  3.5885  1.1079
 4647TIP3   OH213946   1.019   0.683   3.409  0.2266 -0.4062 -0.4497
 4647TIP3    H113947   1.089   0.654   3.351  2.4521  0.4946  1.6378
 4647TIP3    H213948   1.006   0.776   3.387 -0.0612 -0.4767 -0.5823
 4648TIP3   OH213949   3.262   0.302   0.750 -0.1891 -0.3831  0.0095
 4648TIP3    H113950   3.222   0.244   0.815 -0.7764 -0.6186 -0.5509
 4648TIP3    H213951   3.187   0.338   0.702  0.2886 -1.1740 -1.3623
 4649TIP3   OH213952   0.968   5.404   3.964 -0.1299  0.5505 -0.1408
 4649TIP3    H113953   1.029   5.333   3.982  0.1704  0.5807 -1.0264
 4649TIP3    H213954   0.917   5.412   4.045  1.8521  1.3602  1.1212
 4650TIP3   OH213955   5.655   5.202   0.559  0.1155  0.1146  0.5788
 4650TIP3    H113956   5.709   5.209   0.638 -0.3759 -1.2416  1.0809
 4650TIP3    H213957   5.636   5.108   0.552  0.4166  0.1619 -1.3525
 4651TIP3   OH213958   5.334   1.077   1.614  0.4716  0.0160 -0.7028
 4651TIP3    H113959   5.425   1.107   1.614  0.4316  0.1500 -0.3862
 4651TIP3    H213960   5.290   1.136   1.676  0.1304  0.0712 -0.9930
 4652TIP3   OH213961   3.537   1.269   1.621  0.2651 -0.3023 -0.1393
 4652TIP3    H113962   3.483   1.224   1.686  0.4846 -1.7345 -0.9100
 4652TIP3    H213963   3.627   1.246   1.644  0.4105  0.1171 -0.2782
 4653TIP3   OH213964   5.555   1.016   4.634 -0.3676  0.0958  0.2108
 4653TIP3    H113965   5.608   0.951   4.588 -0.0694  0.4273  0.0794
 4653TIP3    H213966   5.526   0.971   4.713  0.2120 -0.0537  0.3438
 4654TIP3   OH213967   5.293   5.496   4.255  0.4196 -0.0478  0.2935
 4654TIP3    H113968   5.274   5.534   4.340 -2.4085 -0.9993  0.2132
 4654TIP3    H213969   5.213   5.447   4.232  1.3468 -0.4507 -2.5534
 4655TIP3   OH213970   0.761   1.390   5.196  0.5044 -0.0954  0.1053
 4655TIP3    H113971   0.792   1.477   5.169 -0.1809  0.4718  1.0743
 4655TIP3    H213972   0.694   1.368   5.131 -0.9008  1.1107  1.0835
 4656TIP3   OH213973   2.678   3.667   2.919 -0.0198 -0.1273 -0.2922
 4656TIP3    H113974   2.716   3.752   2.937  1.2369 -0.5226 -0.9701
 4656TIP3    H213975   2.617   3.682   2.847  0.1023  0.2236 -0.3217
 4657TIP3   OH213976   2.929   5.586   2.215 -0.6285  0.1280  0.5626
 4657TIP3    H113977   2.840   5.618   2.230 -0.2640  0.9819  0.9247
 4657TIP3    H213978   2.930   5.561   2.123 -1.0496  0.7531  0.3839
 4658TIP3   OH213979   0.749   3.521   1.838 -0.0525 -0.0225  0.1529
 4658TIP3    H113980   0.686   3.541   1.768 -0.9083 -0.7652  0.6956
 4658TIP3    H213981   0.830   3.502   1.791 -0.3745  0.3750 -0.5907
 4659TIP3   OH213982   4.285   0.417   2.474 -0.3487  0.4656 -0.1052
 4659TIP3    H113983   4.306   0.490   2.416  0.0358  1.9703  1.8330
 4659TIP3    H213984   4.338   0.432   2.552 -1.9479 -0.6086  1.2717
 4660TIP3   OH213985   5.951   5.602   1.736  0.1220  0.0314 -0.0450
 4660TIP3    H113986   5.903   5.535   1.785 -0.6414  1.0361  0.6133
 4660TIP3    H213987   6.043   5.586   1.757  0.2039 -2.2482 -1.7134
 4661TIP3   OH213988   6.382   2.670   0.191 -0.2801 -0.4648  0.5234
 4661TIP3    H113989   6.311   2.662   0.127 -0.2586  0.8527  0.2936
 4661TIP3    H213990   6.352   2.621   0.267 -2.9103  2.4735  1.6279
 4662TIP3   OH213991   3.676   4.840   1.490 -0.4270 -0.1419 -0.3926
 4662TIP3    H113992   3.754   4.784   1.496 -0.4058 -0.4123 -2.5706
 4662TIP3    H213993   3.699   4.906   1.425 -1.9184 -0.0965 -0.9150
 4663TIP3   OH213994   5.027   0.730   1.322  0.4377 -0.2267 -0.2169
 4663TIP3    H113995   5.044   0.802   1.261 -0.6884 -0.4606 -0.8435
 4663TIP3    H213996   5.075   0.754   1.401  2.2428 -0.1034 -1.2974
 4664TIP3   OH213997   5.525   3.137   0.228  0.0259  0.5698  0.3285
 4664TIP3    H113998   5.499   3.060   0.176  1.3448  0.2200  0.1540
 4664TIP3    H213999   5.603   3.109   0.276 -0.0468  1.5019  1.0309
 4665TIP3   OH214000   2.399   1.135   3.046 -0.3201  0.2473  0.2159
 4665TIP3    H114001   2.314   1.172   3.067  0.2502  1.6206  0.2098
 4665TIP3    H214002   2.438   1.197   2.985  0.4227 -0.7011 -0.3111
 4666TIP3   OH214003   3.564   4.448   0.257  0.0525 -0.1012 -0.5058
 4666TIP3    H114004   3.564   4.540   0.233  0.0938  0.1057  0.2581
 4666TIP3    H214005   3.537   4.447   0.349 -1.0684 -0.9288 -0.8168
 4667TIP3   OH214006   2.504   1.514   2.307  0.2635 -0.0667 -0.0734
 4667TIP3    H114007   2.548   1.578   2.364 -0.7848  0.2980  0.3539
 4667TIP3    H214008   2.416   1.508   2.342  0.2225 -1.4659 -0.3695
 4668TIP3   OH214009   6.290   0.741   0.766 -0.6259  0.7871 -1.0426
 4668TIP3    H114010   6.234   0.750   0.689 -2.4681  1.7402  0.3326
 4668TIP3    H214011   6.229   0.739   0.840  1.1501  1.6690  0.5266
 4669TIP3   OH214012   4.687   0.242   3.347  0.1122 -0.0615  0.1174
 4669TIP3    H114013   4.682   0.226   3.253  0.9680 -0.0912  0.0684
 4669TIP3    H214014   4.598   0.230   3.378 -0.3422  0.7304 -0.8143
 4670TIP3   OH214015   5.122   2.166   0.010 -0.9285  0.5204  0.2399
 4670TIP3    H114016   5.147   2.101   0.075 -0.5464  1.1384  0.7270
 4670TIP3    H214017   5.204   2.210  -0.013 -1.4387  2.1699  1.4018
 4671TIP3   OH214018   3.726   5.218   0.196 -0.2108  0.3294 -0.1997
 4671TIP3    H114019   3.677   5.136   0.195  0.1625  0.1076 -0.9128
 4671TIP3    H214020   3.737   5.240   0.104  1.8701 -0.1319 -0.0996
 4672TIP3   OH214021   4.074   5.899   1.784  0.1528  0.2075  0.2392
 4672TIP3    H114022   4.062   5.948   1.865 -2.2461 -0.9640  0.6834
 4672TIP3    H214023   4.129   5.956   1.730  1.5067  1.1844  2.5001
 4673TIP3   OH214024   0.999   1.251   3.346  0.1197  0.8778  0.0547
 4673TIP3    H114025   0.945   1.289   3.278 -0.2509  0.0604 -0.1204
 4673TIP3    H214026   1.088   1.281   3.327  0.0157  0.6613 -0.7858
 4674TIP3   OH214027   4.616   1.242   3.286 -0.0744 -0.0991 -0.3378
 4674TIP3    H114028   4.691   1.193   3.250  0.6457  0.0182  0.9460
 4674TIP3    H214029   4.575   1.182   3.347 -0.5260  0.1329 -0.4124
 4675TIP3   OH214030   0.831   1.420   3.214 -0.5423  0.6037  0.1137
 4675TIP3    H114031   0.873   1.447   3.132 -0.3635 -0.0895 -0.0246
 4675TIP3    H214032   0.741   1.398   3.189  0.5800 -3.7305 -0.7482
 4676TIP3   OH214033   0.256   3.634   0.093  0.1177 -0.4840 -0.1965
 4676TIP3    H114034   0.179   3.640   0.036 -0.1858  1.7976  0.3609
 4676TIP3    H214035   0.232   3.682   0.172  2.2595  0.6887 -0.1872
 4677TIP3   OH214036   2.807   0.419   3.609 -0.5781 -0.2849 -0.0110
 4677TIP3    H114037   2.885   0.416   3.664 -0.4453 -0.5486 -0.2082
 4677TIP3    H214038   2.770   0.331   3.615 -2.2806  0.5041  2.0790
 4678TIP3   OH214039   3.196   3.450   0.437  0.4713  0.4924 -0.1850
 4678TIP3    H114040   3.288   3.433   0.454  0.0887 -0.5095  0.9899
 4678TIP3    H214041   3.190   3.457   0.341  1.4675 -1.2779 -0.4144
 4679TIP3   OH214042   5.817   1.544   2.232 -0.2665 -0.3278 -0.1405
 4679TIP3    H114043   5.853   1.627   2.200  1.7134 -0.7871  0.7835
 4679TIP3    H214044   5.840   1.481   2.163  2.4651 -0.9752  1.2315
 4680TIP3   OH214045   2.080   0.828   3.207  0.2080  0.8678  0.0374
 4680TIP3    H114046   2.035   0.913   3.204 -0.2456  0.6245 -0.3164
 4680TIP3    H214047   2.035   0.775   3.140 -0.4183 -0.0841  1.1661
 4681TIP3   OH214048   0.178   1.268   1.504  0.3838 -0.6414  0.0264
 4681TIP3    H114049   0.214   1.307   1.583 -2.4244  0.0534  1.0656
 4681TIP3    H214050   0.160   1.177   1.529  0.7160 -0.7942 -0.2723
 4682TIP3   OH214051   5.066   1.330   3.125  0.0880  0.3028  0.2210
 4682TIP3    H114052   5.012   1.326   3.046  0.4907  1.1954 -0.1138
 4682TIP3    H214053   5.121   1.407   3.112  1.0639 -0.2860  0.8064
 4683TIP3   OH214054   2.853   0.183   0.563  0.5506  0.2995  0.3992
 4683TIP3    H114055   2.859   0.126   0.640  0.8122 -2.0872 -1.2985
 4683TIP3    H214056   2.766   0.167   0.528  0.6900  0.8499 -0.2144
 4684TIP3   OH214057   4.903   3.112   3.625 -0.3598 -0.1877 -0.1948
 4684TIP3    H114058   4.904   3.180   3.693 -0.0704  1.1533 -1.4956
 4684TIP3    H214059   4.813   3.113   3.593 -0.1200  0.2879 -0.8781
 4685TIP3   OH214060   3.134   0.604   1.795  0.2722 -0.3520 -0.0007
 4685TIP3    H114061   3.213   0.658   1.797  0.1510 -0.1824  0.3838
 4685TIP3    H214062   3.164   0.519   1.764  0.7073 -0.4367  0.6213
 4686TIP3   OH214063   3.386   4.519   3.552 -0.2829 -0.0696  0.0275
 4686TIP3    H114064   3.292   4.512   3.539 -0.3479  1.9221 -1.0224
 4686TIP3    H214065   3.424   4.457   3.490 -0.8963 -1.5036  1.0573
 4687TIP3   OH214066   3.381   1.073   4.934 -0.1949 -0.3009  0.0832
 4687TIP3    H114067   3.374   1.054   4.840 -0.6628  0.0440  0.0476
 4687TIP3    H214068   3.292   1.064   4.967 -1.6670  6.3066 -0.7725
 4688TIP3   OH214069   2.965   0.192   3.919  0.3992 -0.0045 -0.5619
 4688TIP3    H114070   2.902   0.151   3.977  2.7262 -1.1596  1.3226
 4688TIP3    H214071   2.978   0.280   3.954  0.2377  0.0444 -0.6257
 4689TIP3   OH214072   2.314   1.878   5.093  0.3917  0.6577  0.1944
 4689TIP3    H114073   2.340   1.969   5.075  0.7509  0.5835  0.3358
 4689TIP3    H214074   2.364   1.854   5.171  2.0100 -0.3860 -1.0834
 4690TIP3   OH214075   2.760  -0.018   0.164  0.2090 -0.2927  0.2393
 4690TIP3    H114076   2.762   0.068   0.122 -1.3066 -1.2199 -1.8875
 4690TIP3    H214077   2.674  -0.022   0.206 -0.4308 -1.3476 -1.0879
 4691TIP3   OH214078   3.061   1.282   2.873  0.1662 -0.4476  0.1532
 4691TIP3    H114079   3.079   1.313   2.962  0.6115 -1.3448  0.3847
 4691TIP3    H214080   3.089   1.190   2.874 -4.4857 -2.1289  0.6340
 4692TIP3   OH214081   2.239   2.275   3.418  0.3257 -0.0880  0.0573
 4692TIP3    H114082   2.224   2.187   3.453 -0.2410 -0.3407 -0.8027
 4692TIP3    H214083   2.182   2.331   3.470  1.8942  0.0605  1.7450
 4693TIP3   OH214084   3.150   5.426   4.160  0.0479  0.1451 -0.2530
 4693TIP3    H114085   3.200   5.500   4.126  0.3034 -0.4743 -1.2564
 4693TIP3    H214086   3.204   5.391   4.231  0.1106  0.6653 -0.0395
 4694TIP3   OH214087   1.420   1.144   3.925 -0.8005  0.4807  0.0009
 4694TIP3    H114088   1.326   1.160   3.928 -0.7976  0.5695 -0.3732
 4694TIP3    H214089   1.430   1.052   3.949 -0.7766  1.1318  2.7719
 4695TIP3   OH214090   1.451   0.429   5.006  0.0848 -0.3875  0.5921
 4695TIP3    H114091   1.489   0.350   5.045 -0.9522 -0.6072  1.1922
 4695TIP3    H214092   1.465   0.418   4.911  1.0542 -0.6834  0.7541
 4696TIP3   OH214093   1.364   1.232   4.482  0.1755 -0.1662 -0.1426
 4696TIP3    H114094   1.320   1.212   4.399  0.6018  1.9281 -0.9189
 4696TIP3    H214095   1.408   1.315   4.467  0.2523  0.2873  2.1968
 4697TIP3   OH214096   5.390   3.766   2.853  0.3364 -0.5156 -0.2339
 4697TIP3    H114097   5.346   3.788   2.771  1.5425 -0.5820 -0.9413
 4697TIP3    H214098   5.363   3.834   2.914  0.2198  0.1466 -0.9970
 4698TIP3   OH214099   4.048   5.348   0.532  0.0125  0.4973 -0.4062
 4698TIP3    H114100   4.053   5.363   0.438  0.5572 -1.2066 -0.6698
 4698TIP3    H214101   4.124   5.394   0.568  0.0039  0.8437 -0.8242
 4699TIP3   OH214102   3.830   0.779   5.056  0.0654 -0.7711  0.0988
 4699TIP3    H114103   3.759   0.832   5.093 -1.1519 -1.8394 -0.6149
 4699TIP3    H214104   3.824   0.792   4.962 -1.0205 -2.9589 -0.2223
 4700TIP3   OH214105   3.787   4.598   4.726  0.1322 -0.3316  0.2520
 4700TIP3    H114106   3.802   4.652   4.648 -1.1970  0.7366  0.7048
 4700TIP3    H214107   3.872   4.556   4.742  1.0100  1.0464 -0.5571
 4701TIP3   OH214108   4.341   4.504   1.142 -0.0940  0.2420 -0.2047
 4701TIP3    H114109   4.350   4.409   1.135 -0.4868  0.1704  0.2123
 4701TIP3    H214110   4.255   4.518   1.181  0.2641  0.7384  0.4422
 4702TIP3   OH214111   2.698   2.762   3.849 -0.4056 -0.0467 -0.0036
 4702TIP3    H114112   2.764   2.786   3.785  2.6054 -2.0639  2.0398
 4702TIP3    H214113   2.669   2.675   3.823 -2.5625  0.8890 -0.9852
 4703TIP3   OH214114   0.546   3.511   0.994 -0.3672 -0.3058 -0.1720
 4703TIP3    H114115   0.514   3.575   1.058 -2.6990 -0.5253 -1.0348
 4703TIP3    H214116   0.593   3.563   0.929 -1.5942  0.4808 -0.4632
 4704TIP3   OH214117   1.294   3.631   0.829  0.0185 -0.5294  0.3641
 4704TIP3    H114118   1.312   3.723   0.850  0.1942 -0.5604  0.3496
 4704TIP3    H214119   1.378   3.596   0.800  0.0649 -0.8285  0.8450
 4705TIP3   OH214120   4.326   5.873   2.515 -0.3732  0.3819  0.1312
 4705TIP3    H114121   4.379   5.811   2.565 -0.8215 -0.1869 -0.0834
 4705TIP3    H214122   4.257   5.900   2.577  1.9465  3.6776  1.5703
 4706TIP3   OH214123   1.611   3.518   2.794 -0.4749 -0.4428  0.6622
 4706TIP3    H114124   1.645   3.500   2.707  2.0696  3.2563  0.6451
 4706TIP3    H214125   1.650   3.451   2.850 -0.6457 -1.7376 -0.7051
 4707TIP3   OH214126   1.576   1.573   4.452 -0.1851 -0.3981  0.4061
 4707TIP3    H114127   1.649   1.539   4.505 -0.3108 -1.8860 -0.3182
 4707TIP3    H214128   1.587   1.532   4.367 -0.6193  1.1121 -0.4111
 4708TIP3   OH214129   4.620   0.440   2.937 -0.0805  0.1421  0.4922
 4708TIP3    H114130   4.650   0.521   2.979 -0.9803  0.5052  0.4563
 4708TIP3    H214131   4.682   0.425   2.866  0.3115  0.5977  0.7323
 4709TIP3   OH214132   3.051   0.049   1.319  0.3489  0.2396  0.4355
 4709TIP3    H114133   2.972   0.103   1.325 -0.8276 -1.2153 -1.1401
 4709TIP3    H214134   3.092   0.076   1.237  0.7457  0.0175  0.5578
 4710TIP3   OH214135   2.197   4.085   1.945  0.7092  0.2723 -0.3259
 4710TIP3    H114136   2.183   4.068   2.038  0.6147  1.0395 -0.1909
 4710TIP3    H214137   2.253   4.163   1.943  0.9758  0.0700 -0.9102
 4711TIP3   OH214138   0.257   4.078   4.520 -0.1427 -0.1208  0.4840
 4711TIP3    H114139   0.221   4.162   4.491  1.3139 -0.1504 -1.5764
 4711TIP3    H214140   0.237   4.075   4.614  1.5547  3.4788  1.1441
 4712TIP3   OH214141   5.376   5.310   4.896 -0.5249 -0.3081 -0.0798
 4712TIP3    H114142   5.364   5.299   4.990  0.9532 -1.7449 -0.0239
 4712TIP3    H214143   5.471   5.305   4.883 -0.5106  2.0950 -1.4162
 4713TIP3   OH214144   2.697   0.481   1.779  0.1941 -0.4597  0.0724
 4713TIP3    H114145   2.747   0.544   1.727 -2.2775  1.9803  0.4904
 4713TIP3    H214146   2.714   0.397   1.736  1.2218  0.8912 -2.3723
 4714TIP3   OH214147   5.746   5.627   1.531 -0.2325 -0.1216  0.3412
 4714TIP3    H114148   5.818   5.647   1.590  0.9655 -1.1877 -0.6997
 4714TIP3    H214149   5.688   5.571   1.581  0.9530 -1.3201  0.4232
 4715TIP3   OH214150   2.002   1.105   3.259 -0.3071  0.1244 -0.2979
 4715TIP3    H114151   2.042   1.161   3.192 -0.2272  0.9923  0.4468
 4715TIP3    H214152   1.908   1.116   3.245 -0.3055  1.1861  0.4123
 4716TIP3   OH214153   0.615   4.212   3.068  0.4318  0.2441  0.0064
 4716TIP3    H114154   0.696   4.242   3.110  2.1703 -0.8047 -2.3644
 4716TIP3    H214155   0.641   4.135   3.018 -1.6400  0.8815 -2.2630
 4717TIP3   OH214156   0.873   0.494   4.392 -0.5390 -0.0950 -0.2524
 4717TIP3    H114157   0.805   0.434   4.360 -1.6298  0.9549  0.0193
 4717TIP3    H214158   0.943   0.489   4.326 -0.0496 -2.5385  0.3642
 4718TIP3   OH214159   0.236   0.968   4.078  0.1788 -0.9544 -0.3961
 4718TIP3    H114160   0.210   0.951   3.987  0.3996 -2.8630 -0.1525
 4718TIP3    H214161   0.203   0.892   4.127  0.1085  0.0224  1.1160
 4719TIP3   OH214162   4.098   0.100   0.390  0.1749 -0.0735 -0.2142
 4719TIP3    H114163   4.126   0.191   0.387  1.3228 -0.4156 -0.1144
 4719TIP3    H214164   4.064   0.088   0.478  0.2141  0.1979 -0.1619
 4720TIP3   OH214165   3.238   0.417   3.410 -0.0065 -0.2618 -0.1015
 4720TIP3    H114166   3.286   0.385   3.335  1.1806 -0.5784  0.7640
 4720TIP3    H214167   3.155   0.450   3.374  0.8901  0.4019 -1.6408
 4721TIP3   OH214168   4.649   1.617   2.915  0.4379  0.0174 -0.2104
 4721TIP3    H114169   4.699   1.585   2.990  0.5366 -1.4929 -0.8793
 4721TIP3    H214170   4.716   1.645   2.853  0.3556  3.2449  0.9957
 4722TIP3   OH214171   4.467   5.266   3.426 -0.1649  0.0347 -0.0633
 4722TIP3    H114172   4.552   5.296   3.394 -0.9063  1.6931 -0.5739
 4722TIP3    H214173   4.419   5.346   3.444 -1.7862 -0.8797 -0.2007
 4723TIP3   OH214174   3.852   3.703   4.354 -0.0227  0.1513  0.8327
 4723TIP3    H114175   3.897   3.742   4.279 -0.5626  0.2313  0.5515
 4723TIP3    H214176   3.762   3.734   4.348 -1.4011 -3.6175 -1.2217
 4724TIP3   OH214177   1.841   4.438   3.207  0.1236 -0.1081  0.3904
 4724TIP3    H114178   1.923   4.459   3.253  0.1894  1.2957 -0.2857
 4724TIP3    H214179   1.867   4.427   3.116 -0.4886  0.9156  0.0692
 4725TIP3   OH214180   1.606   3.601   2.512  0.7584  0.1733  0.1065
 4725TIP3    H114181   1.521   3.571   2.544  0.1534  1.1246 -0.5558
 4725TIP3    H214182   1.653   3.521   2.489  0.1790 -0.3811  0.8018
 4726TIP3   OH214183   5.998   0.526   1.314 -0.4181  0.6386 -0.2055
 4726TIP3    H114184   6.079   0.511   1.362  0.6132  0.4322 -1.9383
 4726TIP3    H214185   5.989   0.451   1.256 -0.9425  1.4654 -1.2453
 4727TIP3   OH214186   4.319   4.684   0.928  0.8082  0.1498  0.4001
 4727TIP3    H114187   4.313   4.625   1.003  1.0791 -0.7873 -0.2995
 4727TIP3    H214188   4.246   4.745   0.939 -0.0357 -0.8781  0.6576
 4728TIP3   OH214189   2.758   1.648   1.632  0.0493  0.3579  0.0982
 4728TIP3    H114190   2.718   1.651   1.545  3.0299 -0.7692 -1.4492
 4728TIP3    H214191   2.835   1.593   1.621  1.5075  1.5775  3.0988
 4729TIP3   OH214192   0.694   0.137   1.744 -0.6212 -0.1426  0.1074
 4729TIP3    H114193   0.645   0.197   1.800 -0.8559  0.2484 -0.5044
 4729TIP3    H214194   0.636   0.062   1.733 -0.3573 -0.4633  0.8120
 4730TIP3   OH214195   4.590   1.468   4.072 -0.2472  0.1114  0.4931
 4730TIP3    H114196   4.597   1.535   4.141  1.6725  0.6236 -0.1452
 4730TIP3    H214197   4.550   1.513   3.998  0.2239  0.3239  0.3642
 4731TIP3   OH214198   1.028   0.372   2.809 -0.4300  0.3934 -0.0097
 4731TIP3    H114199   1.077   0.423   2.873  1.0453 -0.1268 -0.6870
 4731TIP3    H214200   1.073   0.287   2.806 -1.7928 -0.3646 -0.1559
 4732TIP3   OH214201   0.736   0.289   4.272  0.2998 -0.3265  0.4397
 4732TIP3    H114202   0.671   0.220   4.286 -0.4510  0.1182 -0.7310
 4732TIP3    H214203   0.795   0.253   4.206  1.0784 -0.6016  1.2649
 4733TIP3   OH214204   4.449   0.276   4.246 -0.2556  0.2279  0.1518
 4733TIP3    H114205   4.486   0.356   4.284  2.0400 -0.3898 -0.6288
 4733TIP3    H214206   4.375   0.307   4.194 -0.8084  1.5610  1.6517
 4734TIP3   OH214207   3.586   1.246   0.232  0.1514 -0.3895 -0.3644
 4734TIP3    H114208   3.510   1.240   0.175 -1.0831  0.8898  1.0450
 4734TIP3    H214209   3.619   1.335   0.219  0.2386 -0.2987  0.4390
 4735TIP3   OH214210   2.465   5.789   0.262 -0.0352 -0.2738  0.3196
 4735TIP3    H114211   2.399   5.773   0.330  2.0879 -1.0656  2.3522
 4735TIP3    H214212   2.512   5.866   0.294  2.2629 -1.8066  0.8914
 4736TIP3   OH214213   4.421   2.533   3.823 -0.3193 -0.5234 -0.1353
 4736TIP3    H114214   4.497   2.478   3.844  0.1680 -0.0257 -0.5833
 4736TIP3    H214215   4.366   2.478   3.767  0.1262 -0.5867 -0.5097
 4737TIP3   OH214216   2.374   0.276   0.147 -0.3036 -0.3631  0.4979
 4737TIP3    H114217   2.402   0.365   0.125  0.0686 -0.5827  0.0621
 4737TIP3    H214218   2.413   0.259   0.233 -1.4125  0.3436  1.1732
 4738TIP3   OH214219   2.237   4.721   3.591  0.2218  0.5504 -0.0608
 4738TIP3    H114220   2.276   4.648   3.544  1.2656  0.1110  1.4256
 4738TIP3    H214221   2.237   4.793   3.528 -1.2598 -0.8167 -1.6986
 4739TIP3   OH214222   5.702   1.838   5.084  0.1531  0.4911 -0.3503
 4739TIP3    H114223   5.723   1.754   5.125  1.5142  0.4903 -1.0039
 4739TIP3    H214224   5.716   1.903   5.153 -0.6395  0.2184  0.0788
 4740TIP3   OH214225   0.291   4.006   4.843  0.4539  0.4324 -0.1051
 4740TIP3    H114226   0.274   4.091   4.884 -0.5497 -0.4074  1.3034
 4740TIP3    H214227   0.370   3.973   4.887  0.4580  0.3458 -0.1762
 4741TIP3   OH214228   6.024   2.818   1.327 -0.2949 -0.0239  0.8542
 4741TIP3    H114229   6.018   2.798   1.234 -2.4390  1.2720  0.6443
 4741TIP3    H214230   6.117   2.832   1.343  0.1263 -0.3877 -1.0464
 4742TIP3   OH214231   1.185   1.426   1.080 -0.3990  0.7649  0.6479
 4742TIP3    H114232   1.100   1.445   1.040  0.0344 -0.0046 -0.6921
 4742TIP3    H214233   1.238   1.504   1.061  0.2626 -0.1694 -1.6778
 4743TIP3   OH214234   1.871   2.252   1.135  0.1325 -0.0949 -0.0829
 4743TIP3    H114235   1.813   2.178   1.114  0.7014 -0.4203 -0.5199
 4743TIP3    H214236   1.894   2.238   1.227  0.1276 -0.3868 -0.1236
 4744TIP3   OH214237   0.791   1.127   4.995  0.0812 -0.0748 -0.0250
 4744TIP3    H114238   0.847   1.093   4.925 -2.7744 -2.4504 -1.3701
 4744TIP3    H214239   0.803   1.065   5.068  1.2976  1.0735  0.7925
 4745TIP3   OH214240   1.542   3.045   5.180  0.3647 -0.6425 -0.5096
 4745TIP3    H114241   1.482   3.020   5.110  0.5269 -0.0196 -0.8794
 4745TIP3    H214242   1.560   2.963   5.226  0.0926 -1.0272 -1.0688
 4746TIP3   OH214243   6.285   0.656   0.206 -0.0894  0.0088  0.3912
 4746TIP3    H114244   6.206   0.708   0.195 -1.3176 -1.9525 -0.4699
 4746TIP3    H214245   6.314   0.638   0.117  2.2638  1.9208  0.6493
 4747TIP3   OH214246   0.259   2.220   2.722  0.2463  0.0385 -0.1904
 4747TIP3    H114247   0.294   2.288   2.779  0.6342  0.6320 -1.1054
 4747TIP3    H214248   0.322   2.148   2.728 -1.0375 -1.0192  2.1349
 4748TIP3   OH214249   4.545   4.090   3.309 -0.7033  0.1487  0.1556
 4748TIP3    H114250   4.606   4.143   3.258  0.8870 -2.3803 -0.7689
 4748TIP3    H214251   4.569   4.109   3.400  2.7324 -1.8788 -0.1351
 4749TIP3   OH214252   3.800   3.916   3.521  0.0089  0.4668 -0.0034
 4749TIP3    H114253   3.780   3.823   3.519 -0.2365  0.4600  1.4632
 4749TIP3    H214254   3.714   3.959   3.520  0.1015  0.6507 -0.0667
 4750TIP3   OH214255   4.960   3.209   0.785  0.2666 -0.0745  0.1207
 4750TIP3    H114256   5.002   3.212   0.870  0.7265  0.6643 -0.1245
 4750TIP3    H214257   4.897   3.281   0.786  1.3965  0.9546 -0.7288
 4751TIP3   OH214258   1.882   3.840   3.706  0.2409  0.6877 -0.2378
 4751TIP3    H114259   1.824   3.771   3.672 -3.0047  2.6937  0.7775
 4751TIP3    H214260   1.842   3.922   3.677  1.3069  2.2673  2.3915
 4752TIP3   OH214261   0.870   3.268   2.276  0.4162 -0.5722  0.0325
 4752TIP3    H114262   0.941   3.203   2.271 -0.3054 -1.2974 -2.0606
 4752TIP3    H214263   0.806   3.229   2.336  1.1198 -0.5732  0.8075
 4753TIP3   OH214264   4.781   0.981   2.960 -0.1506 -0.4479  0.2366
 4753TIP3    H114265   4.841   1.028   2.902 -3.1511  0.4794 -2.4374
 4753TIP3    H214266   4.792   1.022   3.045  2.9857 -0.4133 -0.0653
 4754TIP3   OH214267   5.462   0.056   0.269 -0.6936 -0.4921 -0.1561
 4754TIP3    H114268   5.490   0.148   0.267  1.7422 -1.1647 -0.7964
 4754TIP3    H214269   5.447   0.033   0.177  1.4149 -1.4079 -0.3357
 4755TIP3   OH214270   3.698   5.839   1.304  0.2442  0.3720 -0.2410
 4755TIP3    H114271   3.782   5.808   1.339  0.8533 -0.5440 -2.3427
 4755TIP3    H214272   3.633   5.805   1.365  1.2370 -1.1203  0.0497
 4756TIP3   OH214273   5.117   2.975   3.519 -0.3816 -0.0781 -0.3257
 4756TIP3    H114274   5.184   3.015   3.574 -0.2150 -1.3739  0.4533
 4756TIP3    H214275   5.034   3.007   3.555 -0.2313  0.1648 -0.1907
 4757TIP3   OH214276   4.360   3.488   1.377 -0.3456  0.0396 -0.3895
 4757TIP3    H114277   4.314   3.437   1.443  2.0889 -0.8900  0.7300
 4757TIP3    H214278   4.341   3.579   1.399 -0.3979 -0.2822  0.9816
 4758TIP3   OH214279   3.236   3.233   0.721 -0.2347  0.3534 -0.3261
 4758TIP3    H114280   3.241   3.146   0.681  1.7479  0.1462  0.2467
 4758TIP3    H214281   3.293   3.287   0.666 -2.5295  1.7026 -1.5235
 4759TIP3   OH214282   2.518   5.357   2.287  0.2760  0.1679  0.0997
 4759TIP3    H114283   2.439   5.389   2.332  0.9265  0.6922  0.8842
 4759TIP3    H214284   2.515   5.262   2.298  0.3043  0.2727  1.0442
 4760TIP3   OH214285   1.907   3.709   1.509  0.5156  0.2120  0.1235
 4760TIP3    H114286   1.894   3.798   1.539  1.5219 -1.0453  5.2266
 4760TIP3    H214287   1.844   3.656   1.558  0.0610 -2.0584 -2.5718
 4761TIP3   OH214288   1.040   2.593   2.515  0.7586  0.6762  0.0364
 4761TIP3    H114289   1.046   2.531   2.442  0.5357  0.8396 -0.1213
 4761TIP3    H214290   1.052   2.679   2.474  2.7266  0.6530  0.4702
 4762TIP3   OH214291   3.857   3.799   2.644 -0.3938  0.0086 -0.5610
 4762TIP3    H114292   3.772   3.755   2.637  0.0870 -1.0733  0.1837
 4762TIP3    H214293   3.837   3.881   2.690 -1.1664  0.2100 -1.2180
 4763TIP3   OH214294   0.173   2.187   4.328 -0.3689 -0.4934  0.9030
 4763TIP3    H114295   0.205   2.261   4.380 -1.4807  0.3388  0.4519
 4763TIP3    H214296   0.204   2.110   4.375  0.6351  0.2505  1.5129
 4764TIP3   OH214297   4.956   5.364   1.096  0.1536 -0.2711  0.7166
 4764TIP3    H114298   5.015   5.310   1.044  0.3397 -0.1157  0.7680
 4764TIP3    H214299   4.925   5.305   1.166 -0.9327 -0.8052 -0.1795
 4765TIP3   OH214300   2.923   2.586   1.646 -0.0021  0.1625  0.2373
 4765TIP3    H114301   2.942   2.502   1.603  0.1673  0.7839 -0.9475
 4765TIP3    H214302   2.964   2.652   1.590 -1.1872  1.1487  0.4739
 4766TIP3   OH214303   1.267   5.927   5.047 -0.6092  0.5835  0.2277
 4766TIP3    H114304   1.223   5.905   4.965 -1.2790  0.4375  0.6198
 4766TIP3    H214305   1.359   5.904   5.032 -1.0452 -1.3127  0.1780
 4767TIP3   OH214306   0.255   1.548   2.617  0.8671  0.0435 -0.2599
 4767TIP3    H114307   0.193   1.620   2.626  2.2171  1.5761 -2.3410
 4767TIP3    H214308   0.200   1.471   2.598 -0.4248  1.3519 -2.1368
 4768TIP3   OH214309   5.762   5.468   3.650 -0.5154 -0.0904  0.0964
 4768TIP3    H114310   5.786   5.440   3.562  0.8920  0.8992  0.1336
 4768TIP3    H214311   5.811   5.549   3.664 -1.1309  0.0558  1.5887
 4769TIP3   OH214312   3.334   1.069   1.094 -0.2720 -0.6349  0.1551
 4769TIP3    H114313   3.317   0.975   1.098 -0.8342 -0.5667 -0.4035
 4769TIP3    H214314   3.299   1.104   1.176  0.8107 -1.0318  0.8039
 4770TIP3   OH214315   5.265   2.527   3.477  0.0334 -0.0813  0.0045
 4770TIP3    H114316   5.246   2.612   3.437  1.1658 -0.1805 -0.7960
 4770TIP3    H214317   5.187   2.474   3.459  0.3544 -0.0035 -1.7973
 4771TIP3   OH214318   1.282   2.861   3.565 -0.1648  0.2390 -0.1620
 4771TIP3    H114319   1.363   2.909   3.582  0.3913 -0.6363 -0.2622
 4771TIP3    H214320   1.268   2.871   3.471  1.2048 -1.6265 -0.6380
 4772TIP3   OH214321   0.395   1.349   2.178  0.3061 -0.2381 -0.6734
 4772TIP3    H114322   0.300   1.361   2.183  0.4227  0.8648 -0.8511
 4772TIP3    H214323   0.430   1.402   2.250  0.7688 -0.9990 -0.3283
 4773TIP3   OH214324   5.083   4.528   2.830  0.2245 -0.4915 -0.4981
 4773TIP3    H114325   5.009   4.566   2.878 -0.2668  0.5426 -1.9829
 4773TIP3    H214326   5.161   4.562   2.874 -0.1794 -0.9936  0.6320
 4774TIP3   OH214327   1.737   0.705   2.126 -0.0397  0.1614 -0.2517
 4774TIP3    H114328   1.746   0.610   2.132 -0.6061  0.0986 -0.3374
 4774TIP3    H214329   1.827   0.738   2.121  0.2250 -0.2702  1.2525
 4775TIP3   OH214330   5.672   3.365   2.714 -0.2631 -0.0985  0.0634
 4775TIP3    H114331   5.748   3.369   2.656 -0.7731 -1.1199 -0.7262
 4775TIP3    H214332   5.697   3.301   2.781 -1.2183 -2.3238 -1.5427
 4776TIP3   OH214333  -0.011   3.542   3.888 -0.0133  0.3128 -0.7111
 4776TIP3    H114334  -0.006   3.548   3.983  0.6207 -0.5607 -0.6789
 4776TIP3    H214335   0.079   3.530   3.859 -0.4189 -2.1122 -1.1949
 4777TIP3   OH214336   3.773   3.349   4.017 -0.3020 -0.1158 -0.1139
 4777TIP3    H114337   3.735   3.436   4.004  0.1351  0.2201  0.7534
 4777TIP3    H214338   3.724   3.292   3.958 -0.4557  0.7525 -0.8518
 4778TIP3   OH214339   4.298   1.391   0.297  0.9199 -0.2465 -0.6805
 4778TIP3    H114340   4.221   1.395   0.354  1.1714 -0.4757 -0.3293
 4778TIP3    H214341   4.295   1.303   0.260 -0.5011  0.5876 -2.7693
 4779TIP3   OH214342   4.936   2.876   3.206 -0.0624  0.1416 -0.2613
 4779TIP3    H114343   4.874   2.888   3.134 -1.4461 -2.2765  0.4242
 4779TIP3    H214344   4.900   2.929   3.277 -0.4787 -0.0149 -0.3502
 4780TIP3   OH214345   1.077   1.500   0.223 -0.1313 -0.1668  0.2442
 4780TIP3    H114346   1.027   1.582   0.217 -0.1257 -0.0973  1.0344
 4780TIP3    H214347   1.031   1.440   0.165 -0.5898  0.1747  0.2469
 4781TIP3   OH214348   2.275   4.965   2.236  0.4809 -0.0319 -0.2734
 4781TIP3    H114349   2.279   5.031   2.167  2.0376 -0.0383 -0.2209
 4781TIP3    H214350   2.208   4.997   2.296  0.4900  0.9655 -0.7786
 4782TIP3   OH214351   1.812   3.117   0.114  0.3248 -0.6375  0.4037
 4782TIP3    H114352   1.799   3.123   0.209 -0.0186  2.4661  0.2683
 4782TIP3    H214353   1.871   3.043   0.102  2.6937  0.5583  3.3408
 4783TIP3   OH214354   4.575   5.323   5.137 -0.5166  0.5420 -0.6879
 4783TIP3    H114355   4.532   5.369   5.065 -0.2774  1.9180  0.0108
 4783TIP3    H214356   4.534   5.359   5.216  0.9266  0.8790 -0.0608
 4784TIP3   OH214357   4.974   2.071   2.856  0.0963  0.4498 -0.4655
 4784TIP3    H114358   4.946   2.152   2.900  2.2861  0.6602  0.6869
 4784TIP3    H214359   5.054   2.046   2.902 -0.9741 -2.9267 -0.1577
 4785TIP3   OH214360   4.888   1.305   2.378 -0.1805  0.2008  0.5039
 4785TIP3    H114361   4.979   1.316   2.352 -0.0171 -0.5960  0.7102
 4785TIP3    H214362   4.860   1.224   2.335  0.0252 -1.0348  2.5563
 4786TIP3   OH214363   1.446   2.271   4.187  0.1427  0.0125  0.3376
 4786TIP3    H114364   1.468   2.356   4.147  1.8379 -0.4625  0.1677
 4786TIP3    H214365   1.431   2.213   4.113 -0.4750  0.0193  0.4518
 4787TIP3   OH214366   5.596   1.232   1.282  0.2445 -0.0972 -0.4030
 4787TIP3    H114367   5.542   1.303   1.249  0.2858  1.3657  2.3921
 4787TIP3    H214368   5.673   1.231   1.224  1.5448  4.0117  0.9042
 4788TIP3   OH214369   1.628   0.360   0.051  0.3231  0.0200 -0.2258
 4788TIP3    H114370   1.709   0.310   0.035  0.9629  1.0133 -0.1898
 4788TIP3    H214371   1.622   0.366   0.146  1.8358  2.4448 -0.2124
 4789TIP3   OH214372   5.093   1.676   0.722  0.5318 -0.7033 -0.5150
 4789TIP3    H114373   5.012   1.628   0.737 -0.2936  0.7498 -0.0820
 4789TIP3    H214374   5.066   1.752   0.669  1.6458 -0.3225 -0.5606
 4790TIP3   OH214375   3.953   4.086   0.284  0.2592 -0.1917 -0.2155
 4790TIP3    H114376   3.887   4.123   0.226  2.9601  2.3279 -1.9929
 4790TIP3    H214377   4.001   4.023   0.230 -0.2854 -1.6085  0.8880
 4791TIP3   OH214378   3.470   3.973   4.742  0.4162 -0.2923 -0.0757
 4791TIP3    H114379   3.544   3.958   4.801 -0.1448  0.4819  0.8457
 4791TIP3    H214380   3.394   3.937   4.787  0.1271 -0.5470 -0.7486
 4792TIP3   OH214381   5.938   3.279   3.400 -0.0516  0.3162  0.4404
 4792TIP3    H114382   5.859   3.313   3.358  0.7498  0.5636 -0.9092
 4792TIP3    H214383   6.010   3.323   3.355  0.8875 -0.4306  1.1789
 4793TIP3   OH214384   4.124   4.371   3.392  0.1340  0.3414 -0.2736
 4793TIP3    H114385   4.077   4.450   3.365 -0.5894 -0.0994 -0.3291
 4793TIP3    H214386   4.062   4.300   3.376  0.7622 -0.2333 -0.1794
 4794TIP3   OH214387   5.147   3.091   1.045 -0.5856 -0.2125 -0.7350
 4794TIP3    H114388   5.120   3.002   1.023  2.1571 -1.2069 -0.4074
 4794TIP3    H214389   5.206   3.116   0.974  3.4803 -1.1068  1.9762
 4795TIP3   OH214390   5.149   1.782   2.406  0.1722  0.6056 -0.1630
 4795TIP3    H114391   5.191   1.752   2.326 -1.5568  1.9863 -1.6600
 4795TIP3    H214392   5.218   1.780   2.472  1.9212  0.4701 -1.9311
 4796TIP3   OH214393   2.071   2.142   0.445  0.0264 -0.3174  0.3937
 4796TIP3    H114394   2.016   2.080   0.493  0.0438 -0.0180  0.8071
 4796TIP3    H214395   2.046   2.228   0.479 -0.1400 -0.0737 -0.3179
 4797TIP3   OH214396   5.720   2.491   0.247 -0.3078 -0.0084  0.0805
 4797TIP3    H114397   5.724   2.464   0.155  0.3110  0.1004  0.0693
 4797TIP3    H214398   5.812   2.499   0.273 -0.3848 -2.4952  1.4220
 4798TIP3   OH214399   4.819   4.225   4.839 -0.3526 -0.2377  0.1251
 4798TIP3    H114400   4.771   4.144   4.823 -2.6689  0.8883  1.0403
 4798TIP3    H214401   4.878   4.203   4.911 -0.9194 -1.1267  0.3378
 4799TIP3   OH214402   2.455   4.372   3.448 -0.0275  0.3202 -0.3902
 4799TIP3    H114403   2.413   4.291   3.419  2.0589 -0.7134 -0.7433
 4799TIP3    H214404   2.533   4.379   3.393  0.2486  2.1677  0.1821
 4800TIP3   OH214405   2.531   0.503   3.964  0.1156  0.2484 -0.0554
 4800TIP3    H114406   2.550   0.546   3.881  1.1748  1.5104  0.8022
 4800TIP3    H214407   2.579   0.419   3.959  1.0219  0.7668 -0.3276
 4801TIP3   OH214408   2.903   0.131   2.195  0.0166 -0.1701  0.2958
 4801TIP3    H114409   2.882   0.039   2.178 -0.8266  0.3384 -1.5814
 4801TIP3    H214410   2.850   0.153   2.272  0.9818 -1.4882  1.3940
 4802TIP3   OH214411   5.182   2.555   2.382 -0.0963 -0.2645 -0.4375
 4802TIP3    H114412   5.231   2.514   2.311 -1.0692 -2.3382  0.0003
 4802TIP3    H214413   5.108   2.598   2.339  0.3189  0.0923 -0.8097
 4803TIP3   OH214414   5.038   0.457   1.234 -0.0636 -0.0293 -0.3389
 4803TIP3    H114415   4.988   0.533   1.264 -1.9811 -0.9739 -0.9918
 4803TIP3    H214416   5.104   0.494   1.175  0.1415  1.2747  0.6766
 4804TIP3   OH214417   0.380   3.561   2.948  0.1015 -0.2105  0.5082
 4804TIP3    H114418   0.403   3.566   3.041  0.1887 -1.3343  0.5612
 4804TIP3    H214419   0.461   3.585   2.902  0.1849 -0.0817  0.7196
 4805TIP3   OH214420   3.366   1.658   2.014  0.2771 -0.0119  0.4196
 4805TIP3    H114421   3.416   1.585   1.977  0.8310  0.5273  0.0857
 4805TIP3    H214422   3.382   1.730   1.954  0.0730  0.5034  0.9793
 4806TIP3   OH214423   5.642   4.571   0.503 -0.0937 -0.4229 -0.1968
 4806TIP3    H114424   5.633   4.519   0.423 -2.1617 -0.1778 -0.1883
 4806TIP3    H214425   5.692   4.648   0.476  0.4560 -1.0058 -0.9011
 4807TIP3   OH214426   5.266   1.248   0.824  0.5555  0.3197  0.1720
 4807TIP3    H114427   5.302   1.159   0.825  0.0878  0.0928 -1.2102
 4807TIP3    H214428   5.307   1.289   0.748  1.8744  1.7896  1.5924
 4808TIP3   OH214429   5.460   2.675   3.259  0.6418  0.1608  0.4934
 4808TIP3    H114430   5.372   2.692   3.294  1.2430  0.8948  1.7100
 4808TIP3    H214431   5.502   2.619   3.324  0.6201 -1.4147 -0.7823
 4809TIP3   OH214432   4.321   2.992   3.717 -0.7730 -0.5115 -0.5501
 4809TIP3    H114433   4.291   2.926   3.780 -1.8520 -0.2671 -0.7880
 4809TIP3    H214434   4.266   2.979   3.640 -1.7994  1.3843 -0.1853
 4810TIP3   OH214435   4.894   5.903   4.979 -0.0544  1.1884  0.1415
 4810TIP3    H114436   4.946   5.887   5.058  2.2412 -2.2802 -1.8208
 4810TIP3    H214437   4.819   5.845   4.987  0.4272  0.4826 -0.4112
 4811TIP3   OH214438   1.642   3.695   4.222  0.6169 -0.2405 -0.0609
 4811TIP3    H114439   1.718   3.688   4.165  1.4409 -1.5852  1.1371
 4811TIP3    H214440   1.673   3.664   4.308 -0.9148  0.4758  0.7984
 4812TIP3   OH214441   1.351   3.412   2.661 -0.3865 -0.5895 -0.4515
 4812TIP3    H114442   1.329   3.499   2.626  0.0788  0.1570  1.0477
 4812TIP3    H214443   1.347   3.422   2.756 -0.0837 -2.1589 -0.2469
 4813TIP3   OH214444   5.994   2.155   1.296 -0.3329  0.1294 -0.1943
 4813TIP3    H114445   6.054   2.229   1.312 -0.2118  0.0992 -0.5076
 4813TIP3    H214446   5.907   2.191   1.313 -0.3059  0.4568 -0.7380
 4814TIP3   OH214447   4.937   4.898   0.059  0.5983 -0.3113  0.3749
 4814TIP3    H114448   4.968   4.988   0.053  1.5247 -0.6433  0.0009
 4814TIP3    H214449   4.882   4.896   0.137 -0.8798  0.9872 -0.5762
 4815TIP3   OH214450   2.185   4.001   1.586  0.3715 -0.8061 -0.0656
 4815TIP3    H114451   2.240   4.080   1.591 -1.7331  0.8130 -0.9373
 4815TIP3    H214452   2.181   3.982   1.492 -0.4559 -0.9431 -0.0101
 4816TIP3   OH214453   3.693   2.793   2.705  0.1842  0.5275  0.6325
 4816TIP3    H114454   3.704   2.725   2.771 -1.6749  0.2038  0.6724
 4816TIP3    H214455   3.759   2.774   2.639  2.4251  1.1390  2.5734
 4817TIP3   OH214456   0.027   1.210   4.987 -0.2261 -0.8347  0.1348
 4817TIP3    H114457   0.029   1.175   4.898  0.7804  0.6566 -0.4632
 4817TIP3    H214458  -0.004   1.300   4.978  3.1573  0.5528  0.7654
 4818TIP3   OH214459   2.319   3.781   0.182  0.1788 -0.7908 -0.3011
 4818TIP3    H114460   2.243   3.827   0.218  0.6946  0.3800 -0.6603
 4818TIP3    H214461   2.376   3.766   0.257 -0.1146 -1.1023 -0.1368
 4819TIP3   OH214462   3.197   2.880   2.377 -0.3561 -0.4607 -0.6197
 4819TIP3    H114463   3.164   2.850   2.292  0.1368 -0.1660 -0.9212
 4819TIP3    H214464   3.130   2.941   2.408 -1.2566 -1.6791 -0.1079
 4820TIP3   OH214465   6.147   0.760   0.510 -0.4074 -0.2322  0.3121
 4820TIP3    H114466   6.127   0.807   0.429  0.3686  0.9111  0.7641
 4820TIP3    H214467   6.084   0.687   0.512 -0.4398 -0.2719 -1.2981
 4821TIP3   OH214468   1.132   0.308   4.834  0.4115  0.1457 -0.2832
 4821TIP3    H114469   1.100   0.299   4.924  2.6810  1.6534  0.7675
 4821TIP3    H214470   1.058   0.346   4.786 -0.9462 -0.9738  0.8387
 4822TIP3   OH214471   3.668   2.441   3.960  0.1683 -0.9133  0.3781
 4822TIP3    H114472   3.672   2.439   3.864  1.6147  0.1492  0.3790
 4822TIP3    H214473   3.607   2.371   3.983  1.7811 -2.9964 -1.2259
 4823TIP3   OH214474   1.255   5.759   1.141 -0.0404  0.1614  0.3344
 4823TIP3    H114475   1.228   5.809   1.218 -1.4848 -0.2141  0.1132
 4823TIP3    H214476   1.291   5.678   1.177  1.1005  0.7857  0.6505
 4824TIP3   OH214477   5.705   5.080   2.438 -0.0934 -0.1996  0.3415
 4824TIP3    H114478   5.647   5.038   2.375 -0.3986 -1.5158  1.4612
 4824TIP3    H214479   5.775   5.017   2.452  0.6951  0.6472  0.3243
 4825TIP3   OH214480   5.262   3.074   2.205  0.3935 -0.3511 -0.1573
 4825TIP3    H114481   5.273   3.166   2.231 -1.5412 -0.2477  0.4399
 4825TIP3    H214482   5.178   3.049   2.243  1.4976 -2.7990  0.8885
 4826TIP3   OH214483   1.737   2.562   2.355 -0.5376 -0.0406  1.0899
 4826TIP3    H114484   1.712   2.517   2.436  0.6659 -1.9160  0.4915
 4826TIP3    H214485   1.686   2.519   2.286 -0.1966  0.2699  0.6350
 4827TIP3   OH214486   6.204   1.128   1.181  0.4417  0.0032  0.2465
 4827TIP3    H114487   6.286   1.095   1.219  0.5381  0.5505  0.5262
 4827TIP3    H214488   6.218   1.222   1.173  0.7565 -0.1746 -1.9578
 4828TIP3   OH214489   0.956   2.430   2.306 -0.3862 -0.1734 -0.0331
 4828TIP3    H114490   0.861   2.433   2.311 -0.3777  1.0972 -0.3116
 4828TIP3    H214491   0.977   2.337   2.302 -1.6915 -0.4515 -1.4499
 4829TIP3   OH214492   1.935   3.533   3.490  0.1006  0.4362  0.1502
 4829TIP3    H114493   1.936   3.462   3.425  2.3728  2.7832 -2.6177
 4829TIP3    H214494   1.990   3.500   3.561  1.7725 -0.3509 -1.4258
 4830TIP3   OH214495   2.223   5.940   0.123  0.6084 -0.3816 -0.0443
 4830TIP3    H114496   2.265   6.022   0.147 -1.8165  0.5577  1.3492
 4830TIP3    H214497   2.204   5.898   0.207 -0.6155 -1.0562 -0.6340
 4831TIP3   OH214498   2.754   5.626   4.939  0.1596 -0.1301  0.2667
 4831TIP3    H114499   2.691   5.661   4.876  0.2420 -0.4305  0.0133
 4831TIP3    H214500   2.702   5.605   5.016  0.1440  0.7495  0.5014
 4832TIP3   OH214501   0.280   2.176   4.690 -0.3514  0.1011  0.3398
 4832TIP3    H114502   0.197   2.145   4.653 -0.1325 -0.7920  0.5652
 4832TIP3    H214503   0.258   2.259   4.732 -0.8458  0.5550 -0.7702
 4833TIP3   OH214504   2.370   5.461   4.515  0.3221 -0.2239 -0.2956
 4833TIP3    H114505   2.466   5.462   4.510  0.3580  0.0414  0.3471
 4833TIP3    H214506   2.343   5.533   4.458  0.5677  0.5255  0.5126
 4834TIP3   OH214507   5.606   4.863   3.696 -0.0433  0.3161  0.5557
 4834TIP3    H114508   5.564   4.831   3.776  1.2191 -1.2664  0.6326
 4834TIP3    H214509   5.690   4.899   3.724 -0.2846  1.2585  0.1173
 4835TIP3   OH214510   3.861   0.791   2.626 -0.2107  0.2264  0.1653
 4835TIP3    H114511   3.807   0.715   2.604 -0.3357 -0.2136  1.8886
 4835TIP3    H214512   3.951   0.760   2.618 -0.2476  0.1380  0.0909
 4836TIP3   OH214513   5.281   3.695   1.074  0.1492 -0.1876 -0.1151
 4836TIP3    H114514   5.259   3.691   0.981  1.1171 -1.4324 -0.3145
 4836TIP3    H214515   5.198   3.717   1.117 -0.3843  0.0776 -1.2267
 4837TIP3   OH214516   3.566   3.859   1.952  0.5245 -0.1879 -0.5897
 4837TIP3    H114517   3.599   3.769   1.954 -0.9726 -0.7728 -0.4015
 4837TIP3    H214518   3.490   3.858   2.010  1.1851  1.5233  0.3702
 4838TIP3   OH214519   1.850   4.767   3.832 -0.1979 -0.0361 -0.2707
 4838TIP3    H114520   1.860   4.851   3.787 -0.9419 -0.2652 -0.8924
 4838TIP3    H214521   1.923   4.714   3.801 -0.0843  0.1740 -0.3645
 4839TIP3   OH214522   3.813   1.951   2.085  0.2163  0.1061  0.1406
 4839TIP3    H114523   3.866   1.878   2.053 -0.6800 -0.8586  0.8095
 4839TIP3    H214524   3.802   1.934   2.179 -1.1771  0.3237  0.0454
 4840TIP3   OH214525   5.280   2.507   3.973  0.3933 -0.3296 -0.0346
 4840TIP3    H114526   5.261   2.437   3.910 -0.0372 -0.5362  0.3179
 4840TIP3    H214527   5.371   2.494   3.998  0.2232 -0.9461  0.2579
 4841TIP3   OH214528   2.798   4.188   0.455 -0.3215 -0.2224  0.5228
 4841TIP3    H114529   2.883   4.176   0.412 -0.1978 -1.7780  1.1430
 4841TIP3    H214530   2.740   4.126   0.410 -0.6346 -0.5834  1.4115
 4842TIP3   OH214531   4.974   4.812   0.968  0.1163  0.1626 -0.2233
 4842TIP3    H114532   4.938   4.732   1.006  2.8586 -0.9114  0.3415
 4842TIP3    H214533   4.946   4.809   0.876 -1.3886 -0.4328  0.2273
 4843TIP3   OH214534   1.884   3.691   4.075 -0.6079  0.2342  0.5284
 4843TIP3    H114535   1.951   3.729   4.018 -1.1043  1.1862  0.5590
 4843TIP3    H214536   1.933   3.636   4.136 -0.1025 -1.1675 -1.0642
 4844TIP3   OH214537   4.350   0.761   4.217 -0.0428  0.0173  0.0843
 4844TIP3    H114538   4.313   0.826   4.158  0.2314  1.4485  1.4436
 4844TIP3    H214539   4.289   0.756   4.290  0.7508 -0.0571  0.7627
 4845TIP3   OH214540   5.592   4.407   1.150 -0.4011 -0.1901  0.1237
 4845TIP3    H114541   5.572   4.316   1.128  1.3002 -0.4909 -0.2872
 4845TIP3    H214542   5.677   4.403   1.194  0.7204  1.3847 -1.7532
 4846TIP3   OH214543   5.967   5.633   2.745 -0.2397 -0.9009 -0.1593
 4846TIP3    H114544   5.898   5.572   2.772 -2.5425  0.5389 -2.3688
 4846TIP3    H214545   5.950   5.712   2.797  0.5312 -0.9477  0.1693
 4847TIP3   OH214546   4.248   0.358   0.073  0.5194 -0.1251  0.0328
 4847TIP3    H114547   4.255   0.372   0.167 -1.3003  0.5961  0.1151
 4847TIP3    H214548   4.169   0.305   0.062  1.0687 -0.7597 -1.0571
 4848TIP3   OH214549   2.981   3.311   0.593  0.1345 -0.4983 -0.3233
 4848TIP3    H114550   3.063   3.291   0.639 -0.2199 -0.6173  0.2760
 4848TIP3    H214551   3.000   3.389   0.542  1.0288 -1.3162 -1.2879
 4849TIP3   OH214552   4.600   2.489   2.690  0.0764 -0.1040  0.6760
 4849TIP3    H114553   4.620   2.524   2.603 -2.1803  1.0680  0.5579
 4849TIP3    H214554   4.543   2.414   2.674 -1.4085  0.8761  1.1072
 4850TIP3   OH214555   2.621   2.761   3.158 -0.1531 -0.0314  0.0954
 4850TIP3    H114556   2.701   2.808   3.182  0.4162 -0.5612 -0.6869
 4850TIP3    H214557   2.619   2.686   3.218 -0.6928  0.6088  0.8857
 4851TIP3   OH214558   4.120   2.463   3.877 -0.2432 -0.4921 -0.0474
 4851TIP3    H114559   4.194   2.489   3.931 -0.8904  0.4561  0.4170
 4851TIP3    H214560   4.106   2.371   3.899  0.2228 -0.4259  0.5497
 4852TIP3   OH214561   5.699   3.018   0.402  0.8364 -0.3414  0.2582
 4852TIP3    H114562   5.770   2.968   0.361  0.0298 -1.7068  0.4360
 4852TIP3    H214563   5.739   3.056   0.481  1.6327 -0.1983 -0.2018
 4853TIP3   OH214564   4.976   0.813   2.686  0.8095 -0.0860  0.1503
 4853TIP3    H114565   5.007   0.849   2.603  2.0991 -0.5177  0.4249
 4853TIP3    H214566   4.962   0.890   2.742 -0.3626  0.2300 -0.5307
 4854TIP3   OH214567   4.229   3.831   1.008  0.2205  0.1573 -0.1398
 4854TIP3    H114568   4.212   3.739   0.987  0.6808  0.2591 -1.0392
 4854TIP3    H214569   4.311   3.830   1.057 -0.1331  0.0312  0.4503
 4855TIP3   OH214570   0.898   2.783   4.414  0.1252  0.0820  0.3927
 4855TIP3    H114571   0.909   2.698   4.456 -0.0721  0.2259  0.7457
 4855TIP3    H214572   0.897   2.764   4.321  1.0781 -0.1886  0.4260
 4856TIP3   OH214573   2.183   5.351   2.935  0.2447  0.2030 -0.1462
 4856TIP3    H114574   2.238   5.412   2.984 -0.0801 -1.8843  3.1474
 4856TIP3    H214575   2.240   5.277   2.916 -0.2242  0.0666 -1.0784
 4857TIP3   OH214576   4.605   4.840   0.141 -1.0854 -0.1001 -1.0099
 4857TIP3    H114577   4.517   4.841   0.179 -0.8554 -0.0180 -0.4761
 4857TIP3    H214578   4.664   4.845   0.216 -0.6371  2.3234 -1.4377
 4858TIP3   OH214579   1.604   2.879   3.376 -0.4643  0.5982 -0.4498
 4858TIP3    H114580   1.670   2.937   3.337 -0.2963 -0.2675 -1.4820
 4858TIP3    H214581   1.565   2.932   3.445  2.7012  0.4925  1.6319
 4859TIP3   OH214582   4.415   1.619   2.627  0.7942 -0.4945 -0.5546
 4859TIP3    H114583   4.390   1.710   2.610  0.3914 -0.1592  1.5131
 4859TIP3    H214584   4.480   1.599   2.561  3.0162  2.2511  0.5958
 4860TIP3   OH214585   3.613   4.332   4.128 -0.2078 -0.1884 -0.0649
 4860TIP3    H114586   3.652   4.374   4.204 -2.2459  0.5484  0.6265
 4860TIP3    H214587   3.554   4.265   4.165  0.9726 -1.8822 -1.0891
 4861TIP3   OH214588   0.958   0.796   3.861 -0.1837  0.0611 -0.3565
 4861TIP3    H114589   1.037   0.814   3.809 -0.1502 -1.4728 -0.9101
 4861TIP3    H214590   0.928   0.882   3.890  1.7524  0.6842 -0.0309
 4862TIP3   OH214591   1.780   3.032   3.229 -0.3836  0.3264  0.1181
 4862TIP3    H114592   1.847   3.091   3.265  0.5170 -0.4280 -0.2732
 4862TIP3    H214593   1.755   3.072   3.146 -0.5740  0.7100  0.3525
 4863TIP3   OH214594   2.106   3.365   4.577  0.3080  0.1825 -0.0609
 4863TIP3    H114595   2.035   3.327   4.525 -0.3746  0.5906  0.5610
 4863TIP3    H214596   2.088   3.337   4.666  0.0378  1.5753  0.3444
 4864TIP3   OH214597   4.537   1.429   2.047  0.3280  0.0489 -0.0429
 4864TIP3    H114598   4.485   1.361   2.090  2.0525 -1.4458 -0.1883
 4864TIP3    H214599   4.591   1.381   1.985  1.7160  1.5400 -0.0398
 4865TIP3   OH214600   4.462   3.540   4.283 -0.7950  0.2268 -0.9616
 4865TIP3    H114601   4.477   3.631   4.308 -0.1149 -0.6266  2.2022
 4865TIP3    H214602   4.543   3.514   4.239 -0.2482  0.6651 -0.2361
 4866TIP3   OH214603   3.129   5.870   4.052  0.2671  0.4200 -0.1149
 4866TIP3    H114604   3.100   5.818   3.978 -0.4262 -0.0657  0.4917
 4866TIP3    H214605   3.223   5.880   4.039  0.3332 -0.5955 -0.4805
 4867TIP3   OH214606   4.662   5.680   3.074  0.7586  0.6222  0.3376
 4867TIP3    H114607   4.629   5.624   3.145 -2.7367 -1.8794 -2.8368
 4867TIP3    H214608   4.737   5.632   3.040  0.1175 -0.2052  0.0417
 4868TIP3   OH214609   1.329   5.037   2.101  0.0466  0.6724  0.5231
 4868TIP3    H114610   1.283   5.073   2.177  0.1026  0.0060  0.8809
 4868TIP3    H214611   1.285   4.954   2.083  1.6794 -0.4696  1.4806
 4869TIP3   OH214612   3.062   1.864   1.598 -0.1876  0.0033  0.4900
 4869TIP3    H114613   3.055   1.849   1.692 -1.2767 -0.1439  0.3998
 4869TIP3    H214614   3.058   1.959   1.588 -1.1563 -0.0266  0.5251
 4870TIP3   OH214615   5.935   5.793   4.322  0.1547 -0.2055  0.3277
 4870TIP3    H114616   5.879   5.778   4.246  2.3186  0.8144 -1.5644
 4870TIP3    H214617   5.943   5.707   4.363 -0.4553 -0.9298 -1.0087
 4871TIP3   OH214618   2.409   5.225   4.706 -0.0430 -0.0683  0.3699
 4871TIP3    H114619   2.501   5.250   4.698  0.0018 -0.6885 -1.8279
 4871TIP3    H214620   2.367   5.263   4.629 -1.8713  1.0576  1.8487
 4872TIP3   OH214621   1.918   5.621   0.246  0.1088  0.6111  0.2032
 4872TIP3    H114622   2.005   5.598   0.213  0.2021  0.9694  0.1947
 4872TIP3    H214623   1.894   5.548   0.304  0.8467  0.9876  1.0034
 4873TIP3   OH214624   5.631   0.110   2.774 -0.2134 -0.2740 -0.1364
 4873TIP3    H114625   5.666   0.083   2.859  0.2250 -0.4144 -0.3583
 4873TIP3    H214626   5.648   0.204   2.769 -1.5686  0.0345  0.5544
 4874TIP3   OH214627   1.688   0.950   0.411  0.1611 -0.1145 -0.8479
 4874TIP3    H114628   1.747   0.993   0.472  0.4672  0.8349 -1.7835
 4874TIP3    H214629   1.637   0.890   0.465 -0.5213  1.6586  0.5758
 4875TIP3   OH214630   2.188   4.959   4.496 -0.1562 -0.1132  0.2755
 4875TIP3    H114631   2.241   5.039   4.492 -0.4805  0.1418  0.9729
 4875TIP3    H214632   2.211   4.912   4.416  0.8460  0.1713  0.3780
 4876TIP3   OH214633   2.323   4.996   1.698 -0.5905  0.5365  0.1331
 4876TIP3    H114634   2.352   5.087   1.686  1.8035 -0.2459 -0.5671
 4876TIP3    H214635   2.361   4.949   1.624 -1.2736 -1.1670  0.8233
 4877TIP3   OH214636   2.816   0.534   0.171 -0.0588  0.3327 -0.1898
 4877TIP3    H114637   2.809   0.576   0.086  0.7855  0.0787 -0.3967
 4877TIP3    H214638   2.762   0.588   0.230 -1.1263  0.1765 -0.9903
 4878TIP3   OH214639   1.130   5.101   1.418  0.2646  0.1275 -0.0268
 4878TIP3    H114640   1.158   5.097   1.327  2.2227 -0.3454  0.5415
 4878TIP3    H214641   1.073   5.025   1.429  1.9101 -1.2098 -0.3191
 4879TIP3   OH214642   3.272   4.942   5.099 -0.0041 -0.1458  0.4111
 4879TIP3    H114643   3.301   5.032   5.111  0.1412 -0.2148  0.5837
 4879TIP3    H214644   3.349   4.896   5.067 -1.0712  0.6363 -3.8349
 4880TIP3   OH214645   1.837   3.498   3.022  0.4615 -0.0458  0.1124
 4880TIP3    H114646   1.825   3.593   3.017  0.4205  0.1031  2.2013
 4880TIP3    H214647   1.920   3.486   3.068 -0.3178 -0.9814  1.3594
 4881TIP3   OH214648   2.144   3.760   3.452  0.4859 -0.3500 -0.5094
 4881TIP3    H114649   2.066   3.704   3.455  0.4997 -0.4018 -1.0449
 4881TIP3    H214650   2.116   3.842   3.493 -0.2058  0.0435 -1.7113
 4882TIP3   OH214651   1.603   3.267   1.220  0.3173 -0.5957 -0.0865
 4882TIP3    H114652   1.629   3.350   1.180  0.4135 -0.4872  0.2008
 4882TIP3    H214653   1.626   3.276   1.312 -2.5150  0.2759  0.6493
 4883TIP3   OH214654   4.043   0.704   4.119  0.1104 -0.9668  0.0965
 4883TIP3    H114655   4.047   0.618   4.162  0.9188 -1.3125 -0.6471
 4883TIP3    H214656   4.050   0.766   4.192  1.9565 -1.5437  0.4731
 4884TIP3   OH214657   2.434   0.474   2.428 -0.3241 -0.3896  0.5297
 4884TIP3    H114658   2.457   0.428   2.348 -1.9102  0.9170 -0.7429
 4884TIP3    H214659   2.421   0.405   2.493  0.7721 -1.4739 -0.3567
 4885TIP3   OH214660   3.073   0.127   0.880  0.1316  0.3463 -0.2996
 4885TIP3    H114661   3.019   0.175   0.942 -1.3614  0.7175 -1.8162
 4885TIP3    H214662   3.011   0.070   0.833  1.5162 -1.4509 -0.0617
 4886TIP3   OH214663   1.696   4.631   3.347  0.0440 -0.3036  0.0580
 4886TIP3    H114664   1.613   4.587   3.364 -0.3575 -0.4813 -2.0271
 4886TIP3    H214665   1.757   4.561   3.327  0.1106 -0.0756 -0.5694
 4887TIP3   OH214666   4.341   2.430   3.584 -0.0076 -0.6351  0.7498
 4887TIP3    H114667   4.280   2.364   3.551 -0.1154  0.1208 -0.6355
 4887TIP3    H214668   4.426   2.403   3.548 -0.4088  1.1986 -1.8462
 4888TIP3   OH214669   6.149   1.937   3.027 -0.1758 -0.1658  0.3028
 4888TIP3    H114670   6.224   1.997   3.034  0.3045 -0.3098 -2.3959
 4888TIP3    H214671   6.072   1.993   3.035  0.2447  0.3973  0.4551
 4889TIP3   OH214672   5.349   0.444   0.759 -0.4077  0.4946  0.1618
 4889TIP3    H114673   5.387   0.427   0.673 -1.8755 -1.4070 -0.1661
 4889TIP3    H214674   5.421   0.428   0.821  0.1224 -0.0883 -0.5940
 4890TIP3   OH214675   0.339   0.465   4.893  0.0104  0.0648  0.0769
 4890TIP3    H114676   0.333   0.415   4.812  1.9247  0.5694 -0.4241
 4890TIP3    H214677   0.431   0.457   4.919 -0.4350  0.3840  1.9087
 4891TIP3   OH214678   4.239   0.118   0.911  0.0802  0.5446 -0.0936
 4891TIP3    H114679   4.216   0.067   0.833  2.3704 -0.0953 -0.4451
 4891TIP3    H214680   4.220   0.209   0.887 -2.7795  0.0682  0.0364
 4892TIP3   OH214681   1.527   1.211   3.663  0.2141  0.3656  0.0752
 4892TIP3    H114682   1.576   1.131   3.682 -0.8787 -0.2501  0.4209
 4892TIP3    H214683   1.471   1.223   3.740 -1.5833 -0.0636 -1.0995
 4893TIP3   OH214684   3.646   0.521   2.536  0.0635 -0.1376 -0.3699
 4893TIP3    H114685   3.594   0.441   2.527  0.7503 -0.6242 -0.1405
 4893TIP3    H214686   3.694   0.529   2.454 -1.4049  1.0867 -1.1518
 4894TIP3   OH214687   1.941   1.508   2.686  0.3947  0.0552  0.1647
 4894TIP3    H114688   1.923   1.582   2.628  1.2365 -0.7298 -1.1579
 4894TIP3    H214689   1.932   1.431   2.630  1.7433 -0.7044  0.9491
 4895TIP3   OH214690   4.753   0.648   4.152 -0.2776  0.4898 -0.1485
 4895TIP3    H114691   4.825   0.588   4.132 -0.2095  0.2917  0.6734
 4895TIP3    H214692   4.678   0.613   4.104  0.0412  0.3919 -0.5796
 4896TIP3   OH214693   5.645   2.792   1.218  0.4694 -0.3696  0.3305
 4896TIP3    H114694   5.679   2.847   1.147  0.9853 -0.0507  0.8151
 4896TIP3    H214695   5.667   2.839   1.298 -0.1871 -0.6806  0.7094
 4897TIP3   OH214696   0.042   5.418   2.435  0.8649 -0.0803 -0.7139
 4897TIP3    H114697   0.041   5.450   2.345  1.4455 -0.0451 -0.7108
 4897TIP3    H214698  -0.022   5.473   2.481 -0.1821 -0.7520 -1.3196
 4898TIP3   OH214699   6.203   4.642   3.983 -0.2898 -0.4327  0.4180
 4898TIP3    H114700   6.220   4.711   4.046 -1.8352  0.8450 -0.4794
 4898TIP3    H214701   6.199   4.562   4.035  1.0217  0.2064  1.5499
 4899TIP3   OH214702   1.319   5.233   0.250  0.3455 -0.5021 -0.5732
 4899TIP3    H114703   1.243   5.212   0.195  0.9970  0.1897 -1.7761
 4899TIP3    H214704   1.292   5.208   0.339 -1.0238 -0.9173 -1.0806
 4900TIP3   OH214705   0.343   1.034   4.589  0.1388 -0.2230  0.2657
 4900TIP3    H114706   0.313   0.943   4.593  3.5882 -1.5015  0.4186
 4900TIP3    H214707   0.358   1.058   4.680 -0.6782  0.5085  0.2169
 4901TIP3   OH214708   5.378   5.677   0.167  0.0971 -0.4285  0.2003
 4901TIP3    H114709   5.422   5.755   0.201 -0.5138 -0.0154  0.0684
 4901TIP3    H214710   5.286   5.702   0.162  0.1946 -0.3026 -2.1534
 4902TIP3   OH214711   3.364   3.869   2.148  0.0135 -0.2785  0.5707
 4902TIP3    H114712   3.373   3.962   2.126  0.7530 -0.4870 -0.0613
 4902TIP3    H214713   3.371   3.867   2.244 -2.6303  0.5785  0.8701
 4903TIP3   OH214714   0.862   0.452   3.521  0.6585  0.5342 -0.4346
 4903TIP3    H114715   0.929   0.518   3.503 -1.5242  2.8384 -0.7600
 4903TIP3    H214716   0.869   0.434   3.614  0.1629  2.6796  0.0673
 4904TIP3   OH214717   5.507   1.890   0.195  0.1324 -0.0234 -0.5007
 4904TIP3    H114718   5.558   1.820   0.234 -0.5784 -0.5925 -0.5587
 4904TIP3    H214719   5.566   1.965   0.192  0.5442 -0.2806  0.6476
 4905TIP3   OH214720   3.794   4.413   1.471  0.1742  0.0830  0.3963
 4905TIP3    H114721   3.741   4.429   1.392  0.5313 -0.2569  0.0835
 4905TIP3    H214722   3.734   4.370   1.532  0.0703 -0.2524  0.0631
 4906TIP3   OH214723   4.859   5.453   2.959  0.1902  0.1856 -0.3420
 4906TIP3    H114724   4.946   5.484   2.985  0.0705  1.9409 -1.8475
 4906TIP3    H214725   4.868   5.431   2.867 -0.6834 -0.8038 -0.2091
 4907TIP3   OH214726   2.753   1.422   0.672 -0.3046 -0.2413 -0.7077
 4907TIP3    H114727   2.690   1.365   0.716 -0.8704  1.0453  0.2140
 4907TIP3    H214728   2.719   1.430   0.582  0.2630 -1.9985 -1.1274
 4908TIP3   OH214729   0.561   3.246   3.556 -0.2048 -0.1401 -0.2457
 4908TIP3    H114730   0.554   3.298   3.476  2.1276  0.1689 -0.3185
 4908TIP3    H214731   0.600   3.163   3.528 -3.3691 -1.8451 -0.0416
 4909TIP3   OH214732   0.059   0.475   1.783 -0.8591  0.1343 -0.6609
 4909TIP3    H114733  -0.008   0.498   1.848 -1.5432  1.9643 -1.9357
 4909TIP3    H214734   0.116   0.551   1.780 -0.8910  0.1288 -2.2385
 4910TIP3   OH214735   3.937   4.590   3.340 -0.4400  0.0523  0.3464
 4910TIP3    H114736   3.895   4.570   3.257 -2.0163  1.7158  0.6767
 4910TIP3    H214737   3.912   4.680   3.359  2.0809  0.6313  1.3513
 4911TIP3   OH214738   2.337   4.220   1.560  0.2297 -0.6510 -0.2329
 4911TIP3    H114739   2.385   4.275   1.497  0.6883 -0.9408 -0.1406
 4911TIP3    H214740   2.280   4.281   1.606 -0.7923 -0.5675 -1.5567
 4912TIP3   OH214741   6.309   2.596   1.179  0.0151  0.4552 -0.2235
 4912TIP3    H114742   6.267   2.528   1.232 -1.8693  0.7220 -1.2861
 4912TIP3    H214743   6.394   2.558   1.153 -0.5895 -1.1111 -0.0072
 4913TIP3   OH214744   1.056   3.512   0.864  0.6699 -0.1788 -0.1065
 4913TIP3    H114745   1.042   3.571   0.938 -0.3688 -0.5154 -0.0150
 4913TIP3    H214746   1.150   3.518   0.845  0.9228 -0.0029  1.1574
 4914TIP3   OH214747   5.579   0.099   2.515  0.5635  0.1263  0.2596
 4914TIP3    H114748   5.594   0.102   2.609 -0.7323  0.8609  0.4642
 4914TIP3    H214749   5.501   0.153   2.501 -0.1063 -1.1250 -1.0580
 4915TIP3   OH214750   0.777   3.977   4.257  0.4290 -0.8798 -0.5111
 4915TIP3    H114751   0.705   4.039   4.261  0.4255 -0.9285  0.4547
 4915TIP3    H214752   0.736   3.891   4.266  0.5753 -0.9167 -0.1342
 4916TIP3   OH214753   4.502   3.933   5.128 -0.0163 -0.0606 -0.5480
 4916TIP3    H114754   4.536   4.011   5.085 -1.6854  0.2587 -1.3880
 4916TIP3    H214755   4.547   3.860   5.084  0.4076  0.3756 -0.8447
 4917TIP3   OH214756   5.094   5.242   3.665 -0.5045 -0.0746  0.0751
 4917TIP3    H114757   5.118   5.213   3.753 -0.3781  0.0200  0.0729
 4917TIP3    H214758   5.110   5.166   3.609 -1.8287 -0.5604  0.3254
 4918TIP3   OH214759   1.774   5.612   0.007  0.2750 -0.1106  1.0511
 4918TIP3    H114760   1.801   5.625   0.098  0.3298 -0.0001  1.0197
 4918TIP3    H214761   1.854   5.627  -0.044  0.2384 -0.1455  0.9840
 4919TIP3   OH214762   3.876   2.247   2.335 -0.0997  0.3257 -0.0307
 4919TIP3    H114763   3.877   2.320   2.273 -0.7868 -0.6623 -1.2631
 4919TIP3    H214764   3.848   2.172   2.282  1.8659 -1.1340  0.8682
 4920TIP3   OH214765   0.045   0.808   3.806  0.2278 -0.1828 -0.1170
 4920TIP3    H114766   0.133   0.793   3.839  0.1534 -2.1186 -0.6538
 4920TIP3    H214767  -0.010   0.746   3.854 -0.0706 -2.2265 -2.8214
 4921TIP3   OH214768   4.162   5.916   1.425 -0.3039  0.5353  0.3322
 4921TIP3    H114769   4.190   5.978   1.357  0.2100  1.0789  1.0214
 4921TIP3    H214770   4.212   5.941   1.502  0.2861 -1.0704  0.5011
 4922TIP3   OH214771   1.600   0.681   3.241 -0.0585  0.1121 -0.3380
 4922TIP3    H114772   1.604   0.731   3.322 -0.7859 -0.2099 -0.1028
 4922TIP3    H214773   1.676   0.622   3.245 -0.4563 -0.3510  0.4024
 4923TIP3   OH214774   3.019   2.831   0.445 -0.1931 -0.1250  0.2533
 4923TIP3    H114775   3.091   2.877   0.402  0.3865 -1.3137 -0.0672
 4923TIP3    H214776   3.060   2.757   0.490 -1.4483 -2.4487 -2.1597
 4924TIP3   OH214777   4.664   3.680   0.455  0.3171  0.5628 -0.3048
 4924TIP3    H114778   4.612   3.667   0.534  0.0411  0.2965 -0.5294
 4924TIP3    H214779   4.648   3.601   0.403  1.1319  0.3646 -0.2674
 4925TIP3   OH214780   3.991   0.503   1.741 -0.2201  0.2966 -0.5204
 4925TIP3    H114781   3.906   0.502   1.696  0.7257 -0.7775 -2.4527
 4925TIP3    H214782   4.046   0.446   1.687  2.0828  1.9149 -0.0176
 4926TIP3   OH214783   3.219   0.938   5.086  0.3052 -0.0151  0.2422
 4926TIP3    H114784   3.229   1.003   5.156  2.3965  0.9758 -0.8404
 4926TIP3    H214785   3.128   0.945   5.059  0.1970  1.7128  0.9178
 4927TIP3   OH214786   4.931   2.068   1.033  0.4633 -0.2419  0.4367
 4927TIP3    H114787   4.956   2.161   1.039  0.4488 -0.1548 -0.5962
 4927TIP3    H214788   5.014   2.021   1.025  0.4640 -0.3085  0.8213
 4928TIP3   OH214789   2.693   1.986   2.566 -0.3274  0.1827 -0.4888
 4928TIP3    H114790   2.769   1.967   2.622  0.5161 -1.1232 -2.0078
 4928TIP3    H214791   2.621   1.938   2.606 -0.4656  1.5834  1.0796
 4929TIP3   OH214792   3.974   5.242   4.488 -0.1447 -0.0529 -0.2037
 4929TIP3    H114793   4.018   5.159   4.469  0.9667  0.2735  0.8484
 4929TIP3    H214794   4.031   5.286   4.551 -0.0853  2.0342 -1.6020
 4930TIP3   OH214795   4.236   0.177   4.607 -0.2178  0.4838  0.4293
 4930TIP3    H114796   4.211   0.268   4.623  0.7216  1.0727 -1.1813
 4930TIP3    H214797   4.330   0.181   4.586 -0.6298 -0.5082 -1.9569
 4931TIP3   OH214798   5.557   4.484   2.810  0.1879 -0.0893 -0.6772
 4931TIP3    H114799   5.569   4.405   2.863  0.2810 -0.4365 -1.2095
 4931TIP3    H214800   5.642   4.528   2.812 -0.5284  1.3223  1.6990
 4932TIP3   OH214801   5.858   1.315   3.002  0.1481  0.6063 -0.4916
 4932TIP3    H114802   5.807   1.379   3.052  0.3151 -0.1504  0.6825
 4932TIP3    H214803   5.816   1.231   3.019  1.4861  0.0264  0.1498
 4933TIP3   OH214804   2.008   5.306   3.889  0.1833 -0.0598  0.1375
 4933TIP3    H114805   2.021   5.384   3.835 -1.1636  1.5480  2.0055
 4933TIP3    H214806   1.913   5.295   3.893  0.3235 -1.3288  0.6223
 4934TIP3   OH214807   2.402   4.302   3.801  0.0291  0.0623  0.4487
 4934TIP3    H114808   2.404   4.319   3.895 -1.1928 -0.1469  0.5378
 4934TIP3    H214809   2.425   4.209   3.792 -0.4838 -0.0862  0.6115
 4935TIP3   OH214810   3.836   3.551   2.791 -0.0379 -0.4687  0.9826
 4935TIP3    H114811   3.889   3.623   2.756  0.7919 -0.6643  1.7928
 4935TIP3    H214812   3.813   3.498   2.715 -0.3153  0.4254  0.4329
 4936TIP3   OH214813   5.763   4.362   3.671  0.3920 -0.4034  0.3494
 4936TIP3    H114814   5.766   4.356   3.767 -3.3886 -0.1557  0.6579
 4936TIP3    H214815   5.773   4.271   3.641  1.6771 -0.4739  0.9398
 4937TIP3   OH214816   0.359   3.312   0.675 -0.6348 -0.5471 -0.0022
 4937TIP3    H114817   0.368   3.251   0.602 -0.2392  0.7110 -1.0384
 4937TIP3    H214818   0.422   3.281   0.740 -1.2250 -1.8773 -0.0135
 4938TIP3   OH214819   0.393   2.290   1.770 -0.1776  0.1232  0.1773
 4938TIP3    H114820   0.457   2.352   1.805  1.6840 -1.4922 -0.1754
 4938TIP3    H214821   0.308   2.327   1.794  0.9014  1.0131  3.0796
 4939TIP3   OH214822   2.018   3.998   2.489  0.4150 -0.2484 -0.2733
 4939TIP3    H114823   2.064   3.941   2.550 -1.4319  1.6131  3.1114
 4939TIP3    H214824   2.067   4.080   2.490  0.3575 -0.1805 -1.3523
 4940TIP3   OH214825   1.934   5.493   2.379  0.0305  0.1026  0.2837
 4940TIP3    H114826   1.973   5.447   2.453  0.6340 -0.2306 -0.2305
 4940TIP3    H214827   1.974   5.453   2.301 -1.2209 -0.1401 -0.2612
 4941TIP3   OH214828   0.984   5.238   4.445  0.1339 -0.3943 -0.1444
 4941TIP3    H114829   0.960   5.181   4.372  1.5453 -0.5987 -0.4942
 4941TIP3    H214830   0.994   5.325   4.405 -2.4673  0.2571  0.4696
 4942TIP3   OH214831   6.330   1.031   0.074 -0.3710 -0.5630 -0.0438
 4942TIP3    H114832   6.379   0.992   0.147  1.2830 -1.2466 -1.4469
 4942TIP3    H214833   6.284   1.105   0.113 -0.5182 -1.6131  1.9218
 4943TIP3   OH214834   0.990   0.290   3.285  0.8700  0.6392  0.0335
 4943TIP3    H114835   1.051   0.247   3.345 -0.3069 -0.7022  0.3196
 4943TIP3    H214836   1.025   0.379   3.274  1.7826  0.5155  1.7120
 4944TIP3   OH214837   6.116   1.484   3.096  0.2530 -0.2510  0.4276
 4944TIP3    H114838   6.073   1.402   3.120  1.8059 -2.0009 -2.1919
 4944TIP3    H214839   6.064   1.519   3.024  0.0554  0.6554  0.9994
 4945TIP3   OH214840   6.035   2.586   3.151 -0.1224  0.2030  0.3010
 4945TIP3    H114841   6.056   2.504   3.195 -0.8623 -0.0408  0.2204
 4945TIP3    H214842   6.062   2.654   3.213  0.2032 -0.1025  0.5022
 4946TIP3   OH214843   1.592   3.480   1.004  0.0216 -0.0930  0.2924
 4946TIP3    H114844   1.631   3.406   0.957 -0.7326  0.3405 -1.0673
 4946TIP3    H214845   1.584   3.548   0.937 -1.7881  0.2967  0.8771
 4947TIP3   OH214846   0.433   4.106   1.890 -0.1073 -0.1570  0.6710
 4947TIP3    H114847   0.398   4.062   1.814 -1.7038  0.6708  0.8855
 4947TIP3    H214848   0.427   4.042   1.961 -0.4396 -0.2826  0.5274
 4948TIP3   OH214849   5.214   3.310   4.681  0.0351 -0.4253 -0.1905
 4948TIP3    H114850   5.145   3.262   4.727  0.1730 -0.9076 -0.4798
 4948TIP3    H214851   5.281   3.244   4.662  0.0837 -0.1866 -0.8758
 4949TIP3   OH214852   3.284   1.396   2.786  0.1456  0.0834 -0.0620
 4949TIP3    H114853   3.357   1.345   2.821  1.5975  1.6868 -0.6333
 4949TIP3    H214854   3.206   1.346   2.812  1.3356 -0.8941  1.9156
 4950TIP3   OH214855   1.212   1.484   2.497 -0.0485 -0.6640 -0.1361
 4950TIP3    H114856   1.220   1.450   2.407 -2.0237  0.7349 -0.9196
 4950TIP3    H214857   1.134   1.539   2.494 -0.9261 -1.5981  2.8023
 4951TIP3   OH214858   4.893   2.110   3.795  0.2768  0.0308 -0.4771
 4951TIP3    H114859   4.876   2.195   3.836  2.2254  0.4592 -0.4608
 4951TIP3    H214860   4.944   2.061   3.860  1.7827  0.0231 -1.5986
 4952TIP3   OH214861   1.798   1.337   5.188 -0.2094 -0.1516 -0.3655
 4952TIP3    H114862   1.765   1.380   5.109 -0.9180 -0.8777 -0.4819
 4952TIP3    H214863   1.721   1.293   5.225 -0.2723  1.5047  1.6407
 4953TIP3   OH214864   4.958   1.573   3.774  0.1690  0.2123 -0.0311
 4953TIP3    H114865   5.042   1.619   3.773  0.4161 -0.2198  0.4839
 4953TIP3    H214866   4.893   1.643   3.783  0.1198  1.0101 -4.3222
 4954TIP3   OH214867   0.709   3.623   3.830 -0.0085 -0.6390 -0.5194
 4954TIP3    H114868   0.758   3.690   3.783  0.5187  0.7040  1.7970
 4954TIP3    H214869   0.619   3.657   3.835  0.1886 -0.2014  0.3741
 4955TIP3   OH214870   2.894   5.394   4.047 -0.5503 -0.0647  0.0852
 4955TIP3    H114871   2.977   5.407   4.092 -1.2800  1.4301  1.0720
 4955TIP3    H214872   2.910   5.320   3.989  1.5757  0.4174 -0.0284
 4956TIP3   OH214873   3.863   4.668   1.511 -0.7055  0.5818  0.9866
 4956TIP3    H114874   3.941   4.644   1.562  0.7811 -0.0914 -1.4199
 4956TIP3    H214875   3.842   4.589   1.462 -1.3936  1.4833 -0.2291
 4957TIP3   OH214876   5.601   4.423   1.931 -0.0282  0.2815  0.3001
 4957TIP3    H114877   5.585   4.404   1.839 -0.4736 -2.1888  0.8216
 4957TIP3    H214878   5.654   4.349   1.962 -0.2956  0.8048  2.1269
 4958TIP3   OH214879   0.661   2.332   3.921 -0.2218 -0.4300  0.3478
 4958TIP3    H114880   0.657   2.247   3.965 -2.1599 -0.2463  0.6262
 4958TIP3    H214881   0.601   2.324   3.847  0.7453  0.2276 -0.5411
 4959TIP3   OH214882   4.974   0.637   3.318 -0.0678  0.7760 -0.1943
 4959TIP3    H114883   4.976   0.683   3.234 -0.9892  2.6636  0.7339
 4959TIP3    H214884   5.052   0.583   3.318  0.5322  1.5623 -1.8155
 4960TIP3   OH214885   5.951   5.507   3.116  0.1843 -0.0020 -0.1336
 4960TIP3    H114886   5.994   5.542   3.194 -1.2183  1.6119 -0.0277
 4960TIP3    H214887   6.023   5.489   3.055  1.1920  0.0152  1.0262
 4961TIP3   OH214888   5.910   0.453   2.482  0.5067  0.0852  0.4467
 4961TIP3    H114889   5.979   0.520   2.480 -0.0771  0.7452 -1.9473
 4961TIP3    H214890   5.956   0.371   2.500  1.2957  1.0119  3.1002
 4962TIP3   OH214891   5.797   1.653   2.673 -0.4354 -0.0649  0.2741
 4962TIP3    H114892   5.725   1.694   2.721 -0.8235 -0.4594  0.0360
 4962TIP3    H214893   5.869   1.650   2.735 -0.7586 -0.0520  0.6497
 4963TIP3   OH214894   6.281   3.186   3.572 -0.1547 -0.0500  0.1911
 4963TIP3    H114895   6.246   3.167   3.659  0.2583 -0.6633  0.2222
 4963TIP3    H214896   6.376   3.182   3.582 -0.1082 -0.6122 -0.3907
 4964TIP3   OH214897   2.564   5.132   3.373  0.1595  0.1689  0.1444
 4964TIP3    H114898   2.620   5.196   3.330  0.2528  0.6480  0.9470
 4964TIP3    H214899   2.475   5.160   3.352  0.1941  0.7895  0.7943
 4965TIP3   OH214900   1.124   5.735   2.103 -0.0290 -0.3459 -0.2926
 4965TIP3    H114901   1.133   5.649   2.143 -0.1844  0.0203  0.5571
 4965TIP3    H214902   1.040   5.731   2.057  0.2155 -0.8207 -0.6918
 4966TIP3   OH214903   2.307   2.384   4.538 -0.7975 -0.0760  1.0490
 4966TIP3    H114904   2.239   2.319   4.515  2.2463 -2.6768 -1.5953
 4966TIP3    H214905   2.353   2.345   4.612  0.4629 -0.5062  0.0569
 4967TIP3   OH214906   0.821   4.073   0.876 -0.0494 -0.0377  0.1065
 4967TIP3    H114907   0.786   4.122   0.951  1.4851  0.6279  0.4309
 4967TIP3    H214908   0.805   4.130   0.801 -0.1269  0.0307  0.1747
 4968TIP3   OH214909   1.499   5.303   2.067  0.2840  0.1723  0.2953
 4968TIP3    H114910   1.468   5.318   1.977  0.3033 -0.2670  0.2145
 4968TIP3    H214911   1.513   5.391   2.102  2.0880  0.3466 -0.7610
 4969TIP3   OH214912   1.174   0.940   4.448 -0.2800 -0.0919 -0.5332
 4969TIP3    H114913   1.189   0.846   4.433 -0.2716  0.1533 -2.3442
 4969TIP3    H214914   1.253   0.982   4.413  0.9716  0.5311  2.6581
 4970TIP3   OH214915   2.967   1.667   0.096  0.0031 -0.0419 -0.4384
 4970TIP3    H114916   2.872   1.670   0.107 -0.1972 -1.7857 -1.2770
 4970TIP3    H214917   2.980   1.662   0.001  1.0031  1.3575 -0.4026
 4971TIP3   OH214918   0.912   4.687   0.602 -0.2369 -0.6299  0.0620
 4971TIP3    H114919   0.898   4.634   0.524  1.7085 -3.3727  1.4044
 4971TIP3    H214920   0.845   4.657   0.664  1.8541 -2.9862  1.3951
 4972TIP3   OH214921   4.788   0.455   2.705  0.4382  0.1246 -0.2039
 4972TIP3    H114922   4.732   0.530   2.685  0.8937  0.3817 -0.5111
 4972TIP3    H214923   4.821   0.427   2.620 -1.6693 -1.9746 -0.4512
 4973TIP3   OH214924   2.789   4.612   2.327  0.0131 -0.7033  0.6602
 4973TIP3    H114925   2.881   4.589   2.331 -0.4112 -2.4792  1.5754
 4973TIP3    H214926   2.746   4.531   2.299 -1.2624  0.0869  0.2613
 4974TIP3   OH214927   1.224   0.260   3.499 -0.3617  0.2887  0.3939
 4974TIP3    H114928   1.206   0.347   3.534 -1.1824  0.7452 -1.0930
 4974TIP3    H214929   1.319   0.253   3.496 -0.2504  0.3236  2.4102
 4975TIP3   OH214930   1.200   0.851   3.731 -0.5152 -0.4178  0.1033
 4975TIP3    H114931   1.174   0.941   3.713 -1.2135 -0.6359  0.0085
 4975TIP3    H214932   1.263   0.830   3.661 -0.1422  0.0783  0.2849
 4976TIP3   OH214933   5.091   2.668   4.258  0.0296 -0.2593  0.3437
 4976TIP3    H114934   5.079   2.592   4.201  1.7051 -0.9780  0.8867
 4976TIP3    H214935   5.098   2.742   4.197  2.2966 -1.0715 -0.4782
 4977TIP3   OH214936   5.257   5.044   4.421  0.2614  0.2216  0.0357
 4977TIP3    H114937   5.233   5.102   4.494 -0.1813 -0.3495  0.3482
 4977TIP3    H214938   5.194   4.972   4.425 -1.1450  1.1988 -2.1737
 4978TIP3   OH214939   3.311   1.685   3.527  0.0648 -0.3271  0.0524
 4978TIP3    H114940   3.352   1.599   3.512  0.2067 -0.4357  0.9958
 4978TIP3    H214941   3.385   1.746   3.530  0.0231 -0.2811  0.1226
 4979TIP3   OH214942   4.930   5.997   0.300  0.0685  0.4328 -0.2457
 4979TIP3    H114943   4.883   5.913   0.306  1.4187 -0.3638 -0.3386
 4979TIP3    H214944   5.010   5.983   0.351  0.5021  1.5390 -0.6004
 4980TIP3   OH214945   2.289   4.731   0.067 -0.1587  0.1655  0.2792
 4980TIP3    H114946   2.199   4.730   0.032 -0.1873  1.5562  0.2405
 4980TIP3    H214947   2.281   4.776   0.151  0.4732  0.1537  0.3480
 4981TIP3   OH214948   2.294   2.961   3.991  0.7256 -0.2808  0.5033
 4981TIP3    H114949   2.255   2.940   4.076  1.1817  1.8019  1.2766
 4981TIP3    H214950   2.388   2.961   4.007  0.8106  0.1814  0.0245
 4982TIP3   OH214951   3.638   5.702   2.975 -0.1475 -0.5434 -0.1315
 4982TIP3    H114952   3.685   5.709   2.892  0.0616  0.8726  0.0882
 4982TIP3    H214953   3.690   5.640   3.026  0.5779 -0.2327 -0.4849
 4983TIP3   OH214954   5.136   5.834   2.248  0.2009 -0.0222 -0.5744
 4983TIP3    H114955   5.204   5.775   2.217 -0.9261 -1.4027 -0.5377
 4983TIP3    H214956   5.057   5.807   2.200 -0.3588  1.4397 -0.5223
 4984TIP3   OH214957   3.065   4.529   2.311 -0.4441 -0.0345  0.3297
 4984TIP3    H114958   3.089   4.618   2.337  0.1146 -0.3994  1.0843
 4984TIP3    H214959   3.117   4.513   2.232 -0.0229  0.0692  0.5809
 4985TIP3   OH214960   1.272   2.689   5.181 -0.4377 -0.7827 -0.4238
 4985TIP3    H114961   1.324   2.705   5.102 -0.7508  0.0497 -0.4799
 4985TIP3    H214962   1.333   2.649   5.243  0.4265  0.6327 -0.3067
 4986TIP3   OH214963   4.756   5.108   2.234 -0.2306 -0.2458  0.4296
 4986TIP3    H114964   4.710   5.066   2.162  1.4808  0.4392 -1.1386
 4986TIP3    H214965   4.817   5.041   2.267 -0.4837 -0.3222  0.7463
 4987TIP3   OH214966   4.670   0.331   4.018 -0.2749  0.2344  0.0779
 4987TIP3    H114967   4.596   0.274   3.997  0.7985 -0.8602 -0.9164
 4987TIP3    H214968   4.672   0.395   3.946 -0.8581  0.9076  0.6493
 4988TIP3   OH214969   1.144   3.288   1.984  0.0116 -0.1678  0.1114
 4988TIP3    H114970   1.199   3.347   1.932  0.7427 -0.8036  0.1500
 4988TIP3    H214971   1.061   3.336   1.995  0.5554  0.8020  0.0623
 4989TIP3   OH214972   5.065   4.315   0.363  0.2081  0.2455  0.5176
 4989TIP3    H114973   5.017   4.233   0.377 -0.0493  0.4531  0.8915
 4989TIP3    H214974   5.066   4.326   0.268  1.9770 -1.1987  0.3120
 4990TIP3   OH214975   5.828   3.988   4.516  0.0653 -0.9763  0.6368
 4990TIP3    H114976   5.803   3.936   4.439 -0.5101  1.7331 -1.1664
 4990TIP3    H214977   5.747   3.999   4.565 -0.9380  1.7862 -1.3794
 4991TIP3   OH214978   3.509   0.297   2.611 -0.4274  0.0375  1.0094
 4991TIP3    H114979   3.476   0.312   2.522  0.4960  0.0877  0.6634
 4991TIP3    H214980   3.434   0.264   2.659 -0.4640 -2.0080 -0.3259
 4992TIP3   OH214981   5.277   4.891   3.972  0.0938 -0.5799  0.1070
 4992TIP3    H114982   5.280   4.952   4.046 -1.4952 -0.1141 -0.1686
 4992TIP3    H214983   5.325   4.814   4.002 -0.7845 -0.5327  1.7470
 4993TIP3   OH214984   5.137   3.121   0.321 -0.6206 -0.1547  0.2477
 4993TIP3    H114985   5.108   3.036   0.355  0.6249 -0.4896  0.5275
 4993TIP3    H214986   5.080   3.185   0.363  0.0048 -0.6705  1.9594
 4994TIP3   OH214987   0.313   0.600   2.919 -0.1919 -0.1033 -0.5227
 4994TIP3    H114988   0.356   0.620   3.002 -0.8776  0.9003 -0.3956
 4994TIP3    H214989   0.368   0.641   2.852  0.2469 -0.7332 -0.5553
 4995TIP3   OH214990   2.691   3.079   4.625 -0.5549 -0.2808 -0.6969
 4995TIP3    H114991   2.692   2.983   4.632  0.3364 -0.2718 -0.5807
 4995TIP3    H214992   2.711   3.097   4.533 -1.0836 -0.2121 -0.7981
 4996TIP3   OH214993   6.017   0.881   2.477 -0.8540  0.3313 -0.0805
 4996TIP3    H114994   6.072   0.955   2.503 -0.9863  0.7762 -1.0297
 4996TIP3    H214995   5.940   0.922   2.438 -0.7858 -0.3115 -0.8971
 4997TIP3   OH214996   3.001   4.595   0.286 -0.0854 -0.3021 -0.5933
 4997TIP3    H114997   2.953   4.592   0.369 -0.1189 -1.8137 -0.6453
 4997TIP3    H214998   2.965   4.671   0.240 -0.0936  0.5375  0.7498
 4998TIP3   OH214999   5.803   3.279   1.960  0.1378 -0.5865  0.0478
 4998TIP3    H115000   5.741   3.228   2.013 -0.2035 -2.0421 -1.6628
 4998TIP3    H215001   5.886   3.233   1.970  0.3158 -0.2619  0.0980
 4999TIP3   OH215002   5.199   0.050   4.773  0.0019  0.0597 -0.0948
 4999TIP3    H115003   5.205   0.093   4.688  0.1711  0.5764  0.1703
 4999TIP3    H215004   5.137   0.104   4.822  1.4238  0.9656  0.7920
 5000TIP3   OH215005   1.444   4.146   5.130 -0.2431  0.6255 -0.2445
 5000TIP3    H115006   1.493   4.228   5.122  0.7607 -0.1639 -3.0957
 5000TIP3    H215007   1.504   4.079   5.099 -1.5093 -1.0601  0.7687
 5001TIP3   OH215008   1.833   3.084   2.722  0.2103 -0.6858 -0.0854
 5001TIP3    H115009   1.840   2.998   2.762 -1.1911 -1.1941 -0.8435
 5001TIP3    H215010   1.774   3.071   2.648 -0.3011  0.9807 -0.0178
 5002TIP3   OH215011   2.352   2.115   2.921  0.0718 -0.0389 -0.4269
 5002TIP3    H115012   2.343   2.199   2.966  1.2664  0.5392 -1.1785
 5002TIP3    H215013   2.345   2.049   2.990  2.1928  0.8244  0.7143
 5003TIP3   OH215014   5.807   0.000   3.457 -0.5754 -0.2805  0.3932
 5003TIP3    H115015   5.823   0.084   3.415 -0.2362 -0.6186 -0.1669
 5003TIP3    H215016   5.712  -0.011   3.453 -0.5685 -0.1923 -0.0593
 5004TIP3   OH215017   5.345   5.143   0.681 -0.0067  0.2487  0.3222
 5004TIP3    H115018   5.435   5.126   0.709  0.2558  0.4072 -0.3949
 5004TIP3    H215019   5.311   5.057   0.659 -0.0457  0.1831  0.6377
 5005TIP3   OH215020   5.443   5.890   4.786 -0.3405 -0.3396  0.0367
 5005TIP3    H115021   5.428   5.802   4.753 -0.3512 -0.2443 -0.2135
 5005TIP3    H215022   5.374   5.903   4.851  1.0593 -1.4070  1.8366
 5006TIP3   OH215023   3.898   1.029   4.497 -0.1429 -0.4352  0.0704
 5006TIP3    H115024   3.807   1.046   4.519  0.3590  0.1849  1.9051
 5006TIP3    H215025   3.927   1.109   4.452 -0.8548 -1.2243 -1.9012
 5007TIP3   OH215026   4.002   4.808   1.328  0.4847  0.1825 -0.0770
 5007TIP3    H115027   3.956   4.775   1.406  1.0930  2.6164  1.4044
 5007TIP3    H215028   4.083   4.845   1.361  0.6365  1.5647 -1.8420
 5008TIP3   OH215029   3.642   0.115   2.236  0.6837  0.2855 -0.5535
 5008TIP3    H115030   3.603   0.084   2.318  1.4134 -3.3902 -1.4106
 5008TIP3    H215031   3.573   0.169   2.196 -1.1189 -0.8822  0.8039
 5009TIP3   OH215032   3.798   3.578   1.067 -0.1217 -0.3050 -0.3889
 5009TIP3    H115033   3.816   3.632   0.990 -1.0486 -0.4125 -0.6879
 5009TIP3    H215034   3.814   3.637   1.141 -1.6062  0.5633 -0.7182
 5010TIP3   OH215035   5.666   3.737   3.905 -0.1303 -0.3467  0.4234
 5010TIP3    H115036   5.721   3.677   3.854  1.6658  1.2765  0.3528
 5010TIP3    H215037   5.631   3.799   3.841  0.7620  0.6826  0.9051
 5011TIP3   OH215038   5.328   3.470   3.736 -0.2934 -0.7362  0.5659
 5011TIP3    H115039   5.259   3.472   3.803 -1.7454 -1.0689 -0.8333
 5011TIP3    H215040   5.351   3.378   3.729 -0.9384 -0.8617 -0.1123
 5012TIP3   OH215041   0.379   2.193   3.708  0.3124 -0.0335  0.3016
 5012TIP3    H115042   0.455   2.184   3.649 -0.4995  1.3969 -1.0445
 5012TIP3    H215043   0.367   2.105   3.744  1.0911 -0.8961 -1.3786
 5013TIP3   OH215044   6.218   1.389   0.536 -0.0655  0.1048 -0.1225
 5013TIP3    H115045   6.265   1.331   0.476  2.8648 -0.0798  2.0864
 5013TIP3    H215046   6.216   1.474   0.492 -0.4307 -0.6046 -1.5379
 5014TIP3   OH215047   4.110   0.596   0.254 -0.5376  0.4397  0.1655
 5014TIP3    H115048   4.133   0.665   0.316  0.5527  1.0162 -0.8504
 5014TIP3    H215049   4.032   0.556   0.291 -0.0548  0.9204  1.7933
 5015TIP3   OH215050   0.196   4.499   3.375 -0.3396 -0.1848 -0.3755
 5015TIP3    H115051   0.123   4.536   3.325 -0.1908  1.9059  0.8356
 5015TIP3    H215052   0.271   4.553   3.350 -0.4495  1.6157  2.7233
 5016TIP3   OH215053   2.135   5.147   1.819 -0.2531  0.0176 -0.1032
 5016TIP3    H115054   2.182   5.083   1.766 -1.3293  0.2829 -1.4491
 5016TIP3    H215055   2.043   5.128   1.802 -0.6680 -0.3545  2.2949
 5017TIP3   OH215056   5.055   0.313   1.744  0.0363 -0.2889  0.1231
 5017TIP3    H115057   5.030   0.360   1.823 -0.8867 -0.7452  0.1168
 5017TIP3    H215058   4.973   0.298   1.698  0.6572  0.8421 -1.4325
 5018TIP3   OH215059   2.754   2.533   2.055 -0.0656  0.1536  0.0618
 5018TIP3    H115060   2.735   2.452   2.007 -1.4976  0.2878  0.3358
 5018TIP3    H215061   2.772   2.598   1.987  1.7172 -0.5006 -0.1482
 5019TIP3   OH215062   0.616   0.413   1.239 -0.3740  0.4973 -0.1520
 5019TIP3    H115063   0.623   0.368   1.323  0.4078 -2.9450 -1.8625
 5019TIP3    H215064   0.537   0.467   1.246  0.6722  1.8145  3.3104
 5020TIP3   OH215065   2.946   1.162   2.405 -0.2048 -0.5496 -0.4508
 5020TIP3    H115066   2.951   1.137   2.497 -0.9249 -1.1235 -0.5510
 5020TIP3    H215067   2.857   1.198   2.395  0.1360  0.2276 -0.7526
 5021TIP3   OH215068   4.354   2.902   2.209  0.0517 -0.3216  0.1506
 5021TIP3    H115069   4.261   2.906   2.189 -0.1242 -2.1225  0.3711
 5021TIP3    H215070   4.395   2.873   2.127 -0.0782 -2.9590  0.9085
 5022TIP3   OH215071   2.665   3.204   3.823  0.4820 -0.0748  0.4474
 5022TIP3    H115072   2.570   3.193   3.819  0.3679  1.1884 -1.4112
 5022TIP3    H215073   2.699   3.138   3.763  0.6762  0.4133  0.0167
 5023TIP3   OH215074   1.855   5.853   1.919  0.2653 -0.1029  0.6840
 5023TIP3    H115075   1.885   5.904   1.843  0.4697 -1.1278  0.0656
 5023TIP3    H215076   1.918   5.875   1.988 -0.4509  1.5471  0.8553
 5024TIP3   OH215077   2.317   3.289   4.229 -0.2522 -0.3218  0.3670
 5024TIP3    H115078   2.379   3.266   4.160  0.1293 -0.5897  0.7957
 5024TIP3    H215079   2.363   3.354   4.282  0.0738 -1.2676  1.2870
 5025TIP3   OH215080   4.737   2.904   2.988  0.1512  0.5279  0.1430
 5025TIP3    H115081   4.755   2.812   2.969 -1.5480  0.4111 -1.2082
 5025TIP3    H215082   4.653   2.904   3.034  0.7886  1.3368  1.3675
 5026TIP3   OH215083   3.539   3.830   1.278  0.2510 -0.0908 -0.0133
 5026TIP3    H115084   3.463   3.773   1.268 -1.4982  1.9389  0.9461
 5026TIP3    H215085   3.554   3.866   1.191 -0.8901  0.6702  0.0892
 5027TIP3   OH215086   3.598   2.587   1.109  0.5324 -0.0263  0.2935
 5027TIP3    H115087   3.539   2.515   1.133 -1.1084  0.0531 -2.9112
 5027TIP3    H215088   3.652   2.601   1.187 -0.7021 -3.0868  1.8858
 5028TIP3   OH215089   0.693   3.555   2.748 -0.0096 -0.0428  0.0886
 5028TIP3    H115090   0.714   3.639   2.789 -0.0134  0.2663 -0.5286
 5028TIP3    H215091   0.712   3.490   2.815  0.4913  0.4172  0.4019
 5029TIP3   OH215092   5.832   5.198   1.209 -0.2652 -0.0339 -0.6912
 5029TIP3    H115093   5.912   5.226   1.252 -0.4402 -1.6118  0.7705
 5029TIP3    H215094   5.767   5.194   1.279 -0.8755 -1.5604 -1.2899
 5030TIP3   OH215095   4.044   2.558   0.328  0.1692  0.3026  0.3373
 5030TIP3    H115096   4.123   2.577   0.379  0.1690  0.4746  0.2730
 5030TIP3    H215097   3.979   2.620   0.360 -0.8613 -1.7709  2.5331
 5031TIP3   OH215098   4.980   1.967   3.559 -0.8165 -1.0280 -0.1079
 5031TIP3    H115099   4.950   1.967   3.650 -0.9369 -1.4780 -0.1408
 5031TIP3    H215100   4.914   1.914   3.513 -1.9200  0.9019 -0.8573
 5032TIP3   OH215101   5.244   1.908   1.701 -0.1162 -0.0912  0.5839
 5032TIP3    H115102   5.171   1.967   1.680  0.2768  0.9645  2.0178
 5032TIP3    H215103   5.272   1.873   1.616 -1.4894  0.4346 -0.1162
 5033TIP3   OH215104   2.700   1.278   1.859 -0.1519 -0.2091  0.0294
 5033TIP3    H115105   2.672   1.288   1.768 -2.3489  0.2043  0.6851
 5033TIP3    H215106   2.638   1.215   1.896  0.4616 -0.0729  1.3267
 5034TIP3   OH215107   4.245   5.472   3.284  0.2471 -0.2316 -0.6295
 5034TIP3    H115108   4.182   5.404   3.308  0.4091  0.3772  1.8274
 5034TIP3    H215109   4.193   5.552   3.277  0.5976  0.1493  0.7634
 5035TIP3   OH215110   1.024   5.804   2.720  0.3474  0.1938 -0.0925
 5035TIP3    H115111   0.958   5.786   2.787  0.1595 -0.1231 -0.3535
 5035TIP3    H215112   0.979   5.861   2.658  0.2713 -0.1299 -0.3403
 5036TIP3   OH215113   3.186   1.815   3.297 -0.6660 -0.2598  0.5895
 5036TIP3    H115114   3.225   1.901   3.290 -0.4650 -0.3387  0.7421
 5036TIP3    H215115   3.224   1.777   3.376  0.9473 -1.3504 -0.6411
 5037TIP3   OH215116   2.920   0.836   1.125 -0.2162 -0.1565  0.9148
 5037TIP3    H115117   2.968   0.794   1.054  0.0574 -1.4822  1.8474
 5037TIP3    H215118   2.840   0.868   1.084  0.1068 -0.5691 -0.0592
 5038TIP3   OH215119   3.648   5.350   3.540 -0.3836 -0.8864  0.0884
 5038TIP3    H115120   3.637   5.256   3.526  0.1697 -0.7218 -1.8508
 5038TIP3    H215121   3.559   5.386   3.533 -0.5982 -1.2629  0.8567
 5039TIP3   OH215122   4.641   2.344   3.841 -0.2486 -0.2533 -0.0291
 5039TIP3    H115123   4.609   2.289   3.770  0.1284  1.3149 -1.4782
 5039TIP3    H215124   4.735   2.354   3.823  0.4449 -1.9535  2.2063
 5040TIP3   OH215125   6.094   2.795   0.567 -0.0935 -0.0885 -0.1907
 5040TIP3    H115126   6.145   2.831   0.494  0.1838 -0.1276 -0.0167
 5040TIP3    H215127   6.143   2.718   0.595 -2.3898 -2.7271 -2.7768
 5041TIP3   OH215128   5.587   4.410   0.263  0.0582 -0.2095 -0.0930
 5041TIP3    H115129   5.518   4.433   0.200  0.8115 -0.8906 -1.1979
 5041TIP3    H215130   5.542   4.356   0.328 -0.8377  0.9149  0.2532
 5042TIP3   OH215131   4.384   0.939   1.411  0.1949  0.3957  0.8802
 5042TIP3    H115132   4.314   0.972   1.355  0.0061 -0.8369  0.3669
 5042TIP3    H215133   4.415   0.860   1.367  1.6484  0.6992  1.3050
 5043TIP3   OH215134   3.521   1.262   0.597 -0.3534 -0.2019 -0.0679
 5043TIP3    H115135   3.549   1.215   0.675  0.8215 -0.7949 -0.8040
 5043TIP3    H215136   3.603   1.294   0.558 -0.8793 -0.2559 -1.2526
 5044TIP3   OH215137   2.781   3.938   1.232 -0.1636 -0.0976  0.1680
 5044TIP3    H115138   2.787   3.880   1.308 -0.2533 -1.6196 -0.9676
 5044TIP3    H215139   2.689   3.936   1.206 -0.3367  1.2015  0.5757
 5045TIP3   OH215140   0.346   4.650   2.044  1.1657  0.1392 -0.6458
 5045TIP3    H115141   0.376   4.655   2.135 -0.5990  1.1371 -0.0623
 5045TIP3    H215142   0.263   4.603   2.050  1.1183  0.0693 -1.7750
 5046TIP3   OH215143   0.132   2.336   2.112  0.8178 -0.4211  0.2471
 5046TIP3    H115144   0.123   2.250   2.153  0.8066 -0.4603  0.1601
 5046TIP3    H215145   0.083   2.395   2.169 -1.3043 -0.8515 -1.0274
 5047TIP3   OH215146   1.744   4.250   2.913  0.1943  0.2816 -0.4918
 5047TIP3    H115147   1.762   4.158   2.927 -0.6290  0.1010 -0.5270
 5047TIP3    H215148   1.648   4.255   2.907  0.1940  1.1914 -0.0412
 5048TIP3   OH215149   5.642   1.901   3.617  0.0918  1.0418 -0.0753
 5048TIP3    H115150   5.600   1.968   3.671  0.1963  1.8719 -1.0049
 5048TIP3    H215151   5.648   1.824   3.674  0.2127  1.9038  1.0900
 5049TIP3   OH215152   2.280   1.465   1.941  0.0334  0.4397  0.4654
 5049TIP3    H115153   2.255   1.419   2.022 -1.2060 -1.0593 -0.6935
 5049TIP3    H215154   2.209   1.528   1.927 -0.7102 -0.5268 -0.3276
 5050TIP3   OH215155   1.704   0.780   1.126 -0.6174  0.7597  0.2645
 5050TIP3    H115156   1.717   0.773   1.220 -1.2866  1.1758  0.3928
 5050TIP3    H215157   1.752   0.859   1.101 -0.8008  0.8953  0.3340
 5051TIP3   OH215158   4.130   1.442   1.121 -0.5634  0.0647 -0.1737
 5051TIP3    H115159   4.152   1.409   1.208  0.1098 -0.9439 -0.7020
 5051TIP3    H215160   4.111   1.363   1.070 -2.3258  0.7215 -0.5873
 5052TIP3   OH215161   1.204   1.600   2.864  0.6792  0.5085  0.5495
 5052TIP3    H115162   1.175   1.683   2.826 -2.2137  0.0327  1.5170
 5052TIP3    H215163   1.273   1.569   2.805 -1.2798  1.4087 -2.3926
 5053TIP3   OH215164   1.057   4.165   2.978 -0.0440 -0.4921  0.7363
 5053TIP3    H115165   1.050   4.082   2.932 -1.2480 -0.9061  1.6204
 5053TIP3    H215166   1.096   4.225   2.915  0.7055 -1.6820  0.0406
 5054TIP3   OH215167   6.029   0.241   1.258 -0.2593  0.6870 -0.4388
 5054TIP3    H115168   5.999   0.186   1.186 -2.6489  0.6408  0.5330
 5054TIP3    H215169   5.958   0.239   1.322  1.1331  1.9845  1.2461
 5055TIP3   OH215170   4.106   2.031   1.478 -0.1953  0.5834  0.0883
 5055TIP3    H115171   4.034   1.967   1.477 -0.3261  0.7293 -0.2959
 5055TIP3    H215172   4.185   1.978   1.468 -0.3466  0.5244 -0.8721
 5056TIP3   OH215173   1.000   1.798   0.615 -0.0285  0.7014 -0.4632
 5056TIP3    H115174   1.082   1.760   0.582 -1.1649 -1.0093 -1.4860
 5056TIP3    H215175   1.002   1.889   0.586  1.6540  0.7852 -0.1688
 5057TIP3   OH215176   1.524   4.834   1.002 -0.5882 -0.1987  0.1006
 5057TIP3    H115177   1.554   4.821   1.092  1.4040  2.0218 -0.1284
 5057TIP3    H215178   1.435   4.869   1.011 -0.6129 -0.5119  1.1757
 5058TIP3   OH215179   3.596   5.498   4.333 -0.6903  0.6415  0.5483
 5058TIP3    H115180   3.556   5.425   4.286  0.3626 -0.2769  1.0437
 5058TIP3    H215181   3.590   5.572   4.272  0.3321 -0.4398 -0.9198
 5059TIP3   OH215182   4.320   0.816   3.663 -0.1465 -0.6630  0.3317
 5059TIP3    H115183   4.247   0.868   3.630  0.5218 -0.3775 -0.7519
 5059TIP3    H215184   4.342   0.757   3.590  0.9822 -0.4446  0.4773
 5060TIP3   OH215185   1.001   3.321   0.123  0.2112  0.0610 -0.5807
 5060TIP3    H115186   0.977   3.230   0.136  0.5844  0.1267  0.7154
 5060TIP3    H215187   0.941   3.353   0.056  0.7788 -1.4082 -1.8540
 5061TIP3   OH215188   1.647   5.511   2.370  0.0149  0.0176 -0.0217
 5061TIP3    H115189   1.742   5.521   2.369 -0.1368  1.6864 -0.6770
 5061TIP3    H215190   1.620   5.533   2.281 -0.9880 -0.6553  0.0983
 5062TIP3   OH215191   4.743   1.685   4.577 -0.9477  0.2149  0.0192
 5062TIP3    H115192   4.683   1.616   4.605 -0.9210  0.3521  0.4222
 5062TIP3    H215193   4.746   1.746   4.651  0.8044 -0.5390  0.6261
 5063TIP3   OH215194   4.953   2.957   2.760 -0.3669  0.3265  0.4035
 5063TIP3    H115195   4.873   2.934   2.808 -1.6793 -0.3743 -1.9862
 5063TIP3    H215196   4.960   3.052   2.770 -0.5893  0.2162  1.9082
 5064TIP3   OH215197   6.035   5.353   0.632  0.0418  0.0838  0.2393
 5064TIP3    H115198   6.074   5.281   0.681  0.1727 -0.6132 -0.8564
 5064TIP3    H215199   6.108   5.392   0.584  0.0330  1.1788  1.0741
 5065TIP3   OH215200   1.405   1.718   0.650 -0.1844  0.4387 -0.4826
 5065TIP3    H115201   1.386   1.794   0.705 -0.0700 -0.6888  1.1951
 5065TIP3    H215202   1.325   1.706   0.598 -0.8700  0.6779  0.4878
 5066TIP3   OH215203   2.315   5.398   1.368  0.1752  0.5376  0.2818
 5066TIP3    H115204   2.277   5.480   1.337 -0.8151  0.3323  0.8884
 5066TIP3    H215205   2.244   5.356   1.418  0.2035 -1.3325 -1.1464
 5067TIP3   OH215206   0.625   0.911   3.390 -0.5585  0.2217  0.1845
 5067TIP3    H115207   0.563   0.849   3.351  1.1251 -0.7951 -0.9731
 5067TIP3    H215208   0.675   0.859   3.453 -2.2260  1.5127  2.7906
 5068TIP3   OH215209   1.457   0.498   0.725 -0.9705 -0.3195  0.2391
 5068TIP3    H115210   1.513   0.506   0.802  0.9828 -0.6499 -1.0758
 5068TIP3    H215211   1.403   0.421   0.743  0.5591 -1.3468  0.6651
 5069TIP3   OH215212   3.373   1.777   4.364 -0.1000 -0.0766 -0.3190
 5069TIP3    H115213   3.448   1.777   4.423  1.9542 -1.9637 -2.6876
 5069TIP3    H215214   3.301   1.741   4.416  1.9413 -2.9408  0.7736
 5070TIP3   OH215215   2.644   1.470   4.242  0.1112  0.6070  0.0243
 5070TIP3    H115216   2.719   1.418   4.212  0.6799 -0.4828  2.9945
 5070TIP3    H215217   2.574   1.407   4.253  0.3330  0.6540  2.1360
 5071TIP3   OH215218   2.146   1.490   0.855 -0.3197  0.4867 -0.3828
 5071TIP3    H115219   2.205   1.467   0.927 -2.4090  0.6721  1.4878
 5071TIP3    H215220   2.113   1.577   0.877 -3.8168 -0.9005  0.4983
 5072TIP3   OH215221   2.377   4.317   4.840 -0.5187  0.4434 -0.1569
 5072TIP3    H115222   2.372   4.225   4.865  0.5864  0.6497  0.9305
 5072TIP3    H215223   2.443   4.354   4.899 -0.8557  1.9026 -0.6587
 5073TIP3   OH215224   1.760   0.412   2.409 -0.4987 -0.2216 -0.2261
 5073TIP3    H115225   1.794   0.329   2.443  1.4008  0.2205 -0.8997
 5073TIP3    H215226   1.715   0.452   2.483  1.5886 -0.2940  1.1643
 5074TIP3   OH215227   4.870   4.900   2.397 -0.2596 -0.2153  0.5709
 5074TIP3    H115228   4.904   4.981   2.435 -0.6840 -0.2605  1.0638
 5074TIP3    H215229   4.841   4.849   2.473  0.2467 -0.9455  0.2868
 5075TIP3   OH215230   2.564   3.240   0.458  0.3997 -0.4908 -0.2194
 5075TIP3    H115231   2.528   3.299   0.392 -0.6444 -0.7718  0.0813
 5075TIP3    H215232   2.622   3.294   0.511 -0.7421  0.3433  0.2188
 5076TIP3   OH215233   0.453   3.710   3.815 -0.2879  0.2692  0.2817
 5076TIP3    H115234   0.440   3.767   3.891  0.3236 -0.7910  1.2102
 5076TIP3    H215235   0.396   3.635   3.830 -1.1926  0.6742 -1.0010
 5077TIP3   OH215236   2.655   2.611   4.795 -0.0026  0.1042 -0.4303
 5077TIP3    H115237   2.576   2.661   4.814  0.7060  0.4390  1.8958
 5077TIP3    H215238   2.659   2.544   4.863  1.5529 -0.0984 -0.6677
 5078TIP3   OH215239   2.490   3.854   0.980  0.5059  0.3884  0.1456
 5078TIP3    H115240   2.477   3.949   0.975  1.1500  0.4841  0.2589
 5078TIP3    H215241   2.522   3.830   0.893 -0.9595  0.0576 -0.3342
 5079TIP3   OH215242   5.836   1.937   4.617 -0.0258 -0.0073  0.6611
 5079TIP3    H115243   5.893   1.928   4.694  0.9101 -0.8466 -0.1019
 5079TIP3    H215244   5.824   2.031   4.606  0.9921  0.1689  1.0029
 5080TIP3   OH215245   4.142   4.268   1.215 -0.5212 -0.1636  0.0158
 5080TIP3    H115246   4.225   4.251   1.170 -0.6434  1.3773 -0.8730
 5080TIP3    H215247   4.165   4.269   1.308  0.1575 -1.1949 -0.1235
 5081TIP3   OH215248   0.881   5.082   1.696  0.3829 -0.7047 -0.1264
 5081TIP3    H115249   0.930   5.145   1.750  2.0980 -3.1514  1.3686
 5081TIP3    H215250   0.817   5.136   1.649  1.5572  2.0962  1.2351
 5082TIP3   OH215251   2.158   4.591   1.517  0.8217  0.3028 -0.3749
 5082TIP3    H115252   2.107   4.664   1.480  0.0146 -0.3987 -0.6882
 5082TIP3    H215253   2.105   4.561   1.592 -0.2737 -1.6712 -1.8331
 5083TIP3   OH215254   2.333   4.842   4.274  0.0578 -0.3716  0.3171
 5083TIP3    H115255   2.420   4.803   4.266 -0.4964 -1.3420 -1.4979
 5083TIP3    H215256   2.273   4.767   4.276 -0.8898  0.3177 -1.0062
 5084TIP3   OH215257   5.978   0.231   1.732 -0.3009  0.2357 -0.4679
 5084TIP3    H115258   5.965   0.179   1.812  0.2996 -2.1917 -1.8411
 5084TIP3    H215259   6.069   0.261   1.738 -0.0322 -0.5275 -0.5171
 5085TIP3   OH215260   1.146   4.477   3.753  0.0755  0.3801  0.0038
 5085TIP3    H115261   1.070   4.531   3.734 -1.5777 -1.4449  1.0265
 5085TIP3    H215262   1.116   4.417   3.821  2.6826  0.0665  0.9738
 5086TIP3   OH215263   0.410  -0.029   2.214 -0.3531 -0.0910 -0.1608
 5086TIP3    H115264   0.391   0.062   2.236  1.2587 -0.4211  3.1667
 5086TIP3    H215265   0.468  -0.024   2.138  0.0792  1.6787  0.2446
 5087TIP3   OH215266   6.306   5.910   1.855  0.2867  0.1788 -0.4408
 5087TIP3    H115267   6.349   5.870   1.780  2.5330  0.1408  0.7687
 5087TIP3    H215268   6.222   5.939   1.822 -1.1488 -4.5065 -1.7078
 5088TIP3   OH215269   0.996   4.480   2.847  0.0507 -0.1761  0.2268
 5088TIP3    H115270   1.028   4.471   2.757 -3.1359  1.0246 -1.1756
 5088TIP3    H215271   1.072   4.512   2.896  1.9762 -1.1644 -1.9365
 5089TIP3   OH215272   5.168   4.784   0.313 -0.5064 -0.5051 -0.0076
 5089TIP3    H115273   5.177   4.797   0.219  0.8095 -1.0618  0.0241
 5089TIP3    H215274   5.105   4.713   0.322 -0.7833 -0.3199 -0.4557
 5090TIP3   OH215275   0.204   0.053   3.799  0.1805  0.5175 -0.6111
 5090TIP3    H115276   0.114   0.050   3.767  0.2873 -0.7028 -0.8322
 5090TIP3    H215277   0.257   0.032   3.723  0.5811  0.0432 -0.2038
 5091TIP3   OH215278   4.311   5.060   3.494 -0.0839  0.0497 -0.5557
 5091TIP3    H115279   4.383   5.123   3.490 -0.5218  0.5821 -0.0855
 5091TIP3    H215280   4.290   5.042   3.402  1.9214 -1.6032 -0.7747
 5092TIP3   OH215281   5.517   5.691   4.392 -0.6025 -0.2286  0.1177
 5092TIP3    H115282   5.602   5.734   4.381 -1.1922  1.6027  2.1130
 5092TIP3    H215283   5.454   5.753   4.357 -1.2510 -0.9194  0.0476
 5093TIP3   OH215284   5.261   5.905   3.501 -0.2838  0.1085 -0.2212
 5093TIP3    H115285   5.356   5.902   3.507 -0.3457 -1.4514  0.7037
 5093TIP3    H215286   5.234   5.953   3.580 -0.2804  0.2567 -0.3096
 5094TIP3   OH215287   1.536   0.033   1.756  0.1764 -0.2371 -0.0467
 5094TIP3    H115288   1.471  -0.036   1.773  1.5858 -1.6335 -0.1339
 5094TIP3    H215289   1.484   0.113   1.751 -1.3856 -1.0962  1.2775
 5095TIP3   OH215290   4.261   3.145   2.606 -0.3504 -0.0919 -0.0264
 5095TIP3    H115291   4.313   3.078   2.649 -1.0363 -0.2361  0.5962
 5095TIP3    H215292   4.171   3.110   2.607 -0.4714  0.1472 -1.0771
 5096TIP3   OH215293   1.161   1.352   0.468  0.5175  0.0931  0.3544
 5096TIP3    H115294   1.164   1.429   0.525  1.0468 -0.7147  1.4683
 5096TIP3    H215295   1.153   1.387   0.380 -2.9093  1.3591  1.0436
 5097TIP3   OH215296   1.926   5.292   2.816 -0.4490  0.4284  0.2271
 5097TIP3    H115297   1.900   5.255   2.732 -0.5834  0.0592  0.4298
 5097TIP3    H215298   2.013   5.255   2.833 -1.0086 -0.6439  0.9217
 5098TIP3   OH215299   2.417   5.135   3.766  0.2604  0.0943 -0.2343
 5098TIP3    H115300   2.481   5.077   3.808 -1.0818 -1.3161 -0.0377
 5098TIP3    H215301   2.439   5.222   3.799  1.0163 -0.5881  1.1710
 5099TIP3   OH215302   2.597   0.081   0.470  0.6617 -0.1406  0.0840
 5099TIP3    H115303   2.541   0.091   0.393  3.1898  0.6248 -1.8149
 5099TIP3    H215304   2.550   0.125   0.540 -1.6301 -0.6345 -1.0326
 5100TIP3   OH215305   1.796   2.320   1.639  0.3761 -0.2179  0.4301
 5100TIP3    H115306   1.842   2.340   1.557 -1.3426  2.0704 -0.0834
 5100TIP3    H215307   1.810   2.396   1.694 -1.8052  0.0861  0.6664
 5101TIP3   OH215308   3.510   5.661   2.656 -0.0745  0.2559  0.1883
 5101TIP3    H115309   3.555   5.744   2.644  0.8579 -0.0337  1.3972
 5101TIP3    H215310   3.580   5.599   2.678 -1.0493 -0.1104  2.6104
 5102TIP3   OH215311   5.544   4.239   2.970  0.5883 -0.5591  0.8813
 5102TIP3    H115312   5.538   4.238   3.065  1.0654 -3.3484  0.9672
 5102TIP3    H215313   5.605   4.168   2.949 -0.0856 -0.5157 -1.5418
 5103TIP3   OH215314   0.305   3.481   3.573  0.1218 -0.3231 -0.0431
 5103TIP3    H115315   0.323   3.466   3.666 -0.1467 -1.3001 -0.1465
 5103TIP3    H215316   0.335   3.571   3.558  1.0502 -0.4813  0.7610
 5104TIP3   OH215317   3.085   4.122   2.362 -0.5893 -0.2878  0.0715
 5104TIP3    H115318   3.139   4.067   2.420  0.9256  0.3200 -0.7286
 5104TIP3    H215319   3.066   4.066   2.287 -1.3333 -0.5879  0.4673
 5105TIP3   OH215320   5.700   0.157   3.071  0.0457  0.4028 -0.3172
 5105TIP3    H115321   5.783   0.158   3.118 -0.8283  0.2443  1.2878
 5105TIP3    H215322   5.669   0.067   3.078 -1.3493  0.9473  1.1561
 5106TIP3   OH215323   3.029   3.386   4.841 -0.3498  0.2211 -0.3608
 5106TIP3    H115324   3.057   3.387   4.750  1.6783  1.8675  0.1986
 5106TIP3    H215325   2.966   3.314   4.846 -0.7594  0.2749 -3.0946
 5107TIP3   OH215326   0.743   3.912   5.128 -0.4095 -0.0929 -0.2466
 5107TIP3    H115327   0.766   3.957   5.210  1.1286 -1.8449  0.3711
 5107TIP3    H215328   0.822   3.920   5.074 -0.3902 -1.2729 -0.4274
 5108TIP3   OH215329   3.027   3.849   0.254 -0.1616  0.0411  0.3246
 5108TIP3    H115330   3.119   3.857   0.226  0.1558  0.2722  1.3836
 5108TIP3    H215331   3.031   3.795   0.333 -0.8759  0.5456  0.7108
 5109TIP3   OH215332   3.177   2.827   3.770 -0.1663 -0.3836 -0.0182
 5109TIP3    H115333   3.197   2.887   3.841  0.6330  0.9269 -1.3045
 5109TIP3    H215334   3.257   2.823   3.718 -1.1223 -0.2732 -1.5725
 5110TIP3   OH215335   6.108   0.699   3.384 -1.0609 -0.2998 -0.0676
 5110TIP3    H115336   6.182   0.724   3.440 -0.7347  1.3478 -1.1715
 5110TIP3    H215337   6.092   0.607   3.406  1.0721 -0.6003  0.4708
 5111TIP3   OH215338   1.564   1.588   2.379  0.1372  0.0380 -0.2082
 5111TIP3    H115339   1.515   1.602   2.298  0.3560 -0.7731 -0.4870
 5111TIP3    H215340   1.535   1.502   2.410  1.9044 -0.7809 -0.7535
 5112TIP3   OH215341   0.216   0.755   4.356 -0.5070 -1.0239 -0.2784
 5112TIP3    H115342   0.237   0.740   4.449  1.4045  0.8659 -0.3315
 5112TIP3    H215343   0.167   0.837   4.355  1.7075  0.3825 -1.0652
 5113TIP3   OH215344   5.615   4.290   4.826 -0.0277  0.1844  0.3186
 5113TIP3    H115345   5.687   4.299   4.763  0.3306 -0.3155  0.6470
 5113TIP3    H215346   5.537   4.316   4.778  0.1516 -0.7649 -0.5140
 5114TIP3   OH215347   0.344   0.956   0.456 -0.0935 -0.0031  0.1861
 5114TIP3    H115348   0.302   0.898   0.520 -1.0109 -2.0261 -2.1152
 5114TIP3    H215349   0.438   0.940   0.467 -0.2298 -0.2709  1.0537
 5115TIP3   OH215350   1.123   1.803   2.223 -0.1418  0.2033 -0.0488
 5115TIP3    H115351   1.214   1.819   2.244 -0.6852  0.8897  1.9496
 5115TIP3    H215352   1.084   1.890   2.213 -0.7346 -0.0668 -0.1612
 5116TIP3   OH215353   1.298   5.084   0.906  0.8956 -0.6517 -0.5316
 5116TIP3    H115354   1.326   5.042   0.824  1.4514 -0.7684 -0.2876
 5116TIP3    H215355   1.368   5.145   0.926  0.5780 -0.3513 -0.3385
 5117TIP3   OH215356   5.037   2.090   1.616  0.6603  0.4245  0.2211
 5117TIP3    H115357   5.069   2.119   1.531  0.2203 -0.3711 -0.2263
 5117TIP3    H215358   4.968   2.153   1.639  0.3783  0.3002 -0.2858
 5118TIP3   OH215359   1.283   3.928   1.741 -0.3802  0.1861 -0.5699
 5118TIP3    H115360   1.330   3.955   1.662  1.9796  1.9557  1.2407
 5118TIP3    H215361   1.193   3.956   1.727  0.4120  2.3609 -1.8859
 5119TIP3   OH215362   0.369   5.983   1.316  0.1919 -0.3750 -0.3972
 5119TIP3    H115363   0.368   5.892   1.287  1.8783 -0.7311  0.5168
 5119TIP3    H215364   0.340   5.980   1.407  0.5931 -0.0429 -0.2538
 5120TIP3   OH215365   5.136   5.573   0.582  0.2420  0.6803  0.2116
 5120TIP3    H115366   5.207   5.513   0.603  0.1080 -0.4449 -2.2874
 5120TIP3    H215367   5.056   5.520   0.588 -0.0749  1.1092 -0.1368
 5121TIP3   OH215368   6.201   4.457   1.990 -0.0047 -0.1077  0.0022
 5121TIP3    H115369   6.148   4.516   2.043  0.5637 -0.0388  0.5138
 5121TIP3    H215370   6.162   4.371   2.003 -0.8729  0.1521 -0.7947
 5122TIP3   OH215371   2.634   5.399   4.619  0.6271 -0.4680 -0.3081
 5122TIP3    H115372   2.705   5.463   4.610 -0.4837  0.7010 -1.1090
 5122TIP3    H215373   2.676   5.314   4.601  1.2229  0.4920 -4.4128
 5123TIP3   OH215374   4.710   3.600   1.592 -0.1611 -0.3350 -0.2010
 5123TIP3    H115375   4.801   3.625   1.582 -0.1432 -0.6820 -0.9838
 5123TIP3    H215376   4.664   3.648   1.523 -0.6099  0.0071  0.3232
 5124TIP3   OH215377   0.822   5.846   0.680 -0.8951 -0.0279  0.0904
 5124TIP3    H115378   0.807   5.903   0.605 -0.9674  1.2679  1.0512
 5124TIP3    H215379   0.790   5.896   0.755 -1.2752 -1.4813  0.9403
 5125TIP3   OH215380   3.942   5.841   0.071  0.2913  0.0416  0.2261
 5125TIP3    H115381   3.861   5.808   0.111 -0.2188  0.1180 -0.7075
 5125TIP3    H215382   3.961   5.778   0.002  1.6091 -0.5358  1.0857
 5126TIP3   OH215383   1.149   2.134   4.022  0.1136  0.3417  0.1741
 5126TIP3    H115384   1.097   2.132   4.102  1.5329  1.1092  1.1642
 5126TIP3    H215385   1.193   2.219   4.023 -0.1229  0.5268 -1.6297
 5127TIP3   OH215386   0.580   3.268   4.337 -0.2848 -0.3895  0.2165
 5127TIP3    H115387   0.603   3.266   4.244  0.2176  1.9583  0.2442
 5127TIP3    H215388   0.648   3.321   4.378 -1.7740  0.5893  1.5344
 5128TIP3   OH215389   2.334   5.260   0.408  0.3102  0.1127 -0.1302
 5128TIP3    H115390   2.309   5.350   0.429 -0.0899  0.1193 -0.6153
 5128TIP3    H215391   2.271   5.233   0.341 -0.6332 -1.1018  1.1966
 5129TIP3   OH215392   5.500   2.342   1.941 -0.2307  0.4571 -0.3778
 5129TIP3    H115393   5.525   2.433   1.958  2.4339  0.1535 -2.1086
 5129TIP3    H215394   5.447   2.347   1.861  0.1317  0.4749 -0.6190
 5130TIP3   OH215395   5.822   4.536   2.825  0.2567 -0.4498 -0.0303
 5130TIP3    H115396   5.894   4.554   2.885 -0.7010  0.4127  0.8753
 5130TIP3    H215397   5.865   4.499   2.747  1.6682  0.0208  0.4982
 5131TIP3   OH215398   0.022   1.694   2.653  0.0610  0.4883 -0.1407
 5131TIP3    H115399  -0.058   1.712   2.702 -0.2690  1.2507 -0.9338
 5131TIP3    H215400   0.077   1.770   2.668  1.8869 -1.2097  2.7275
 5132TIP3   OH215401   3.951   3.065   1.085 -0.1398 -0.4398  0.1973
 5132TIP3    H115402   3.991   2.984   1.053 -0.8902 -0.3156 -1.1466
 5132TIP3    H215403   3.922   3.044   1.174 -0.1868 -1.6101 -0.0750
 5133TIP3   OH215404   5.680   2.707   0.025  0.1067 -0.6379  0.3493
 5133TIP3    H115405   5.606   2.730   0.080 -0.6361 -0.0563 -0.8409
 5133TIP3    H215406   5.674   2.612   0.013 -1.0206 -0.4872 -0.4812
 5134TIP3   OH215407   2.226   1.062   0.659  0.4522 -0.0890  0.0901
 5134TIP3    H115408   2.320   1.057   0.678  0.3354 -0.1740  0.6530
 5134TIP3    H215409   2.193   0.974   0.675  0.6101 -0.5900 -2.0066
 5135TIP3   OH215410   0.311   0.744   3.889 -0.0368 -0.9275  0.6386
 5135TIP3    H115411   0.338   0.664   3.933  1.7457 -1.1543 -0.7720
 5135TIP3    H215412   0.387   0.802   3.897 -0.0288 -0.6273 -1.2601
 5136TIP3   OH215413   1.013   5.453   1.392 -0.2233  0.4599 -0.2195
 5136TIP3    H115414   1.091   5.487   1.437  0.3204 -0.8804 -0.1086
 5136TIP3    H215415   1.047   5.402   1.319 -0.8401 -1.9935  1.0829
 5137TIP3   OH215416   4.552   1.188   4.029 -0.3446  0.1158  0.3014
 5137TIP3    H115417   4.639   1.155   4.007  0.0079  0.3121  1.3375
 5137TIP3    H215418   4.565   1.281   4.047 -1.1777  0.6970 -1.7374
 5138TIP3   OH215419   4.961   5.707   1.239 -0.5703  0.2594  0.1133
 5138TIP3    H115420   4.945   5.764   1.314  1.5909 -0.0201  0.8464
 5138TIP3    H215421   4.881   5.714   1.186 -2.7616 -0.5873  3.0631
 5139TIP3   OH215422   1.163   4.195   1.761  0.0479 -0.5819 -0.6426
 5139TIP3    H115423   1.107   4.208   1.685  1.1880 -1.4023 -1.6536
 5139TIP3    H215424   1.126   4.253   1.828 -0.3544  0.9823 -2.1457
 5140TIP3   OH215425   1.963   4.942   0.288 -0.2380  0.3040 -0.2690
 5140TIP3    H115426   1.917   4.958   0.206 -0.1316  0.4355 -0.3018
 5140TIP3    H215427   1.894   4.916   0.349 -0.0706 -2.0367 -0.9804
 5141TIP3   OH215428   3.105   2.069   4.285  0.5160  0.5295 -0.7662
 5141TIP3    H115429   3.077   2.072   4.194 -1.4185 -0.3281 -0.2486
 5141TIP3    H215430   3.025   2.048   4.334  1.5594  0.7162  1.1012
 5142TIP3   OH215431   0.591   5.743   3.773  0.0975 -0.5312  0.0714
 5142TIP3    H115432   0.581   5.741   3.868  0.3419 -1.1970  0.0897
 5142TIP3    H215433   0.509   5.708   3.740 -0.2381  0.2865  0.0088
 5143TIP3   OH215434   0.895   5.605   1.002 -0.4557 -0.0120 -0.1247
 5143TIP3    H115435   0.908   5.668   1.073 -0.7191  0.0786 -0.1545
 5143TIP3    H215436   0.979   5.604   0.955 -0.5145  0.4703 -0.2467
 5144TIP3   OH215437   4.966   5.303   1.485  0.2398 -0.8935  0.0887
 5144TIP3    H115438   4.939   5.390   1.456  0.5875 -0.4189  1.1424
 5144TIP3    H215439   5.028   5.274   1.418 -0.1549 -0.4899 -0.4611
 5145TIP3   OH215440   0.025   4.645   1.298  0.0806 -0.2835  0.2245
 5145TIP3    H115441  -0.026   4.569   1.326  0.8756 -0.7863  0.3432
 5145TIP3    H215442   0.107   4.638   1.347  0.1290  0.7038  0.2976
 5146TIP3   OH215443   4.430   5.839   4.020  0.2453  0.0098 -0.2498
 5146TIP3    H115444   4.457   5.910   3.961  0.3881  0.2172  0.0648
 5146TIP3    H215445   4.334   5.842   4.019  0.1873 -0.9996 -1.7027
 5147TIP3   OH215446   0.968   1.348   2.377 -0.0826 -0.1953 -0.6796
 5147TIP3    H115447   0.924   1.403   2.442  0.9567 -0.8792  0.6802
 5147TIP3    H215448   0.965   1.398   2.296  0.7973  1.8707  0.4921
 5148TIP3   OH215449   5.692   5.599   1.259 -0.7530 -0.5124 -0.0962
 5148TIP3    H115450   5.708   5.609   1.352  0.1973 -0.5758 -0.2463
 5148TIP3    H215451   5.612   5.650   1.243  0.6156  1.8559  0.2510
 5149TIP3   OH215452   3.190   5.257   2.290  0.4975 -0.0580 -0.1572
 5149TIP3    H115453   3.224   5.174   2.323  0.8548 -0.2638 -1.0241
 5149TIP3    H215454   3.107   5.269   2.336  0.8055 -0.5116  0.5402
 5150TIP3   OH215455   0.544   3.378   2.369 -0.3853 -0.4246 -0.6501
 5150TIP3    H115456   0.593   3.432   2.306 -0.2525 -0.5688 -0.6709
 5150TIP3    H215457   0.509   3.441   2.432 -0.3849 -0.2951 -0.7776
 5151TIP3   OH215458   4.210   3.103   4.008 -0.1070 -0.1294 -0.2917
 5151TIP3    H115459   4.165   3.133   3.929 -0.2626  0.3860 -0.0107
 5151TIP3    H215460   4.300   3.135   3.997 -0.7049  2.1586  0.8763
 5152TIP3   OH215461   4.553   3.525   5.187  0.1622  0.3388 -0.1680
 5152TIP3    H115462   4.583   3.584   5.118 -0.3829  0.8914  0.0524
 5152TIP3    H215463   4.457   3.535   5.187  0.2023  0.9138  1.1468
 5153TIP3   OH215464   2.114   4.395   4.850 -0.0523  0.3112 -0.4241
 5153TIP3    H115465   2.094   4.415   4.758 -1.4225 -0.4270 -0.3018
 5153TIP3    H215466   2.208   4.378   4.850  0.2306  1.6289 -1.4422
 5154TIP3   OH215467   2.521   1.965   4.721  0.0123  1.0583 -0.1340
 5154TIP3    H115468   2.558   1.906   4.787  1.3917 -0.6529 -2.2885
 5154TIP3    H215469   2.493   2.042   4.770 -0.3390 -0.6725  2.6203
 5155TIP3   OH215470   0.954   5.310   2.357  0.4057 -0.1257  0.0841
 5155TIP3    H115471   0.903   5.233   2.331  0.3367 -0.0550  0.0094
 5155TIP3    H215472   0.891   5.382   2.353  0.1316 -0.2618  1.4197
 5156TIP3   OH215473   4.976   5.371   3.984 -0.0340  0.5348  0.0729
 5156TIP3    H115474   4.909   5.331   3.928  0.5445  0.8959 -0.9033
 5156TIP3    H215475   5.049   5.309   3.981 -0.2116  0.2813  0.9024
 5157TIP3   OH215476   3.819   5.194   0.964 -0.1269  0.1963 -0.3094
 5157TIP3    H115477   3.734   5.228   0.990  0.6613  1.5987  0.4835
 5157TIP3    H215478   3.845   5.137   1.036 -0.7321 -0.9330 -0.9347
 5158TIP3   OH215479   1.570   0.421   2.618 -0.4629  0.1554 -0.0574
 5158TIP3    H115480   1.490   0.472   2.602 -0.6248  0.9025  2.6294
 5158TIP3    H215481   1.545   0.331   2.596 -1.9255  0.4530  0.2299
 5159TIP3   OH215482   5.326   4.192   1.565 -0.1223 -0.3485 -0.1465
 5159TIP3    H115483   5.244   4.203   1.613  0.1787  0.2228  0.2597
 5159TIP3    H215484   5.387   4.253   1.608  0.8098 -1.5033  0.2448
 5160TIP3   OH215485   0.826   2.696   2.105 -0.0206 -0.1276  0.3879
 5160TIP3    H115486   0.774   2.777   2.099  1.2713  0.6345 -2.3755
 5160TIP3    H215487   0.915   2.726   2.119 -0.0103 -1.3906  4.1324
 5161TIP3   OH215488   5.123   3.297   1.572 -0.4896 -0.4704  0.2588
 5161TIP3    H115489   5.173   3.262   1.498 -2.2169 -0.5338 -0.9226
 5161TIP3    H215490   5.071   3.368   1.535  0.4535  1.2057  1.9434
 5162TIP3   OH215491   5.391   0.221   1.153 -0.3089  0.8454  0.4114
 5162TIP3    H115492   5.471   0.254   1.112  0.2508  0.8385  1.4672
 5162TIP3    H215493   5.321   0.251   1.096  0.4803  0.2934 -0.8874
 5163TIP3   OH215494   3.234   2.464   2.899  0.3209  0.4130 -0.4045
 5163TIP3    H115495   3.193   2.547   2.921  1.7942  0.2566  3.8118
 5163TIP3    H215496   3.328   2.478   2.912  0.6728 -1.7242 -0.1817
 5164TIP3   OH215497   2.387   5.813   3.966 -0.1293  0.3455 -0.2496
 5164TIP3    H115498   2.337   5.854   3.895  0.7335 -0.5091 -1.3930
 5164TIP3    H215499   2.446   5.882   3.996  0.1569  0.4542 -1.0236
 5165TIP3   OH215500   6.077   1.784   1.585 -0.2065  0.3675 -0.5424
 5165TIP3    H115501   6.013   1.713   1.584  0.1399  0.0540 -0.7395
 5165TIP3    H215502   6.093   1.804   1.493 -0.0055  0.4263 -0.4956
 5166TIP3   OH215503   2.455   4.084   2.592 -0.8281  0.8088  0.2940
 5166TIP3    H115504   2.548   4.106   2.587  0.2805 -2.8040  1.7779
 5166TIP3    H215505   2.426   4.120   2.676  0.5448 -1.7688  1.9879
 5167TIP3   OH215506   2.770   4.170   3.457  0.2863 -0.6769 -0.2764
 5167TIP3    H115507   2.777   4.101   3.523  0.1161 -1.1569 -0.7517
 5167TIP3    H215508   2.823   4.243   3.491 -0.3377 -0.6679  0.7051
 5168TIP3   OH215509   1.540   2.982   3.020 -0.4774 -0.0109  0.0265
 5168TIP3    H115510   1.484   2.917   2.977 -0.1273  0.7522 -1.6536
 5168TIP3    H215511   1.612   2.932   3.058  0.0307 -0.5836 -1.6416
 5169TIP3   OH215512   4.142   3.977   1.249 -0.4558  0.1320  1.1409
 5169TIP3    H115513   4.228   4.019   1.256 -1.1166  1.6407  0.6570
 5169TIP3    H215514   4.143   3.935   1.163 -0.4180  0.7168  0.8462
 5170TIP3   OH215515   0.338   3.149   4.106  0.3433 -0.3997  0.0801
 5170TIP3    H115516   0.367   3.070   4.151  1.4052  1.4417  2.8632
 5170TIP3    H215517   0.379   3.143   4.019  2.2054 -1.8771  0.9846
 5171TIP3   OH215518   2.659   1.648   2.481 -0.5312  0.5886 -0.0548
 5171TIP3    H115519   2.728   1.708   2.453  0.2736  0.0530  0.7131
 5171TIP3    H215520   2.667   1.646   2.576  0.1843 -1.5489 -0.1092
 5172TIP3   OH215521   3.126   0.650   3.861  0.3103 -0.0654 -0.1483
 5172TIP3    H115522   3.102   0.565   3.824 -0.0030  0.4844 -1.2808
 5172TIP3    H215523   3.218   0.642   3.884 -0.3237 -1.5340  2.2535
 5173TIP3   OH215524   5.252   0.708   0.675 -0.1036 -0.0663 -0.1311
 5173TIP3    H115525   5.273   0.618   0.700 -0.9143 -0.2995 -0.2456
 5173TIP3    H215526   5.157   0.707   0.661 -0.3202  1.1083  1.0820
 5174TIP3   OH215527   2.452   5.244   2.847 -0.0340  0.1284 -0.4511
 5174TIP3    H115528   2.488   5.170   2.896 -0.2837  0.2995 -0.0091
 5174TIP3    H215529   2.438   5.209   2.759 -0.2762 -0.3898 -0.2130
 5175TIP3   OH215530   3.161   1.481   2.542 -0.2026  0.1995  0.3641
 5175TIP3    H115531   3.214   1.439   2.610 -1.8638 -1.3840  0.7674
 5175TIP3    H215532   3.167   1.421   2.467  0.7149  1.3745 -0.5402
 5176TIP3   OH215533   6.113   1.381   2.387  0.3572  0.4907  0.2222
 5176TIP3    H115534   6.185   1.396   2.448 -0.5261  2.2934  0.9309
 5176TIP3    H215535   6.039   1.429   2.426 -0.7316  0.1785 -1.3579
 5177TIP3   OH215536   6.084   0.676   4.925 -0.1178  0.0419 -0.3875
 5177TIP3    H115537   6.164   0.641   4.964 -0.2501  0.6705  0.4917
 5177TIP3    H215538   6.113   0.724   4.848  0.2438 -0.5578 -0.6256
 5178TIP3   OH215539   4.906   3.479   0.228  0.1977 -0.3410 -0.0481
 5178TIP3    H115540   4.819   3.497   0.193  0.8308  2.3073 -0.4321
 5178TIP3    H215541   4.966   3.513   0.161  1.5217 -0.9920  0.7745
 5179TIP3   OH215542   3.055   1.400   3.227  0.4199  0.1510 -0.2534
 5179TIP3    H115543   3.123   1.337   3.252  0.2689  0.3477  0.7223
 5179TIP3    H215544   2.979   1.345   3.206 -0.2972 -0.0236  2.3631
 5180TIP3   OH215545   5.917   5.641   2.476  0.4957  0.4533 -0.2992
 5180TIP3    H115546   5.985   5.606   2.419  1.6219 -0.2285  1.3858
 5180TIP3    H215547   5.934   5.602   2.562 -2.0868  0.1907  0.1770
 5181TIP3   OH215548   1.478   3.855   1.499 -0.0317  0.6552  0.0828
 5181TIP3    H115549   1.549   3.827   1.558  1.1275 -0.3002 -1.6682
 5181TIP3    H215550   1.502   3.818   1.414 -2.2754  0.9650 -0.7399
 5182TIP3   OH215551   5.407   4.544   0.683  0.4190  0.4023  0.1134
 5182TIP3    H115552   5.482   4.548   0.624  0.7518 -3.1039  0.1058
 5182TIP3    H215553   5.331   4.544   0.625  0.4074  2.6329  0.0591
 5183TIP3   OH215554   0.660   4.993   3.095  0.4727 -0.3745 -0.6251
 5183TIP3    H115555   0.750   5.023   3.084  0.6727  0.3016  2.0587
 5183TIP3    H215556   0.667   4.898   3.103  0.9109 -0.3521 -0.7197
 5184TIP3   OH215557   1.400   2.260   0.910  0.0244 -0.1697 -0.7578
 5184TIP3    H115558   1.322   2.205   0.913 -0.2354  0.2293  1.1558
 5184TIP3    H215559   1.368   2.348   0.933  0.8781  0.2015 -0.9569
 5185TIP3   OH215560   3.583   5.055   1.127 -0.0540 -0.5082  0.2498
 5185TIP3    H115561   3.576   4.994   1.053  3.1987  0.9918 -1.4581
 5185TIP3    H215562   3.671   5.042   1.161 -0.1403  1.5341  1.4066
 5186TIP3   OH215563   3.509   4.381   0.543 -0.2207 -0.4440  0.5641
 5186TIP3    H115564   3.415   4.367   0.539 -0.2996  0.2825 -0.6525
 5186TIP3    H215565   3.519   4.460   0.597 -0.4279  0.3127 -0.4681
 5187TIP3   OH215566   4.493   0.526   0.866 -0.1144 -0.1511 -0.4736
 5187TIP3    H115567   4.494   0.445   0.815  1.1877 -0.5300  0.1222
 5187TIP3    H215568   4.585   0.547   0.880 -0.3564 -0.7491  2.7695
 5188TIP3   OH215569   2.257   3.551   2.507 -0.3668 -0.2743  0.2115
 5188TIP3    H115570   2.273   3.642   2.481  0.0059  0.1415  1.7624
 5188TIP3    H215571   2.171   3.554   2.550 -0.7851 -0.8540 -0.5660
 5189TIP3   OH215572   4.536   1.211   2.300  0.0326 -0.6655  0.6760
 5189TIP3    H115573   4.488   1.278   2.349  0.1964  0.1359 -0.2367
 5189TIP3    H215574   4.486   1.201   2.219  0.9200 -0.4479  0.0900
 5190TIP3   OH215575   0.333   3.607   4.974 -0.2167  0.1225 -0.1350
 5190TIP3    H115576   0.392   3.532   4.979 -0.9345 -0.5413 -1.3012
 5190TIP3    H215577   0.373   3.666   4.910 -0.1473  0.2933  0.0632
 5191TIP3   OH215578   4.971   5.168   2.541  0.1120 -0.2868 -0.3701
 5191TIP3    H115579   5.054   5.150   2.585 -0.0682  0.7655  0.4492
 5191TIP3    H215580   4.981   5.257   2.506 -0.7596 -0.0530 -0.0412
 5192TIP3   OH215581   2.769   3.950   2.321 -0.2926  0.2095 -0.3458
 5192TIP3    H115582   2.701   3.896   2.280  2.0852 -2.3884 -1.1722
 5192TIP3    H215583   2.794   4.012   2.254 -2.0049  1.4571  0.0922
 5193TIP3   OH215584   6.197   1.026   2.928 -0.5889  0.4669  0.0675
 5193TIP3    H115585   6.189   1.000   3.019 -0.6041 -1.0119 -0.3349
 5193TIP3    H215586   6.279   0.985   2.898 -0.7162  0.7112 -0.6501
 5194TIP3   OH215587   1.265   2.736   4.552 -0.4032  0.3095 -0.8071
 5194TIP3    H115588   1.187   2.683   4.571 -0.3638  0.4574 -0.1904
 5194TIP3    H215589   1.298   2.701   4.470 -1.0330  0.1387 -0.9970
 5195TIP3   OH215590   1.629   2.579   3.050 -0.2877 -0.4111 -0.3504
 5195TIP3    H115591   1.685   2.639   3.099 -1.8996  2.9117 -2.2687
 5195TIP3    H215592   1.545   2.583   3.094 -0.3714 -1.4900 -0.3865
 5196TIP3   OH215593   2.062   1.725   0.028 -0.3227  0.4288 -0.1420
 5196TIP3    H115594   2.020   1.789   0.085 -0.8903  0.3484 -0.4671
 5196TIP3    H215595   2.011   1.728  -0.053  0.7514  0.8716 -0.8213
 5197TIP3   OH215596   5.766   4.970   4.845  0.3015  0.3882 -0.2719
 5197TIP3    H115597   5.860   4.957   4.839  0.6926  2.1312  1.0769
 5197TIP3    H215598   5.731   4.885   4.872  1.5680 -0.0862 -0.0855
 5198TIP3   OH215599   2.504   1.466   4.726  0.3471 -0.6710 -0.1258
 5198TIP3    H115600   2.516   1.534   4.660  0.1199 -0.5850 -0.0808
 5198TIP3    H215601   2.568   1.485   4.794  0.3067 -0.5234 -0.1305
 5199TIP3   OH215602   5.588   4.857   1.144 -0.0167  0.4579 -0.1650
 5199TIP3    H115603   5.546   4.852   1.230  0.7255  0.1008  0.1872
 5199TIP3    H215604   5.538   4.924   1.097 -1.2875 -0.3099  0.0584
 5200TIP3   OH215605   1.443   2.294   2.302 -0.2112  0.2668 -0.3351
 5200TIP3    H115606   1.492   2.213   2.288 -0.4485 -0.0902  0.7749
 5200TIP3    H215607   1.485   2.334   2.378  0.1276  1.3779 -1.0947
 5201TIP3   OH215608   0.970   5.359   1.108 -0.7328  0.4898 -0.5089
 5201TIP3    H115609   0.931   5.307   1.037 -1.8184  2.0723 -1.1479
 5201TIP3    H215610   0.949   5.450   1.084  2.2692  1.3547 -0.1655
 5202TIP3   OH215611   4.692   3.175   2.034  0.5514 -0.6025  0.2075
 5202TIP3    H115612   4.651   3.118   2.099  0.1954  0.4499  0.9324
 5202TIP3    H215613   4.633   3.249   2.026  1.2963 -0.0465 -0.2787
 5203TIP3   OH215614   5.225   3.624   5.171  0.0344  0.5677 -0.0454
 5203TIP3    H115615   5.159   3.675   5.124 -1.0701  0.4879  1.3681
 5203TIP3    H215616   5.209   3.533   5.144 -1.5917  0.3277  1.5530
 5204TIP3   OH215617   3.361   4.909   2.987 -0.2216 -0.0231 -0.0840
 5204TIP3    H115618   3.407   4.944   2.911  0.6745  1.3706  1.0585
 5204TIP3    H215619   3.278   4.957   2.989  0.3195  0.9223  0.5489
 5205TIP3   OH215620   4.119   1.000   0.631  0.0420 -0.3185 -0.5130
 5205TIP3    H115621   4.083   0.958   0.709 -0.6592  0.8173 -0.1831
 5205TIP3    H215622   4.211   1.016   0.652 -0.1840  0.1424  0.1698
 5206TIP3   OH215623   1.081   0.548   0.354  0.2382  0.0702  0.1400
 5206TIP3    H115624   1.048   0.599   0.280 -0.5842 -0.3589  0.2109
 5206TIP3    H215625   1.135   0.480   0.314  0.4675  0.3420 -0.0147
 5207TIP3   OH215626   0.507   5.956   1.000 -0.0128 -0.1553 -0.2032
 5207TIP3    H115627   0.413   5.937   1.007 -0.3673  1.4349 -0.4143
 5207TIP3    H215628   0.549   5.874   1.026 -1.4441 -0.5592  1.0258
 5208TIP3   OH215629   5.241   3.224   0.618  0.1055 -0.0875  0.6173
 5208TIP3    H115630   5.151   3.227   0.651 -0.1738 -0.4206 -0.0812
 5208TIP3    H215631   5.296   3.244   0.694 -0.6636  4.3425  0.3042
 5209TIP3   OH215632   4.980   4.315   2.476 -0.2543  0.0509 -0.2254
 5209TIP3    H115633   4.890   4.313   2.443 -0.2360 -1.4587 -0.2514
 5209TIP3    H215634   4.981   4.250   2.546  1.1870 -1.1433 -1.2886
 5210TIP3   OH215635   1.925   1.391   4.036  0.7875  0.8381 -0.0664
 5210TIP3    H115636   1.913   1.306   3.993  0.2310  0.8804  0.0018
 5210TIP3    H215637   2.016   1.414   4.017  1.5317 -0.6422  1.4579
 5211TIP3   OH215638   3.641   4.487   3.918 -0.3757  0.1708 -0.1872
 5211TIP3    H115639   3.634   4.421   3.987  0.3293  1.4619  1.1619
 5211TIP3    H215640   3.551   4.509   3.896 -0.6082 -0.4176  0.1501
 5212TIP3   OH215641   4.195   0.153   5.076  0.0738 -0.0032 -0.1649
 5212TIP3    H115642   4.124   0.167   5.013  0.6141  0.3227 -0.7076
 5212TIP3    H215643   4.182   0.221   5.142  0.8606  1.1474 -1.1596
 5213TIP3   OH215644   1.789   1.872   4.598 -0.5661 -0.0340  0.0495
 5213TIP3    H115645   1.800   1.798   4.540 -0.8710 -0.2547  0.2732
 5213TIP3    H215646   1.744   1.938   4.546 -2.6527 -0.9548  0.6130
 5214TIP3   OH215647   6.282   1.758   5.113  0.1785  0.0940  0.1036
 5214TIP3    H115648   6.262   1.850   5.093  0.0999  0.4347  1.5989
 5214TIP3    H215649   6.205   1.727   5.161 -0.2225 -1.0760 -1.2470
 5215TIP3   OH215650   0.630   0.653   2.195 -0.3961 -0.0367 -0.0872
 5215TIP3    H115651   0.670   0.701   2.267  1.8243 -0.6024 -0.8533
 5215TIP3    H215652   0.659   0.698   2.116  0.9017 -1.9407 -0.7794
 5216TIP3   OH215653   1.901   5.029   2.098  0.3868 -0.0931 -0.3185
 5216TIP3    H115654   1.903   5.046   2.004 -0.0100  1.4396 -0.0789
 5216TIP3    H215655   1.811   5.050   2.124  0.5795 -0.1913  0.4471
 5217TIP3   OH215656   0.329   0.984   1.789 -0.5416 -0.0681  0.4907
 5217TIP3    H115657   0.313   1.077   1.806 -3.4639 -0.6842  1.6663
 5217TIP3    H215658   0.330   0.944   1.875 -0.7677 -1.3265 -0.0780
 5218TIP3   OH215659   0.369   4.055   3.428  0.6866 -0.5553 -0.0733
 5218TIP3    H115660   0.285   4.017   3.402  0.8917 -0.3822 -1.0574
 5218TIP3    H215661   0.382   4.127   3.366  1.1675 -0.0451  0.6064
 5219TIP3   OH215662   2.725   1.672   3.340 -0.2345  0.3076 -0.5923
 5219TIP3    H115663   2.736   1.638   3.251  1.0160  1.0782 -0.7513
 5219TIP3    H215664   2.737   1.595   3.396 -1.2268 -0.2206 -1.0788
 5220TIP3   OH215665   2.214   4.870   3.119 -0.1953 -0.1902  0.0067
 5220TIP3    H115666   2.190   4.788   3.162  2.3529 -0.6802  0.6651
 5220TIP3    H215667   2.262   4.843   3.040 -0.6233  0.7006 -0.5798
 5221TIP3   OH215668   0.505   2.106   3.348  0.1624 -0.1947 -0.0338
 5221TIP3    H115669   0.543   2.156   3.275  1.0284 -1.9713 -0.8509
 5221TIP3    H215670   0.413   2.095   3.323 -0.0470  0.9484  0.1603
 5222TIP3   OH215671   1.576   2.672   4.642 -0.3481 -0.5007 -0.3293
 5222TIP3    H115672   1.647   2.735   4.634 -0.5251 -0.0788  1.1139
 5222TIP3    H215673   1.521   2.687   4.566  0.3990  0.0645 -0.7712
 5223TIP3   OH215674   0.393   2.211   2.296 -0.2429  0.3093 -0.8429
 5223TIP3    H115675   0.356   2.128   2.263 -1.4008  0.3179  0.3641
 5223TIP3    H215676   0.330   2.277   2.268  0.6274  0.7996 -1.7083
 5224TIP3   OH215677   2.281   1.238   1.722 -0.0959  0.1575 -0.1433
 5224TIP3    H115678   2.301   1.281   1.805  0.8114 -0.6314  0.0716
 5224TIP3    H215679   2.318   1.150   1.731  1.1056  0.4441 -1.8326
 5225TIP3   OH215680   3.185   0.085   3.753 -0.2548  0.3575 -0.7415
 5225TIP3    H115681   3.259   0.144   3.768  0.2146 -0.4566  0.2274
 5225TIP3    H215682   3.115   0.121   3.808  0.2922 -0.4389  0.5264
 5226TIP3   OH215683   3.436   4.686   2.859  0.1129  0.5465 -0.2671
 5226TIP3    H115684   3.400   4.770   2.887 -0.8725  0.1676 -0.3607
 5226TIP3    H215685   3.529   4.691   2.882 -0.1881  1.1613  0.8742
 5227TIP3   OH215686   3.399   3.895   3.239  0.3936  0.4550  0.5016
 5227TIP3    H115687   3.458   3.894   3.163  0.0330  0.3460  0.2252
 5227TIP3    H215688   3.458   3.886   3.314  0.7131  0.1050  0.2144
 5228TIP3   OH215689   3.930   3.823   4.078  0.0943  0.2017  0.8741
 5228TIP3    H115690   3.840   3.848   4.054 -0.3253 -0.8950  1.2585
 5228TIP3    H215691   3.960   3.768   4.006  0.6902  1.0249  0.4683
 5229TIP3   OH215692   1.465   0.606   2.354 -0.6678  0.1107  0.2344
 5229TIP3    H115693   1.556   0.626   2.332 -0.1111 -1.4369  1.0245
 5229TIP3    H215694   1.441   0.673   2.418  0.7323 -0.8158  1.8328
 5230TIP3   OH215695   2.277   1.704   2.137 -0.1929  0.8990 -0.0717
 5230TIP3    H115696   2.340   1.739   2.074  0.2631  0.3348  0.0706
 5230TIP3    H215697   2.312   1.728   2.222  0.3486 -0.2467  0.0477
 5231TIP3   OH215698   3.812   5.577   2.450  0.3924 -0.0012 -0.2984
 5231TIP3    H115699   3.749   5.526   2.500  1.4589  0.5547  1.6843
 5231TIP3    H215700   3.758   5.633   2.394 -0.9055  0.4813  1.3640
 5232TIP3   OH215701   1.196   5.535   0.215 -0.2363  0.6363 -0.3780
 5232TIP3    H115702   1.127   5.534   0.149  1.7539  0.7761 -2.6219
 5232TIP3    H215703   1.259   5.469   0.185  0.6070  0.4941  1.5696
 5233TIP3   OH215704   2.549   0.479   3.038 -0.3308 -0.0701  0.1807
 5233TIP3    H115705   2.528   0.550   3.100 -1.0554  2.2115 -2.4636
 5233TIP3    H215706   2.464   0.441   3.015 -0.4171  1.0124 -1.4450
 5234TIP3   OH215707   4.741   0.437   2.427 -0.5928  0.3327 -0.1492
 5234TIP3    H115708   4.729   0.441   2.332 -1.6467  0.1204 -0.0408
 5234TIP3    H215709   4.699   0.354   2.452  1.1395 -0.4340  0.3088
 5235TIP3   OH215710   4.175   1.673   4.923 -0.4757  0.3977 -0.0419
 5235TIP3    H115711   4.148   1.635   4.839  1.4204  0.8661 -0.9301
 5235TIP3    H215712   4.139   1.762   4.921  1.1913  1.1096 -1.3264
 5236TIP3   OH215713   6.153   2.062   4.002  0.2618  0.0740  0.3390
 5236TIP3    H115714   6.131   2.000   4.071  0.3780  1.1667  1.4022
 5236TIP3    H215715   6.233   2.105   4.033  1.6126 -0.9813 -1.5548
 5237TIP3   OH215716   4.337   5.404   0.084 -0.2317 -0.2891  0.3282
 5237TIP3    H115717   4.295   5.423   0.168  0.1147 -0.8243  0.6313
 5237TIP3    H215718   4.430   5.418   0.100 -0.3279  1.6015 -0.5350
 5238TIP3   OH215719   2.321   3.293   2.448  0.1576  0.8212 -0.7332
 5238TIP3    H115720   2.294   3.383   2.464  0.7135  0.5301  2.6765
 5238TIP3    H215721   2.241   3.242   2.459  0.4429  0.6704  0.9614
 5239TIP3   OH215722   3.040   0.682   0.918 -0.6251  0.6230  0.5864
 5239TIP3    H115723   2.996   0.626   0.854 -0.4856  0.7516  0.3778
 5239TIP3    H215724   3.116   0.717   0.871 -1.0049  1.4180  0.5433
 5240TIP3   OH215725   3.563   1.182   0.877  0.0582  0.3252  0.0202
 5240TIP3    H115726   3.556   1.277   0.864 -0.0181  0.3591  0.3051
 5240TIP3    H215727   3.522   1.166   0.962  0.6370  0.1154  0.2637
 5241TIP3   OH215728   0.795   2.845   3.228 -0.0774  0.7407 -0.1828
 5241TIP3    H115729   0.853   2.786   3.276 -1.5962 -0.6461  0.0649
 5241TIP3    H215730   0.853   2.910   3.189  1.7199 -1.0121 -0.6149
 5242TIP3   OH215731   4.848   0.576   1.686 -0.9604 -0.5210  1.1793
 5242TIP3    H115732   4.942   0.594   1.674 -0.7417 -1.2844  1.6547
 5242TIP3    H215733   4.834   0.492   1.642 -2.3309  1.4408 -2.5312
 5243TIP3   OH215734   0.477   2.581   1.739  0.5247 -0.0127  0.3164
 5243TIP3    H115735   0.478   2.666   1.782 -0.6892 -1.2316  3.0383
 5243TIP3    H215736   0.547   2.532   1.780 -1.3501 -1.5716  1.8763
 5244TIP3   OH215737   1.641   1.066   4.139 -0.6272 -0.4749  0.4907
 5244TIP3    H115738   1.666   1.127   4.070 -1.6143 -0.4781  0.1057
 5244TIP3    H215739   1.667   0.980   4.105  1.0001 -0.2662  1.1472
 5245TIP3   OH215740   3.820   2.339   2.723 -0.6632 -0.7158  0.5815
 5245TIP3    H115741   3.883   2.348   2.651  0.4834  2.0332  1.8110
 5245TIP3    H215742   3.735   2.336   2.680  0.0624 -0.5115 -0.9307
 5246TIP3   OH215743   4.535   3.093   4.060  0.7766  0.5199 -0.4030
 5246TIP3    H115744   4.616   3.109   4.011  2.3107  1.9847  2.3827
 5246TIP3    H215745   4.488   3.177   4.057  0.8834  0.6274  0.5435
 5247TIP3   OH215746   0.633   5.382   3.538  0.0753 -0.9769 -0.4513
 5247TIP3    H115747   0.689   5.392   3.615  0.3490  0.1540 -0.7687
 5247TIP3    H215748   0.668   5.305   3.493  1.7785  0.0116 -0.9321
 5248TIP3   OH215749   2.738   3.945   0.267 -0.6024 -0.3546  0.4617
 5248TIP3    H115750   2.832   3.947   0.246 -1.2731  0.3575 -3.2376
 5248TIP3    H215751   2.716   3.852   0.264 -0.1883 -0.4527  0.2742
 5249TIP3   OH215752   4.832   3.674   1.881  0.6480 -0.0115  0.3002
 5249TIP3    H115753   4.901   3.608   1.890  0.0431 -0.8829 -1.1327
 5249TIP3    H215754   4.771   3.637   1.818  1.3871  2.7662 -2.2887
 5250TIP3   OH215755   5.315   0.868   0.971  0.1547  0.1559 -0.3395
 5250TIP3    H115756   5.252   0.903   1.035  1.1270  0.4139  0.4967
 5250TIP3    H215757   5.321   0.935   0.904  1.4066  1.2915  0.8528
 5251TIP3   OH215758   5.806   0.803   0.881  0.0899 -0.6291 -0.1806
 5251TIP3    H115759   5.715   0.808   0.852  0.3354 -1.1435 -1.0762
 5251TIP3    H215760   5.851   0.871   0.830  0.3399 -0.8595 -0.2678
 5252TIP3   OH215761   1.207   5.632   0.479  0.2358 -0.0680  0.3688
 5252TIP3    H115762   1.206   5.602   0.388  2.8136  0.3409  0.1345
 5252TIP3    H215763   1.146   5.573   0.524  0.7215 -1.8742 -1.1877
 5253TIP3   OH215764   3.715   3.158   3.649  0.1317 -0.6378  0.0553
 5253TIP3    H115765   3.683   3.157   3.739  0.9521  0.0015  0.3748
 5253TIP3    H215766   3.638   3.176   3.596  0.2332  3.5173  0.9966
 5254TIP3   OH215767   4.035   2.219   3.228 -0.0186  0.8424 -0.0116
 5254TIP3    H115768   4.118   2.196   3.186 -0.8120  0.1369 -1.3097
 5254TIP3    H215769   4.058   2.282   3.296  1.5958  0.4809 -0.1787
 5255TIP3   OH215770   5.166   1.706   5.196 -0.0591  0.0587  0.2966
 5255TIP3    H115771   5.133   1.788   5.232 -0.5623  0.0447 -0.1223
 5255TIP3    H215772   5.105   1.684   5.125  0.8875  0.0662 -0.5479
 5256TIP3   OH215773   4.600   0.716   2.287 -0.4335  0.3672 -0.2679
 5256TIP3    H115774   4.655   0.728   2.364 -0.2989 -0.5740 -0.2119
 5256TIP3    H215775   4.511   0.708   2.322 -0.4639  0.6685 -0.2705
 5257TIP3   OH215776   5.487   0.949   3.755 -0.5753  0.0363 -0.5510
 5257TIP3    H115777   5.505   0.970   3.846  0.6912 -1.6841 -0.3622
 5257TIP3    H215778   5.399   0.985   3.740 -1.0583 -0.1412  1.5067
 5258TIP3   OH215779   3.018   4.071   1.216 -0.4903  0.0629 -0.1828
 5258TIP3    H115780   2.944   4.012   1.231 -0.1997 -0.5616 -1.1585
 5258TIP3    H215781   3.089   4.014   1.187  0.0076  0.8079 -0.4597
 5259TIP3   OH215782   6.262   4.083   4.958 -0.6361  0.6356  0.2418
 5259TIP3    H115783   6.192   4.024   4.987 -1.9204  2.2955  0.6266
 5259TIP3    H215784   6.270   4.065   4.864  0.2896 -1.4119  0.6378
 5260TIP3   OH215785   1.574   5.904   0.838  0.3116  0.0898  0.7231
 5260TIP3    H115786   1.663   5.871   0.823  0.6161  0.9219  0.6355
 5260TIP3    H215787   1.527   5.884   0.758  0.7360  0.6496  0.3303
 5261TIP3   OH215788   4.367   4.462   0.540 -0.0678  0.0231  0.0583
 5261TIP3    H115789   4.452   4.445   0.582 -0.2590  0.9511  0.8591
 5261TIP3    H215790   4.360   4.395   0.473 -0.1196 -2.1213  2.0610
 5262TIP3   OH215791   0.878   5.715   4.779 -0.3749 -0.1787 -0.2477
 5262TIP3    H115792   0.912   5.631   4.747  2.3734  0.2418  1.2325
 5262TIP3    H215793   0.806   5.691   4.837 -0.6415 -1.3830 -1.0230
 5263TIP3   OH215794   5.916   4.564   0.956  0.5691 -0.0679  0.3808
 5263TIP3    H115795   5.893   4.511   0.879 -1.2266 -1.5618  1.8456
 5263TIP3    H215796   5.889   4.653   0.932  1.3434 -0.2290 -1.2105
 5264TIP3   OH215797   2.774   3.181   1.615 -0.4488 -0.0901 -0.2165
 5264TIP3    H115798   2.698   3.167   1.671  0.3106 -0.9037  0.6477
 5264TIP3    H215799   2.849   3.179   1.675  0.3367 -0.2857 -1.1758
 5265TIP3   OH215800   4.721   3.308   1.573  0.3950  0.2105  0.0304
 5265TIP3    H115801   4.737   3.402   1.570  1.0710  0.1521  1.2076
 5265TIP3    H215802   4.626   3.299   1.565  0.4972  0.7248 -4.3276
 5266TIP3   OH215803   4.742   0.644   1.911  0.5471 -0.0429  0.1610
 5266TIP3    H115804   4.792   0.611   1.836 -0.3655 -1.9804  0.3551
 5266TIP3    H215805   4.651   0.646   1.880  0.4495  1.4044  0.4865
 5267TIP3   OH215806   6.078   1.400   1.405 -0.3007  0.3309  0.0607
 5267TIP3    H115807   6.169   1.428   1.404 -0.2691  0.3350  1.5548
 5267TIP3    H215808   6.035   1.455   1.340  1.2374 -1.4465 -2.6533
 5268TIP3   OH215809   2.795   4.388   4.515 -0.0383  0.1340  0.3716
 5268TIP3    H115810   2.730   4.406   4.583 -1.1380  1.4730 -0.9565
 5268TIP3    H215811   2.879   4.405   4.557 -0.7038  1.1305  1.3669
 5269TIP3   OH215812   5.857   1.791   3.985  0.4870 -0.8665 -0.0294
 5269TIP3    H115813   5.894   1.770   3.899 -1.3935 -0.4407 -0.9968
 5269TIP3    H215814   5.766   1.811   3.967  0.3760  0.5774  1.9090
 5270TIP3   OH215815   5.683   5.591   3.918 -0.0285  0.6711 -0.1225
 5270TIP3    H115816   5.673   5.496   3.927 -0.4248  0.8629  2.1054
 5270TIP3    H215817   5.777   5.603   3.901  0.5230 -0.0632  1.9957
 5271TIP3   OH215818   2.710   1.337   3.448 -0.3468 -0.4630  0.0970
 5271TIP3    H115819   2.644   1.326   3.380 -0.1241 -0.0433 -0.1943
 5271TIP3    H215820   2.783   1.282   3.420  0.2034  0.5842 -0.6200
 5272TIP3   OH215821   2.433   4.386   1.384 -0.0681  0.0567 -0.0023
 5272TIP3    H115822   2.416   4.480   1.384  0.0570  0.1144  1.3954
 5272TIP3    H215823   2.494   4.372   1.312  0.2001  1.1061  0.0073
 5273TIP3   OH215824   0.937   5.467   3.306 -0.5553  0.1576 -0.9940
 5273TIP3    H115825   0.981   5.382   3.307  1.7296  1.2732 -0.4344
 5273TIP3    H215826   0.998   5.526   3.351 -3.4468  1.4499  1.6295
 5274TIP3   OH215827   0.954   2.804   0.033  0.1815  0.6077 -0.2320
 5274TIP3    H115828   0.999   2.735  -0.016 -0.3316 -0.3426  0.5737
 5274TIP3    H215829   0.870   2.814  -0.012 -0.0287  0.1912  0.0559
 5275TIP3   OH215830   5.607   0.660   2.825  0.5333  0.0479 -0.0218
 5275TIP3    H115831   5.613   0.684   2.733 -1.5961  1.5398  0.1504
 5275TIP3    H215832   5.521   0.619   2.834  1.5574 -2.0782  0.9508
 5276TIP3   OH215833   4.655   4.912   4.208 -0.2193 -0.2007  0.2981
 5276TIP3    H115834   4.707   4.859   4.268  0.3322  0.1967  0.1771
 5276TIP3    H215835   4.692   4.895   4.122  0.1717  0.6053  0.2947
 5277TIP3   OH215836   5.764   2.105   1.571  0.2313 -0.5700  0.3936
 5277TIP3    H115837   5.783   2.160   1.495  0.0828  0.0456  0.7989
 5277TIP3    H215838   5.691   2.050   1.542  0.3786 -0.5567 -0.0144
 5278TIP3   OH215839   4.900   1.357   0.920 -0.0333 -0.2899  0.0989
 5278TIP3    H115840   4.903   1.322   0.831 -0.5140 -1.6178  0.5916
 5278TIP3    H215841   4.945   1.442   0.914  0.8517 -0.8283 -1.1843
 5279TIP3   OH215842   2.670   5.038   0.666  0.2873  0.1846  0.1039
 5279TIP3    H115843   2.627   4.953   0.656 -1.2587  0.9016  0.3729
 5279TIP3    H215844   2.746   5.020   0.722 -0.3545 -0.9142  0.6516
 5280TIP3   OH215845   3.466   5.515   3.312  0.3567 -0.0318 -0.1401
 5280TIP3    H115846   3.516   5.573   3.370  0.1201  0.0538 -0.0193
 5280TIP3    H215847   3.419   5.457   3.372 -1.0615  1.0184 -0.1819
 5281TIP3   OH215848   3.206   4.678   3.126 -0.2681 -0.0530  0.4981
 5281TIP3    H115849   3.278   4.680   3.064 -0.4701 -1.7633  0.1455
 5281TIP3    H215850   3.157   4.758   3.108  1.4527  1.0956  0.6832
 5282TIP3   OH215851   5.959   2.722   1.042 -0.2927  0.0746  0.2948
 5282TIP3    H115852   5.889   2.666   1.009 -0.2954 -0.8048  1.7002
 5282TIP3    H215853   5.934   2.810   1.015 -0.7716 -0.4718 -1.1614
 5283TIP3   OH215854   5.539   0.781   0.819 -0.1815 -0.4988  0.5529
 5283TIP3    H115855   5.554   0.861   0.769 -0.7279 -0.1398  0.9496
 5283TIP3    H215856   5.449   0.790   0.851  0.4804 -0.2572  2.4380
 5284TIP3   OH215857   2.860   5.804   2.700 -0.4242 -0.1751  0.2016
 5284TIP3    H115858   2.785   5.807   2.640 -0.1384  0.4313 -0.1322
 5284TIP3    H215859   2.922   5.868   2.665  0.5707 -1.1734  0.0574
 5285TIP3   OH215860   3.518   5.277   1.513 -0.4824 -0.1502  0.2824
 5285TIP3    H115861   3.577   5.286   1.587  1.8061  0.9542 -1.5576
 5285TIP3    H215862   3.557   5.330   1.444 -1.0817 -3.1089 -2.5902
 5286TIP3   OH215863   1.449   0.713   2.997 -0.0716 -0.2234 -0.0554
 5286TIP3    H115864   1.472   0.805   2.985 -2.1233  0.5591  1.4579
 5286TIP3    H215865   1.489   0.688   3.080 -2.2102  0.3792  1.2533
 5287TIP3   OH215866   4.018   0.635   0.979  0.1828 -0.4271 -0.4496
 5287TIP3    H115867   3.976   0.700   1.035  0.7210 -0.2633 -0.2332
 5287TIP3    H215868   4.091   0.681   0.938  1.0037 -1.0740  0.2469
 5288TIP3   OH215869   0.010   3.874   1.458  0.3304 -0.0020 -0.2359
 5288TIP3    H115870   0.074   3.807   1.482  1.5332  1.1914  0.0095
 5288TIP3    H215871   0.045   3.912   1.378 -0.3220  0.3461 -0.3556
 5289TIP3   OH215872   4.038   2.254   4.260  0.3842 -0.0033  0.1909
 5289TIP3    H115873   4.043   2.193   4.334 -1.2323  0.5912  0.8453
 5289TIP3    H215874   4.098   2.325   4.283 -0.0969  0.1713  0.9533
 5290TIP3   OH215875   4.265   4.649   2.274  0.3776 -0.0288 -0.2723
 5290TIP3    H115876   4.241   4.565   2.311  1.4093  0.0780  0.6806
 5290TIP3    H215877   4.208   4.658   2.197 -3.3071  0.5990  2.2325
 5291TIP3   OH215878   4.981   2.290   4.160 -0.4580 -0.2064 -0.1659
 5291TIP3    H115879   5.041   2.237   4.108  0.2448  0.2867  0.1252
 5291TIP3    H215880   4.998   2.264   4.250 -0.0584  0.5557 -0.0151
 5292TIP3   OH215881   6.329   3.647   0.707  0.0019 -0.0813  0.2042
 5292TIP3    H115882   6.402   3.587   0.717  0.9480  0.8711 -0.7388
 5292TIP3    H215883   6.260   3.610   0.762 -0.1146 -3.0196 -1.7073
 5293TIP3   OH215884   3.320   4.255   1.814 -0.0268  0.1146  0.3391
 5293TIP3    H115885   3.351   4.165   1.806  3.5427  1.0232  1.9101
 5293TIP3    H215886   3.304   4.283   1.724  1.1924 -1.3916 -0.3954
 5294TIP3   OH215887   4.200   2.220   4.808 -0.0591  0.4541 -0.0629
 5294TIP3    H115888   4.252   2.276   4.865 -0.0379  1.1549 -0.7589
 5294TIP3    H215889   4.252   2.212   4.728  0.6483 -1.7840  0.5353
 5295TIP3   OH215890   3.110   1.146   4.875  0.0890 -0.4232 -0.0988
 5295TIP3    H115891   3.101   1.175   4.966  1.0567 -0.0758 -0.0998
 5295TIP3    H215892   3.141   1.223   4.828  0.6432 -0.8808 -0.5103
 5296TIP3   OH215893   4.270   2.713   4.461  0.8729 -0.0822 -0.0432
 5296TIP3    H115894   4.198   2.719   4.398  1.0067  0.8082 -0.1264
 5296TIP3    H215895   4.330   2.650   4.421  0.0512 -1.0103  0.1344
 5297TIP3   OH215896   3.134   3.055   1.586 -0.0245 -0.3761  0.1272
 5297TIP3    H115897   3.218   3.073   1.628 -0.0212 -1.0400  0.4294
 5297TIP3    H215898   3.069   3.071   1.655  0.0129 -1.9327  0.5652
 5298TIP3   OH215899   4.529   5.788   0.457 -0.1520 -0.2251  0.1808
 5298TIP3    H115900   4.482   5.817   0.379  2.6585 -0.4591 -1.7264
 5298TIP3    H215901   4.536   5.867   0.511 -0.3453  0.4714 -0.7825
 5299TIP3   OH215902   1.740   4.054   2.592 -0.5639  0.1600 -0.7460
 5299TIP3    H115903   1.823   4.029   2.551 -0.0523  0.1997  0.2365
 5299TIP3    H215904   1.676   3.992   2.557  0.2557 -1.1456 -0.0471
 5300TIP3   OH215905   1.233   2.460   1.858 -0.5224 -0.0109 -0.2881
 5300TIP3    H115906   1.188   2.388   1.813  2.3895 -0.6921 -2.4200
 5300TIP3    H215907   1.248   2.427   1.947  0.2609 -1.8607 -1.0501
 5301TIP3   OH215908   4.485   0.765   1.233 -0.4710 -0.5126  0.5516
 5301TIP3    H115909   4.574   0.741   1.257 -0.0292 -0.8198 -1.2935
 5301TIP3    H215910   4.453   0.692   1.181 -1.8359 -0.4250  1.2220
 5302TIP3   OH215911   4.726   5.088   2.947 -0.0781  0.2569  0.5702
 5302TIP3    H115912   4.656   5.152   2.958 -0.6578 -0.4819  1.3514
 5302TIP3    H215913   4.724   5.066   2.854 -0.7512  0.4026  0.5453
 5303TIP3   OH215914   5.171   4.961   3.528 -0.6143 -0.1924  0.3324
 5303TIP3    H115915   5.077   4.970   3.536 -0.9606 -0.7766 -2.1779
 5303TIP3    H215916   5.191   4.877   3.571 -1.3621 -0.4629  0.1639
 5304TIP3   OH215917   4.374   5.048   5.065  0.2206  0.2327 -0.0377
 5304TIP3    H115918   4.289   5.020   5.098  1.0455 -0.6455  1.4228
 5304TIP3    H215919   4.364   5.143   5.053 -1.0364  0.1052 -0.1778
 5305TIP3   OH215920   0.225   2.203   0.328 -0.8124  1.0904 -0.1005
 5305TIP3    H115921   0.225   2.107   0.329 -0.2471  1.0857  0.5119
 5305TIP3    H215922   0.202   2.227   0.239  1.2782  0.3644 -0.8932
 5306TIP3   OH215923   1.589   4.956   2.795  0.2608 -0.2854  0.0832
 5306TIP3    H115924   1.567   4.921   2.709  1.6543  0.2993 -0.5378
 5306TIP3    H215925   1.661   4.901   2.827 -0.0799 -0.3457  0.7737
 5307TIP3   OH215926   2.271   5.261   0.067  0.3987 -0.0131  0.3598
 5307TIP3    H115927   2.217   5.277  -0.011 -0.1834  1.2030  0.9756
 5307TIP3    H215928   2.333   5.193   0.041 -1.6531 -1.7417 -0.2819
 5308TIP3   OH215929   5.297   0.497   2.624 -0.1654 -0.1138 -0.4291
 5308TIP3    H115930   5.317   0.429   2.687  1.1935  0.3358 -0.3247
 5308TIP3    H215931   5.355   0.570   2.648 -2.0542  1.3748 -0.0979
 5309TIP3   OH215932   1.340   3.327   3.921 -0.0475 -0.2378 -0.2384
 5309TIP3    H115933   1.343   3.244   3.968 -0.6819 -0.6541 -0.9130
 5309TIP3    H215934   1.276   3.380   3.969 -1.1041 -0.8598 -0.9089
 5310TIP3   OH215935   0.604   1.339   4.984 -0.1480 -0.4188 -0.3304
 5310TIP3    H115936   0.640   1.252   4.966 -2.4767 -1.6330  0.4606
 5310TIP3    H215937   0.598   1.380   4.897  2.6947 -0.2316 -0.5317
 5311TIP3   OH215938   0.773   5.881   4.027 -0.0294 -0.0326 -0.1702
 5311TIP3    H115939   0.813   5.905   4.111 -0.9197  0.6462  0.0770
 5311TIP3    H215940   0.705   5.818   4.051 -1.9307  1.9573 -0.0474
 5312TIP3   OH215941   1.299   3.098   2.095 -0.7367  0.5658  0.5358
 5312TIP3    H115942   1.249   3.168   2.052  0.6881  2.3342  1.5959
 5312TIP3    H215943   1.263   3.017   2.059 -3.2307  1.7869  0.0780
 5313TIP3   OH215944   5.536   3.061   1.541 -0.4054 -0.4133  0.1256
 5313TIP3    H115945   5.602   3.025   1.481  1.0734  3.0449 -0.5656
 5313TIP3    H215946   5.583   3.073   1.624 -0.5161  0.8542  0.0220
 5314TIP3   OH215947   4.740   3.222   4.242 -0.1613 -0.0715 -0.2478
 5314TIP3    H115948   4.714   3.144   4.292 -3.0102  1.3319  0.6488
 5314TIP3    H215949   4.714   3.202   4.152  2.5568 -1.5408 -0.8220
 5315TIP3   OH215950   2.112   5.475   2.663 -0.4218 -0.3449 -0.0694
 5315TIP3    H115951   2.025   5.495   2.698  0.0252  0.7205  0.4819
 5315TIP3    H215952   2.160   5.440   2.737 -0.6780 -1.9896 -0.6320
 5316TIP3   OH215953   2.126   2.139   4.898 -0.1182 -0.2017 -0.3806
 5316TIP3    H115954   2.068   2.091   4.956  2.1100 -0.2926  1.9474
 5316TIP3    H215955   2.206   2.152   4.949  1.8615  0.0813 -3.3007
 5317TIP3   OH215956   2.271   1.283   0.444  0.2378  0.0808 -0.4277
 5317TIP3    H115957   2.250   1.213   0.505  0.3369  2.1460  2.1600
 5317TIP3    H215958   2.188   1.301   0.398 -0.8875  0.8233  1.7419
 5318TIP3   OH215959   2.538   1.110   1.997  0.0990 -0.0432  0.2620
 5318TIP3    H115960   2.494   1.025   2.010 -1.0540  0.5996  0.7452
 5318TIP3    H215961   2.534   1.151   2.084 -2.2761  1.8352 -0.6287
 5319TIP3   OH215962   2.542   5.523   0.605 -0.2347 -0.5269 -0.2828
 5319TIP3    H115963   2.449   5.527   0.582 -0.7281 -0.8248  1.5213
 5319TIP3    H215964   2.543   5.493   0.696  1.5282  1.6625  0.5165
 5320TIP3   OH215965   2.971   1.885   1.906 -0.1079  0.4259  0.3927
 5320TIP3    H115966   2.894   1.830   1.917  1.0843 -1.4743 -0.2538
 5320TIP3    H215967   3.001   1.903   1.995 -0.7047  0.3186  0.6168
 5321TIP3   OH215968   1.329   2.278   3.144  0.2359 -0.5125 -0.2915
 5321TIP3    H115969   1.323   2.309   3.234 -2.1478  1.1684 -0.9435
 5321TIP3    H215970   1.278   2.197   3.143 -1.3380  0.4603 -0.4938
 5322TIP3   OH215971   4.261   5.554   4.454 -0.0236  0.0505 -0.5599
 5322TIP3    H115972   4.258   5.588   4.365 -0.4300 -0.6603 -0.8262
 5322TIP3    H215973   4.277   5.460   4.443  0.4749  0.0501  0.1338
 5323TIP3   OH215974   0.493   0.037   1.964 -0.5494  0.1162  0.1799
 5323TIP3    H115975   0.460   0.122   1.937 -0.5846  0.0330 -0.0434
 5323TIP3    H215976   0.423  -0.024   1.940 -0.2621 -0.0544 -0.2435
 5324TIP3   OH215977   3.680   4.358   4.684  0.1600 -0.5579  0.7696
 5324TIP3    H115978   3.728   4.441   4.687  2.3913 -1.7595  0.1069
 5324TIP3    H215979   3.720   4.304   4.751  1.9918 -2.6780 -1.8525
 5325TIP3   OH215980   0.514   5.046   4.328 -0.0063 -0.6996 -0.0798
 5325TIP3    H115981   0.483   5.027   4.239  0.2576 -1.3130 -0.0428
 5325TIP3    H215982   0.447   5.010   4.385  0.6896 -1.9107 -0.0031
 5326TIP3   OH215983   4.441   5.830   1.067  0.1091 -0.1097  0.1815
 5326TIP3    H115984   4.363   5.801   1.113  0.7371 -1.0328  0.6921
 5326TIP3    H215985   4.465   5.913   1.111 -0.2734 -0.0993  0.3750
 5327TIP3   OH215986   1.546   0.491   4.274  0.4642 -0.8343 -0.4397
 5327TIP3    H115987   1.563   0.506   4.367  0.4080  0.7208 -0.6466
 5327TIP3    H215988   1.631   0.502   4.232  0.1613  0.4089 -0.7643
 5328TIP3   OH215989   0.921   4.987   0.634 -0.0742  0.1858 -0.1359
 5328TIP3    H115990   0.882   4.900   0.624 -0.6939  0.2852  1.1708
 5328TIP3    H215991   0.854   5.038   0.680  0.0273  1.5558 -1.4277
 5329TIP3   OH215992   1.220   1.218   1.900  0.2631 -0.4217  0.2065
 5329TIP3    H115993   1.154   1.183   1.839 -0.4422  2.6327 -0.9532
 5329TIP3    H215994   1.168   1.261   1.968  1.0870 -1.5220  1.5566
 5330TIP3   OH215995   0.075   1.969   0.416 -0.4889  0.0044 -0.5252
 5330TIP3    H115996   0.141   1.910   0.379 -0.2893 -0.1436  0.0624
 5330TIP3    H215997   0.110   1.993   0.502 -1.7949 -1.0924  0.3495
 5331TIP3   OH215998   5.569   3.605   2.604  0.0488 -0.0809  0.2077
 5331TIP3    H115999   5.530   3.538   2.547 -0.7567 -0.0464  0.7077
 5331TIP3    H216000   5.612   3.556   2.673  0.4409 -0.1048 -0.0494
 5332TIP3   OH216001   0.672   3.590   3.463  0.0849  0.5231 -0.7253
 5332TIP3    H116002   0.679   3.685   3.448 -1.5107  0.7755 -0.0484
 5332TIP3    H216003   0.592   3.580   3.514  0.3805 -1.1835 -0.5583
 5333TIP3   OH216004   3.735   1.147   2.304 -0.6974 -0.1535 -0.0261
 5333TIP3    H116005   3.788   1.073   2.275  0.3419 -1.0158  3.5632
 5333TIP3    H216006   3.646   1.113   2.308 -0.5166 -0.6495 -0.1617
 5334TIP3   OH216007   6.259   3.828   2.493  0.1573 -1.2080 -0.2274
 5334TIP3    H116008   6.281   3.834   2.586  1.0428 -2.4425 -0.3249
 5334TIP3    H216009   6.180   3.775   2.490 -0.6809  0.0142 -0.1059
 5335TIP3   OH216010   4.524   4.491   0.808  0.3849  0.0895  0.6387
 5335TIP3    H116011   4.445   4.545   0.818  0.5722  0.9968 -2.0050
 5335TIP3    H216012   4.496   4.417   0.755  1.4175  0.8885 -1.1177
 5336TIP3   OH216013   3.290   4.788   1.894  0.1922  0.1850 -0.4361
 5336TIP3    H116014   3.224   4.739   1.845  0.0818 -0.8179  0.6606
 5336TIP3    H216015   3.239   4.843   1.954  0.3285 -0.7204  0.5356
 5337TIP3   OH216016   4.577   3.644   2.631  0.2836  0.0423  0.5888
 5337TIP3    H116017   4.672   3.654   2.625  0.1799  0.3282 -1.0627
 5337TIP3    H216018   4.558   3.564   2.582 -0.4912  1.1497 -1.0266
 5338TIP3   OH216019   3.806   1.276   1.063 -0.1781 -0.3336 -0.6582
 5338TIP3    H116020   3.732   1.236   1.109 -0.5359 -0.1123 -1.0403
 5338TIP3    H216021   3.789   1.370   1.067  2.0450  0.1054  2.7035
 5339TIP3   OH216022   0.078   4.565   4.857 -0.0129 -0.2781  0.1156
 5339TIP3    H116023   0.131   4.612   4.793 -1.7905 -0.0359 -1.2833
 5339TIP3    H216024  -0.011   4.570   4.822 -1.6407  2.3179  4.0066
 5340TIP3   OH216025   0.225   4.300   1.922  0.0511 -0.0829  0.1863
 5340TIP3    H116026   0.304   4.248   1.937  0.3196  0.6312  1.3153
 5340TIP3    H216027   0.154   4.236   1.915  0.9019 -0.8976 -2.6164
 5341TIP3   OH216028   2.591   0.216   3.285  0.1577 -0.0238  0.7787
 5341TIP3    H116029   2.681   0.184   3.279 -0.3512 -1.4360  0.1875
 5341TIP3    H216030   2.598   0.299   3.332  1.4564 -1.4762  3.3844
 5342TIP3   OH216031   3.287   4.739   4.066 -0.1669 -0.0005  0.1097
 5342TIP3    H116032   3.314   4.661   4.017 -0.4018 -0.2602  0.3879
 5342TIP3    H216033   3.288   4.711   4.158  1.0052  0.6990  0.3273
 5343TIP3   OH216034   5.176   4.133   3.862 -0.3298  0.2540  0.3172
 5343TIP3    H116035   5.231   4.127   3.940  1.3802 -1.0970 -0.9177
 5343TIP3    H216036   5.126   4.051   3.861 -0.5033  0.3602  0.1041
 5344TIP3   OH216037   2.678   1.174   4.665 -0.1445 -0.3170 -0.3750
 5344TIP3    H116038   2.733   1.249   4.690 -0.9169 -0.2861  1.4211
 5344TIP3    H216039   2.615   1.166   4.737 -0.5988 -2.1869 -0.9287
 5345TIP3   OH216040   2.503   1.236   2.268  0.0189 -0.3343 -0.4276
 5345TIP3    H116041   2.513   1.329   2.289 -1.1033 -0.0005 -1.2786
 5345TIP3    H216042   2.431   1.206   2.325  0.3857 -0.6989 -0.1443
 5346TIP3   OH216043   5.054   3.280   4.093 -0.3619 -0.2865 -0.5764
 5346TIP3    H116044   5.119   3.213   4.072  0.6289  0.2556  0.6120
 5346TIP3    H216045   4.976   3.231   4.117  0.3766 -1.0604  0.3660
 5347TIP3   OH216046   0.414   4.988   2.423  0.7004  0.0581  0.3881
 5347TIP3    H116047   0.480   4.919   2.431  0.0773 -0.6729 -0.5789
 5347TIP3    H216048   0.390   5.009   2.514  1.8774 -0.0200  0.7314
 5348TIP3   OH216049   6.158   5.288   3.714 -0.3025  0.5443  0.4425
 5348TIP3    H116050   6.214   5.213   3.693 -0.2581  0.7512 -0.2027
 5348TIP3    H216051   6.170   5.301   3.808 -0.2546 -0.2105  0.5525
 5349TIP3   OH216052   1.893   1.800   1.410 -0.2965  0.2164  0.3371
 5349TIP3    H116053   1.810   1.831   1.447 -0.5210 -1.6751  1.5456
 5349TIP3    H216054   1.937   1.755   1.482  1.3576  0.3352 -0.5430
 5350TIP3   OH216055   4.900   5.130   4.404 -0.0253 -0.0294  0.1931
 5350TIP3    H116056   4.845   5.055   4.424 -0.5821  0.2892 -0.0948
 5350TIP3    H216057   4.939   5.155   4.487 -0.8467  0.1457  0.5309
 5351TIP3   OH216058   2.692   5.838   2.951 -0.1805 -0.0922 -0.3740
 5351TIP3    H116059   2.601   5.845   2.922  0.1484  0.3149 -1.3833
 5351TIP3    H216060   2.741   5.826   2.870  0.8123  1.2607 -0.0001
 5352TIP3   OH216061   4.846   3.117   0.174 -0.6950  0.3326  0.1541
 5352TIP3    H116062   4.841   3.200   0.222 -0.8121 -0.3049  1.2849
 5352TIP3    H216063   4.883   3.055   0.237  1.0853 -0.0877 -1.2270
 5353TIP3   OH216064   4.247   4.020   4.741 -0.8664  0.4907 -0.1962
 5353TIP3    H116065   4.158   4.015   4.776 -0.0067  0.3002  2.1313
 5353TIP3    H216066   4.279   4.107   4.767 -0.5501  0.8224 -1.5766
 5354TIP3   OH216067   0.171   0.236   0.233 -0.1397  0.4133 -0.1879
 5354TIP3    H116068   0.093   0.289   0.247  0.7145  1.5725  0.4125
 5354TIP3    H216069   0.200   0.260   0.145  0.2497  0.9734  0.0857
 5355TIP3   OH216070   0.162   5.853   3.801  0.0153  1.2287 -1.2314
 5355TIP3    H116071   0.161   5.944   3.774  1.3753  1.5674 -0.2535
 5355TIP3    H216072   0.155   5.856   3.896  0.8047  0.3544 -1.1313
 5356TIP3   OH216073   4.116   1.155   1.686 -0.1068 -0.1408  0.4126
 5356TIP3    H116074   4.148   1.223   1.626 -0.5942  0.4121  0.7702
 5356TIP3    H216075   4.116   1.075   1.634 -0.4862  0.3275 -0.3142
 5357TIP3   OH216076   2.515   4.938   0.296  0.4938  0.1623  0.5656
 5357TIP3    H116077   2.529   4.857   0.247  1.6113 -0.3191  1.6373
 5357TIP3    H216078   2.429   4.927   0.336  0.3016 -0.1545  0.0838
 5358TIP3   OH216079   3.513   1.531   1.790 -0.2866 -0.0914  0.0830
 5358TIP3    H116080   3.542   1.479   1.715 -1.5305  0.1064 -0.5734
 5358TIP3    H216081   3.496   1.618   1.754  0.3975  0.3888  0.8854
 5359TIP3   OH216082   2.260   1.956   2.409  0.5749  0.0955  0.3364
 5359TIP3    H116083   2.337   1.905   2.385  1.5713  0.7697  1.9401
 5359TIP3    H216084   2.284   1.999   2.491 -2.0395 -0.8790  1.7454
 5360TIP3   OH216085   5.742   1.012   4.114 -0.0842  0.1142 -0.5646
 5360TIP3    H116086   5.838   1.017   4.114 -0.0800  0.2424  0.8498
 5360TIP3    H216087   5.723   0.924   4.144 -0.4161  0.3221 -0.1654
 5361TIP3   OH216088   4.041   4.225   4.525  0.2405 -0.3557  0.4331
 5361TIP3    H116089   3.952   4.191   4.524 -0.0158  0.2547 -1.2140
 5361TIP3    H216090   4.094   4.151   4.554 -0.9540 -0.0842  3.7439
 5362TIP3   OH216091   0.542   1.838   4.452  0.0930 -0.1592  0.5098
 5362TIP3    H116092   0.584   1.831   4.538  0.8922 -1.3335  0.0673
 5362TIP3    H216093   0.613   1.865   4.394  0.2191 -1.8446 -0.1937
 5363TIP3   OH216094   3.114   1.392   4.737  0.4158  0.5733 -0.4833
 5363TIP3    H116095   3.120   1.370   4.644 -0.8418  1.1831 -0.7235
 5363TIP3    H216096   3.090   1.484   4.739 -0.0618  0.4415  0.4346
 5364TIP3   OH216097   2.997   2.568   4.643  0.4029 -0.5678 -0.5249
 5364TIP3    H116098   2.981   2.643   4.585 -0.7857 -2.1108 -2.2957
 5364TIP3    H216099   3.092   2.556   4.640  0.5188  0.3488 -0.8754
 5365TIP3   OH216100   5.677   5.823   2.855  0.4340  0.2967 -0.0104
 5365TIP3    H116101   5.623   5.789   2.926  2.5533 -3.8611 -0.0848
 5365TIP3    H216102   5.636   5.788   2.776  1.7348 -0.7745 -0.2442
 5366TIP3   OH216103   0.635   3.275   3.240  0.3965 -0.2007  0.1930
 5366TIP3    H116104   0.716   3.249   3.285 -0.1768 -1.5120  0.5310
 5366TIP3    H216105   0.663   3.295   3.151  0.8977 -2.3251 -0.1908
 5367TIP3   OH216106   3.837   5.006   1.233  0.1839  0.2232 -0.8118
 5367TIP3    H116107   3.874   4.918   1.231 -1.3687 -0.4716 -0.0954
 5367TIP3    H216108   3.880   5.048   1.307 -0.2147 -0.4581 -0.1905
 5368TIP3   OH216109   3.007   1.088   2.148 -0.2972  0.0838  0.7302
 5368TIP3    H116110   3.102   1.083   2.149 -0.1370  1.9671 -0.0402
 5368TIP3    H216111   2.983   1.127   2.232 -0.1468  1.8744 -0.0052
 5369TIP3   OH216112   5.022   1.621   1.042  0.4532  0.1017  0.2159
 5369TIP3    H116113   5.021   1.568   1.122  2.6830  0.9461  0.8878
 5369TIP3    H216114   5.105   1.599   1.000 -1.0573 -1.0002 -2.4148
 5370TIP3   OH216115   5.857   1.586   1.581 -0.2680  0.2993 -0.0749
 5370TIP3    H116116   5.850   1.593   1.486  1.4832  3.9755 -0.1204
 5370TIP3    H216117   5.784   1.638   1.614  0.1365  0.5086  0.5077
 5371TIP3   OH216118   5.658   3.850   1.735  0.3342 -0.1590 -0.1952
 5371TIP3    H116119   5.708   3.848   1.816 -0.7271  1.6251  0.5569
 5371TIP3    H216120   5.588   3.786   1.748 -1.5273  2.0186  1.5614
 5372TIP3   OH216121   3.280   3.971   1.100  0.3199 -0.8088  0.0853
 5372TIP3    H116122   3.280   3.892   1.046 -1.8317  0.3243 -1.7850
 5372TIP3    H216123   3.372   3.991   1.114  0.9109 -2.9932 -0.3847
 5373TIP3   OH216124   0.318   0.743   4.909  0.6242 -0.0905  0.0352
 5373TIP3    H116125   0.281   0.771   4.993  1.7552 -2.6310  1.4828
 5373TIP3    H216126   0.324   0.648   4.915  1.4547 -0.3123 -2.6679
 5374TIP3   OH216127   0.924   5.806   2.418 -0.2904 -0.4696 -0.3282
 5374TIP3    H116128   0.903   5.873   2.483 -0.5042 -1.0728  0.2390
 5374TIP3    H216129   0.985   5.850   2.357 -0.6332  0.3077 -0.1245
 5375TIP3   OH216130   5.578   2.380   0.687  0.1699  0.0965 -0.4189
 5375TIP3    H116131   5.615   2.390   0.599  2.2336  0.2255  0.3990
 5375TIP3    H216132   5.630   2.309   0.726  0.2988  1.0425  1.1899
 5376TIP3   OH216133   4.395   1.205   0.778 -0.3957  0.3455 -0.4036
 5376TIP3    H116134   4.401   1.287   0.827  1.5715  0.0452 -0.0561
 5376TIP3    H216135   4.387   1.137   0.846  0.5681  0.0707 -0.5434
 5377TIP3   OH216136   1.228   2.496   4.292  0.2282 -0.8333 -0.0616
 5377TIP3    H116137   1.151   2.501   4.349 -0.1129  2.7966 -0.5598
 5377TIP3    H216138   1.299   2.469   4.350 -0.7279 -0.5168  1.3200
 5378TIP3   OH216139   4.611   4.182   1.277 -0.8089  0.0859  0.5171
 5378TIP3    H116140   4.650   4.103   1.316  2.6021  1.6581  0.6935
 5378TIP3    H216141   4.625   4.250   1.342  1.5266  1.9547 -1.6918
 5379TIP3   OH216142   6.249   1.555   4.388  0.3574 -0.5463 -0.2582
 5379TIP3    H116143   6.198   1.614   4.443 -0.1341 -1.3100  0.1242
 5379TIP3    H216144   6.260   1.602   4.306 -1.3882 -0.5278 -0.5308
 5380TIP3   OH216145   1.358   3.840   1.195 -0.1142 -0.4537  0.5813
 5380TIP3    H116146   1.361   3.745   1.197  1.1800 -0.4615 -0.6562
 5380TIP3    H216147   1.448   3.867   1.175 -0.8152  0.9521 -0.9219
 5381TIP3   OH216148   4.139   1.921   2.171  0.1353  0.0433 -0.2093
 5381TIP3    H116149   4.226   1.929   2.210  0.8177 -1.1587 -1.4155
 5381TIP3    H216150   4.116   2.010   2.144  0.0709  0.7380  1.9435
 5382TIP3   OH216151   5.724   2.979   2.533 -0.1069 -0.2870 -0.0631
 5382TIP3    H116152   5.747   3.033   2.458  1.6164  0.8076  1.1825
 5382TIP3    H216153   5.628   2.985   2.539 -0.3109 -0.5893 -2.2474
 5383TIP3   OH216154   4.277   3.085   1.840 -0.0477 -0.4790  0.1613
 5383TIP3    H116155   4.288   3.152   1.908  1.5224 -0.7913  0.2536
 5383TIP3    H216156   4.219   3.126   1.776  2.3367  1.7921 -0.7296
 5384TIP3   OH216157   3.191   1.937   0.508 -0.4081  0.2918  0.7783
 5384TIP3    H116158   3.254   1.895   0.450 -0.8218  0.8732 -0.1259
 5384TIP3    H216159   3.124   1.871   0.523 -0.0384 -0.0294  1.0003
 5385TIP3   OH216160   0.278   2.584   2.816 -0.7298 -0.1352  0.2286
 5385TIP3    H116161   0.349   2.550   2.871  0.3350 -0.6544 -1.3794
 5385TIP3    H216162   0.323   2.627   2.743 -2.0650 -0.2403 -0.6969
 5386TIP3   OH216163   5.236   5.633   4.964 -0.2583  0.0018  0.3486
 5386TIP3    H116164   5.263   5.565   4.902  0.2060  0.3648  0.1455
 5386TIP3    H216165   5.140   5.628   4.964 -0.2436 -0.3592  0.0038
 5387TIP3   OH216166   1.222   0.232   2.376  0.1600  0.3027  0.0414
 5387TIP3    H116167   1.154   0.165   2.366 -0.2715  0.7325  0.1098
 5387TIP3    H216168   1.247   0.227   2.468  1.7491 -1.3275 -0.4203
 5388TIP3   OH216169   3.994   4.541   0.928  0.8550 -0.2683 -0.4242
 5388TIP3    H116170   4.028   4.554   1.017  3.4759 -0.1210 -1.3395
 5388TIP3    H216171   3.951   4.623   0.906  0.8809 -0.0213  0.4269
 5389TIP3   OH216172   4.619   1.324   0.382 -0.7402  0.8097  0.3682
 5389TIP3    H116173   4.549   1.389   0.375 -3.1183 -1.7397 -2.5167
 5389TIP3    H216174   4.696   1.367   0.345 -2.1028  2.1536 -1.0450
 5390TIP3   OH216175   4.536   5.831   4.542 -0.1246  0.1649  0.0708
 5390TIP3    H116176   4.565   5.742   4.521  0.8142  0.5777 -0.4446
 5390TIP3    H216177   4.579   5.851   4.625  0.9110  0.6790 -0.5629
 5391TIP3   OH216178   0.589   2.858   3.030  0.1168 -0.2983 -0.0390
 5391TIP3    H116179   0.653   2.865   3.101  0.8658 -1.1184 -0.6074
 5391TIP3    H216180   0.505   2.872   3.073  0.5705 -0.5434  0.9785
 5392TIP3   OH216181   1.563   3.014   4.478  0.0343  0.1522  0.3593
 5392TIP3    H116182   1.596   3.095   4.519  0.3505  0.5003 -0.5663
 5392TIP3    H216183   1.630   2.949   4.497  1.4042  0.8832 -1.6144
 5393TIP3   OH216184   0.329   4.088   5.140 -0.0134 -0.0561  0.9150
 5393TIP3    H116185   0.247   4.039   5.143 -0.4100  0.5314  0.0419
 5393TIP3    H216186   0.384   4.038   5.079 -0.6890  0.9511 -0.5685
 5394TIP3   OH216187   3.029   0.431   2.134 -0.0793 -0.2069 -0.4047
 5394TIP3    H116188   2.938   0.463   2.141  0.6753  3.1890 -3.0775
 5394TIP3    H216189   3.022   0.347   2.089 -1.9147  0.5472 -1.6538
 5395TIP3   OH216190   4.427   3.782   3.876  0.1143  0.4454  0.3211
 5395TIP3    H116191   4.363   3.850   3.897 -0.5259 -0.4003  1.2114
 5395TIP3    H216192   4.386   3.701   3.906  1.8034 -0.0726  1.3488
 5396TIP3   OH216193   1.727   3.757   3.301 -0.2780  0.2678 -0.2104
 5396TIP3    H116194   1.652   3.787   3.351 -0.6002 -2.8245  1.3504
 5396TIP3    H216195   1.801   3.766   3.361  0.2983  1.4252 -1.0543
 5397TIP3   OH216196   4.239   5.864   0.591 -0.0869 -0.3666 -0.0019
 5397TIP3    H116197   4.165   5.859   0.652 -0.1963  0.5740 -0.0361
 5397TIP3    H216198   4.313   5.888   0.646 -0.4620  1.9525 -0.3718
 5398TIP3   OH216199   0.693   4.837   2.455  0.0103  0.0621  0.1404
 5398TIP3    H116200   0.666   4.860   2.366  0.2654  0.9384  0.2834
 5398TIP3    H216201   0.725   4.747   2.447 -0.3127 -0.0016 -0.5770
 5399TIP3   OH216202   5.441   1.854   4.189  0.0684 -0.2167  0.0258
 5399TIP3    H116203   5.448   1.935   4.137  0.2295  0.0557  0.4603
 5399TIP3    H216204   5.358   1.864   4.236  0.8084  0.4040  1.2373
 5400TIP3   OH216205   3.771   4.547   0.433  0.0616  0.3137 -0.3700
 5400TIP3    H116206   3.805   4.589   0.354 -0.5888  1.4771 -0.0616
 5400TIP3    H216207   3.814   4.462   0.435 -0.8171 -0.2515 -2.6270
 5401TIP3   OH216208   5.216   3.874   2.665  0.2410 -0.2453  0.0528
 5401TIP3    H116209   5.223   3.961   2.625  3.4163  0.0214  0.9794
 5401TIP3    H216210   5.144   3.882   2.727 -0.2009  1.4007 -0.6141
 5402TIP3   OH216211   0.319   3.497   0.399 -0.0924 -0.0021 -0.1253
 5402TIP3    H116212   0.292   3.587   0.378 -0.8429 -0.2729 -0.3364
 5402TIP3    H216213   0.413   3.504   0.416 -0.3491  1.0239  0.9937
 5403TIP3   OH216214   2.225   0.421   2.770 -0.4021  0.1937  0.1742
 5403TIP3    H116215   2.214   0.417   2.675  1.9674 -1.8185 -0.1366
 5403TIP3    H216216   2.316   0.393   2.785  0.3628  3.4542  2.8806
 5404TIP3   OH216217   0.055   1.856   3.823  0.6802  0.0450  0.0892
 5404TIP3    H116218   0.121   1.793   3.792 -0.3510 -0.3212 -1.4655
 5404TIP3    H216219   0.032   1.825   3.911  1.6454 -0.5602  0.1495
 5405TIP3   OH216220   1.982   0.910   1.459 -0.0368 -0.5405  0.1262
 5405TIP3    H116221   1.957   1.000   1.438 -2.7471 -1.0925  0.6022
 5405TIP3    H216222   2.068   0.918   1.500  0.0494  1.7537 -0.3772
 5406TIP3   OH216223   0.528   0.232   3.418  0.6430  0.4096  0.1394
 5406TIP3    H116224   0.585   0.292   3.370  0.8166 -2.0459 -2.9941
 5406TIP3    H216225   0.444   0.236   3.371  0.4012 -1.1463  0.4099
 5407TIP3   OH216226   5.934   1.570   1.224  0.5793  0.3636 -0.6859
 5407TIP3    H116227   5.902   1.658   1.244  0.0649  0.5061 -2.0235
 5407TIP3    H216228   5.891   1.548   1.142 -0.5456 -1.7671  0.3985
 5408TIP3   OH216229   0.636   5.131   5.077 -0.1475  0.4850  0.1993
 5408TIP3    H116230   0.634   5.055   5.019 -0.3940  0.8895 -0.3248
 5408TIP3    H216231   0.728   5.138   5.104 -0.1838 -0.1922  0.5151
 5409TIP3   OH216232   4.676   3.744   3.771  0.5600  0.1380  0.2809
 5409TIP3    H116233   4.591   3.746   3.814  0.0270  0.7053 -0.7540
 5409TIP3    H216234   4.682   3.829   3.727  2.3071  0.7256  1.5420
 5410TIP3   OH216235   0.973   3.123   5.207 -0.4397 -0.5038 -0.4636
 5410TIP3    H116236   0.916   3.064   5.159  0.4378 -0.2230 -1.9100
 5410TIP3    H216237   1.062   3.090   5.192 -0.0372  0.4068 -0.1967
 5411TIP3   OH216238   2.935   3.594   2.195 -0.6570  0.1371 -0.0426
 5411TIP3    H116239   2.859   3.564   2.144  0.4202 -0.8142 -1.1646
 5411TIP3    H216240   2.965   3.671   2.148  0.1666 -0.5757 -0.7253
 5412TIP3   OH216241   1.847   4.408   4.442 -0.3614  0.2841 -0.6500
 5412TIP3    H116242   1.930   4.401   4.490 -0.8161  0.5067  0.1995
 5412TIP3    H216243   1.833   4.320   4.407  1.3531  0.7900 -2.7793
 5413TIP3   OH216244   2.645   4.509   0.759 -0.1888  0.0507 -0.1897
 5413TIP3    H116245   2.692   4.434   0.796  2.8340  0.9285 -1.8641
 5413TIP3    H216246   2.601   4.474   0.682  0.1397 -0.2695 -0.2340
 5414TIP3   OH216247   0.371   4.543   3.169 -0.2260  0.5089 -0.2976
 5414TIP3    H116248   0.291   4.551   3.117  1.1815 -0.5069 -2.7972
 5414TIP3    H216249   0.408   4.631   3.170 -1.8756  1.2896  1.9613
 5415TIP3   OH216250   2.043   3.303   2.123  0.3946 -0.0946  0.1365
 5415TIP3    H116251   1.967   3.293   2.066  0.5500 -0.3220 -0.0291
 5415TIP3    H216252   2.115   3.261   2.076  1.0018  1.5221 -0.4546
 5416TIP3   OH216253   2.857   2.080   1.271 -0.0060  0.1226  0.1606
 5416TIP3    H116254   2.818   2.020   1.334  0.5536 -0.0748  0.3263
 5416TIP3    H216255   2.933   2.033   1.237  1.5176  1.4118  1.6143
 5417TIP3   OH216256   1.650   2.893   4.911 -0.4018  0.2091 -0.3642
 5417TIP3    H116257   1.677   2.970   4.962 -0.2374 -0.2097  0.1872
 5417TIP3    H216258   1.686   2.909   4.824  1.5845 -0.2686  0.3163
 5418TIP3   OH216259   3.091   3.357   3.351 -0.2790  0.2285  0.1428
 5418TIP3    H116260   3.066   3.404   3.271 -0.8789  0.1018  0.2463
 5418TIP3    H216261   3.084   3.422   3.420  3.7919  1.4003 -0.3067
 5419TIP3   OH216262   2.899   5.697   1.896 -0.4035 -0.7201  0.3431
 5419TIP3    H116263   2.912   5.791   1.890 -1.0724 -0.6831 -0.7058
 5419TIP3    H216264   2.987   5.660   1.883 -0.0051 -0.2355  1.5377
 5420TIP3   OH216265   1.695   2.471   1.169 -0.1819  0.3448  0.3789
 5420TIP3    H116266   1.728   2.494   1.256 -0.4629 -0.2644  0.6462
 5420TIP3    H216267   1.763   2.414   1.132 -0.2156  0.3418  0.3222
 5421TIP3   OH216268   0.524   4.698   1.845  0.7016 -0.6982 -0.1644
 5421TIP3    H116269   0.442   4.695   1.894  0.1491  1.9030 -0.7845
 5421TIP3    H216270   0.589   4.663   1.905 -0.5259 -0.8307  1.1392
 5422TIP3   OH216271   0.310   5.477   0.078 -0.2664 -0.3250  0.4672
 5422TIP3    H116272   0.227   5.433   0.097  0.5534 -1.9417  0.5388
 5422TIP3    H216273   0.308   5.557   0.130 -1.3551 -0.8405  1.2429
 5423TIP3   OH216274   2.168   5.753   1.476  0.1517 -0.3232  0.1058
 5423TIP3    H116275   2.261   5.756   1.497  0.4959  0.2916 -1.3771
 5423TIP3    H216276   2.165   5.720   1.386 -1.0062  0.5849 -0.2064
 5424TIP3   OH216277   0.060   3.910   0.649  0.2956 -0.1791 -0.1745
 5424TIP3    H116278   0.024   3.821   0.648  0.1700 -0.1314 -1.1358
 5424TIP3    H216279   0.091   3.922   0.739 -1.3215 -0.5361  0.4776
 5425TIP3   OH216280   3.268   4.549   0.913 -0.1372  0.2700  0.0198
 5425TIP3    H116281   3.250   4.637   0.879 -0.4154 -0.2313 -1.1823
 5425TIP3    H216282   3.198   4.495   0.876  1.1481 -0.8313 -0.8863
 5426TIP3   OH216283   2.600   5.309   3.884 -0.0543 -1.0444 -0.1535
 5426TIP3    H116284   2.627   5.241   3.946 -2.4243 -0.9680  1.0714
 5426TIP3    H216285   2.610   5.391   3.932  1.2220 -0.6402 -1.0595
 5427TIP3   OH216286   6.223   4.311   4.301 -0.4947 -0.0149 -0.0321
 5427TIP3    H116287   6.275   4.232   4.317  0.6532  0.6398 -0.4358
 5427TIP3    H216288   6.186   4.332   4.387  0.1019 -0.3738  0.3255
 5428TIP3   OH216289   5.546   2.632   2.823 -0.0571  0.2196 -0.5277
 5428TIP3    H116290   5.487   2.625   2.748 -1.0411  0.9134  0.1585
 5428TIP3    H216291   5.596   2.713   2.807  0.1537  0.0533 -0.7183
 5429TIP3   OH216292   4.324   3.648   4.867  0.1350  0.0718  0.2673
 5429TIP3    H116293   4.417   3.667   4.876  0.4811 -2.2286  2.4937
 5429TIP3    H216294   4.282   3.696   4.938  0.1718 -1.9051  1.6843
 5430TIP3   OH216295   3.468   3.627   1.607 -0.2520  0.2267  0.2327
 5430TIP3    H116296   3.532   3.694   1.582  1.2225 -1.1556  0.1340
 5430TIP3    H216297   3.397   3.636   1.543  0.8288  0.4407 -0.9843
 5431TIP3   OH216298   5.849   2.314   3.259  0.1186  0.0675 -0.3796
 5431TIP3    H116299   5.930   2.329   3.308  0.7306  1.6137 -1.7821
 5431TIP3    H216300   5.780   2.337   3.321  0.6487 -1.9048  1.0687
 5432TIP3   OH216301   4.593   3.654   4.590  0.4308 -0.3939 -0.4186
 5432TIP3    H116302   4.581   3.685   4.680 -0.1527 -1.2967 -0.1708
 5432TIP3    H216303   4.532   3.581   4.582  0.6018 -0.4290 -1.5031
 5433TIP3   OH216304   0.169   5.732   4.675 -0.2930  0.2401 -0.3929
 5433TIP3    H116305   0.170   5.784   4.755  0.1223 -1.3960  0.7198
 5433TIP3    H216306   0.216   5.785   4.611 -1.0420  1.7800  0.2951
 5434TIP3   OH216307   2.527   4.935   4.615  0.4715 -0.5014 -0.5874
 5434TIP3    H116308   2.607   4.981   4.640  0.4805 -1.3221  1.0629
 5434TIP3    H216309   2.458   5.000   4.622  0.8175 -0.1218 -0.6971
 5435TIP3   OH216310   2.450   2.777   1.583  0.9010 -0.1167  0.1669
 5435TIP3    H116311   2.501   2.857   1.596  0.6653 -0.0225  0.5080
 5435TIP3    H216312   2.409   2.761   1.668 -1.0772  0.7993 -0.5643
 5436TIP3   OH216313   5.316   5.758   4.079  0.0839  0.3453  0.2983
 5436TIP3    H116314   5.362   5.755   3.995  0.5589 -2.0684  0.5681
 5436TIP3    H216315   5.239   5.703   4.066 -1.5708  2.4765  0.5543
 5437TIP3   OH216316   6.285   1.385   1.957  0.2599  0.3261 -0.3066
 5437TIP3    H116317   6.246   1.408   1.872 -1.5923  3.3604  1.2108
 5437TIP3    H216318   6.210   1.362   2.012  0.5085  4.5733  2.2050
 5438TIP3   OH216319   5.641   0.791   4.800 -0.3837 -0.0609  0.3923
 5438TIP3    H116320   5.583   0.715   4.794  0.7053 -0.8539 -0.3326
 5438TIP3    H216321   5.718   0.768   4.748  0.5638  1.0107  1.2559
 5439TIP3   OH216322   1.871   2.169   3.282  0.2668 -0.5100  0.0082
 5439TIP3    H116323   1.919   2.247   3.252  0.3667  1.1512  3.8285
 5439TIP3    H216324   1.787   2.173   3.236  1.1097  0.5372 -1.5494
 5440TIP3   OH216325   0.056   2.834   0.586 -0.4526  0.1985  0.2944
 5440TIP3    H116326   0.049   2.829   0.491 -1.2804  1.4616  0.2641
 5440TIP3    H216327   0.043   2.927   0.606  1.6364  0.2904  1.4948
 5441TIP3   OH216328   5.476   2.462   2.396 -0.3095  0.5717 -0.0304
 5441TIP3    H116329   5.436   2.449   2.310 -0.3295  1.3190 -0.1396
 5441TIP3    H216330   5.533   2.538   2.384  3.3403 -1.9683 -0.6703
 5442TIP3   OH216331   0.866   1.500   4.194 -0.1828 -0.4605 -0.0627
 5442TIP3    H116332   0.828   1.581   4.158 -0.5129  0.5831  2.4044
 5442TIP3    H216333   0.908   1.528   4.275  0.8634 -2.5854  0.1814
 5443TIP3   OH216334   0.920   5.632   1.697  0.3282  0.1926 -0.0677
 5443TIP3    H116335   0.978   5.676   1.634  0.1870  2.2211  1.1287
 5443TIP3    H216336   0.854   5.589   1.643  2.8221 -2.2022 -1.4986
 5444TIP3   OH216337   2.606   4.716   1.704 -0.1877 -0.7563 -0.2202
 5444TIP3    H116338   2.648   4.755   1.781 -0.8458 -1.3301  0.4387
 5444TIP3    H216339   2.674   4.661   1.665 -0.3127 -1.7014  0.8545
 5445TIP3   OH216340   0.292   3.253   4.434  0.1639  0.2462  0.1108
 5445TIP3    H116341   0.227   3.309   4.391  1.4659  1.9388  0.2483
 5445TIP3    H216342   0.374   3.274   4.390  0.6719 -1.7946 -0.0048
 5446TIP3   OH216343   0.527   4.749   1.423  0.0253  0.0993 -0.4119
 5446TIP3    H116344   0.570   4.794   1.496  2.0184  0.0905 -1.5245
 5446TIP3    H216345   0.593   4.688   1.390 -0.8857  0.0102 -2.1485
 5447TIP3   OH216346   5.666   1.239   1.859  0.3305  0.2539 -0.1359
 5447TIP3    H116347   5.643   1.191   1.780 -0.5583 -0.6647  0.6516
 5447TIP3    H216348   5.753   1.273   1.842  1.4268 -2.4698 -0.3768
 5448TIP3   OH216349   4.423   0.640   0.121 -0.3016  0.4042  0.1277
 5448TIP3    H116350   4.489   0.584   0.081 -0.0824  0.6354  0.1644
 5448TIP3    H216351   4.472   0.700   0.177 -0.5219  0.7181 -0.0123
 5449TIP3   OH216352   2.369   5.956   2.052  0.1027 -0.2397 -0.0157
 5449TIP3    H116353   2.290   5.960   1.997  0.8378  2.0539 -1.0031
 5449TIP3    H216354   2.372   6.041   2.096  2.1977 -0.1450 -0.2645
 5450TIP3   OH216355   4.601   5.244   1.575  0.6435 -0.1982  0.2643
 5450TIP3    H116356   4.633   5.155   1.585 -0.0269 -0.6049 -0.9784
 5450TIP3    H216357   4.579   5.251   1.482 -1.3351  0.5628  0.7366
 5451TIP3   OH216358   1.505   2.671   3.865  0.0770 -0.3427 -0.5469
 5451TIP3    H116359   1.577   2.735   3.870  0.1070 -0.3917 -0.3395
 5451TIP3    H216360   1.431   2.716   3.905 -0.0009 -0.3014 -0.7395
 5452TIP3   OH216361   4.140   1.533   2.708 -0.0717  0.0907 -0.2047
 5452TIP3    H116362   4.134   1.457   2.765 -0.4843 -0.1914 -0.6231
 5452TIP3    H216363   4.217   1.515   2.653  0.4042  0.4215  0.3317
 5453TIP3   OH216364   5.440   0.420   3.902 -0.0752 -0.3674  0.1931
 5453TIP3    H116365   5.372   0.379   3.848 -0.3777  1.6612 -1.0398
 5453TIP3    H216366   5.429   0.379   3.988 -1.3111 -1.7703 -0.5704
 5454TIP3   OH216367   5.253   5.348   1.812 -0.2070 -0.3841 -0.2027
 5454TIP3    H116368   5.272   5.367   1.720  0.4100 -3.0271 -0.7267
 5454TIP3    H216369   5.171   5.393   1.830  0.7283  1.9631 -1.3698
 5455TIP3   OH216370   1.977   5.750   1.649 -0.0722 -0.4419 -0.0828
 5455TIP3    H116371   1.904   5.770   1.590 -0.0769  1.1748  0.4183
 5455TIP3    H216372   2.053   5.745   1.592 -0.3889 -0.9975 -0.4704
 5456TIP3   OH216373   2.350   1.986   1.099  0.0389 -1.0085 -0.1027
 5456TIP3    H116374   2.404   1.949   1.169  0.2347 -0.0553  0.2730
 5456TIP3    H216375   2.311   2.065   1.138 -0.6188 -0.9911 -0.7698
 5457TIP3   OH216376   4.071   5.180   4.195  0.4422 -0.3146 -0.6421
 5457TIP3    H116377   4.004   5.195   4.129  1.1229  0.3859 -1.1912
 5457TIP3    H216378   4.024   5.139   4.268 -0.6175  0.3628 -0.9272
 5458TIP3   OH216379   5.566   4.729   4.316 -0.0749 -0.0545  0.2932
 5458TIP3    H116380   5.581   4.811   4.363 -1.0790  0.3833 -0.1150
 5458TIP3    H216381   5.531   4.756   4.231  2.4567 -0.7967 -1.0656
 5459TIP3   OH216382   1.540   4.828   2.550 -0.3409 -0.2323 -0.1107
 5459TIP3    H116383   1.531   4.861   2.461  2.3395 -0.8715 -0.7151
 5459TIP3    H216384   1.457   4.784   2.568 -0.9070 -0.2029 -2.3485
 5460TIP3   OH216385   1.439   1.459   5.017  0.1295  0.3177  0.2532
 5460TIP3    H116386   1.361   1.485   4.968 -0.1300  1.0157  1.0022
 5460TIP3    H216387   1.421   1.488   5.107  1.1615  0.2888  0.4806
 5461TIP3   OH216388   4.991   1.580   1.556  0.1020  0.2435 -0.0182
 5461TIP3    H116389   5.063   1.623   1.601  0.1126 -0.8333  1.0368
 5461TIP3    H216390   4.959   1.514   1.618 -0.6060 -0.5249 -1.1510
 5462TIP3   OH216391   5.068   4.739   2.625  0.4031 -0.0285  0.1991
 5462TIP3    H116392   5.041   4.690   2.547 -4.3685  0.3950  1.2787
 5462TIP3    H216393   5.088   4.672   2.690 -1.4936 -0.5820  0.2788
 5463TIP3   OH216394   5.054   1.158   1.411 -0.3089  0.4865  0.1224
 5463TIP3    H116395   5.073   1.071   1.444 -0.1966  1.0540  1.6340
 5463TIP3    H216396   5.122   1.174   1.345 -0.2417 -0.4926 -0.0600
 5464TIP3   OH216397   5.558   0.944   0.120 -0.5783 -0.1192  0.3453
 5464TIP3    H116398   5.464   0.965   0.126 -0.7365  0.1030 -1.8273
 5464TIP3    H216399   5.582   0.973   0.032  1.6724  0.2815  1.0472
 5465TIP3   OH216400   2.610   2.920   3.448 -0.6111  0.4618  0.1377
 5465TIP3    H116401   2.545   2.853   3.471  0.0093 -0.2774 -0.2252
 5465TIP3    H216402   2.665   2.878   3.381  0.5239  0.9031  0.7744
 5466TIP3   OH216403   0.436   1.704   3.604 -0.2615  0.0080  0.4829
 5466TIP3    H116404   0.345   1.707   3.576 -0.6525  1.6587  1.7069
 5466TIP3    H216405   0.434   1.657   3.687  0.1633 -0.7913  0.0481
 5467TIP3   OH216406   5.871   1.991   2.721  0.2732 -0.1302 -0.3809
 5467TIP3    H116407   5.921   1.956   2.646  1.1118  0.7196 -0.2449
 5467TIP3    H216408   5.917   2.072   2.744  0.0555 -0.3944  1.0878
 5468TIP3   OH216409   4.648   5.599   3.326 -0.8216  0.3752 -0.0086
 5468TIP3    H116410   4.609   5.638   3.405 -0.1940  0.0744  0.4557
 5468TIP3    H216411   4.671   5.510   3.353 -0.6767  0.2474 -0.5577
 5469TIP3   OH216412   2.927   5.504   3.133 -0.4047 -0.0244  0.1244
 5469TIP3    H116413   2.940   5.596   3.155  1.1239  0.0060 -0.7668
 5469TIP3    H216414   2.881   5.506   3.049  0.4036 -0.0524 -0.3252
 5470TIP3   OH216415   1.973   4.100   3.042  0.5349  0.2701  0.2180
 5470TIP3    H116416   1.916   4.070   3.112 -0.1550 -1.4576 -1.0053
 5470TIP3    H216417   1.974   4.196   3.050 -1.6635  0.2754  0.9435
 5471TIP3   OH216418   5.031   0.454   0.016 -0.6989 -0.4709  0.3125
 5471TIP3    H116419   4.977   0.423   0.089 -0.0711 -3.0704 -0.2330
 5471TIP3    H216420   5.094   0.514   0.056 -2.3754  0.7024  1.3351
 5472TIP3   OH216421   3.851   1.023   3.596 -0.1057 -0.4392 -0.6110
 5472TIP3    H116422   3.811   1.101   3.633  0.1274  0.5243 -2.3089
 5472TIP3    H216423   3.853   0.961   3.669 -1.4580  0.6760  0.4407
 5473TIP3   OH216424   2.225   5.923   3.371 -0.6897 -0.3862  0.3408
 5473TIP3    H116425   2.304   5.868   3.374 -0.1346  0.2810 -0.9781
 5473TIP3    H216426   2.167   5.885   3.437 -0.5460 -2.9185 -0.8592
 5474TIP3   OH216427   0.264   2.690   4.924  0.3811  0.8135  0.1738
 5474TIP3    H116428   0.237   2.781   4.913 -0.6495  0.5882  0.7245
 5474TIP3    H216429   0.301   2.686   5.012  0.7751  0.7790  0.0076
 5475TIP3   OH216430   2.722   2.706   4.130 -0.0638  0.0433 -0.8105
 5475TIP3    H116431   2.727   2.740   4.041 -0.0014 -1.7737 -1.5365
 5475TIP3    H216432   2.709   2.612   4.120 -1.4460 -0.0417  1.1045
 5476TIP3   OH216433   0.283   3.311   1.097 -0.0910  0.1679  0.4014
 5476TIP3    H116434   0.208   3.253   1.108  0.7623 -0.8750  0.8088
 5476TIP3    H216435   0.314   3.294   1.008 -0.2861  0.5555  0.2550
 5477TIP3   OH216436   2.764   4.931   2.830  0.0620 -0.3472 -0.5951
 5477TIP3    H116437   2.777   4.856   2.772 -0.7436 -1.2221  0.3079
 5477TIP3    H216438   2.674   4.920   2.862  0.3582  0.3191  0.5084
 5478TIP3   OH216439   1.419   1.581   2.156  0.6679 -0.0405 -0.5995
 5478TIP3    H116440   1.330   1.551   2.175  0.1255  1.2287 -1.0229
 5478TIP3    H216441   1.456   1.514   2.099 -0.2920 -0.1955 -1.0501
 5479TIP3   OH216442   5.970   0.826   4.205  0.0981 -0.3301  0.1879
 5479TIP3    H116443   6.036   0.822   4.136 -0.6435  0.5754 -0.6043
 5479TIP3    H216444   5.891   0.788   4.165 -0.2306 -0.1632  0.6713
 5480TIP3   OH216445   4.857   2.272   2.080 -0.7445  0.1561  0.3968
 5480TIP3    H116446   4.892   2.308   1.998  0.1203 -1.7956 -0.1451
 5480TIP3    H216447   4.872   2.341   2.145  1.3538  0.5694 -0.4537
 5481TIP3   OH216448   3.522   5.883   4.749  0.1340  0.2044  0.2484
 5481TIP3    H116449   3.549   5.791   4.752 -0.8114 -0.1223 -0.4970
 5481TIP3    H216450   3.518   5.903   4.655 -0.2056  0.8389  0.3931
 5482TIP3   OH216451   4.430   1.079   3.742 -0.1127  0.4455  0.3695
 5482TIP3    H116452   4.408   0.989   3.717  1.7199 -0.0167  0.2650
 5482TIP3    H216453   4.416   1.081   3.837 -0.3951  0.1081  0.3363
 5483TIP3   OH216454   5.887   3.565   4.879  0.4152 -0.3350  0.1110
 5483TIP3    H116455   5.842   3.499   4.826 -0.3511  1.0013 -0.9428
 5483TIP3    H216456   5.832   3.575   4.957 -0.0338 -0.1524 -0.2310
 5484TIP3   OH216457   4.173   1.292   2.237 -0.2398  0.2912 -0.0088
 5484TIP3    H116458   4.099   1.299   2.297 -0.7304 -2.2477 -0.1810
 5484TIP3    H216459   4.140   1.238   2.165  1.0103  1.3585 -1.4492
 5485TIP3   OH216460   5.098   5.517   2.144  0.1998  0.3805  0.3361
 5485TIP3    H116461   5.058   5.441   2.101 -0.2083  0.5877  0.3500
 5485TIP3    H216462   5.129   5.483   2.228  2.3226 -0.3936 -0.6806
 5486TIP3   OH216463   5.332   3.130   4.058 -0.3905  0.3239 -0.4512
 5486TIP3    H116464   5.320   3.107   4.150 -3.1530  1.1887 -0.4787
 5486TIP3    H216465   5.426   3.131   4.045  0.1206  0.7832  2.5446
 5487TIP3   OH216466   0.955   5.847   3.808  0.3020  0.2421  0.0397
 5487TIP3    H116467   1.010   5.922   3.786 -1.1411  1.3217 -0.0157
 5487TIP3    H216468   0.884   5.884   3.861  0.4487 -1.3526  1.4296
 5488TIP3   OH216469   2.025   4.021   3.465  0.1014  0.6517  0.1119
 5488TIP3    H116470   1.994   4.059   3.383 -0.8710  0.7288  0.5078
 5488TIP3    H216471   1.955   4.039   3.528  0.9704  0.8584  1.0375
 5489TIP3   OH216472   1.810   3.952   1.297  0.2476 -0.3653 -0.2896
 5489TIP3    H116473   1.818   3.957   1.393 -2.0768 -0.2904 -0.0474
 5489TIP3    H216474   1.881   4.007   1.265  0.1144  0.9076  1.4473
 5490TIP3   OH216475   4.434   2.481   1.230 -0.5815  0.6052  0.4209
 5490TIP3    H116476   4.425   2.391   1.198 -0.9429  1.1168 -1.0013
 5490TIP3    H216477   4.437   2.473   1.325 -0.0437 -0.9517  0.2911
 5491TIP3   OH216478   3.439   0.379   2.361 -0.0247  0.2683  0.3195
 5491TIP3    H116479   3.438   0.416   2.273  2.3269 -0.1333  0.0674
 5491TIP3    H216480   3.362   0.322   2.363 -1.4706  2.0856 -0.6129
 5492TIP3   OH216481   2.092   0.234   1.522  0.2567 -0.5357 -0.2167
 5492TIP3    H116482   2.032   0.249   1.449  2.0161  3.2135 -1.0976
 5492TIP3    H216483   2.044   0.265   1.599  0.2087  0.2542 -0.5603
 5493TIP3   OH216484   3.643   4.483   1.238  0.3777 -0.2197 -0.2629
 5493TIP3    H116485   3.548   4.480   1.238  0.3283  0.1538  1.6591
 5493TIP3    H216486   3.670   4.405   1.191 -0.8390  0.8974 -3.0545
 5494TIP3   OH216487   3.901   4.760   3.667  0.4742  0.0246  0.1747
 5494TIP3    H116488   3.896   4.829   3.733  3.1205  2.2020 -1.6305
 5494TIP3    H216489   3.861   4.798   3.589 -0.0234 -1.3870 -0.2950
 5495TIP3   OH216490   2.567   5.302   1.228 -0.2893 -0.2242  0.1443
 5495TIP3    H116491   2.612   5.363   1.170  1.3646 -0.6862  0.8751
 5495TIP3    H216492   2.500   5.355   1.271  0.0386  0.6794 -0.4237
 5496TIP3   OH216493   3.537   4.815   3.209 -0.1618  0.4417  0.1623
 5496TIP3    H116494   3.465   4.852   3.157 -1.5917 -0.1501  1.6029
 5496TIP3    H216495   3.615   4.859   3.176 -1.3362  2.0952 -0.6108
 5497TIP3   OH216496   3.066   4.273   1.385 -0.7296 -0.2126 -0.0055
 5497TIP3    H116497   3.064   4.186   1.345  2.3858  0.0394 -0.9076
 5497TIP3    H216498   2.985   4.315   1.354 -1.1847 -1.9850 -1.3872
 5498TIP3   OH216499   0.708   4.439   5.186 -0.2234 -0.0285  0.4719
 5498TIP3    H116500   0.767   4.506   5.152 -0.0166  0.5333  1.8552
 5498TIP3    H216501   0.696   4.378   5.113  1.9085 -0.0585  0.0734
 5499TIP3   OH216502   4.778   3.766   3.248 -0.3112  0.3051 -0.4507
 5499TIP3    H116503   4.833   3.844   3.244  1.2401 -0.4763  2.4360
 5499TIP3    H216504   4.688   3.799   3.252  0.3455  2.0533  1.4592
 5500TIP3   OH216505   3.726   1.473   2.731 -0.4697  0.2924  0.4018
 5500TIP3    H116506   3.657   1.466   2.666 -0.8142 -0.2296  0.8104
 5500TIP3    H216507   3.782   1.544   2.700 -1.0764  0.5881 -0.0384
 5501TIP3   OH216508   4.767   2.115   4.071 -0.0829  0.2114  0.5282
 5501TIP3    H116509   4.820   2.187   4.105  1.1019 -1.0500  1.4877
 5501TIP3    H216510   4.677   2.145   4.080  0.4083  2.2311 -0.7009
 5502TIP3   OH216511   5.660   3.170   1.204  0.1393 -0.1196 -0.1516
 5502TIP3    H116512   5.711   3.195   1.126  1.1690  1.2096  0.8919
 5502TIP3    H216513   5.726   3.144   1.268 -0.6078  0.1084  0.7262
 5503TIP3   OH216514   3.560   2.807   3.036  0.2746  0.3917 -0.2568
 5503TIP3    H116515   3.634   2.778   2.982  0.0982  1.1574 -0.9261
 5503TIP3    H216516   3.591   2.888   3.077  0.7457 -0.6343  1.5517
 5504TIP3   OH216517   3.209   1.863   4.730  0.2224 -0.3206  0.4777
 5504TIP3    H116518   3.142   1.930   4.741  0.1484 -0.5089  1.1950
 5504TIP3    H216519   3.223   1.827   4.818  2.8302  1.1850  0.7881
 5505TIP3   OH216520   3.931   4.281   1.800 -0.0095  0.2657 -0.2665
 5505TIP3    H116521   3.881   4.354   1.837  1.0783  0.1866  1.5163
 5505TIP3    H216522   3.866   4.213   1.783 -1.2087  1.9808 -3.0489
 5506TIP3   OH216523   4.255   5.710   1.218 -0.0223  0.7788 -0.5574
 5506TIP3    H116524   4.199   5.732   1.292  0.9334  0.9603  0.1440
 5506TIP3    H216525   4.200   5.657   1.161 -0.1315 -1.4591  1.4396
 5507TIP3   OH216526   6.067   2.039   3.743  0.2089  0.3321 -0.4011
 5507TIP3    H116527   6.053   1.946   3.722 -0.4059  0.2605  0.2793
 5507TIP3    H216528   6.136   2.038   3.810  2.5465  0.5907 -2.6696
 5508TIP3   OH216529   5.294   5.609   0.879  0.2630  0.0117 -0.0167
 5508TIP3    H116530   5.237   5.535   0.902 -1.1747  0.6820 -1.1939
 5508TIP3    H216531   5.341   5.580   0.801 -0.9501  0.6023 -1.0017
 5509TIP3   OH216532   2.029   0.399   2.174 -0.1454  0.1435  0.2466
 5509TIP3    H116533   2.059   0.314   2.206  0.4219  0.0895 -0.4142
 5509TIP3    H216534   1.948   0.380   2.128  0.4789 -0.2030 -0.7456
 5510TIP3   OH216535   4.321   4.353   3.852  0.0443 -0.0520 -0.0899
 5510TIP3    H116536   4.263   4.319   3.784  0.2764 -0.5859 -0.0180
 5510TIP3    H216537   4.272   4.341   3.934  0.1429 -0.2439 -0.0601
 5511TIP3   OH216538   5.057   2.647   3.856  0.2287  0.1725 -0.1411
 5511TIP3    H116539   5.122   2.718   3.853  0.4917 -0.0093  0.8176
 5511TIP3    H216540   5.084   2.594   3.931 -1.1302  0.2012  0.4016
 5512TIP3   OH216541   2.990   4.686   4.165 -0.0001 -0.6702  0.1606
 5512TIP3    H116542   2.985   4.596   4.134 -0.0208 -0.3220 -0.9091
 5512TIP3    H216543   3.006   4.738   4.086  1.9115  0.0925  0.9791
 5513TIP3   OH216544   1.387   4.666   4.022  0.0807  0.5251 -0.3510
 5513TIP3    H116545   1.415   4.684   4.111 -0.8270  2.7258 -0.4435
 5513TIP3    H216546   1.386   4.570   4.016  3.1183  0.2959  0.9845
 5514TIP3   OH216547   2.004   1.544   1.137 -0.3818 -0.2136  0.6225
 5514TIP3    H116548   2.027   1.628   1.097 -0.0550 -0.6830 -0.1983
 5514TIP3    H216549   2.033   1.552   1.227  0.0171  0.4133  0.4475
 5515TIP3   OH216550   2.556   5.439   0.326  0.0203 -0.0385 -0.6026
 5515TIP3    H116551   2.564   5.346   0.349 -0.4203 -0.1063 -0.7293
 5515TIP3    H216552   2.482   5.470   0.378  1.1669  0.6449  0.7091
 5516TIP3   OH216553   5.354   3.823   1.466 -0.9849 -0.3627 -0.5134
 5516TIP3    H116554   5.300   3.847   1.542  1.5071  0.9335  0.9877
 5516TIP3    H216555   5.378   3.906   1.426  1.6641 -0.6519  0.2637
 5517TIP3   OH216556   5.708   4.740   3.934 -0.2608 -0.1585  0.0115
 5517TIP3    H116557   5.789   4.715   3.889  0.3535  0.1246  0.9136
 5517TIP3    H216558   5.737   4.801   4.002 -1.2376 -0.0458  0.3393
 5518TIP3   OH216559   4.249   3.814   5.071 -0.2947  0.3574  0.6085
 5518TIP3    H116560   4.323   3.875   5.064  0.7458 -0.9016  0.3361
 5518TIP3    H216561   4.174   3.870   5.092  0.9887  1.5084  2.3574
 5519TIP3   OH216562   4.041   1.063   2.589 -0.1618 -0.0126  0.5036
 5519TIP3    H116563   4.112   1.022   2.540 -0.7135  1.2805 -1.5076
 5519TIP3    H216564   3.994   0.989   2.628  1.6677 -0.9520  1.0722
 5520TIP3   OH216565   5.543   4.808   3.270  0.9585  0.6156  0.5167
 5520TIP3    H116566   5.621   4.846   3.230  0.1408  0.4348 -1.3788
 5520TIP3    H216567   5.555   4.713   3.260 -0.2416  0.6009 -1.4740
 5521TIP3   OH216568   6.311   1.617   3.380  0.0292 -0.8134  0.4029
 5521TIP3    H116569   6.234   1.636   3.327  0.5528  0.4902  0.0618
 5521TIP3    H216570   6.369   1.568   3.321  0.8488  1.1146 -0.5088
 5522TIP3   OH216571   4.066   2.640   2.343  0.2772  0.2804 -0.4852
 5522TIP3    H116572   4.104   2.712   2.394  0.3328  1.2553 -1.8385
 5522TIP3    H216573   3.972   2.658   2.342  0.1802 -0.1888 -0.0549
 5523TIP3   OH216574   1.224   5.339   4.150 -0.5898 -0.6945 -0.0513
 5523TIP3    H116575   1.287   5.405   4.121  0.8665 -1.5876  0.9291
 5523TIP3    H216576   1.165   5.386   4.209 -0.3593 -0.0021 -0.3652
 5524TIP3   OH216577   0.931   0.461   2.548  0.0164 -0.1887  0.3797
 5524TIP3    H116578   1.009   0.501   2.511  0.0975 -0.1716  0.5648
 5524TIP3    H216579   0.963   0.406   2.620 -0.0835 -0.7202  0.0195
 5525TIP3   OH216580   0.113   3.827   1.844  0.0972 -0.1321  0.2166
 5525TIP3    H116581   0.066   3.755   1.801 -1.2093  1.6384 -1.4759
 5525TIP3    H216582   0.090   3.818   1.936 -2.1631 -0.4055 -0.3086
 5526TIP3   OH216583   5.713   1.530   3.087 -0.5590  0.5787 -0.0353
 5526TIP3    H116584   5.736   1.586   3.160  1.6371 -0.4846  0.1943
 5526TIP3    H216585   5.634   1.484   3.115 -0.3199  0.9214  1.2455
 5527TIP3   OH216586   3.094   4.629   2.042  0.0547 -0.0284 -0.0864
 5527TIP3    H116587   3.083   4.679   1.962  0.2550  0.5204  0.2235
 5527TIP3    H216588   3.086   4.694   2.112 -1.0651 -0.6433  0.3847
 5528TIP3   OH216589   2.549   1.561   2.040 -0.4826 -0.9141 -0.3784
 5528TIP3    H116590   2.535   1.542   2.132 -0.4234 -1.9367 -0.5655
 5528TIP3    H216591   2.469   1.531   1.997 -0.7206  0.0171 -0.6149
 5529TIP3   OH216592   3.840   3.180   1.743 -0.0089 -0.2643  0.2021
 5529TIP3    H116593   3.751   3.209   1.765  0.3095  0.2618  0.8296
 5529TIP3    H216594   3.876   3.252   1.693  0.5801  0.1982  1.2542
 5530TIP3   OH216595   1.936   0.549   0.216  0.1094 -0.0907  0.2406
 5530TIP3    H116596   1.849   0.578   0.189  0.2747  0.4462  0.2864
 5530TIP3    H216597   1.977   0.626   0.254  0.8215 -0.1970 -0.2973
 5531TIP3   OH216598   4.656   3.205   3.537  0.1136  0.1305  0.6558
 5531TIP3    H116599   4.667   3.300   3.531 -1.0441  0.2445 -0.0166
 5531TIP3    H216600   4.646   3.176   3.446 -0.1135 -0.5559  0.8957
 5532TIP3   OH216601   6.300   1.289   4.437  0.2003  0.0377 -0.4035
 5532TIP3    H116602   6.298   1.383   4.416 -0.9561  0.1500  0.1311
 5532TIP3    H216603   6.386   1.260   4.407 -0.6853  0.5031 -3.7731
 5533TIP3   OH216604   0.268   2.042   3.064  0.6997  0.3163  0.1786
 5533TIP3    H116605   0.245   2.020   3.154 -1.7119  0.0253 -0.4519
 5533TIP3    H216606   0.328   1.972   3.037 -1.8180 -2.0137  0.2703
 5534TIP3   OH216607   3.059   2.704   3.230  0.7157  0.1519 -0.1188
 5534TIP3    H116608   3.141   2.668   3.264  0.5007 -0.7280 -0.5041
 5534TIP3    H216609   3.039   2.652   3.152  0.8426  1.6889 -1.2341
 5535TIP3   OH216610   3.163   1.448   1.557 -0.1998  0.0923 -0.2214
 5535TIP3    H116611   3.165   1.516   1.489 -1.9131  0.7549  0.3318
 5535TIP3    H216612   3.159   1.497   1.639 -0.7994 -0.6705  0.2139
 5536TIP3   OH216613   4.709   5.843   4.218 -0.5588 -0.4703  0.2115
 5536TIP3    H116614   4.614   5.841   4.209 -0.3402 -1.2770 -3.0592
 5536TIP3    H216615   4.732   5.754   4.243 -0.5778 -0.9116 -1.2300
 5537TIP3   OH216616   2.724   2.024   0.781  0.2427  0.4344 -0.1593
 5537TIP3    H116617   2.717   2.060   0.870  1.9954  2.0852 -0.6179
 5537TIP3    H216618   2.674   2.086   0.727 -0.7991 -0.5500 -0.3513
 5538TIP3   OH216619   4.710   2.770   3.518 -0.6263  0.2530  0.1121
 5538TIP3    H116620   4.652   2.694   3.508 -3.4459  2.3627 -1.4078
 5538TIP3    H216621   4.666   2.824   3.584  0.2068  1.4530 -0.2936
 5539TIP3   OH216622   4.386   2.472   2.369 -0.5999  0.2865 -0.4130
 5539TIP3    H116623   4.469   2.503   2.406  0.4111 -0.6374 -1.7623
 5539TIP3    H216624   4.319   2.505   2.428  0.7756  0.5456  1.0769
 5540TIP3   OH216625   5.959   2.831   4.901 -0.0637  0.3269 -0.0033
 5540TIP3    H116626   6.044   2.877   4.899  1.2900 -2.0377 -0.1781
 5540TIP3    H216627   5.926   2.848   4.989 -0.6141  3.1966 -0.6489
 5541TIP3   OH216628   2.732   5.806   1.666  1.0322  0.0920  0.3215
 5541TIP3    H116629   2.784   5.884   1.684  1.5375  0.1708 -1.3250
 5541TIP3    H216630   2.778   5.736   1.713  1.3929  0.5399  0.6497
 5542TIP3   OH216631   3.889   2.236   4.948  0.0075  0.0725 -0.8220
 5542TIP3    H116632   3.817   2.245   5.010  0.5999 -0.0095 -0.1122
 5542TIP3    H216633   3.847   2.236   4.862 -0.9199 -0.8687 -0.3824
 5543TIP3   OH216634   0.047   4.224   1.336 -0.7932 -0.2070 -0.2655
 5543TIP3    H116635   0.091   4.163   1.395  0.9122  1.6869  0.5326
 5543TIP3    H216636   0.115   4.287   1.311 -1.8595 -0.0015 -3.0034
 5544TIP3   OH216637   2.517   1.911   1.340 -0.2589  0.2723 -0.3084
 5544TIP3    H116638   2.504   1.816   1.327  1.4743 -0.3081  1.7014
 5544TIP3    H216639   2.611   1.923   1.329 -0.5186  1.8897 -0.9709
 5545TIP3   OH216640   1.476   2.447   0.354  0.0541  0.0889  0.2938
 5545TIP3    H116641   1.498   2.478   0.442 -1.2235 -0.6832  0.9187
 5545TIP3    H216642   1.454   2.355   0.366  0.0900 -0.0871 -0.8773
 5546TIP3   OH216643   3.004   4.709   3.314 -0.2655  0.0213  0.0778
 5546TIP3    H116644   3.089   4.752   3.308  0.3393 -0.8025  1.9317
 5546TIP3    H216645   2.943   4.769   3.271  1.1570  0.8822 -0.7936
 5547TIP3   OH216646   1.471   3.402   0.204  0.0901 -0.3546 -0.1685
 5547TIP3    H116647   1.539   3.469   0.199 -0.7367  0.5070 -0.0598
 5547TIP3    H216648   1.476   3.356   0.120  0.0037  0.4950 -0.6440
 5548TIP3   OH216649   3.460   0.267   1.119  0.2063 -0.3374  0.0857
 5548TIP3    H116650   3.365   0.253   1.124  0.0021  0.4935 -0.9324
 5548TIP3    H216651   3.498   0.180   1.131 -0.6105 -0.5027  1.7207
 5549TIP3   OH216652   2.608   4.843   4.340 -0.1803  0.2512  0.1299
 5549TIP3    H116653   2.613   4.854   4.435  0.5660 -1.7017  0.3678
 5549TIP3    H216654   2.697   4.859   4.309 -0.1569 -0.2668 -0.0830
 5550TIP3   OH216655   5.384   2.884   3.042 -0.7998 -0.6675 -0.0264
 5550TIP3    H116656   5.382   2.949   2.972 -0.5534  0.7814  1.2657
 5550TIP3    H216657   5.291   2.864   3.058 -0.8982 -0.3091 -0.1378
 5551TIP3   OH216658   3.895   5.589   0.645  0.2088 -0.1059  0.1521
 5551TIP3    H116659   3.807   5.617   0.618 -0.1927 -1.2986  0.1816
 5551TIP3    H216660   3.947   5.595   0.565  0.1304  0.6603  0.1456
 5552TIP3   OH216661   4.730   3.950   2.821 -0.2207  0.2952 -0.1873
 5552TIP3    H116662   4.805   3.943   2.881 -1.0734  1.5519  1.1034
 5552TIP3    H216663   4.755   3.898   2.745  1.7728  0.3154  0.3989
 5553TIP3   OH216664   5.008   1.604   4.629  0.0222 -0.5719 -0.3987
 5553TIP3    H116665   4.930   1.627   4.578  0.3025 -0.0304 -0.5863
 5553TIP3    H216666   5.007   1.508   4.631 -0.2519 -0.5906 -1.0139
 5554TIP3   OH216667   0.554   3.569   0.488 -0.4910 -0.2057 -0.2787
 5554TIP3    H116668   0.615   3.601   0.422 -1.5139  0.5755 -0.8713
 5554TIP3    H216669   0.589   3.602   0.571  0.0584 -0.0383 -0.5703
 5555TIP3   OH216670   4.655   4.130   0.396  0.0943 -0.2608 -0.1899
 5555TIP3    H116671   4.690   4.181   0.322 -0.3619  0.3580  0.0099
 5555TIP3    H216672   4.641   4.195   0.465 -2.3103 -0.2869 -0.5608
 5556TIP3   OH216673   5.335   2.718   2.153  0.2312 -0.1278  0.2797
 5556TIP3    H116674   5.420   2.675   2.152  0.4455  0.2665  0.7728
 5556TIP3    H216675   5.352   2.804   2.114  0.3000  0.3643  1.3685
 5557TIP3   OH216676   5.048   4.900   1.684  0.2838 -0.4114  0.1368
 5557TIP3    H116677   5.116   4.966   1.695  0.1763  0.0269 -1.5308
 5557TIP3    H216678   4.977   4.947   1.640 -1.2207 -0.8010  1.9851
 5558TIP3   OH216679   5.747   4.462   0.757  0.7268 -0.0270 -0.4344
 5558TIP3    H116680   5.694   4.536   0.788  1.6815  0.4720  0.0415
 5558TIP3    H216681   5.768   4.483   0.667  0.1822 -0.1913 -0.6017
 5559TIP3   OH216682   3.488   0.246   2.968 -0.8352  0.0701  0.3204
 5559TIP3    H116683   3.450   0.278   3.050 -1.9960  1.5766 -0.7519
 5559TIP3    H216684   3.415   0.204   2.923 -0.7140  0.9469 -0.7456
 5560TIP3   OH216685   1.299   0.950   1.290  0.3928  0.3144  0.5781
 5560TIP3    H116686   1.281   1.042   1.310 -0.5988  0.1471  0.4989
 5560TIP3    H216687   1.237   0.928   1.221  0.7266 -0.3771  0.4897
 5561TIP3   OH216688   4.330   3.765   2.683  0.0380 -0.4102  0.1818
 5561TIP3    H116689   4.409   3.713   2.666  1.1085  1.2923 -0.3657
 5561TIP3    H216690   4.357   3.827   2.751 -0.8275  0.1910 -0.0030
 5562TIP3   OH216691   0.654   1.941   2.312 -0.6206  0.0913  0.4191
 5562TIP3    H116692   0.584   1.910   2.254 -0.9854 -1.9881  1.8848
 5562TIP3    H216693   0.715   1.986   2.254 -2.8674  1.5168 -1.0041
 5563TIP3   OH216694   4.515   1.035   0.342  1.1529  0.3902  0.3850
 5563TIP3    H116695   4.553   1.122   0.348  0.3738  0.7308  0.5072
 5563TIP3    H216696   4.458   1.039   0.265  0.8402  0.1051  0.5981
 5564TIP3   OH216697   3.304   4.833   0.931  0.5983  0.0320  0.3324
 5564TIP3    H116698   3.355   4.862   1.007 -0.9992  0.0710  1.4582
 5564TIP3    H216699   3.218   4.810   0.968 -0.4319  0.6404 -1.5528
 5565TIP3   OH216700   1.991   1.160   2.414 -0.6344 -0.0885  0.4952
 5565TIP3    H116701   2.071   1.191   2.456 -0.2800  1.1434 -0.9826
 5565TIP3    H216702   2.021   1.100   2.346 -1.0358 -0.2900  0.4939
 5566TIP3   OH216703   1.837   0.923   1.777 -0.4583  0.0472  0.5358
 5566TIP3    H116704   1.775   0.935   1.705 -0.7401 -0.5288  0.6753
 5566TIP3    H216705   1.898   0.996   1.769  0.5728 -0.9505 -1.3534
 5567TIP3   OH216706   0.681   1.278   2.147 -0.1084 -0.0784 -0.1080
 5567TIP3    H116707   0.586   1.280   2.159 -0.3219 -2.3721 -1.0104
 5567TIP3    H216708   0.712   1.213   2.210  0.5771 -0.9167 -1.2779
 5568TIP3   OH216709   2.905   3.547   4.163  0.1118  0.0261 -0.6136
 5568TIP3    H116710   2.969   3.477   4.173  0.4091  0.1827 -1.3948
 5568TIP3    H216711   2.924   3.586   4.078  0.2376  1.3608 -0.0060
 5569TIP3   OH216712   1.008  -0.002   1.460 -0.0884 -0.1684 -0.3818
 5569TIP3    H116713   1.018   0.056   1.535  0.1058 -0.4944 -0.1545
 5569TIP3    H216714   1.090  -0.051   1.456  0.1617  0.3005 -1.1943
 5570TIP3   OH216715   5.228   1.589   4.208 -0.0179  0.0280 -0.1832
 5570TIP3    H116716   5.176   1.638   4.144 -0.8830  0.7864  1.0457
 5570TIP3    H216717   5.240   1.503   4.168  2.9075  1.5786 -3.1579
 5571TIP3   OH216718   0.024   2.125   2.966  0.3404  0.1116  0.2963
 5571TIP3    H116719  -0.021   2.177   3.033 -0.3151  0.6300 -0.5294
 5571TIP3    H216720   0.109   2.106   3.005 -0.1681  0.0477  1.4458
 5572TIP3   OH216721   3.737   1.059   2.653 -0.3150 -0.7353  0.1828
 5572TIP3    H116722   3.783   0.979   2.628 -0.8219 -1.2253  0.7814
 5572TIP3    H216723   3.729   1.109   2.572  1.0113 -0.7646  0.0018
 5573TIP3   OH216724   3.035   5.266   1.330 -0.0637 -0.6327 -0.1129
 5573TIP3    H116725   3.103   5.262   1.397  1.9413  0.0355 -2.0070
 5573TIP3    H216726   3.040   5.356   1.297 -0.7621 -1.0569 -1.3948
 5574TIP3   OH216727   4.867   3.242   2.964 -0.1237 -0.0458  0.6237
 5574TIP3    H116728   4.850   3.311   3.028 -1.3345 -0.6282  0.9509
 5574TIP3    H216729   4.781   3.212   2.937  0.3455  0.4960 -1.6565
 5575TIP3   OH216730   1.072   1.843   0.867  0.1378  1.0440  0.7231
 5575TIP3    H116731   0.991   1.862   0.914 -0.7665 -0.8076 -0.0195
 5575TIP3    H216732   1.045   1.821   0.778  0.8664 -3.7234  1.4158
 5576TIP3   OH216733   4.783   4.283   0.211 -0.4536 -0.2238 -0.3294
 5576TIP3    H116734   4.744   4.260   0.127  0.4291 -0.5130 -0.6780
 5576TIP3    H216735   4.849   4.349   0.189 -0.6419  0.1555  0.2222
 5577TIP3   OH216736   0.083   0.992   1.541  0.2541 -0.3574 -0.2934
 5577TIP3    H116737   0.087   0.931   1.614 -1.6130 -0.3246 -0.1076
 5577TIP3    H216738   0.056   0.938   1.466 -1.3481  0.1745 -0.1411
 5578TIP3   OH216739   3.773   4.195   0.741  0.0777  0.1031  0.0359
 5578TIP3    H116740   3.809   4.238   0.663  1.1493  0.5728  0.7717
 5578TIP3    H216741   3.818   4.237   0.814  0.9171 -2.0241  0.8007
 5579TIP3   OH216742   4.373   4.272   4.287  0.0390 -0.6015 -0.0342
 5579TIP3    H116743   4.323   4.295   4.209 -0.3481  0.9213  0.6239
 5579TIP3    H216744   4.370   4.351   4.342  1.8787 -0.9798  0.6992
 5580TIP3   OH216745   1.634   3.845   1.113  0.1036  0.0726 -0.0584
 5580TIP3    H116746   1.678   3.914   1.163  1.7720  0.6866 -2.2101
 5580TIP3    H216747   1.678   3.764   1.139  0.2281  0.2327  0.2360
 5581TIP3   OH216748   6.258   2.539   4.979 -0.0070 -0.0443  0.3576
 5581TIP3    H116749   6.229   2.585   4.900  0.1313 -1.8356 -0.7813
 5581TIP3    H216750   6.306   2.605   5.029  0.9408  0.8403 -1.6191
 5582TIP3   OH216751   4.354   1.808   4.223  0.3821  0.2067 -0.3709
 5582TIP3    H116752   4.417   1.830   4.155 -0.3691 -0.4311 -1.2916
 5582TIP3    H216753   4.279   1.866   4.207  0.4687  0.5296  0.3383
 5583TIP3   OH216754   3.199   3.011   3.462 -0.0084  0.3183  0.1991
 5583TIP3    H116755   3.240   3.014   3.375 -0.0618 -0.6627  0.1247
 5583TIP3    H216756   3.263   2.965   3.517  0.2067  1.2999  0.7948
 5584TIP3   OH216757   6.156   5.337   1.088 -0.4163  0.5371  0.6166
 5584TIP3    H116758   6.234   5.386   1.058  0.4379  0.3054  2.3553
 5584TIP3    H216759   6.084   5.399   1.079  0.4009  1.6235  1.3120
 5585TIP3   OH216760   0.441   1.743   0.121  0.2555 -0.3499 -0.2898
 5585TIP3    H116761   0.525   1.785   0.106  0.2000 -0.7950 -1.9894
 5585TIP3    H216762   0.404   1.730   0.034 -0.5678 -2.2275  0.2956
 5586TIP3   OH216763   6.199   2.453   4.012  0.6877 -0.0899 -0.1894
 5586TIP3    H116764   6.112   2.420   4.037  0.2851 -0.4897 -1.9965
 5586TIP3    H216765   6.182   2.516   3.943  1.8537 -0.4507 -0.8394
 5587TIP3   OH216766   6.144   2.549   0.674 -0.1187  0.2620 -0.0213
 5587TIP3    H116767   6.160   2.601   0.753  1.8130  1.3187 -1.0510
 5587TIP3    H216768   6.179   2.462   0.696  0.2176  0.4922  0.3807
 5588TIP3   OH216769   0.784   0.539   0.232  0.3634  0.0998 -0.2223
 5588TIP3    H116770   0.767   0.496   0.316 -1.5416  1.0863 -0.0595
 5588TIP3    H216771   0.830   0.472   0.181 -1.3782 -1.7444  0.4620
 5589TIP3   OH216772   6.097   0.070   0.652 -0.2559  0.3614 -0.6236
 5589TIP3    H116773   6.104   0.100   0.562 -0.4749 -0.5865 -0.9703
 5589TIP3    H216774   6.127  -0.021   0.650 -1.0232  0.0718  0.1043
 5590TIP3   OH216775   3.354   3.237   1.455 -0.1400 -0.0486  0.1669
 5590TIP3    H116776   3.274   3.243   1.404 -0.4409 -1.8389  0.3506
 5590TIP3    H216777   3.338   3.293   1.532 -0.3130  1.3477 -0.8498
 5591TIP3   OH216778   4.466   3.375   2.008 -0.5958 -0.7516 -0.1840
 5591TIP3    H116779   4.370   3.379   2.002 -0.5225  0.4418 -0.6862
 5591TIP3    H216780   4.487   3.423   2.088 -0.2386  2.1452 -1.8739
 5592TIP3   OH216781   4.791   2.793   2.563  0.1072  0.3628 -0.0467
 5592TIP3    H116782   4.871   2.742   2.577  0.9422  1.9699  1.4078
 5592TIP3    H216783   4.819   2.867   2.509 -0.6573  0.3347 -0.4875
 5593TIP3   OH216784   3.962   2.733   3.889  0.3397 -0.4142  0.2480
 5593TIP3    H116785   3.905   2.810   3.889  1.0209  0.1052 -0.3045
 5593TIP3    H216786   3.907   2.662   3.923 -0.1065  0.4490  1.3844
 5594TIP3   OH216787   4.883   3.670   0.752  0.3859 -0.0197 -0.3073
 5594TIP3    H116788   4.843   3.744   0.706 -0.9629 -0.6046 -0.1395
 5594TIP3    H216789   4.824   3.596   0.734  1.5015 -0.9725 -0.1691
 5595TIP3   OH216790   2.573   0.088   4.594 -0.5761 -0.0771 -0.1683
 5595TIP3    H116791   2.658   0.043   4.587 -1.1935 -1.2266 -0.4536
 5595TIP3    H216792   2.560   0.100   4.688  0.3772  1.0750 -0.1542
 5596TIP3   OH216793   3.562   4.962   2.799  0.3885  0.3948 -0.7787
 5596TIP3    H116794   3.561   4.989   2.707  0.8900 -0.1854 -0.9643
 5596TIP3    H216795   3.650   4.926   2.811  0.3553  0.5596 -0.0441
 5597TIP3   OH216796   0.169   4.420   0.657  0.7821  0.4346 -0.4816
 5597TIP3    H116797   0.167   4.513   0.679  2.7820  0.5893 -0.7605
 5597TIP3    H216798   0.257   4.406   0.621  0.1755 -1.3618 -1.3691
 5598TIP3   OH216799   1.180   5.501   4.672 -0.2895  0.2990  0.5356
 5598TIP3    H116800   1.201   5.588   4.639 -1.1722  0.0112 -0.8777
 5598TIP3    H216801   1.217   5.441   4.607 -1.3906 -0.3057  0.4359
 5599TIP3   OH216802   5.108   4.758   3.029  0.3948 -0.5756 -0.1132
 5599TIP3    H116803   5.188   4.811   3.029  0.8639 -1.2764 -0.5872
 5599TIP3    H216804   5.047   4.808   2.975  0.2683  0.2972  0.8002
 5600TIP3   OH216805   5.460   2.890   2.614 -0.2176 -0.3277 -0.3122
 5600TIP3    H116806   5.433   2.964   2.559 -1.0437 -0.0309  0.4615
 5600TIP3    H216807   5.378   2.859   2.654  0.5041  0.3752  1.8425
 5601TIP3   OH216808   3.405   1.785   1.580 -0.0812 -0.0288 -0.8320
 5601TIP3    H116809   3.318   1.753   1.556  0.5850 -1.7388 -1.1343
 5601TIP3    H216810   3.464   1.745   1.516  0.9786  0.7528 -0.3726
 5602TIP3   OH216811   0.067   4.507   1.821 -0.0844  0.0123 -0.2502
 5602TIP3    H116812  -0.002   4.500   1.887 -1.8072  0.0625 -1.9681
 5602TIP3    H216813   0.129   4.438   1.844 -0.8940 -0.2933  1.1268
 5603TIP3   OH216814   1.531   5.691   3.747  0.0607 -0.0623  0.2675
 5603TIP3    H116815   1.442   5.671   3.775 -0.1461  1.1564  0.5382
 5603TIP3    H216816   1.575   5.720   3.826 -0.1937  2.2746 -0.3632
 5604TIP3   OH216817   1.423   5.352   2.754 -0.7931 -0.0492 -0.3271
 5604TIP3    H116818   1.505   5.317   2.790 -0.5191 -0.3842 -1.2342
 5604TIP3    H216819   1.354   5.311   2.805 -0.4089 -0.2300  0.0529
 5605TIP3   OH216820   1.707   3.483   0.075 -0.0185 -0.2042 -0.1891
 5605TIP3    H116821   1.734   3.392   0.059 -1.6515 -0.4784 -1.6623
 5605TIP3    H216822   1.657   3.507  -0.003 -0.4919  1.6293  0.6343
 5606TIP3   OH216823   1.331   5.164   2.544 -0.0659  0.0745 -0.2802
 5606TIP3    H116824   1.244   5.182   2.581 -0.4387  1.0478 -1.5354
 5606TIP3    H216825   1.391   5.207   2.605 -0.4950 -0.1509  0.3199
 5607TIP3   OH216826   0.003   5.803   4.073  0.0484  0.2525  0.8414
 5607TIP3    H116827   0.087   5.834   4.106  0.2093 -0.0731  0.7458
 5607TIP3    H216828  -0.062   5.853   4.121  0.3026  0.7087  0.7117
 5608TIP3   OH216829   0.690   0.708   4.227 -0.0777 -0.3157  0.9450
 5608TIP3    H116830   0.696   0.796   4.264  2.2479 -0.2259  0.4845
 5608TIP3    H216831   0.725   0.651   4.295 -0.1568 -0.7079  0.6620
 5609TIP3   OH216832   0.661   4.887   1.643  0.2251  0.2434 -0.3488
 5609TIP3    H116833   0.629   4.854   1.727 -0.3446  2.5906  0.4164
 5609TIP3    H216834   0.711   4.965   1.665 -0.4344  1.2560 -2.2328
 5610TIP3   OH216835   3.598   3.380   1.616  0.1529 -0.5896 -0.3883
 5610TIP3    H116836   3.585   3.349   1.706  3.0552  0.8123  0.6359
 5610TIP3    H216837   3.542   3.457   1.610 -0.0685 -0.6911  0.2199
 5611TIP3   OH216838   5.557   5.013   0.819 -0.3191 -0.3751  0.2410
 5611TIP3    H116839   5.588   4.986   0.732 -0.7677  0.7105 -0.2806
 5611TIP3    H216840   5.634   5.051   0.861 -0.1338 -0.7797  0.2760
 5612TIP3   OH216841   2.340   2.299   1.870 -0.4857  0.0700 -0.1144
 5612TIP3    H116842   2.287   2.230   1.831 -0.9185 -0.2583  1.0229
 5612TIP3    H216843   2.315   2.299   1.963 -0.0557  1.3415  0.0218
 5613TIP3   OH216844   2.626   3.746   2.198  0.0192 -0.1632  0.1362
 5613TIP3    H116845   2.627   3.709   2.109  2.7895  0.4716 -0.2040
 5613TIP3    H216846   2.625   3.669   2.256 -0.3251 -0.6142 -0.4493
 5614TIP3   OH216847   2.812   0.157   5.078 -0.5454  0.3044 -0.3636
 5614TIP3    H116848   2.781   0.188   5.163 -0.2326  2.2442 -0.9225
 5614TIP3    H216849   2.892   0.108   5.098 -1.7082 -1.2855  0.6623
 5615TIP3   OH216850   2.813   3.374   0.278  0.7269  0.1611 -0.2510
 5615TIP3    H116851   2.807   3.455   0.328 -0.4245 -1.2597  2.0660
 5615TIP3    H216852   2.727   3.364   0.238  1.2701  0.6732 -1.6340
 5616TIP3   OH216853   2.997   3.955   3.732 -0.0706  0.3647  0.0156
 5616TIP3    H116854   3.012   4.047   3.756  0.1262  0.5577 -0.7996
 5616TIP3    H216855   2.925   3.958   3.669  0.7276  0.0995 -0.9349
 5617TIP3   OH216856   1.084   2.143   4.637  0.1881 -0.3553 -0.2468
 5617TIP3    H116857   1.143   2.185   4.574  0.5321 -0.7450 -0.1875
 5617TIP3    H216858   0.996   2.171   4.610  0.4208  0.5896 -0.0686
 5618TIP3   OH216859   4.503   0.047   1.529 -0.4710  0.0301 -0.0264
 5618TIP3    H116860   4.415   0.040   1.492 -0.2015 -0.8214 -0.5456
 5618TIP3    H216861   4.530   0.136   1.510 -0.3807 -0.3401 -1.8297
 5619TIP3   OH216862   1.531   0.110   2.787 -0.0363 -0.3397  0.2956
 5619TIP3    H116863   1.606   0.135   2.841 -0.9065  0.6452  1.1068
 5619TIP3    H216864   1.511   0.021   2.814  0.1516 -0.2082  0.8996
 5620TIP3   OH216865   6.120   3.465   5.129 -0.4222  0.1031 -0.1889
 5620TIP3    H116866   6.093   3.468   5.037 -1.5322  1.9579  0.1286
 5620TIP3    H216867   6.048   3.420   5.173 -1.7737  2.5210  0.2468
 5621TIP3   OH216868   0.319   5.990   5.089 -0.2015 -0.4240  0.3961
 5621TIP3    H116869   0.385   5.943   5.140  0.2861 -0.9250 -0.6648
 5621TIP3    H216870   0.251   5.924   5.072  0.0626 -0.5187 -0.3380
 5622TIP3   OH216871   2.544   1.611   1.351 -0.2812 -0.4147 -0.2065
 5622TIP3    H116872   2.487   1.625   1.276  0.4496  1.2230 -0.4944
 5622TIP3    H216873   2.484   1.587   1.422 -1.6427  2.9129 -0.0489
 5623TIP3   OH216874   5.505   1.082   0.947  0.1167  0.5959 -0.3379
 5623TIP3    H116875   5.505   1.023   1.023 -1.8177  0.4419 -0.4222
 5623TIP3    H216876   5.530   1.167   0.983 -3.0874  1.0977  1.0502
 5624TIP3   OH216877   5.504   5.887   1.515  0.0195 -0.1663  0.2665
 5624TIP3    H116878   5.529   5.883   1.608  0.4070 -0.9801  0.1345
 5624TIP3    H216879   5.490   5.796   1.490 -1.2031  0.1394 -0.1865
 5625TIP3   OH216880   1.712   5.320   1.834 -0.0229  0.2351 -0.4572
 5625TIP3    H116881   1.729   5.370   1.754 -0.7554 -2.3731 -2.3860
 5625TIP3    H216882   1.627   5.350   1.864  2.1193  4.6187  2.2753
 5626TIP3   OH216883   2.966   3.828   4.859  0.0389 -0.5797 -0.2535
 5626TIP3    H116884   3.024   3.753   4.871  0.6932 -0.0403  0.0475
 5626TIP3    H216885   2.968   3.874   4.943 -0.2129 -0.1286 -0.4884
 5627TIP3   OH216886   1.232   0.034   3.324  0.1377 -0.0205  0.2625
 5627TIP3    H116887   1.244   0.113   3.378 -0.6532  0.3322 -0.0633
 5627TIP3    H216888   1.258  -0.038   3.382 -1.0895  0.3128  1.2986
 5628TIP3   OH216889   6.314   5.051   3.655  0.1460  0.5144 -0.0840
 5628TIP3    H116890   6.376   5.011   3.716 -1.0069 -0.3975  0.5399
 5628TIP3    H216891   6.241   4.989   3.651 -2.1433  2.8791  1.6051
 5629TIP3   OH216892   2.565   0.423   2.141  0.5800  0.2301  0.0280
 5629TIP3    H116893   2.555   0.492   2.075 -2.6127 -0.4434 -0.3896
 5629TIP3    H216894   2.510   0.352   2.109  0.7035 -1.0017  2.3319
 5630TIP3   OH216895   4.244   2.552   2.159  0.4591 -0.1038  0.2716
 5630TIP3    H116896   4.186   2.593   2.224  0.9699  0.0452  0.6457
 5630TIP3    H216897   4.300   2.494   2.211  1.1293  0.3048  0.0114
 5631TIP3   OH216898   0.401   1.996   0.928 -0.0798 -0.3059 -0.8525
 5631TIP3    H116899   0.419   1.987   1.021 -1.1246  1.9917 -0.3637
 5631TIP3    H216900   0.445   1.921   0.887  0.9705 -0.9763  1.3853
 5632TIP3   OH216901   5.577   4.967   2.232  0.0362 -0.0029 -0.2233
 5632TIP3    H116902   5.597   4.880   2.197  0.7904 -0.1157  0.4813
 5632TIP3    H216903   5.490   4.987   2.196  0.2517 -0.6461 -1.1369
 5633TIP3   OH216904   4.069   0.039   0.640 -0.0699 -0.1477  0.2273
 5633TIP3    H116905   4.060  -0.056   0.629 -2.4871  0.0316  0.0860
 5633TIP3    H216906   3.982   0.068   0.668  1.0265  1.8536  1.8022
 5634TIP3   OH216907   3.073   5.284   0.653 -0.1988 -0.2293  0.2750
 5634TIP3    H116908   2.984   5.306   0.623 -0.0948 -0.5871 -0.3319
 5634TIP3    H216909   3.076   5.188   0.647 -0.2891 -0.3513  1.8139
 5635TIP3   OH216910   4.970   4.213   5.063 -0.0304  0.8038 -0.0809
 5635TIP3    H116911   4.942   4.252   5.146  2.0037  2.1263  0.0553
 5635TIP3    H216912   5.059   4.183   5.079 -0.7095 -1.9691 -0.8788
 5636TIP3   OH216913   2.687   4.458   3.323  0.0992 -0.0946  0.7039
 5636TIP3    H116914   2.693   4.535   3.380 -1.8039  1.2316 -0.7354
 5636TIP3    H216915   2.759   4.469   3.261  2.0437 -1.4318  2.5489
 5637TIP3   OH216916   5.346   5.655   2.454 -0.0102 -0.1235  0.3169
 5637TIP3    H116917   5.355   5.672   2.360  1.1359  1.8837  0.7274
 5637TIP3    H216918   5.252   5.658   2.470 -0.2326 -0.6901 -0.7827
 5638TIP3   OH216919   2.346   1.880   0.846  0.1198  0.0881 -0.1192
 5638TIP3    H116920   2.383   1.939   0.780  1.1195 -0.7637 -0.3446
 5638TIP3    H216921   2.376   1.915   0.930  1.8265 -0.7907 -0.3101
 5639TIP3   OH216922   4.882   0.011   3.427 -0.2554  0.2141 -0.1524
 5639TIP3    H116923   4.815   0.080   3.426  0.9039  1.3939 -1.6918
 5639TIP3    H216924   4.912   0.006   3.336  2.0070 -0.0105  0.5537
 5640TIP3   OH216925   1.153   1.000   4.150  0.3326  0.2976 -0.1017
 5640TIP3    H116926   1.094   0.940   4.197  0.1091  0.5899 -0.0068
 5640TIP3    H216927   1.127   0.993   4.058 -0.8086  1.4807  0.1037
 5641TIP3   OH216928   5.319   0.283   2.795  0.0885  0.1999  0.0455
 5641TIP3    H116929   5.392   0.222   2.781  2.6816  3.2372 -1.0954
 5641TIP3    H216930   5.315   0.295   2.889  2.9117  1.7777  0.0802
 5642TIP3   OH216931   6.325   4.072   4.396  0.0389  0.0190  0.2635
 5642TIP3    H116932   6.387   4.050   4.327 -0.2033  1.5424 -0.4738
 5642TIP3    H216933   6.275   3.991   4.410  2.3167 -1.3342  1.0722
 5643TIP3   OH216934   3.563   4.004   1.050  0.3367  0.6692  0.0747
 5643TIP3    H116935   3.556   4.099   1.049 -0.2779  0.6272 -0.6743
 5643TIP3    H216936   3.570   3.979   0.958  1.2385  0.0327  0.3066
 5644TIP3   OH216937   5.022   5.819   2.951  0.0650 -0.0389 -0.4557
 5644TIP3    H116938   4.958   5.805   3.021  1.7798 -1.3809  0.9411
 5644TIP3    H216939   5.106   5.827   2.996  1.3299 -1.6139 -2.3398
 5645TIP3   OH216940   2.932   5.202   1.597 -0.0055  0.2119 -0.5061
 5645TIP3    H116941   2.881   5.282   1.607 -0.3993  0.0584 -1.2185
 5645TIP3    H216942   2.932   5.185   1.503 -0.9008 -1.2544 -0.2804
 5646TIP3   OH216943   1.147   6.007   2.956  0.0517  0.1416 -0.0462
 5646TIP3    H116944   1.109   6.013   3.043 -1.0464  0.3138 -0.5250
 5646TIP3    H216945   1.177   5.916   2.948 -1.1603 -0.2780 -0.0136
 5647TIP3   OH216946   6.039   5.919   1.762  0.2324  0.2936 -0.0998
 5647TIP3    H116947   6.019   5.829   1.734  1.0046 -0.0474  0.4172
 5647TIP3    H216948   5.955   5.964   1.761 -0.4941 -0.9430  1.4544
 5648TIP3   OH216949   6.201   2.172   2.623  0.4347  0.4466 -0.0613
 5648TIP3    H116950   6.164   2.119   2.553  0.9763 -0.8814  0.6204
 5648TIP3    H216951   6.220   2.109   2.693 -1.6616  1.9457  1.9923
 5649TIP3   OH216952   0.951   4.072   0.011 -0.4281  0.1838 -0.3568
 5649TIP3    H116953   0.930   4.044   0.101 -0.7784 -0.5170 -0.6475
 5649TIP3    H216954   1.040   4.106   0.018 -0.1189 -0.6629  0.1082
 5650TIP3   OH216955   6.230   5.340   1.832 -0.6043  0.2702 -0.0406
 5650TIP3    H116956   6.305   5.399   1.839  0.1163 -0.7155  0.7828
 5650TIP3    H216957   6.220   5.324   1.738  1.1673 -0.7708 -0.0824
 5651TIP3   OH216958   1.909   0.058   0.060 -0.1595 -0.7731  0.3624
 5651TIP3    H116959   1.889   0.058  -0.033  1.0374  0.1881  0.0882
 5651TIP3    H216960   1.825   0.039   0.102 -1.4336  1.8851 -0.7859
 5652TIP3   OH216961   3.257   4.422   4.139  0.5933  0.5719 -0.8157
 5652TIP3    H116962   3.177   4.393   4.182  0.4642 -0.3168 -1.6382
 5652TIP3    H216963   3.312   4.343   4.135  0.8471  0.7912 -1.7304
 5653TIP3   OH216964   6.008   0.030   4.864  0.2368  0.2412  0.1693
 5653TIP3    H116965   6.066   0.085   4.916 -0.2694  0.8398  0.1125
 5653TIP3    H216966   6.037  -0.060   4.882  0.7572  0.5009  0.6400
 5654TIP3   OH216967   5.593   3.733   4.889  0.7804  0.5627 -0.0999
 5654TIP3    H116968   5.611   3.713   4.798  1.5013  2.7591 -0.4958
 5654TIP3    H216969   5.679   3.747   4.929  0.4147  0.9114  0.5901
 5655TIP3   OH216970   0.383   2.702   3.402 -0.2458 -0.0309  0.4578
 5655TIP3    H116971   0.460   2.647   3.415  0.0440  0.1935 -0.2378
 5655TIP3    H216972   0.308   2.645   3.419 -0.0474 -1.4250 -2.6787
 5656TIP3   OH216973   6.324   3.609   4.552  0.0359 -0.3768  0.2393
 5656TIP3    H116974   6.279   3.527   4.531  1.2615 -1.0560  0.2116
 5656TIP3    H216975   6.335   3.606   4.647 -0.9987  0.3428  0.4017
 5657TIP3   OH216976   2.858   4.900   4.294  0.0061 -0.0995  0.7648
 5657TIP3    H116977   2.927   4.966   4.285 -0.4990  0.1605 -1.7272
 5657TIP3    H216978   2.900   4.818   4.267 -0.4937 -0.0350 -0.2355
 5658TIP3   OH216979   5.449   1.355   2.860 -0.1085 -0.2112 -0.5971
 5658TIP3    H116980   5.532   1.332   2.818 -0.5025 -0.0128 -1.4865
 5658TIP3    H216981   5.431   1.444   2.829  0.3030  0.5097  1.0967
 5659TIP3   OH216982   2.527   2.640   2.710 -0.3773 -0.3884 -0.0091
 5659TIP3    H116983   2.465   2.586   2.761  0.7083 -0.9522  0.7685
 5659TIP3    H216984   2.533   2.721   2.760 -2.1871  0.6081 -1.3023
 5660TIP3   OH216985   2.420   3.444   0.333 -0.0647  0.1186  0.1644
 5660TIP3    H116986   2.336   3.439   0.379 -1.0484  2.3936 -1.1999
 5660TIP3    H216987   2.440   3.538   0.331  1.0573 -0.1073 -1.9998
 5661TIP3   OH216988   3.231   0.133   4.229  0.4720  0.0466 -0.2810
 5661TIP3    H116989   3.286   0.139   4.307  0.6320  0.3263 -0.4131
 5661TIP3    H216990   3.209   0.224   4.208  0.2511 -0.0425 -0.4345
 5662TIP3   OH216991   4.028   5.292   3.312 -0.4017  0.3230  0.7105
 5662TIP3    H116992   4.073   5.209   3.301  0.1405  0.6713  0.2175
 5662TIP3    H216993   3.975   5.302   3.233 -1.9820 -0.4461  1.6314
 5663TIP3   OH216994   2.927   0.912   5.026  0.3403  0.1641 -0.6496
 5663TIP3    H116995   2.937   0.885   4.935 -0.8101 -0.5399 -0.5843
 5663TIP3    H216996   2.882   0.996   5.021 -1.5129 -0.7979 -0.6988
 5664TIP3   OH216997   1.442   4.556   4.334  0.5773  0.1164  0.7022
 5664TIP3    H116998   1.467   4.502   4.409 -2.4494 -2.4604  0.0503
 5664TIP3    H216999   1.358   4.594   4.360  2.3506  4.5170  0.9824
 5665TIP3   OH217000   4.632   4.353   0.578 -0.1308 -0.1846 -0.3049
 5665TIP3    H117001   4.714   4.380   0.536 -0.1199  0.8566  0.3287
 5665TIP3    H217002   4.655   4.275   0.629  0.4503  0.0321 -0.2267
 5666TIP3   OH217003   5.701   3.324   0.176  0.0535  0.6439  0.0578
 5666TIP3    H117004   5.756   3.251   0.147  0.2028  0.4680  0.7536
 5666TIP3    H217005   5.616   3.283   0.195  0.0514  0.7014  0.1735
 5667TIP3   OH217006   4.977   3.748   1.580  0.7042 -0.0147 -0.1409
 5667TIP3    H117007   5.035   3.814   1.617  0.6698 -0.0051 -0.1037
 5667TIP3    H217008   5.023   3.716   1.503  1.5628 -1.2608  0.8468
 5668TIP3   OH217009   2.044   1.274   0.700  0.2281 -0.1556 -0.2420
 5668TIP3    H117010   2.083   1.346   0.750  1.7476 -1.1762  0.1026
 5668TIP3    H217011   2.110   1.205   0.702 -1.5958 -1.9797  0.3553
 5669TIP3   OH217012   1.006   4.343   4.794 -0.2494  0.0946 -0.5488
 5669TIP3    H117013   1.083   4.331   4.849 -0.6935  0.5861  0.1949
 5669TIP3    H217014   0.994   4.438   4.788 -0.6167  0.0307 -0.9060
 5670TIP3   OH217015   3.366   3.914   4.516  0.1379 -0.0447 -0.6882
 5670TIP3    H117016   3.315   3.992   4.497 -1.0462 -0.7970 -0.7021
 5670TIP3    H217017   3.416   3.937   4.595 -0.9335  0.4012 -0.1257
 5671TIP3   OH217018   0.909   5.136   2.772 -0.4962  0.9970  0.2112
 5671TIP3    H117019   0.891   5.227   2.795  0.3928  1.3979 -0.6022
 5671TIP3    H217020   0.985   5.141   2.713 -0.9872 -0.1963 -0.5606
 5672TIP3   OH217021   4.873   2.610   1.095 -0.0293 -0.5122 -0.4056
 5672TIP3    H117022   4.824   2.560   1.030  0.9465  0.3826 -1.8757
 5672TIP3    H217023   4.962   2.613   1.061  0.5185 -0.0213  0.9921
 5673TIP3   OH217024   0.695   1.042   1.172  0.2185  0.0922  0.1515
 5673TIP3    H117025   0.660   1.067   1.258 -0.1114 -1.1111  0.3869
 5673TIP3    H217026   0.779   1.087   1.167 -0.0686  0.7315  0.8088
 5674TIP3   OH217027   0.445   3.537   2.595 -0.3711 -0.3709  0.2885
 5674TIP3    H117028   0.464   3.605   2.531  0.1439  0.0986  0.9385
 5674TIP3    H217029   0.511   3.547   2.663 -1.4019 -0.3314  1.3250
 5675TIP3   OH217030   1.294   4.771   1.425 -0.5305 -0.3203 -0.2418
 5675TIP3    H117031   1.315   4.721   1.346  0.4861  0.1500 -0.2834
 5675TIP3    H217032   1.199   4.765   1.433 -0.7063  0.0727 -1.8117
 5676TIP3   OH217033   6.147   0.226   0.862 -0.0347 -0.6777 -0.8190
 5676TIP3    H117034   6.215   0.176   0.907 -0.0043 -0.2116 -0.3324
 5676TIP3    H217035   6.136   0.182   0.777  0.1919 -1.3235 -0.5162
 5677TIP3   OH217036   3.500   2.122   1.942 -0.2774  0.2386 -0.2804
 5677TIP3    H117037   3.449   2.196   1.976 -0.7938 -0.0205 -0.4763
 5677TIP3    H217038   3.539   2.083   2.020  0.9023  1.3608 -0.2732
 5678TIP3   OH217039   3.009   2.968   1.339 -0.6258  0.3858 -0.5347
 5678TIP3    H117040   3.070   2.972   1.265  0.2151  1.1246  0.1772
 5678TIP3    H217041   3.039   3.036   1.399 -0.9925 -0.5323  0.7324
 5679TIP3   OH217042   0.160   1.470   2.138 -0.0129  0.3455 -0.0008
 5679TIP3    H117043   0.080   1.451   2.089 -0.4604  1.3081  0.3352
 5679TIP3    H217044   0.131   1.485   2.228  0.3110  2.2285 -0.1589
 5680TIP3   OH217045   0.047   2.139   3.801  0.2452  0.2912 -0.0364
 5680TIP3    H117046   0.023   2.048   3.818 -2.1311  0.6418 -1.1375
 5680TIP3    H217047   0.028   2.184   3.883  0.4931 -0.0422  0.2067
 5681TIP3   OH217048   3.330   2.247   4.278  0.0813  0.6101  0.2813
 5681TIP3    H117049   3.419   2.259   4.309  0.8737 -2.3420 -0.4805
 5681TIP3    H217050   3.287   2.196   4.347 -0.5494  0.7492  0.0008
 5682TIP3   OH217051   4.433   2.513   2.961  0.6060  0.4926  0.3761
 5682TIP3    H117052   4.363   2.450   2.980  2.9380 -2.3024  0.4765
 5682TIP3    H217053   4.413   2.544   2.873 -1.1236  0.3616  0.6750
 5683TIP3   OH217054   6.333   1.850   1.706  0.7247 -0.0905  0.0970
 5683TIP3    H117055   6.370   1.771   1.747  1.9639  0.0482 -0.6797
 5683TIP3    H217056   6.240   1.832   1.699  0.9665 -1.4546  0.0639
 5684TIP3   OH217057   5.120   2.310   0.718  0.2756  0.4980 -0.4212
 5684TIP3    H117058   5.048   2.343   0.663  0.5718 -0.4029 -1.4017
 5684TIP3    H217059   5.101   2.343   0.805 -1.1151  0.6148 -0.7444
 5685TIP3   OH217060   1.186   5.268   1.998  0.1429  0.1317 -0.3583
 5685TIP3    H117061   1.239   5.189   2.009 -0.3629 -0.4578 -1.7626
 5685TIP3    H217062   1.216   5.328   2.066  1.8159 -0.5918 -0.4077
 5686TIP3   OH217063   0.137   5.415   2.023  0.3228 -0.4250  0.5550
 5686TIP3    H117064   0.187   5.340   1.990  0.3034 -0.4085  0.4878
 5686TIP3    H217065   0.129   5.473   1.947  1.7081  0.3847  0.9881
 5687TIP3   OH217066   1.201   0.358   0.176 -0.3281  0.2867 -0.0117
 5687TIP3    H117067   1.272   0.406   0.134  0.8613 -2.4190 -1.3370
 5687TIP3    H217068   1.244   0.299   0.237 -1.6544  0.2798  0.9579
 5688TIP3   OH217069   3.899   3.943   0.591  0.3990  0.2139 -0.2037
 5688TIP3    H117070   3.805   3.927   0.600  0.5843 -0.5845  0.4321
 5688TIP3    H217071   3.925   3.977   0.677  0.9444 -0.9488  0.1156
 5689TIP3   OH217072   4.860   5.384   2.697 -0.2421 -0.4474  0.2312
 5689TIP3    H117073   4.886   5.456   2.639  2.7899  0.2542  2.2578
 5689TIP3    H217074   4.926   5.316   2.683 -0.8476 -1.2435  1.1152
 5690TIP3   OH217075   3.657   2.957   0.265  0.2800 -0.0182 -0.1587
 5690TIP3    H117076   3.700   3.027   0.216 -1.7468  1.5456  0.1534
 5690TIP3    H217077   3.647   2.993   0.354  1.0801 -1.5628  0.5961
 5691TIP3   OH217078   2.324   1.406   0.116 -0.5128  0.3304 -0.2821
 5691TIP3    H117079   2.356   1.321   0.146  0.3086  0.8940  0.4740
 5691TIP3    H217080   2.340   1.466   0.189 -1.5601  1.0396 -0.6016
 5692TIP3   OH217081   3.223   2.885   2.861 -0.7240 -0.4776  0.2762
 5692TIP3    H117082   3.316   2.907   2.868 -0.4259  0.0573 -3.4424
 5692TIP3    H217083   3.178   2.968   2.875 -0.4837 -0.3132  0.0976
 5693TIP3   OH217084   6.163   5.239   2.210  0.1649 -0.2844 -0.1075
 5693TIP3    H117085   6.093   5.304   2.202 -0.5681 -1.3185 -3.0238
 5693TIP3    H217086   6.163   5.216   2.303 -1.9714  1.2315  0.3464
 5694TIP3   OH217087   0.838   4.662   2.209  0.4338  0.6975 -0.0899
 5694TIP3    H117088   0.932   4.660   2.189  0.1501  0.0851 -1.4705
 5694TIP3    H217089   0.802   4.730   2.153 -0.2270 -0.3401 -0.9507
 5695TIP3   OH217090   2.349   5.576   3.507  0.7336  0.6793 -0.2783
 5695TIP3    H117091   2.382   5.562   3.418  0.1516 -0.9981 -0.2766
 5695TIP3    H217092   2.265   5.531   3.508  1.6546 -1.1668  1.6901
 5696TIP3   OH217093   3.438   1.425   4.012 -0.7831 -0.1501  0.6055
 5696TIP3    H117094   3.455   1.484   4.086  2.1687  0.6096 -0.5336
 5696TIP3    H217095   3.434   1.483   3.936  1.4254 -1.2870 -0.4407
 5697TIP3   OH217096   1.779   3.534   1.868  0.2339  0.2664 -0.6344
 5697TIP3    H117097   1.831   3.607   1.900  0.4024  0.7563 -1.9418
 5697TIP3    H217098   1.772   3.474   1.942  0.5198  1.3671  0.3094
 5698TIP3   OH217099   4.713   0.560   5.144 -0.6904  0.1180 -0.2359
 5698TIP3    H117100   4.774   0.533   5.212 -0.3892  0.0293 -0.5387
 5698TIP3    H217101   4.637   0.594   5.192 -0.9296 -0.9385  0.1448
 5699TIP3   OH217102   4.513   4.020   2.105 -0.4940 -0.1535 -0.1136
 5699TIP3    H117103   4.454   3.989   2.174 -0.2342  0.0382  0.1983
 5699TIP3    H217104   4.520   3.946   2.044 -1.4086 -0.0211 -0.3958
 5700TIP3   OH217105   5.929   3.673   1.313 -0.5618  0.4597  0.6949
 5700TIP3    H117106   5.887   3.588   1.298 -1.5869  1.0007  0.3728
 5700TIP3    H217107   5.896   3.702   1.398 -0.5953  0.7486  0.5871
 5701TIP3   OH217108   6.147   3.675   2.975 -0.3928  0.2037 -0.2759
 5701TIP3    H117109   6.160   3.688   3.069 -2.9058  1.0823  0.0172
 5701TIP3    H217110   6.155   3.581   2.963  1.0978  0.1812  0.5767
 5702TIP3   OH217111   3.717   5.090   2.233  0.4724 -0.4395 -0.0804
 5702TIP3    H117112   3.631   5.129   2.220  0.0163 -1.3128  0.2544
 5702TIP3    H217113   3.774   5.136   2.170 -0.4281 -0.4976 -0.9678
 5703TIP3   OH217114   3.836   2.736   2.467 -0.3186 -0.0460  0.3566
 5703TIP3    H117115   3.907   2.737   2.531 -2.1365  2.6131  2.6002
 5703TIP3    H217116   3.779   2.664   2.495  1.1890 -1.9542 -1.2380
 5704TIP3   OH217117   5.720   3.064   3.680  0.5223  0.4954  0.6028
 5704TIP3    H117118   5.674   3.146   3.662  0.9887  0.5858 -0.2692
 5704TIP3    H217119   5.811   3.082   3.656  0.3164 -0.8070 -1.4579
 5705TIP3   OH217120   5.910   5.625   4.810 -0.1074  0.2149  0.1431
 5705TIP3    H117121   5.826   5.581   4.823 -1.0361  0.5163 -3.6075
 5705TIP3    H217122   5.936   5.601   4.721  1.9560  3.0223 -0.1599
 5706TIP3   OH217123   3.743   5.688   4.492  0.2916 -0.1315  0.0151
 5706TIP3    H117124   3.741   5.743   4.413  0.8654  1.4551  1.0479
 5706TIP3    H217125   3.733   5.599   4.459 -0.9653  0.5892 -1.7170
 5707TIP3   OH217126   5.100   5.790   2.503  0.5415 -0.7189  0.1334
 5707TIP3    H117127   5.107   5.825   2.415 -1.2813 -1.2217 -0.2453
 5707TIP3    H217128   5.006   5.789   2.522  0.8150 -1.6522  1.6450
 5708TIP3   OH217129   6.165   1.112   2.566 -0.0877 -0.0316 -0.6028
 5708TIP3    H117130   6.173   1.203   2.540 -0.0698  0.2310  0.2773
 5708TIP3    H217131   6.253   1.087   2.593 -0.1847 -0.1623 -0.3987
 5709TIP3   OH217132   1.377   3.555   1.192 -0.3854 -0.0365  0.3883
 5709TIP3    H117133   1.453   3.534   1.138 -0.1078 -0.7847  1.0551
 5709TIP3    H217134   1.328   3.473   1.198 -1.5126  0.5451 -0.4131
 5710TIP3   OH217135   1.178   5.733   3.039 -0.9910  0.6639 -0.0965
 5710TIP3    H117136   1.226   5.751   3.119  0.0602  3.5207 -1.2541
 5710TIP3    H217137   1.240   5.685   2.984 -1.5666 -0.9113  0.5780
 5711TIP3   OH217138   2.255   1.805   4.149  0.1594 -0.1622  0.0887
 5711TIP3    H117139   2.230   1.736   4.211 -1.3287 -0.7945 -1.1677
 5711TIP3    H217140   2.172   1.840   4.118  0.8639  0.0066 -1.6974
 5712TIP3   OH217141   6.234   1.809   0.098 -0.1199  0.0585 -0.0637
 5712TIP3    H117142   6.326   1.834   0.095  1.4743 -4.4347  2.0781
 5712TIP3    H217143   6.207   1.824   0.188 -2.1377  2.6807 -0.9617
 5713TIP3   OH217144   1.440   0.833   2.055 -0.0109  0.3614 -0.3908
 5713TIP3    H117145   1.485   0.917   2.061 -0.1493  0.6032 -2.2415
 5713TIP3    H217146   1.494   0.773   2.106 -1.0559  1.9486  2.8771
 5714TIP3   OH217147   4.640   3.454   3.884 -0.0720  0.1407  0.3632
 5714TIP3    H117148   4.705   3.504   3.835  2.0206 -1.3471  1.4066
 5714TIP3    H217149   4.610   3.387   3.823  0.2898  0.1213  0.1997
 5715TIP3   OH217150   1.499   1.272   1.504  0.4455  0.1605  0.4082
 5715TIP3    H117151   1.427   1.296   1.446  0.7398  3.0869  1.1040
 5715TIP3    H217152   1.569   1.245   1.445 -0.3235 -0.0881 -0.4142
 5716TIP3   OH217153   5.845   3.805   0.382  1.0305  0.0566  0.2039
 5716TIP3    H117154   5.827   3.725   0.333  2.8484 -1.1084  1.3213
 5716TIP3    H217155   5.813   3.788   0.470  2.7163 -0.0460  0.8348
 5717TIP3   OH217156   6.181   2.378   2.369 -0.0304  0.0809 -0.6637
 5717TIP3    H117157   6.143   2.309   2.313 -1.3974 -0.6547  1.0721
 5717TIP3    H217158   6.126   2.455   2.353 -0.0357  0.0494 -0.7988
 5718TIP3   OH217159   3.121   0.244   0.157  0.2488 -0.1745  0.2003
 5718TIP3    H117160   3.062   0.209   0.090 -0.1623  0.1871  0.3682
 5718TIP3    H217161   3.092   0.202   0.238  1.0602 -0.9917  0.0909
 5719TIP3   OH217162   5.370   5.392   3.776  0.0091  0.0172 -0.3091
 5719TIP3    H117163   5.389   5.478   3.739  0.0848 -0.1551 -0.6748
 5719TIP3    H217164   5.347   5.338   3.700 -0.6548 -0.1207 -0.0163
 5720TIP3   OH217165   1.075   4.369   1.995 -0.4778  0.3006  0.1827
 5720TIP3    H117166   1.075   4.431   2.068 -1.7510  1.9253 -1.1263
 5720TIP3    H217167   1.009   4.304   2.018 -0.3191  0.3625  0.8274
 5721TIP3   OH217168   3.316   2.668   1.181 -0.0966  0.3655 -0.0272
 5721TIP3    H117169   3.341   2.747   1.229  1.6006  1.7716 -2.9443
 5721TIP3    H217170   3.399   2.620   1.169 -0.5320 -0.1418 -1.1292
 5722TIP3   OH217171   4.162   3.220   1.286  0.2847  0.6323 -0.5315
 5722TIP3    H117172   4.136   3.128   1.294  0.9921  0.5620  1.3358
 5722TIP3    H217173   4.147   3.240   1.193 -0.6925 -1.1008 -0.8039
 5723TIP3   OH217174   2.414   1.623   3.010  0.0325  0.5572 -0.2089
 5723TIP3    H117175   2.374   1.624   2.923  0.4449  0.8432 -0.4016
 5723TIP3    H217176   2.452   1.711   3.019 -0.1003  0.5661  0.3045
 5724TIP3   OH217177   5.712   0.905   0.622 -0.4539 -0.0470 -0.0070
 5724TIP3    H117178   5.669   0.965   0.561 -0.7789 -2.7803 -2.7014
 5724TIP3    H217179   5.800   0.942   0.634 -1.1479  1.7660 -0.2668
 5725TIP3   OH217180   5.031   3.991   1.357  0.0178 -0.0709  0.6889
 5725TIP3    H117181   5.018   4.064   1.297 -2.5589 -0.7210  0.3762
 5725TIP3    H217182   5.000   4.024   1.442  0.2293 -0.3422  0.8738
 5726TIP3   OH217183   1.480   3.760   2.119 -0.0721  0.2278  0.0410
 5726TIP3    H117184   1.434   3.755   2.203 -0.6702  1.3626 -0.2018
 5726TIP3    H217185   1.564   3.718   2.135 -1.0074 -1.5421  0.6158
 5727TIP3   OH217186   4.263   2.005   1.108  0.0882  0.5331 -0.0979
 5727TIP3    H117187   4.172   2.014   1.138  0.2889  0.7331  0.4729
 5727TIP3    H217188   4.308   2.080   1.146  0.7453 -0.2007  0.6346
 5728TIP3   OH217189   2.806   5.523   0.059 -0.1090  0.5296  0.4691
 5728TIP3    H117190   2.717   5.490   0.071 -0.1172  1.3933  4.0056
 5728TIP3    H217191   2.842   5.526   0.148  2.5814  2.6011 -0.5623
 5729TIP3   OH217192   3.034   5.297   4.629 -0.2417 -0.0681 -0.0479
 5729TIP3    H117193   3.038   5.366   4.563 -0.7055  0.5951  0.6061
 5729TIP3    H217194   3.124   5.262   4.632 -0.0493  0.3723 -0.5209
 5730TIP3   OH217195   2.501   1.835   2.302  1.0034  0.3910  0.6132
 5730TIP3    H117196   2.592   1.824   2.331  1.1234 -0.9772 -0.2119
 5730TIP3    H217197   2.504   1.820   2.208 -0.2049 -0.5242  0.7063
 5731TIP3   OH217198   4.660   5.026   1.067 -0.4426 -0.3716 -0.6137
 5731TIP3    H117199   4.672   4.944   1.019  0.6646 -0.9680  0.5943
 5731TIP3    H217200   4.627   5.088   1.002 -1.8089 -1.8925 -1.4438
 5732TIP3   OH217201   5.340   4.474   0.150  0.0554 -0.3545 -0.3919
 5732TIP3    H117202   5.368   4.514   0.067  0.3854 -1.2696 -0.7372
 5732TIP3    H217203   5.246   4.462   0.140 -0.0451  0.3007 -0.2926
 5733TIP3   OH217204   2.422   4.159   1.084  0.0557  0.1784 -0.4644
 5733TIP3    H117205   2.387   4.248   1.084  1.9576  0.9820 -0.8990
 5733TIP3    H217206   2.437   4.139   1.176 -1.0723 -0.0067 -0.3084
 5734TIP3   OH217207   2.184   4.064   2.216 -0.2626 -0.0905 -0.6433
 5734TIP3    H117208   2.118   4.000   2.242  0.2375 -0.3916 -0.0941
 5734TIP3    H217209   2.267   4.020   2.231  0.0928  0.7171 -0.1846
 5735TIP3   OH217210   0.748   0.361   0.445 -0.1217  0.0790 -0.1323
 5735TIP3    H117211   0.772   0.383   0.535  1.7176  1.3744 -0.8878
 5735TIP3    H217212   0.772   0.269   0.435 -0.8919 -0.2475  0.8412
 5736TIP3   OH217213   4.947   3.636   5.077 -0.2303  0.0363  0.3621
 5736TIP3    H117214   4.944   3.729   5.053 -1.6244  0.1098  0.7376
 5736TIP3    H217215   4.857   3.606   5.065 -0.1918 -0.8116  2.0048
 5737TIP3   OH217216   3.523   3.844   4.153 -0.1332  1.1017 -0.2195
 5737TIP3    H117217   3.459   3.784   4.190 -0.2106  0.9129 -0.6493
 5737TIP3    H217218   3.594   3.847   4.217 -0.1817  0.6346 -0.1443
 5738TIP3   OH217219   1.709   3.285   0.849 -0.1777 -1.1929  0.5409
 5738TIP3    H117220   1.660   3.221   0.900 -2.0336 -1.5538 -1.5199
 5738TIP3    H217221   1.648   3.313   0.780  2.0939 -0.6840 -1.4134
 5739TIP3   OH217222   3.246   0.666   5.124 -0.6483  0.1379  0.1495
 5739TIP3    H117223   3.278   0.756   5.127 -0.3086  0.0436 -0.5268
 5739TIP3    H217224   3.204   0.659   5.038  1.1999 -0.9784 -0.7061
 5740TIP3   OH217225   5.447   0.708   0.207 -0.2681  0.1884  0.1218
 5740TIP3    H117226   5.454   0.701   0.302 -1.7556  1.0978  0.3356
 5740TIP3    H217227   5.523   0.761   0.181 -0.6119  1.1356  0.9834
 5741TIP3   OH217228   2.822   4.847   4.560 -0.0647  0.0922  0.0137
 5741TIP3    H117229   2.795   4.755   4.561 -0.5497  0.2159 -0.6414
 5741TIP3    H217230   2.835   4.866   4.467  0.8279  0.4624  0.2137
 5742TIP3   OH217231   4.759   0.671   1.312  0.2346 -0.4537 -0.4448
 5742TIP3    H117232   4.782   0.581   1.335  2.2912  0.8826  3.8480
 5742TIP3    H217233   4.844   0.715   1.303 -0.6606  1.6041  0.5248
 5743TIP3   OH217234   4.230   4.346   1.714 -0.0075  0.0142 -0.1388
 5743TIP3    H117235   4.224   4.373   1.622  0.2950 -0.6253 -0.3578
 5743TIP3    H217236   4.142   4.314   1.735 -0.0117 -0.0702 -0.2823
 5744TIP3   OH217237   1.634   2.674   3.575 -0.9995  0.7495 -0.0633
 5744TIP3    H117238   1.635   2.735   3.501  0.0468  0.5064 -0.2728
 5744TIP3    H217239   1.670   2.726   3.648 -1.4824  0.8166  0.1268
 5745TIP3   OH217240   2.199   1.586   4.299  0.0043  0.2073  0.1654
 5745TIP3    H117241   2.160   1.651   4.358 -0.7379  0.4353 -0.5687
 5745TIP3    H217242   2.206   1.507   4.353 -2.7321 -0.2642  0.0144
 5746TIP3   OH217243   4.326   1.907   1.794 -0.2150 -0.1349 -0.4154
 5746TIP3    H117244   4.252   1.930   1.738 -0.6564  1.0829  0.6295
 5746TIP3    H217245   4.392   1.873   1.733 -0.0063  2.7173 -1.9776
 5747TIP3   OH217246   3.432   1.324   1.382 -0.0276  0.1004  0.3318
 5747TIP3    H117247   3.344   1.286   1.382 -0.6895  1.5320  1.0088
 5747TIP3    H217248   3.467   1.303   1.469  0.0044  0.1649  0.3344
 5748TIP3   OH217249   1.484   1.877   3.078 -0.3076 -0.4008  0.1181
 5748TIP3    H117250   1.497   1.820   3.003  0.4490  2.7650 -2.3344
 5748TIP3    H217251   1.390   1.892   3.081 -0.2959 -0.2243 -0.4407
 5749TIP3   OH217252   4.544   0.101   2.809 -0.1450  0.5299  0.1844
 5749TIP3    H117253   4.636   0.123   2.822 -0.7393  2.6423  1.1940
 5749TIP3    H217254   4.538   0.081   2.715  1.8433 -2.6380  0.5771
 5750TIP3   OH217255   0.760   4.424   0.869 -0.2131 -0.1251 -0.1664
 5750TIP3    H117256   0.773   4.516   0.889  0.5179 -0.2536 -0.0286
 5750TIP3    H217257   0.763   4.379   0.953 -0.4448 -0.2899 -0.2433
 5751TIP3   OH217258   4.313   3.068   1.019 -0.4636 -0.4483  0.4303
 5751TIP3    H117259   4.236   3.077   0.963  0.1961  0.6338 -0.3413
 5751TIP3    H217260   4.366   3.001   0.976 -0.5337 -0.4985  0.4225
 5752TIP3   OH217261   4.036   4.434   4.895 -0.0489  0.3597 -0.7260
 5752TIP3    H117262   3.975   4.422   4.968  0.8580 -0.3358 -0.0619
 5752TIP3    H217263   4.111   4.380   4.917  2.3602  3.7452  0.2200
 5753TIP3   OH217264   0.973   1.606   4.436  0.0095 -0.4288 -0.4144
 5753TIP3    H117265   1.049   1.569   4.481  0.0821  1.0871  0.7969
 5753TIP3    H217266   1.001   1.693   4.407 -1.7133  0.9074  1.6013
 5754TIP3   OH217267   3.701   3.069   2.505  0.4151 -0.0086 -1.3827
 5754TIP3    H117268   3.635   3.018   2.552  0.4973  1.9059  1.0525
 5754TIP3    H217269   3.737   3.009   2.441 -0.3653 -2.5855  0.4386
 5755TIP3   OH217270   0.435   4.716   2.559 -0.3058 -0.2581 -0.6088
 5755TIP3    H117271   0.363   4.656   2.580 -1.6498  1.1944 -0.8154
 5755TIP3    H217272   0.442   4.773   2.636  1.0937 -0.7880 -0.3187
 5756TIP3   OH217273   1.071   0.081   0.402  0.1418  0.5908  0.4004
 5756TIP3    H117274   1.042   0.001   0.446  1.3846 -0.8508 -1.2361
 5756TIP3    H217275   1.061   0.150   0.468  0.0397 -1.0864  2.2298
 5757TIP3   OH217276   2.123   4.365   1.365  0.2866  0.5218  0.8863
 5757TIP3    H117277   2.171   4.433   1.411 -1.0630  1.3861  1.0912
 5757TIP3    H217278   2.039   4.360   1.410 -0.2902 -0.0624 -0.1968
 5758TIP3   OH217279   0.825   4.414   3.845  0.3280  0.8897  0.3324
 5758TIP3    H117280   0.890   4.412   3.774  0.4209  1.0259  0.4133
 5758TIP3    H217281   0.826   4.324   3.879 -1.4141  0.1709 -1.3527
 5759TIP3   OH217282   5.833   3.020   4.231  0.1690  0.3134  0.3177
 5759TIP3    H117283   5.859   2.929   4.249 -1.1123  0.0780  1.1505
 5759TIP3    H217284   5.888   3.073   4.288  0.3610 -0.0027  0.4304
 5760TIP3   OH217285   5.143   3.535   4.497  0.1168  0.4302  0.6080
 5760TIP3    H117286   5.210   3.598   4.523  1.8019 -0.7325 -0.7134
 5760TIP3    H217287   5.135   3.475   4.571 -0.0047  0.9799  1.0457
 5761TIP3   OH217288   2.799   5.196   4.587  0.1128  0.0677  0.4070
 5761TIP3    H117289   2.878   5.247   4.605  0.4149 -0.0296 -0.5975
 5761TIP3    H217290   2.809   5.117   4.640  1.4787 -0.6915 -0.9088
 5762TIP3   OH217291   0.887   0.129   1.062  0.4149  0.3421 -0.2890
 5762TIP3    H117292   0.916   0.159   1.148  0.4748  0.7037 -0.4325
 5762TIP3    H217293   0.899   0.034   1.064  0.9349  0.4085 -0.0871
 5763TIP3   OH217294   5.317   3.646   4.272  0.3600 -0.5980 -0.1625
 5763TIP3    H117295   5.404   3.620   4.243  0.6218 -0.8305  0.7882
 5763TIP3    H217296   5.331   3.730   4.316  0.2582 -1.0391  0.7408
 5764TIP3   OH217297   1.326   0.402   4.173  0.2283 -0.4983  0.1595
 5764TIP3    H117298   1.402   0.451   4.206 -0.3718  0.7497 -0.2725
 5764TIP3    H217299   1.339   0.313   4.207  1.4666 -0.1137  0.7588
 5765TIP3   OH217300   6.021   0.176   0.088 -0.3391 -0.5077  0.6742
 5765TIP3    H117301   6.013   0.271   0.099  0.8752  0.0659 -2.3678
 5765TIP3    H217302   5.965   0.156   0.013  2.7728 -1.3478 -1.6210
 5766TIP3   OH217303   3.661   5.369   4.830 -0.0252  0.3380 -0.0119
 5766TIP3    H117304   3.567   5.354   4.829  0.3177 -2.4101  0.5376
 5766TIP3    H217305   3.691   5.339   4.744  0.3266  1.5603 -0.3309
 5767TIP3   OH217306   4.098   1.936   4.843 -0.0721  0.0939  0.0122
 5767TIP3    H117307   4.099   2.020   4.888 -0.3290  0.6586 -0.9916
 5767TIP3    H217308   4.157   1.949   4.769 -1.3068 -0.0751 -1.0390
 5768TIP3   OH217309   0.261   0.374   5.143 -0.5396 -0.3380  0.1121
 5768TIP3    H117310   0.265   0.397   5.050 -0.1980 -1.8361 -0.2751
 5768TIP3    H217311   0.215   0.447   5.184 -0.6739  0.3650 -1.2249
 5769TIP3   OH217312   4.723   5.776   0.197  0.4466  1.3052 -0.0116
 5769TIP3    H117313   4.668   5.815   0.265 -0.7738 -0.2226 -0.0461
 5769TIP3    H217314   4.793   5.732   0.245 -1.7492 -1.8729  0.5839
 5770TIP3   OH217315   0.884   2.484   3.510  0.2878 -0.2809 -0.2491
 5770TIP3    H117316   0.948   2.504   3.579 -1.2839  1.4309  0.8256
 5770TIP3    H217317   0.865   2.391   3.521  1.2155 -0.3928  0.6149
 5771TIP3   OH217318   0.163   2.044   1.728  0.1863 -0.1893  0.2450
 5771TIP3    H117319   0.095   1.977   1.736 -0.9003  0.7665 -0.6602
 5771TIP3    H217320   0.245   1.994   1.722 -0.4878 -1.3849  0.7155
 5772TIP3   OH217321   0.734   5.973   3.655 -0.0948 -0.0122 -0.0104
 5772TIP3    H117322   0.661   6.026   3.688  0.7349  0.6611  0.8028
 5772TIP3    H217323   0.722   5.888   3.698 -0.3474  0.1275  0.2020
 5773TIP3   OH217324   3.575   4.308   2.090 -0.6833 -0.1661  0.3419
 5773TIP3    H117325   3.587   4.394   2.050 -1.2852  0.4856  1.5208
 5773TIP3    H217326   3.662   4.268   2.087 -0.5180  0.2488 -0.7134
 5774TIP3   OH217327   5.515   3.542   3.121 -0.1169 -0.2156  0.0017
 5774TIP3    H117328   5.505   3.628   3.080  1.5027  1.3885  2.6529
 5774TIP3    H217329   5.460   3.546   3.199  0.9884 -1.0656  0.8592
 5775TIP3   OH217330   5.597   2.150   4.812 -0.1131 -0.4492  0.1389
 5775TIP3    H117331   5.575   2.236   4.848  0.4068 -1.4227  2.9898
 5775TIP3    H217332   5.524   2.094   4.837 -0.8844 -0.7572 -2.4688
 5776TIP3   OH217333   2.226   3.919   1.331  0.4217  0.4178  0.1654
 5776TIP3    H117334   2.276   3.856   1.383  0.6610  1.2551  0.9754
 5776TIP3    H217335   2.176   3.865   1.270  1.2450 -0.5065  0.2820
 5777TIP3   OH217336   0.024   0.239   3.386  0.2972 -0.4714 -0.3007
 5777TIP3    H117337  -0.005   0.246   3.477  1.0311 -0.4820 -0.0563
 5777TIP3    H217338   0.031   0.144   3.371  1.1199 -0.4588 -0.0483
 5778TIP3   OH217339   2.523   3.198   2.633  0.5803  0.0659  0.0652
 5778TIP3    H117340   2.461   3.270   2.622  2.0776  1.2604 -1.1507
 5778TIP3    H217341   2.534   3.162   2.545  0.6058 -1.0242  0.4964
 5779TIP3   OH217342   1.047   3.048   1.440  0.2949 -0.4551  0.3032
 5779TIP3    H117343   1.008   3.110   1.501  1.4692 -0.0294  0.6548
 5779TIP3    H217344   1.079   3.101   1.367 -1.7032 -1.0261 -1.0789
 5780TIP3   OH217345   6.078   0.758   1.209  0.6944 -0.6497  0.7337
 5780TIP3    H117346   6.088   0.824   1.278  0.0076  0.3665 -0.1271
 5780TIP3    H217347   6.060   0.677   1.257  1.3259 -0.1956  1.7936
 5781TIP3   OH217348   4.980   4.054   2.615  0.2830  0.4571 -0.4116
 5781TIP3    H117349   4.961   4.011   2.699 -1.8813  1.2326 -0.4230
 5781TIP3    H217350   4.942   3.995   2.549  2.0031 -0.1649 -0.8939
 5782TIP3   OH217351   0.163   4.194   3.268 -0.8511 -0.5193 -0.0196
 5782TIP3    H117352   0.160   4.269   3.327 -1.2091  0.2700 -1.0185
 5782TIP3    H217353   0.078   4.195   3.224 -0.5161 -0.9708 -0.6902
 5783TIP3   OH217354   3.827   3.697   1.315  0.2174 -0.5861 -0.4856
 5783TIP3    H117355   3.884   3.754   1.367 -1.0952  0.2950  0.0354
 5783TIP3    H217356   3.742   3.740   1.316 -0.1671 -1.2021 -2.3394
 5784TIP3   OH217357   0.206   0.137   1.892  0.2344 -0.2237  0.5150
 5784TIP3    H117358   0.147   0.148   1.967  1.7726  0.6823  1.6419
 5784TIP3    H217359   0.211   0.042   1.879 -0.7786 -0.3443  0.9457
 5785TIP3   OH217360   5.296   3.379   0.240  0.8454 -0.1157  0.1448
 5785TIP3    H117361   5.260   3.457   0.282  0.3091 -0.5990  0.6035
 5785TIP3    H217362   5.291   3.398   0.146 -1.4475 -0.4913  0.1403
 5786TIP3   OH217363   3.262   0.721   0.177 -0.2760  0.3653  0.1304
 5786TIP3    H117364   3.320   0.743   0.104 -0.3229  2.2877  0.6109
 5786TIP3    H217365   3.181   0.691   0.136 -0.3077  1.4420 -0.6357
 5787TIP3   OH217366   3.285   5.385   2.854 -0.0812  0.2371 -0.1441
 5787TIP3    H117367   3.375   5.353   2.862 -0.2935 -0.3212  0.0193
 5787TIP3    H217368   3.272   5.438   2.933  0.2984  0.8068 -0.4571
 5788TIP3   OH217369   0.298   0.891   2.291 -0.0386 -0.8438 -0.0834
 5788TIP3    H117370   0.381   0.919   2.332  1.4146 -2.5945 -1.6710
 5788TIP3    H217371   0.267   0.820   2.348 -0.5943 -0.0592  0.6209
 5789TIP3   OH217372   4.522   5.126   2.423 -0.1721 -0.1575  0.2929
 5789TIP3    H117373   4.577   5.093   2.352 -1.5188 -2.2692  0.1506
 5789TIP3    H217374   4.476   5.201   2.385  0.6346  0.0105 -0.3968
 5790TIP3   OH217375   3.222   2.502   4.338  0.4004 -0.1291  0.0217
 5790TIP3    H117376   3.240   2.415   4.303  0.1772 -0.1199 -0.1156
 5790TIP3    H217377   3.210   2.557   4.260  0.4298  0.0007  0.1086
 5791TIP3   OH217378   4.961   4.607   0.314 -0.5347 -0.5666 -0.0246
 5791TIP3    H117379   4.988   4.555   0.238  0.6298 -2.8948  1.8505
 5791TIP3    H217380   4.955   4.543   0.386 -2.7715  1.3269  1.6145
 5792TIP3   OH217381   4.853   0.070   2.407  0.2173 -0.0503  0.2797
 5792TIP3    H117382   4.938   0.026   2.413  0.5775  0.8180  4.0973
 5792TIP3    H217383   4.865   0.153   2.452 -2.8724 -0.3646  2.0107
 5793TIP3   OH217384   4.103   4.238   3.708 -1.0017  0.5830  0.2478
 5793TIP3    H117385   4.073   4.325   3.680 -0.7004  0.7524  0.4394
 5793TIP3    H217386   4.036   4.207   3.768 -2.0049 -0.0696 -1.1463
 5794TIP3   OH217387   0.673   5.713   2.506 -0.0203 -0.5338  0.4913
 5794TIP3    H117388   0.760   5.740   2.478 -0.5843  0.8154 -0.0352
 5794TIP3    H217389   0.649   5.774   2.575 -1.7259  1.0918 -1.3963
 5795TIP3   OH217390   3.088   0.675   4.610  0.5052 -0.7475  0.6925
 5795TIP3    H117391   3.079   0.751   4.668 -0.1030 -0.7827  0.6575
 5795TIP3    H217392   2.999   0.638   4.606  0.3580 -0.2905 -0.8591
 5796TIP3   OH217393   0.398   3.013   0.929  0.4994 -0.5456 -0.5185
 5796TIP3    H117394   0.445   3.096   0.931 -0.7824  0.1879  0.3416
 5796TIP3    H217395   0.347   3.011   1.011 -1.2349 -1.1305 -1.5510
 5797TIP3   OH217396   1.571   1.919   1.973 -0.0806  0.4170 -0.0196
 5797TIP3    H117397   1.623   1.868   1.911 -0.2604  2.0789 -1.6309
 5797TIP3    H217398   1.484   1.880   1.969 -0.1066  0.5516 -0.8816
 5798TIP3   OH217399   1.852   4.875   0.597  0.2921  0.1582 -0.5733
 5798TIP3    H117400   1.765   4.840   0.576  0.1147  0.4039 -0.2621
 5798TIP3    H217401   1.836   4.966   0.622  0.4055 -0.2227  1.0503
 5799TIP3   OH217402   4.938   2.910   0.369 -0.3958 -0.3636  0.9553
 5799TIP3    H117403   4.924   2.933   0.461 -0.1926  0.7708  0.7165
 5799TIP3    H217404   4.925   2.815   0.366  0.3805 -0.5478  2.3098
 5800TIP3   OH217405   5.322   4.997   2.144  0.7091 -1.0304 -0.4091
 5800TIP3    H117406   5.272   5.023   2.067  1.1028 -2.6637 -1.2722
 5800TIP3    H217407   5.276   4.920   2.178  0.0846  0.1080  1.5016
 5801TIP3   OH217408   3.178   3.874   1.608  0.3799  0.3664 -0.3014
 5801TIP3    H117409   3.151   3.939   1.543 -3.1073  0.2449  0.8449
 5801TIP3    H217410   3.166   3.790   1.564  0.2628  0.3495 -0.2364
 5802TIP3   OH217411   3.570   4.547   3.176  0.4132  0.4468 -0.0040
 5802TIP3    H117412   3.652   4.557   3.128  0.7007 -1.2125  0.0928
 5802TIP3    H217413   3.552   4.635   3.211  1.6324  1.0526 -0.8243
 5803TIP3   OH217414   4.560   2.945   1.644  0.4091  0.1451  0.3690
 5803TIP3    H117415   4.609   2.934   1.562 -1.4235 -0.2615 -0.7353
 5803TIP3    H217416   4.495   2.875   1.642  0.2685  0.1907  2.1575
 5804TIP3   OH217417   0.991   0.788   4.222  0.2559 -0.4924  0.1728
 5804TIP3    H117418   0.927   0.816   4.156 -0.5687 -0.3349  1.0125
 5804TIP3    H217419   0.941   0.786   4.304  1.4668  0.1703  0.9557
 5805TIP3   OH217420   2.731   3.442   3.704 -0.4595 -0.0234 -0.2062
 5805TIP3    H117421   2.651   3.416   3.660 -1.8094  1.2334  1.3589
 5805TIP3    H217422   2.782   3.362   3.712 -2.6388 -1.3680  0.9054
 5806TIP3   OH217423   1.872   2.505   1.408  0.6825  0.0325  0.0996
 5806TIP3    H117424   1.869   2.589   1.454 -0.3851  0.1631 -0.1881
 5806TIP3    H217425   1.927   2.522   1.331 -0.1082  0.6702 -0.3370
 5807TIP3   OH217426   5.946   4.435   2.577  0.1224 -0.3147  0.1721
 5807TIP3    H117427   5.946   4.339   2.582  3.1753 -0.4346  0.0916
 5807TIP3    H217428   5.983   4.454   2.491 -0.1890  0.9391  0.3008
 5808TIP3   OH217429   2.871   1.238   4.007 -0.1401 -0.3652  1.1187
 5808TIP3    H117430   2.920   1.261   4.085 -1.4940  0.3758  1.7925
 5808TIP3    H217431   2.864   1.320   3.958  1.6579 -1.0487 -0.3768
 5809TIP3   OH217432   4.667   2.590   1.587  0.9507  0.8623 -0.8121
 5809TIP3    H117433   4.719   2.664   1.556  2.0569 -0.2784 -1.7773
 5809TIP3    H217434   4.721   2.548   1.654  0.2336  1.0162 -0.1043
 5810TIP3   OH217435   1.982   2.615   4.669  0.0476 -0.7582 -0.0536
 5810TIP3    H117436   1.937   2.563   4.603 -2.7129 -1.3622  2.1037
 5810TIP3    H217437   1.931   2.696   4.675  3.4982  1.9281 -2.4246
 5811TIP3   OH217438   2.799   1.156   4.410 -0.5420 -0.2716  0.4258
 5811TIP3    H117439   2.748   1.195   4.481 -1.6796 -0.5314 -0.2267
 5811TIP3    H217440   2.737   1.100   4.364  0.6521 -1.5885  0.3508
 5812TIP3   OH217441   4.835   2.629   0.391  0.6704 -0.6103 -0.8913
 5812TIP3    H117442   4.866   2.625   0.482 -0.5249 -0.0190 -0.4306
 5812TIP3    H217443   4.765   2.564   0.387 -0.3273  0.4346 -0.9404
 5813TIP3   OH217444   1.657   1.242   4.794 -0.1459  0.2920  0.7235
 5813TIP3    H117445   1.666   1.319   4.849  2.0576  0.1483  0.6426
 5813TIP3    H217446   1.614   1.178   4.850  0.4587  0.7242  1.7134
 5814TIP3   OH217447   1.315   0.190   2.625 -0.0524  0.4885 -0.5221
 5814TIP3    H117448   1.396   0.182   2.676 -0.8892  3.2843  1.4796
 5814TIP3    H217449   1.248   0.151   2.681 -0.3872 -0.3039 -1.4447
 5815TIP3   OH217450   3.306   3.832   0.205  0.1222 -0.4563 -0.1884
 5815TIP3    H117451   3.386   3.874   0.234 -0.5706  0.0320  1.0929
 5815TIP3    H217452   3.319   3.818   0.111  1.3897  0.2938 -0.1488
 5816TIP3   OH217453   2.731   3.673   0.501 -0.0508  0.3943  0.0814
 5816TIP3    H117454   2.783   3.682   0.421 -0.2993  2.4556  0.1036
 5816TIP3    H217455   2.793   3.643   0.567  0.1525 -1.3908 -0.8473
 5817TIP3   OH217456   3.472   5.218   2.213  0.3167 -0.0003  0.3051
 5817TIP3    H117457   3.469   5.270   2.293  0.3547 -1.8240  1.5533
 5817TIP3    H217458   3.380   5.202   2.191  0.3131  0.0098  0.3125
 5818TIP3   OH217459   4.786   4.451   3.444 -0.6437 -0.2176  0.8394
 5818TIP3    H117460   4.810   4.536   3.407 -0.9321 -0.9123 -1.0609
 5818TIP3    H217461   4.698   4.464   3.478 -0.6921  0.2370  0.5500
 5819TIP3   OH217462   4.569   5.957   5.117 -0.0297 -0.0748  0.3642
 5819TIP3    H117463   4.598   5.866   5.123 -2.2010 -0.7720  0.9621
 5819TIP3    H217464   4.604   5.999   5.195 -0.5250 -0.8705  1.0257
 5820TIP3   OH217465   2.721   2.272   1.995  0.2671  0.2569 -0.1782
 5820TIP3    H117466   2.691   2.185   2.022  3.6194 -1.2098 -0.6364
 5820TIP3    H217467   2.682   2.285   1.908 -1.6710  0.0705  0.6075
 5821TIP3   OH217468   0.589   0.934   4.843 -0.1494 -0.6955 -0.0729
 5821TIP3    H117469   0.615   0.854   4.888  0.1266 -0.5741 -0.0138
 5821TIP3    H217470   0.494   0.925   4.831 -0.6041  0.2139  2.3911
 5822TIP3   OH217471   5.569   4.201   0.756  0.1154 -0.1360 -0.4065
 5822TIP3    H117472   5.636   4.133   0.748  0.0537 -0.3813  0.9203
 5822TIP3    H217473   5.618   4.283   0.749  0.1403 -0.2853 -2.3720
 5823TIP3   OH217474   2.694   0.858   3.610 -0.0913  0.5723 -0.0371
 5823TIP3    H117475   2.603   0.868   3.582 -0.0847  0.5926 -0.0517
 5823TIP3    H217476   2.698   0.899   3.696 -0.1516  0.3527  0.0706
 5824TIP3   OH217477   6.109   4.247   5.132  0.2390 -0.3347 -0.0851
 5824TIP3    H117478   6.180   4.209   5.079 -0.3630 -0.3455 -0.9068
 5824TIP3    H217479   6.029   4.220   5.087 -0.2689  0.0959  0.5498
 5825TIP3   OH217480   4.003   5.386   0.909  0.6607 -0.2945  0.0618
 5825TIP3    H117481   3.954   5.425   0.836  2.3408 -0.6606 -1.3432
 5825TIP3    H217482   3.940   5.331   0.954 -0.9002  1.3511  0.0201
 5826TIP3   OH217483   3.860   1.676   0.644  0.0054  0.0259 -0.0039
 5826TIP3    H117484   3.919   1.637   0.709 -1.1247 -0.6999  0.6159
 5826TIP3    H217485   3.918   1.708   0.576  1.0888 -1.3006  0.2455
 5827TIP3   OH217486   0.328   3.798   0.804  0.3819 -0.3799 -0.1588
 5827TIP3    H117487   0.304   3.726   0.746  0.1476  1.6099 -2.6949
 5827TIP3    H217488   0.423   3.790   0.816  0.2739 -1.3992  0.0652
 5828TIP3   OH217489   2.896   1.408   1.609 -0.9706  0.6479 -0.1915
 5828TIP3    H117490   2.989   1.410   1.589 -0.4982  2.3052  1.7930
 5828TIP3    H217491   2.882   1.323   1.651 -0.5390  0.0780 -1.1803
 5829TIP3   OH217492   5.613   0.624   4.438  0.4497 -0.3412 -0.2793
 5829TIP3    H117493   5.537   0.656   4.389  0.7986  2.6959  0.9137
 5829TIP3    H217494   5.579   0.603   4.525  0.7398 -0.3205 -0.1587
 5830TIP3   OH217495   2.939   1.659   5.025  0.6682 -0.2555  0.6469
 5830TIP3    H117496   3.029   1.677   4.999  1.1101  0.4093  2.5451
 5830TIP3    H217497   2.946   1.600   5.100 -0.5420 -1.1633  0.0983
 5831TIP3   OH217498   4.836   0.303   1.571  0.1834 -0.3521  0.1758
 5831TIP3    H117499   4.741   0.317   1.564 -0.0297 -1.1637  1.2299
 5831TIP3    H217500   4.857   0.244   1.498 -0.1975 -0.5236  0.2011
 5832TIP3   OH217501   6.283   0.239   2.940  0.1059  0.3781 -0.6587
 5832TIP3    H117502   6.349   0.171   2.955  0.2444  0.6071 -0.2402
 5832TIP3    H217503   6.233   0.243   3.021 -1.1731 -0.5972 -1.3656
 5833TIP3   OH217504   5.321   1.456   1.857 -0.4832 -0.2688 -0.2888
 5833TIP3    H117505   5.267   1.526   1.820 -1.0023 -0.3773  0.2443
 5833TIP3    H217506   5.406   1.465   1.813 -0.8028  0.1684 -0.8305
 5834TIP3   OH217507   0.757   5.560   1.418  0.0452  0.3704  0.2588
 5834TIP3    H117508   0.843   5.521   1.404  0.9317  1.4892  2.0809
 5834TIP3    H217509   0.699   5.515   1.357  2.0788  0.1777 -1.6496
 5835TIP3   OH217510   4.489   1.069   5.165 -0.6642  0.3557  0.5260
 5835TIP3    H117511   4.409   1.025   5.137 -0.2498  0.1292 -0.3362
 5835TIP3    H217512   4.547   1.064   5.089  0.2734  0.2735  1.2284
 5836TIP3   OH217513   0.476   3.114   0.519  0.6417 -0.2111  0.2172
 5836TIP3    H117514   0.439   3.132   0.433  0.9479 -0.5945  0.0039
 5836TIP3    H217515   0.419   3.047   0.556  0.0920  0.4590  0.6055
 5837TIP3   OH217516   2.059   4.600   3.782 -0.3095 -0.2897  0.0124
 5837TIP3    H117517   2.094   4.513   3.801 -0.6042 -0.2280  0.8959
 5837TIP3    H217518   2.107   4.629   3.704  1.6891 -0.1637  1.2182
 5838TIP3   OH217519   0.669   4.501   4.480  0.4720 -0.5133  0.3352
 5838TIP3    H117520   0.640   4.433   4.419 -0.3234 -0.2029  0.3484
 5838TIP3    H217521   0.680   4.456   4.563 -0.6281 -0.5260  0.4828
 5839TIP3   OH217522   3.351   5.444   2.065  0.1268  0.1691 -0.1903
 5839TIP3    H117523   3.393   5.359   2.074 -0.1146 -0.0928 -1.4237
 5839TIP3    H217524   3.286   5.447   2.135  0.6091 -0.3656  0.2858
 5840TIP3   OH217525   0.154   1.612   0.231  0.0980  0.6975  0.1722
 5840TIP3    H117526   0.240   1.582   0.202  0.9895  0.8967  2.4267
 5840TIP3    H217527   0.156   1.707   0.221  0.4961  0.7892  1.0944
 5841TIP3   OH217528   5.391   2.069   4.016  0.2639 -0.4656  0.1918
 5841TIP3    H117529   5.395   2.066   3.921  0.8402 -0.1613  0.1991
 5841TIP3    H217530   5.479   2.097   4.043 -0.2452  0.6717  0.7531
 5842TIP3   OH217531   5.553   5.464   3.281  0.1283  0.8485  0.2210
 5842TIP3    H117532   5.625   5.419   3.327 -1.3213 -1.0273  0.7741
 5842TIP3    H217533   5.558   5.432   3.191 -0.7736 -0.3511  0.5662
 5843TIP3   OH217534   3.963   3.415   4.996 -0.1517  0.0736 -0.4918
 5843TIP3    H117535   4.002   3.499   4.972 -0.4338  0.3039 -0.1638
 5843TIP3    H217536   3.933   3.378   4.913  0.2242  0.1655 -0.6715
 5844TIP3   OH217537   5.336   4.009   3.015 -0.4501  0.8045  0.4173
 5844TIP3    H117538   5.259   4.064   3.030  0.4257  1.8552  1.2093
 5844TIP3    H217539   5.399   4.037   3.082  0.2937 -0.6742  0.3870
 5845TIP3   OH217540   6.055   0.981   4.978  0.4664  0.0174  0.8980
 5845TIP3    H117541   6.134   0.935   5.006  1.3294  1.2807  0.6393
 5845TIP3    H217542   6.022   0.931   4.903  3.3914  1.6788 -1.7142
 5846TIP3   OH217543   5.847   0.595   5.027  0.3372  0.2630 -0.5202
 5846TIP3    H117544   5.926   0.627   4.984  0.4200  1.0766  0.2102
 5846TIP3    H217545   5.818   0.521   4.973 -0.2053  1.9243 -2.6045
 5847TIP3   OH217546   1.293   4.655   0.693 -0.1168 -0.2613 -0.6060
 5847TIP3    H117547   1.247   4.595   0.752  0.2548 -0.0938 -0.1365
 5847TIP3    H217548   1.251   4.642   0.608 -0.6632 -0.5038 -0.3044
 5848TIP3   OH217549   5.682   4.272   2.640  0.2057 -0.4114 -0.1019
 5848TIP3    H117550   5.731   4.246   2.718  1.3842 -0.3310 -0.7870
 5848TIP3    H217551   5.629   4.346   2.668 -0.8584 -1.5828  1.1016
 5849TIP3   OH217552   0.191   4.332   3.830  0.4237  0.1269  0.1835
 5849TIP3    H117553   0.286   4.329   3.819  0.3722  2.3217 -1.5418
 5849TIP3    H217554   0.178   4.352   3.923  1.7280  1.5268  0.0990
 5850TIP3   OH217555   1.193   2.433   4.029  0.3832 -0.1281  0.5035
 5850TIP3    H117556   1.213   2.465   4.117 -1.2587 -2.2599  1.7702
 5850TIP3    H217557   1.098   2.441   4.022  0.5351  0.6271 -1.3984
 5851TIP3   OH217558   0.157   5.253   4.266  0.1176  0.3706 -0.3284
 5851TIP3    H117559   0.193   5.247   4.178 -0.8504  1.5636 -0.8431
 5851TIP3    H217560   0.187   5.338   4.299 -1.4680  1.0214 -0.4588
 5852TIP3   OH217561   4.450   1.696   0.796  0.4551 -0.5871 -0.2638
 5852TIP3    H117562   4.533   1.721   0.837 -0.6636 -1.5131  2.8649
 5852TIP3    H217563   4.398   1.776   0.798  0.6442 -0.4579 -0.5083
 5853TIP3   OH217564   5.767   4.643   2.306  0.1923 -0.0330  0.1882
 5853TIP3    H117565   5.733   4.559   2.335 -0.3674 -0.3864 -1.4021
 5853TIP3    H217566   5.703   4.675   2.242  0.6005  1.4044  0.4437
 5854TIP3   OH217567   0.155   1.777   3.438 -0.1247 -0.4690 -0.2530
 5854TIP3    H117568   0.064   1.751   3.449  0.1095 -0.9066  0.7113
 5854TIP3    H217569   0.171   1.767   3.344 -0.4291 -2.5382 -0.1368
 5855TIP3   OH217570   4.572   4.585   4.511  0.1054 -0.1452 -0.2650
 5855TIP3    H117571   4.615   4.500   4.508 -0.2987 -0.3519 -0.2319
 5855TIP3    H217572   4.481   4.567   4.486  0.2971  0.4657 -1.4985
 5856TIP3   OH217573   2.886   4.450   3.129 -0.2394 -0.4294 -0.2270
 5856TIP3    H117574   2.919   4.535   3.099 -0.3812  0.2011  1.2930
 5856TIP3    H217575   2.964   4.400   3.150 -0.1713 -0.3798 -0.3582
 5857TIP3   OH217576   0.269   2.577   2.309 -0.0658 -0.3683 -0.0405
 5857TIP3    H117577   0.318   2.581   2.227  1.5441 -0.8247  0.8401
 5857TIP3    H217578   0.328   2.615   2.374 -0.6017 -1.5341  1.1881
 5858TIP3   OH217579   0.184   4.917   2.008  0.7007 -0.3005  0.1622
 5858TIP3    H117580   0.160   4.944   1.920 -0.8843  0.1883  0.7078
 5858TIP3    H217581   0.212   4.825   1.999 -2.0587 -1.1699 -0.4894
 5859TIP3   OH217582   0.036   0.800   1.745  0.9332 -0.6112  0.3220
 5859TIP3    H117583   0.008   0.842   1.827  1.5132 -0.7846  0.6096
 5859TIP3    H217584   0.129   0.783   1.757  0.6591 -2.2195  0.3127
 5860TIP3   OH217585   2.053   2.473   4.929  0.4095  0.4046  0.3172
 5860TIP3    H117586   2.045   2.539   4.861 -0.6137  1.7540  1.6795
 5860TIP3    H217587   2.134   2.426   4.907  0.5554  1.3469 -1.3240
 5861TIP3   OH217588   3.171   3.531   0.829 -0.6331  0.3598  0.5596
 5861TIP3    H117589   3.204   3.442   0.844 -1.1167 -0.0145 -0.4944
 5861TIP3    H217590   3.234   3.569   0.767  0.1840  1.1501  1.8422
 5862TIP3   OH217591   5.823   4.031   0.655  0.0609  0.0448 -0.1838
 5862TIP3    H117592   5.822   3.936   0.649  0.3192 -0.0331  0.9205
 5862TIP3    H217593   5.796   4.061   0.568 -0.0651 -1.0315 -0.5198
 5863TIP3   OH217594   0.485   4.491   1.220 -0.4270 -0.6200 -0.9126
 5863TIP3    H117595   0.418   4.462   1.157 -0.5658  1.1794 -1.6414
 5863TIP3    H217596   0.457   4.453   1.303 -1.1950 -1.6287 -1.6039
 5864TIP3   OH217597   1.381   2.576   3.172 -0.0573  0.2484 -0.6973
 5864TIP3    H117598   1.292   2.552   3.199 -0.5733  2.4154 -0.3438
 5864TIP3    H217599   1.436   2.551   3.247 -0.6637  0.8408 -0.0407
 5865TIP3   OH217600   6.343   2.524   4.237 -0.3207  0.3344  0.7478
 5865TIP3    H117601   6.297   2.508   4.154  0.0190  0.6277  0.4993
 5865TIP3    H217602   6.287   2.484   4.303 -1.4816  1.6175  0.5767
 5866TIP3   OH217603   1.302   5.636   4.430  0.1083  0.4672 -0.5716
 5866TIP3    H117604   1.336   5.547   4.417 -0.9436 -0.0437 -0.0067
 5866TIP3    H217605   1.307   5.676   4.343  1.4860  0.1898 -0.6369
 5867TIP3   OH217606   1.178   4.178   5.136  0.1152  0.8550 -0.1718
 5867TIP3    H117607   1.188   4.250   5.074 -0.5860  1.8298  0.8113
 5867TIP3    H217608   1.268   4.154   5.159  0.3761  0.6552 -1.3340
 5868TIP3   OH217609   0.652   3.797   0.852  0.2496 -0.4041  0.0453
 5868TIP3    H117610   0.741   3.772   0.825 -0.0707  0.9277 -2.4655
 5868TIP3    H217611   0.661   3.887   0.883 -0.1045 -0.5294  0.5159
 5869TIP3   OH217612   3.429   5.540   1.738  0.4501 -0.3014  0.1839
 5869TIP3    H117613   3.506   5.484   1.741  0.5485 -0.2977 -1.3498
 5869TIP3    H217614   3.463   5.629   1.747  0.3588 -0.4134  1.9456
 5870TIP3   OH217615   6.143   5.310   3.256  0.2654  0.1296  0.0798
 5870TIP3    H117616   6.053   5.278   3.264  0.6036 -0.9881 -0.2614
 5870TIP3    H217617   6.149   5.341   3.165  0.9318 -2.3408 -0.8277
 5871TIP3   OH217618   4.017   1.900   0.795 -0.5226  0.5174  0.2254
 5871TIP3    H117619   3.936   1.880   0.747 -0.5151 -2.0759  1.1048
 5871TIP3    H217620   4.044   1.815   0.831  2.1410  1.4854  0.6777
 5872TIP3   OH217621   4.366   5.329   2.293 -0.4572  1.1768  0.8639
 5872TIP3    H117622   4.353   5.420   2.322 -0.9631  1.3478  0.1323
 5872TIP3    H217623   4.375   5.336   2.198 -0.3238  0.4733  0.8246
 5873TIP3   OH217624   0.723   0.958   1.502  0.0431 -0.3191  0.0487
 5873TIP3    H117625   0.794   0.894   1.507 -1.3786 -2.0728 -0.8343
 5873TIP3    H217626   0.674   0.945   1.583 -1.0892 -1.4665 -0.7768
 5874TIP3   OH217627   0.095   1.010   2.658  0.1858  0.6417  0.2037
 5874TIP3    H117628   0.140   1.089   2.629 -1.2062  1.6982  0.7866
 5874TIP3    H217629   0.153   0.938   2.634  1.5987  1.8578 -0.1172
 5875TIP3   OH217630   0.714   0.752   0.884  0.6343  0.3856  0.2170
 5875TIP3    H117631   0.753   0.797   0.809  0.1353  1.8477  0.7974
 5875TIP3    H217632   0.697   0.664   0.853  0.1801  1.0334 -1.4797
 5876TIP3   OH217633   1.573   2.944   1.884 -0.9276 -0.3161  0.0266
 5876TIP3    H117634   1.583   2.917   1.793  2.8903  1.5240 -0.3078
 5876TIP3    H217635   1.609   2.871   1.935 -1.0629 -0.4558 -0.0766
 5877TIP3   OH217636   4.937   4.440   0.576  0.6393  0.1970 -0.1988
 5877TIP3    H117637   4.972   4.485   0.653 -0.4450 -2.1667  1.7962
 5877TIP3    H217638   5.011   4.391   0.540  0.3279 -2.1086  2.0130
 5878TIP3   OH217639   6.013   4.081   3.917  0.2663  0.0738  0.2405
 5878TIP3    H117640   5.932   4.098   3.964 -0.3574 -0.7476 -0.5079
 5878TIP3    H217641   6.081   4.124   3.970 -0.5333  0.0271  1.3324
 5879TIP3   OH217642   2.781   1.168   5.069 -0.4679  0.4406 -0.0331
 5879TIP3    H117643   2.816   1.253   5.093 -0.5454 -0.4210  3.6022
 5879TIP3    H217644   2.686   1.177   5.079 -0.4455 -0.1613  0.7868
 5880TIP3   OH217645   4.214   1.962   0.105 -0.6035 -0.3615 -0.2830
 5880TIP3    H117646   4.157   1.887   0.087 -0.9941 -0.0594 -0.3244
 5880TIP3    H217647   4.270   1.933   0.177  0.2291 -1.1964 -1.2416
 5881TIP3   OH217648   3.735   1.438   0.509 -0.1455 -0.4138  0.0141
 5881TIP3    H117649   3.734   1.408   0.418  1.2665 -2.1988  0.5320
 5881TIP3    H217650   3.817   1.488   0.516 -0.8621  0.7938  0.0134
 5882TIP3   OH217651   5.239   5.076   1.672  0.0460 -0.0713 -0.3716
 5882TIP3    H117652   5.322   5.049   1.712 -0.1508 -0.3176 -0.1243
 5882TIP3    H217653   5.258   5.161   1.631  0.5373 -0.3379 -0.7092
 5883TIP3   OH217654   2.072   0.137   2.575  0.3027  0.1217  0.4399
 5883TIP3    H117655   2.150   0.150   2.630  0.9831  1.9953 -0.8801
 5883TIP3    H217656   2.063   0.218   2.525 -1.3517 -0.8127 -0.9056
 5884TIP3   OH217657   2.321   0.499   4.324  0.4277 -0.8654 -0.1855
 5884TIP3    H117658   2.373   0.571   4.290  1.7299 -0.4089  2.4775
 5884TIP3    H217659   2.253   0.541   4.377 -0.1586 -1.5641 -0.3666
 5885TIP3   OH217660   1.394   5.535   1.224  0.4064 -0.0780  0.0309
 5885TIP3    H117661   1.343   5.456   1.244  1.3551 -0.6413  0.2760
 5885TIP3    H217662   1.485   5.507   1.231  0.9149 -0.1814 -4.2563
 5886TIP3   OH217663   5.254   3.679   0.191 -0.4785 -0.1655  0.0950
 5886TIP3    H117664   5.176   3.683   0.136  0.2313 -0.4181 -0.9576
 5886TIP3    H217665   5.326   3.661   0.130  0.7311  2.0546  0.7401
 5887TIP3   OH217666   4.363   4.745   3.670 -0.5259  0.1280 -0.0059
 5887TIP3    H117667   4.382   4.775   3.582  0.9915  2.3342  1.0066
 5887TIP3    H217668   4.304   4.811   3.706 -1.9655 -1.2738  0.3661
 5888TIP3   OH217669   5.144   0.143   4.459  0.1066 -0.0764 -0.0089
 5888TIP3    H117670   5.050   0.162   4.467 -0.3127 -2.2533  0.9651
 5888TIP3    H217671   5.157   0.127   4.365 -0.0038  2.2809 -0.4814
 5889TIP3   OH217672   2.798   0.091   0.833  0.3433  0.1429  0.4116
 5889TIP3    H117673   2.737   0.040   0.886  0.2682 -1.3188 -1.0133
 5889TIP3    H217674   2.754   0.176   0.822 -1.4237 -0.8261 -0.4622
 5890TIP3   OH217675   2.795   1.147   1.294  0.4841 -0.2206  0.1490
 5890TIP3    H117676   2.825   1.228   1.252 -1.1146 -1.2673 -3.3584
 5890TIP3    H217677   2.735   1.177   1.362  0.9327  1.5567 -0.1687
 5891TIP3   OH217678   2.362   4.569   4.110 -0.1401 -0.1324 -0.3426
 5891TIP3    H117679   2.451   4.601   4.123 -0.6049  1.0413  0.0448
 5891TIP3    H217680   2.340   4.593   4.020 -1.0619  2.1957  0.4254
 5892TIP3   OH217681   1.976   0.710   0.916 -0.9496  0.2191 -0.4283
 5892TIP3    H117682   1.978   0.727   1.010  0.2537  0.3196 -0.4580
 5892TIP3    H217683   1.962   0.616   0.908  0.5646 -0.0509 -0.1067
 5893TIP3   OH217684   0.312   0.065   1.190  0.1420 -0.3663 -0.6702
 5893TIP3    H117685   0.376   0.089   1.123  0.9008  0.8378  0.4461
 5893TIP3    H217686   0.338   0.114   1.267 -2.2780  0.3993 -0.2415
 5894TIP3   OH217687   5.747   0.656   0.505  0.1943 -0.1303  0.5271
 5894TIP3    H117688   5.817   0.593   0.518  0.1120 -0.4429 -0.4731
 5894TIP3    H217689   5.747   0.709   0.584  1.6387 -0.0392  0.4764
 5895TIP3   OH217690   4.543   5.347   2.578 -0.1181  0.8678 -0.2868
 5895TIP3    H117691   4.544   5.257   2.545 -1.4028  0.1667  1.4153
 5895TIP3    H217692   4.628   5.358   2.621 -0.5633 -0.1313  0.8998
 5896TIP3   OH217693   4.882   0.150   4.709 -0.2966  0.3233 -0.1523
 5896TIP3    H117694   4.868   0.221   4.647  0.9599 -0.3688 -1.2808
 5896TIP3    H217695   4.946   0.184   4.771 -0.0435  0.3395 -0.4203
 5897TIP3   OH217696   5.065   4.490   0.800  0.0272 -0.1427 -0.5771
 5897TIP3    H117697   5.145   4.443   0.827 -0.3879 -0.7223 -0.3209
 5897TIP3    H217698   5.025   4.517   0.883 -0.0299  0.1693 -0.7071
 5898TIP3   OH217699   2.351   0.776   4.230  0.7267 -0.1943  0.5924
 5898TIP3    H117700   2.333   0.726   4.150  3.0014  0.5750 -0.5017
 5898TIP3    H217701   2.289   0.848   4.229  1.1616  0.1799 -0.8551
 5899TIP3   OH217702   3.948   4.140   3.426 -0.0827  0.6566 -0.3415
 5899TIP3    H117703   3.902   4.067   3.466  0.0458  0.6678 -0.1715
 5899TIP3    H217704   4.033   4.104   3.399  0.1487  0.8405  0.1218
 5900TIP3   OH217705   2.810   4.289   1.910 -0.2991  0.0741  0.1087
 5900TIP3    H117706   2.779   4.363   1.962 -0.6421 -1.3524  2.0780
 5900TIP3    H217707   2.741   4.274   1.845 -0.8995  0.6117  0.6119
 5901TIP3   OH217708   3.514   2.889   4.587  0.0816  0.1014 -0.3104
 5901TIP3    H117709   3.544   2.811   4.634  1.4274 -0.5437 -2.1228
 5901TIP3    H217710   3.420   2.894   4.606  0.4412 -0.4502  1.8924
 5902TIP3   OH217711   3.443   0.545   4.598  0.4055  0.0337 -0.1029
 5902TIP3    H117712   3.377   0.580   4.539 -1.2481 -0.5432  1.3093
 5902TIP3    H217713   3.477   0.621   4.644  1.5111  0.4548 -1.5317
 5903TIP3   OH217714   4.257   3.030   0.445 -0.4509 -0.1745  0.3026
 5903TIP3    H117715   4.328   3.057   0.387 -0.8515  0.1045 -0.0576
 5903TIP3    H217716   4.185   3.008   0.386 -0.2703 -1.6824  0.5844
 5904TIP3   OH217717   0.371   4.991   4.098  0.3528  0.2314 -0.2013
 5904TIP3    H117718   0.328   5.066   4.056  0.1911 -0.2487 -0.9181
 5904TIP3    H217719   0.299   4.939   4.134  0.3545 -0.2456 -0.8522
 5905TIP3   OH217720   1.286   2.207   0.422  0.1684 -0.2234 -0.0419
 5905TIP3    H117721   1.255   2.194   0.512  1.0014 -0.2956  0.2435
 5905TIP3    H217722   1.262   2.127   0.376 -1.9214  0.5323 -0.3875
 5906TIP3   OH217723   0.616   1.482   3.542 -0.2029  0.0956  0.2137
 5906TIP3    H117724   0.555   1.409   3.533 -0.2240 -0.0219  1.2120
 5906TIP3    H217725   0.570   1.544   3.599 -0.4266  1.1637 -1.0851
 5907TIP3   OH217726   3.272   2.774   4.968  0.1280 -0.3037  0.2916
 5907TIP3    H117727   3.312   2.690   4.992 -0.3122 -0.6589 -0.1793
 5907TIP3    H217728   3.189   2.749   4.926 -0.2058  0.3870  0.5419
 5908TIP3   OH217729   2.277   5.734   2.215 -0.0424 -0.8247 -0.1221
 5908TIP3    H117730   2.241   5.683   2.143  1.8426 -2.3413 -0.0729
 5908TIP3    H217731   2.324   5.806   2.172 -0.9275 -0.3290 -0.2809
 5909TIP3   OH217732   3.406   0.111   1.521  0.0442 -0.1021 -0.7210
 5909TIP3    H117733   3.322   0.142   1.556  0.0248  1.0747 -1.7929
 5909TIP3    H217734   3.439   0.053   1.590 -1.5325 -0.4130 -0.1759
 5910TIP3   OH217735   1.892   4.785   4.223  0.0775  0.0330  0.5032
 5910TIP3    H117736   1.840   4.752   4.150  1.2081  0.1139 -0.3620
 5910TIP3    H217737   1.856   4.740   4.300  0.2666 -1.7323 -0.3742
 5911TIP3   OH217738   3.211   2.715   0.604  0.3973 -0.2987  0.4563
 5911TIP3    H117739   3.190   2.657   0.677 -0.8166 -1.0807 -0.4743
 5911TIP3    H217740   3.277   2.667   0.553 -1.3618 -1.4096 -0.8872
 5912TIP3   OH217741   2.908   2.600   5.180 -0.1599 -0.1827 -0.0387
 5912TIP3    H117742   2.903   2.549   5.261 -1.0692  1.9027  1.3108
 5912TIP3    H217743   2.945   2.540   5.116 -0.8291 -2.3916  1.5271
 5913TIP3   OH217744   1.595   3.282   3.478  0.1131 -0.4923  0.2901
 5913TIP3    H117745   1.580   3.368   3.438 -0.5669  0.0905  1.7599
 5913TIP3    H217746   1.672   3.295   3.534  1.5015 -1.4896 -1.2845
 5914TIP3   OH217747   0.797   1.156   0.297 -0.1286 -0.4327 -0.5246
 5914TIP3    H117748   0.737   1.126   0.365  0.7767 -0.8468  0.1148
 5914TIP3    H217749   0.794   1.087   0.231 -1.4551  0.2455 -1.2216
 5915TIP3   OH217750   3.860   1.746   1.125  0.0541  0.5996  0.0814
 5915TIP3    H117751   3.795   1.682   1.095  0.0043  0.5061  0.3821
 5915TIP3    H217752   3.871   1.726   1.218 -0.5886  1.5771  0.3803
 5916TIP3   OH217753   4.236   5.761   0.079 -0.7843  0.1111  0.2554
 5916TIP3    H117754   4.277   5.769   0.165 -1.0000 -0.3572  0.4018
 5916TIP3    H217755   4.158   5.818   0.085 -0.5423  0.4517  0.2081
 5917TIP3   OH217756   2.776   0.456   2.665  0.6276 -0.0557  0.1944
 5917TIP3    H117757   2.795   0.532   2.721 -2.2783  1.4465 -0.6430
 5917TIP3    H217758   2.736   0.393   2.724 -0.8808  0.8426  0.1765
 5918TIP3   OH217759   0.155   4.770   2.393 -1.2132  0.0501 -0.0273
 5918TIP3    H117760   0.236   4.819   2.409 -0.5832 -0.7449 -0.6821
 5918TIP3    H217761   0.117   4.757   2.480 -0.0228 -0.5878  0.4157
 5919TIP3   OH217762   0.025   2.216   3.417 -0.2906  0.0117 -0.0748
 5919TIP3    H117763  -0.050   2.275   3.404 -0.9390 -0.6740  0.4839
 5919TIP3    H217764   0.060   2.240   3.502 -0.6089 -0.4638  0.1922
 5920TIP3   OH217765   3.328   0.716   2.153 -0.0506 -0.4268 -0.2401
 5920TIP3    H117766   3.414   0.737   2.119 -0.4939  0.3285 -0.9156
 5920TIP3    H217767   3.336   0.728   2.248  0.6827 -0.7297 -0.2622
 5921TIP3   OH217768   4.004   3.656   4.898  0.8302 -0.2583 -0.0694
 5921TIP3    H117769   4.042   3.663   4.811  2.2582  0.2688  0.5569
 5921TIP3    H217770   3.990   3.747   4.926 -1.0436 -0.4413 -0.3197
 5922TIP3   OH217771   5.810   3.753   0.651 -0.0233  0.1617  0.3620
 5922TIP3    H117772   5.741   3.739   0.716 -0.5818  0.1969 -0.2144
 5922TIP3    H217773   5.868   3.678   0.662  0.5768  0.7949  1.7423
 5923TIP3   OH217774   5.617   1.662   4.103 -0.4295  0.0605 -0.2045
 5923TIP3    H117775   5.554   1.729   4.130 -0.0303 -0.3357  1.8490
 5923TIP3    H217776   5.689   1.670   4.166 -0.3005 -2.1941  0.0079
 5924TIP3   OH217777   4.182   1.846   2.794  0.1222  0.1431  0.2203
 5924TIP3    H117778   4.235   1.860   2.716 -0.1004  1.2936  0.2626
 5924TIP3    H217779   4.128   1.769   2.773  0.9757 -0.3348 -0.2531
 5925TIP3   OH217780   2.632   1.803   2.910  0.3353 -0.3511  0.0298
 5925TIP3    H117781   2.589   1.832   2.830  1.1073 -0.6586 -0.5015
 5925TIP3    H217782   2.666   1.883   2.949 -0.3316 -0.1599  0.2299
 5926TIP3   OH217783   2.581   3.776   2.636  0.2151  0.3045 -0.4630
 5926TIP3    H117784   2.598   3.712   2.567  1.9704 -0.4878  0.6514
 5926TIP3    H217785   2.620   3.857   2.603  0.2436  0.1647 -0.7785
 5927TIP3   OH217786   4.167   5.050   3.250  0.2827  0.7313 -0.0539
 5927TIP3    H117787   4.120   5.048   3.167  1.0095  2.5347 -0.5626
 5927TIP3    H217788   4.257   5.026   3.228  0.8752  2.8095 -0.1615
 5928TIP3   OH217789   2.825   1.284   3.117 -0.2258 -0.5884 -0.2417
 5928TIP3    H117790   2.800   1.373   3.091 -2.2627 -0.7658  0.9621
 5928TIP3    H217791   2.783   1.227   3.053  0.2746 -0.7351 -0.4427
 5929TIP3   OH217792   0.381   1.429   0.194  0.5039  0.7077 -0.0229
 5929TIP3    H117793   0.477   1.427   0.197  0.4815  0.0751  1.2889
 5929TIP3    H217794   0.356   1.337   0.184  0.0351  0.8388 -0.0794
 5930TIP3   OH217795   4.141   1.371   0.783 -0.3080  0.1624 -0.0906
 5930TIP3    H117796   4.106   1.294   0.827  0.5776 -0.5011 -0.5097
 5930TIP3    H217797   4.225   1.387   0.827 -0.3473  0.7148 -0.2077
 5931TIP3   OH217798   5.979   4.676   0.056 -0.4548 -0.2700  0.0547
 5931TIP3    H117799   5.917   4.612   0.090  1.0366 -0.8098  1.9307
 5931TIP3    H217800   5.943   4.761   0.082 -1.2809 -0.4530 -0.4523
 5932TIP3   OH217801   1.010   1.745   4.835  0.1685  0.6854 -0.1460
 5932TIP3    H117802   1.090   1.749   4.782  0.7505  0.9327  0.7207
 5932TIP3    H217803   0.939   1.754   4.772  0.8721  2.7130 -0.7201
 5933TIP3   OH217804   2.097   2.195   2.379 -0.4763 -0.3127 -0.0277
 5933TIP3    H117805   2.151   2.120   2.401  0.7461  0.8237  1.0610
 5933TIP3    H217806   2.053   2.171   2.297  0.6440 -1.8065 -0.2190
 5934TIP3   OH217807   6.309   2.355   0.108  0.5571 -0.1140  0.0112
 5934TIP3    H117808   6.389   2.311   0.077 -0.8183 -2.7427 -0.0560
 5934TIP3    H217809   6.291   2.421   0.041  2.3770  0.2036 -0.2227
 5935TIP3   OH217810   5.158   3.388   5.061 -0.2481 -0.2635  0.3803
 5935TIP3    H117811   5.233   3.352   5.013  1.1743  2.9774 -0.1532
 5935TIP3    H217812   5.089   3.323   5.051  2.4516 -3.4595  0.9157
 5936TIP3   OH217813   0.684   2.619   0.410 -0.4660 -0.4838  0.0299
 5936TIP3    H117814   0.768   2.650   0.377  0.0551 -0.5807  1.2366
 5936TIP3    H217815   0.622   2.637   0.339  0.5254 -0.2120 -0.7805
 5937TIP3   OH217816   2.149   1.595   0.292  0.4341  0.1366  0.2496
 5937TIP3    H117817   2.126   1.625   0.204  1.7245  0.0268 -0.1380
 5937TIP3    H217818   2.189   1.670   0.334 -1.1120  0.5151  1.1462
 5938TIP3   OH217819   0.526   5.811   3.107  0.1784 -0.5650  0.7335
 5938TIP3    H117820   0.576   5.730   3.109  0.9764 -0.0749  1.3458
 5938TIP3    H217821   0.529   5.843   3.198  0.4761  0.4881  0.3670
 5939TIP3   OH217822   2.740   4.598   4.870  0.0720  0.2982  0.1448
 5939TIP3    H117823   2.835   4.590   4.870  0.2902  2.1324 -1.1280
 5939TIP3    H217824   2.710   4.536   4.936  2.2362  0.7250  1.6162
 5940TIP3   OH217825   4.162   3.976   4.119 -0.1269 -0.4370  0.1683
 5940TIP3    H117826   4.092   3.913   4.099 -1.3750  1.2319 -1.0553
 5940TIP3    H217827   4.198   3.998   4.033 -0.4746  1.2960  0.4242
 5941TIP3   OH217828   2.840   1.826   1.007 -1.2365 -0.3887 -0.8728
 5941TIP3    H117829   2.818   1.905   0.959 -1.7366 -0.5770 -0.9525
 5941TIP3    H217830   2.913   1.852   1.064 -1.1735  0.0358 -1.1503
 5942TIP3   OH217831   4.886   5.627   4.277 -0.1037  0.0566 -0.0466
 5942TIP3    H117832   4.960   5.567   4.292 -1.8952 -1.9036  1.5676
 5942TIP3    H217833   4.864   5.614   4.185 -1.0054 -2.6009  0.4473
 5943TIP3   OH217834   1.468   1.672   0.261 -0.3716 -0.4959  0.3551
 5943TIP3    H117835   1.526   1.598   0.280 -1.8614 -1.9269 -0.4749
 5943TIP3    H217836   1.527   1.747   0.252  1.3326 -1.8636 -0.2978
 5944TIP3   OH217837   0.793   2.934   1.143 -0.4276  0.0900 -0.2114
 5944TIP3    H117838   0.732   2.862   1.161  0.3476 -0.4944  0.1465
 5944TIP3    H217839   0.794   2.941   1.047  0.1480 -0.9801 -0.3024
 5945TIP3   OH217840   5.886   4.954   3.733 -0.0770 -0.1002  0.1981
 5945TIP3    H117841   5.896   4.966   3.827  3.0135  1.4389 -0.2024
 5945TIP3    H217842   5.953   4.890   3.709 -1.4081 -1.1533 -0.8870
 5946TIP3   OH217843   5.720   1.077   3.013  0.8278 -0.3940 -1.0030
 5946TIP3    H117844   5.636   1.072   2.968  0.0732 -2.8118  0.4707
 5946TIP3    H217845   5.772   1.006   2.975  0.9637 -1.0443  0.3322
 5947TIP3   OH217846   1.216   4.591   3.018 -0.3587  0.1042 -0.0756
 5947TIP3    H117847   1.296   4.600   2.966  0.0123 -0.9375  0.3034
 5947TIP3    H217848   1.167   4.671   3.000  1.4799  1.5429  0.9023
 5948TIP3   OH217849   2.540   0.395   1.065  0.2906  0.5945  0.6386
 5948TIP3    H117850   2.480   0.344   1.119 -1.0114  0.6515 -0.6918
 5948TIP3    H217851   2.501   0.482   1.062 -0.2338  0.3361 -1.1994
 5949TIP3   OH217852   2.523   2.109   3.571 -0.0253  0.5138  0.5689
 5949TIP3    H117853   2.589   2.094   3.503 -1.7344 -0.8077 -0.9006
 5949TIP3    H217854   2.529   2.031   3.627 -0.6711  0.1324  0.1182
 5950TIP3   OH217855   3.993   2.599   3.116  0.2592  0.1009  0.0190
 5950TIP3    H117856   3.982   2.508   3.089 -2.7464  0.5996 -0.8630
 5950TIP3    H217857   3.941   2.607   3.196  1.9631  0.6862  1.1245
 5951TIP3   OH217858   2.316   0.716   1.810 -0.7199  0.2458  0.2206
 5951TIP3    H117859   2.221   0.727   1.807 -0.8742 -0.9170  0.2924
 5951TIP3    H217860   2.331   0.628   1.774  0.5071  1.2074 -1.7908
 5952TIP3   OH217861   3.087   3.515   2.804  0.3512  0.0461  0.0539
 5952TIP3    H117862   3.006   3.508   2.854  0.0453  0.1478 -0.4159
 5952TIP3    H217863   3.068   3.471   2.721  0.9613 -0.4186  0.1518
 5953TIP3   OH217864   0.639   4.857   4.090 -0.0397  0.2711 -0.0423
 5953TIP3    H117865   0.708   4.916   4.060 -0.0414  0.5651  0.5290
 5953TIP3    H217866   0.558   4.893   4.053  0.1400 -0.2527 -0.9770
 5954TIP3   OH217867   2.832   1.025   2.973  0.1883  0.0141 -0.5831
 5954TIP3    H117868   2.741   1.018   3.002  0.2965 -0.9914 -0.4676
 5954TIP3    H217869   2.825   1.045   2.879 -0.1448  1.6689 -0.2480
 5955TIP3   OH217870   3.190   0.936   3.789  0.8052  0.7578  0.6084
 5955TIP3    H117871   3.136   0.991   3.732  0.8458  2.0231  1.7188
 5955TIP3    H217872   3.142   0.854   3.796  0.8474  0.5200 -1.2886
 5956TIP3   OH217873   6.170   3.429   1.149  0.0729 -0.1768  0.5201
 5956TIP3    H117874   6.187   3.523   1.152 -0.5982 -0.0309 -0.0551
 5956TIP3    H217875   6.111   3.413   1.223 -0.1929 -0.0635  0.3326
 5957TIP3   OH217876   4.340   5.616   2.331  0.0625  0.4232 -1.1423
 5957TIP3    H117877   4.370   5.673   2.401  0.8205 -1.0719 -0.2124
 5957TIP3    H217878   4.369   5.659   2.251  1.8527  0.6654 -0.4103
 5958TIP3   OH217879   1.855   5.093   4.270 -0.0709 -0.5085 -0.1183
 5958TIP3    H117880   1.884   5.002   4.260  0.2944 -0.3651 -0.4220
 5958TIP3    H217881   1.847   5.105   4.364  1.1289 -0.4811  0.0018
 5959TIP3   OH217882   0.046   0.118   1.239  0.3758 -0.6220 -0.3006
 5959TIP3    H117883   0.132   0.110   1.197  0.0690 -0.2239 -1.0239
 5959TIP3    H217884   0.063   0.166   1.319  0.8372 -0.5830 -0.4190
 5960TIP3   OH217885   3.592   5.537   0.113 -0.0810 -0.0276 -0.1316
 5960TIP3    H117886   3.588   5.462   0.172 -0.9605 -0.5088 -0.7683
 5960TIP3    H217887   3.665   5.517   0.054 -1.0652 -1.0139 -1.0763
 5961TIP3   OH217888   5.804   1.844   1.296  0.2241 -0.3327  0.2282
 5961TIP3    H117889   5.775   1.929   1.263 -0.8700 -0.3775  1.0236
 5961TIP3    H217890   5.723   1.798   1.317  0.7753 -1.7949 -0.6965
 5962TIP3   OH217891   5.184   1.935   4.279  0.2872  0.7069  0.4887
 5962TIP3    H117892   5.140   1.877   4.341  1.2855 -0.1196  0.4445
 5962TIP3    H217893   5.187   2.020   4.324 -0.7735  0.6283  0.7397
 5963TIP3   OH217894   0.944   5.606   0.690 -0.1370  0.1084 -0.1067
 5963TIP3    H117895   1.025   5.601   0.742  0.5413 -0.9053 -1.2150
 5963TIP3    H217896   0.912   5.695   0.706  0.8669  0.3345  0.8307
 5964TIP3   OH217897   5.669   1.359   0.210  0.3803  0.3877  0.1967
 5964TIP3    H117898   5.607   1.424   0.177 -1.1967 -1.0315  0.2467
 5964TIP3    H217899   5.739   1.358   0.145 -1.5521 -0.7253 -2.0086
 5965TIP3   OH217900   4.355   2.830   2.694 -0.2307 -1.2376  0.2175
 5965TIP3    H117901   4.450   2.836   2.698 -0.2521 -0.6237 -0.0462
 5965TIP3    H217902   4.327   2.830   2.786 -0.1618  2.4604  0.4054
 5966TIP3   OH217903   4.878   0.099   0.592  0.1400  0.0762  0.3852
 5966TIP3    H117904   4.827   0.076   0.514 -0.1568  1.6552  0.0686
 5966TIP3    H217905   4.921   0.181   0.568  1.8511 -0.5665  1.1021
 5967TIP3   OH217906   0.650   3.503   4.732  0.3441  0.0495  0.1595
 5967TIP3    H117907   0.585   3.434   4.717 -0.4129  0.4718  1.3982
 5967TIP3    H217908   0.733   3.463   4.704 -0.3505 -0.6746 -0.9626
 5968TIP3   OH217909   2.520   0.728   3.196 -0.3812 -0.2877  0.1830
 5968TIP3    H117910   2.445   0.779   3.227 -1.1831 -1.0117 -0.5199
 5968TIP3    H217911   2.596   0.773   3.234 -1.0389  1.4751 -0.4712
 5969TIP3   OH217912   5.400   5.344   4.042  0.0985 -0.1871 -0.6622
 5969TIP3    H117913   5.339   5.342   3.968 -2.1393  1.8180  0.9599
 5969TIP3    H217914   5.384   5.428   4.084  0.2563 -1.7230  2.8550
 5970TIP3   OH217915   5.626   2.881   3.933  0.3611  0.4574  0.2677
 5970TIP3    H117916   5.568   2.958   3.931  1.1766  1.1391  1.4777
 5970TIP3    H217917   5.581   2.819   3.989  0.7080  0.9229  1.0755
 5971TIP3   OH217918   1.072   2.127   3.427 -0.2083 -0.3671 -0.1855
 5971TIP3    H117919   0.988   2.081   3.426  0.5207 -1.7385 -0.7683
 5971TIP3    H217920   1.137   2.059   3.407  0.8146  1.1242 -2.2294
 5972TIP3   OH217921   6.236   4.114   0.483 -0.0335  0.6713 -0.0670
 5972TIP3    H117922   6.237   4.191   0.539  0.1656  1.4218 -1.0762
 5972TIP3    H217923   6.246   4.040   0.543  0.5812  1.4776  0.8370
 5973TIP3   OH217924   0.164   2.319   3.616  0.3771  0.2237 -0.3958
 5973TIP3    H117925   0.120   2.264   3.679 -1.6445  1.6299 -0.4766
 5973TIP3    H217926   0.255   2.289   3.616 -0.5834 -2.9462 -0.3656
 5974TIP3   OH217927   5.071   5.514   3.081 -0.3297  0.6124 -0.0425
 5974TIP3    H117928   5.098   5.572   3.153  0.1608  1.3271 -0.7849
 5974TIP3    H217929   5.097   5.426   3.111 -1.2836  0.7242  1.1891
 5975TIP3   OH217930   3.729   0.367   1.208  0.2726  0.5151  0.6213
 5975TIP3    H117931   3.710   0.273   1.216 -0.5450  0.3465 -2.4156
 5975TIP3    H217932   3.816   0.376   1.248  0.9893 -1.8063 -0.2547
 5976TIP3   OH217933   3.524   2.041   4.584 -0.5053 -0.4220  0.3069
 5976TIP3    H117934   3.437   2.078   4.566 -0.8423 -1.7105 -0.9866
 5976TIP3    H217935   3.505   1.961   4.635  0.0408 -0.0008  1.1940
 5977TIP3   OH217936   5.856   1.980   1.970 -0.1380  1.0169  0.1254
 5977TIP3    H117937   5.894   1.969   1.883  0.2216 -0.4442  0.4390
 5977TIP3    H217938   5.765   2.004   1.954  0.3053  2.2684 -0.6359
 5978TIP3   OH217939   5.672   3.785   0.884 -0.5962  0.3382 -0.5743
 5978TIP3    H117940   5.580   3.812   0.883 -0.8352 -0.4226 -1.5325
 5978TIP3    H217941   5.703   3.807   0.971 -2.3041 -1.3845  0.5544
 5979TIP3   OH217942   0.327   1.970   3.861 -0.3797 -0.4180  0.5413
 5979TIP3    H117943   0.240   1.933   3.847  0.5111 -2.1630 -0.8697
 5979TIP3    H217944   0.323   2.009   3.948 -3.0116  0.9540 -0.0851
 5980TIP3   OH217945   2.072   1.116   0.158  0.8865  0.0137  0.1238
 5980TIP3    H117946   2.045   1.194   0.207  1.4359  0.0655  0.3614
 5980TIP3    H217947   1.996   1.058   0.162 -0.2262  1.2604 -1.6570
 5981TIP3   OH217948   2.980   2.980   4.420 -0.3301  0.0923 -0.1325
 5981TIP3    H117949   2.964   3.061   4.372  2.3145  1.0026  0.3483
 5981TIP3    H217950   2.975   2.911   4.354 -1.7964  0.6977 -0.7036
 5982TIP3   OH217951   5.278   0.095   5.086 -1.1169 -0.0480  0.4469
 5982TIP3    H117952   5.363   0.062   5.117 -0.5862  1.6940  0.9657
 5982TIP3    H217953   5.217   0.075   5.158 -0.6667  0.6528  1.0357
 5983TIP3   OH217954   1.862   1.040   4.757 -0.4471  0.0572  0.1536
 5983TIP3    H117955   1.794   1.107   4.744  0.7390  1.3910  0.5545
 5983TIP3    H217956   1.918   1.076   4.826 -1.8047 -2.9921  3.1059
 5984TIP3   OH217957   3.394   5.969   2.254 -0.0388  0.5507 -0.4581
 5984TIP3    H117958   3.331   5.897   2.255  0.0906  0.4342 -0.5924
 5984TIP3    H217959   3.402   5.995   2.346 -0.2904  0.5749 -0.4406
 5985TIP3   OH217960   1.785   5.111   3.290  0.2079 -0.2057 -0.3651
 5985TIP3    H117961   1.826   5.063   3.362  0.8921  0.3705 -0.3672
 5985TIP3    H217962   1.852   5.172   3.260 -0.9789  1.4728  0.2893
 5986TIP3   OH217963   2.091   3.447   3.143  0.4412  0.2175  0.1255
 5986TIP3    H117964   2.147   3.407   3.076 -0.4503 -0.6540 -0.1202
 5986TIP3    H217965   2.147   3.451   3.221  2.2194  3.2023 -1.1337
 5987TIP3   OH217966   4.402   0.965   0.588 -0.2170 -0.2535  0.1822
 5987TIP3    H117967   4.412   1.023   0.664  1.3693 -1.3066  0.8205
 5987TIP3    H217968   4.452   1.009   0.518  0.4766 -0.5471  0.4908
 5988TIP3   OH217969   5.314   5.900   4.326 -0.6166  0.0929  0.2421
 5988TIP3    H117970   5.219   5.889   4.336 -0.5777  0.3029  0.9172
 5988TIP3    H217971   5.334   5.858   4.242 -0.7946 -3.1301  1.6432
 5989TIP3   OH217972   2.100   1.738   2.535  0.0342 -0.0152 -0.0626
 5989TIP3    H117973   2.005   1.744   2.522 -0.0107 -1.2846 -0.3604
 5989TIP3    H217974   2.134   1.816   2.491 -0.9003  0.7500  0.5133
 5990TIP3   OH217975   3.852   2.886   0.077 -0.4251  0.2062  0.0397
 5990TIP3    H117976   3.827   2.899  -0.015  0.5214 -0.6461 -0.3596
 5990TIP3    H217977   3.809   2.804   0.101 -0.1394  0.0879  0.1498
 5991TIP3   OH217978   6.009   2.934   0.772  0.6996 -0.8750  0.0596
 5991TIP3    H117979   6.055   2.901   0.694  1.7964  0.0641  0.2696
 5991TIP3    H217980   5.957   3.008   0.739 -1.4146 -2.4385 -0.3339
 5992TIP3   OH217981   0.593   2.076   4.025 -0.6022  0.2115  0.3294
 5992TIP3    H117982   0.631   2.101   4.110  0.4266 -0.4531  0.0884
 5992TIP3    H217983   0.536   2.002   4.045  0.2676 -0.4774  0.3584
 5993TIP3   OH217984   1.087   2.521   3.123 -0.5765  0.2350  0.0859
 5993TIP3    H117985   1.082   2.551   3.032  0.7979  0.0654 -0.0705
 5993TIP3    H217986   1.077   2.426   3.118  0.1785  0.1458  0.0098
 5994TIP3   OH217987   1.780   3.121   3.817 -0.2835 -0.6058  0.1615
 5994TIP3    H117988   1.854   3.076   3.858 -1.1848 -0.4924  2.0104
 5994TIP3    H217989   1.704   3.067   3.839 -0.9620  0.1109 -0.3624
 5995TIP3   OH217990   4.105   3.314   4.588  0.1418 -0.2119 -0.5937
 5995TIP3    H117991   4.039   3.301   4.657  0.8288  1.7237  0.5017
 5995TIP3    H217992   4.063   3.372   4.526 -0.8245 -2.6910 -2.4268
 5996TIP3   OH217993   4.024   3.111   3.744 -0.0136 -0.1919  0.1778
 5996TIP3    H117994   4.057   3.058   3.672 -0.2650  0.2985 -0.2990
 5996TIP3    H217995   3.930   3.120   3.727  0.2764  1.7836 -0.6562
 5997TIP3   OH217996   1.753   2.127   2.576 -0.1151  0.0242 -0.3639
 5997TIP3    H117997   1.846   2.106   2.566 -0.0128 -0.1716  0.8034
 5997TIP3    H217998   1.737   2.118   2.670 -1.1513  0.7469 -0.4560
 5998TIP3   OH217999   1.398   2.343   2.628 -0.0047 -0.1733 -0.3143
 5998TIP3    H118000   1.421   2.324   2.718  1.4548 -2.1038 -1.0394
 5998TIP3    H218001   1.350   2.266   2.599  0.3875 -0.0029 -1.4659
 5999TIP3   OH218002   5.972   1.152   3.967  0.5778 -0.3782  0.3622
 5999TIP3    H118003   6.002   1.206   4.040 -0.2007  1.0891 -0.3752
 5999TIP3    H218004   5.880   1.176   3.956  0.3199 -1.5640 -0.2582
 6000TIP3   OH218005   4.553   5.920   3.241 -0.4370  0.2122  0.0304
 6000TIP3    H118006   4.599   6.001   3.222 -1.1146  0.2056 -1.8219
 6000TIP3    H218007   4.622   5.856   3.260  0.0885  1.2721  1.8668
 6001TIP3   OH218008   1.038   3.005   4.925 -0.7140 -0.3592  0.0669
 6001TIP3    H118009   0.955   2.971   4.957 -0.4673 -0.6103  0.4481
 6001TIP3    H218010   1.097   2.930   4.928 -0.5666 -0.2769 -0.5524
 6002TIP3   OH218011   3.413   0.713   3.005  0.3543 -0.2616 -0.1714
 6002TIP3    H118012   3.443   0.753   3.086  1.2388 -0.0962 -0.5688
 6002TIP3    H218013   3.493   0.696   2.955 -0.1343 -0.8720 -0.7765
 6003TIP3   OH218014   1.894   2.149   0.667  0.2227 -0.3167 -0.0907
 6003TIP3    H118015   1.837   2.201   0.723 -0.3959 -0.0871 -0.9267
 6003TIP3    H218016   1.841   2.074   0.641  0.8904 -1.0467  0.5657
 6004TIP3   OH218017   2.619   4.630   4.115  0.0330  0.1393 -0.1149
 6004TIP3    H118018   2.648   4.718   4.141 -0.2931  0.9624 -2.3020
 6004TIP3    H218019   2.630   4.628   4.020 -2.8676 -1.0480 -0.5375
 6005TIP3   OH218020   4.139   1.348   3.144  0.0820 -0.2797 -0.3164
 6005TIP3    H118021   4.227   1.311   3.144 -0.0983 -0.7280 -0.8785
 6005TIP3    H218022   4.150   1.436   3.109  0.4623  0.0890  0.6936
 6006TIP3   OH218023   3.202   0.760   2.598  0.4043 -0.1842  0.0132
 6006TIP3    H118024   3.111   0.759   2.565  1.2352 -0.2728 -2.5133
 6006TIP3    H218025   3.253   0.722   2.527  2.4216 -0.3823  1.4995
 6007TIP3   OH218026   5.725   1.952   4.302  0.0726 -0.1214  0.1847
 6007TIP3    H118027   5.640   1.937   4.344 -0.0156  0.5953  0.2630
 6007TIP3    H218028   5.788   1.945   4.374 -0.1306  1.7355  0.5890
 6008TIP3   OH218029   3.709   0.059   2.695 -0.0823  0.2916  0.7405
 6008TIP3    H118030   3.615   0.063   2.682 -0.0477 -0.9624  0.0082
 6008TIP3    H218031   3.728   0.132   2.755 -1.3609  1.1624  0.1254
 6009TIP3   OH218032   2.494   0.986   0.733 -0.0042  0.1571 -0.1662
 6009TIP3    H118033   2.529   1.050   0.671  0.5498 -0.5728 -0.6239
 6009TIP3    H218034   2.506   1.027   0.818  1.1639  0.3004 -0.3821
 6010TIP3   OH218035   4.436   1.679   3.496 -0.5207  0.0442 -0.2701
 6010TIP3    H118036   4.428   1.585   3.480  1.3816  0.1120 -2.0648
 6010TIP3    H218037   4.351   1.715   3.471 -0.0431 -0.8059 -3.5790
 6011TIP3   OH218038   3.834   0.350   0.159  0.3299 -0.0770 -0.4737
 6011TIP3    H118039   3.785   0.269   0.175  1.0398 -0.3077  0.6884
 6011TIP3    H218040   3.839   0.392   0.245  2.6930 -0.4029 -0.3749
 6012TIP3   OH218041   1.049   0.721   0.805 -0.0363  0.6097 -0.5890
 6012TIP3    H118042   0.981   0.783   0.833  0.2285  0.5724  0.1510
 6012TIP3    H218043   1.123   0.777   0.781  0.6994  0.5711  1.3928
 6013TIP3   OH218044   2.228   2.610   2.262 -0.5201 -0.3120 -0.1631
 6013TIP3    H118045   2.138   2.614   2.295 -0.3807 -0.9078  0.3211
 6013TIP3    H218046   2.282   2.599   2.340  0.0052  0.3032 -0.4267
 6014TIP3   OH218047   1.179   2.749   4.200  0.1868  0.3302 -0.1911
 6014TIP3    H118048   1.088   2.761   4.171  0.8935  0.9029 -2.2833
 6014TIP3    H218049   1.182   2.657   4.229 -0.9017  0.1255 -0.6761
 6015TIP3   OH218050   4.824   5.819   2.385  0.0081  0.1386 -0.8716
 6015TIP3    H118051   4.786   5.820   2.297 -0.1844  1.3539 -0.7918
 6015TIP3    H218052   4.862   5.906   2.397 -0.6577  0.2793  0.5327
 6016TIP3   OH218053   6.131   3.948   3.174  1.0250  0.0581  0.1958
 6016TIP3    H118054   6.158   3.915   3.089 -0.5688 -1.5549  0.2615
 6016TIP3    H218055   6.108   3.870   3.225 -0.4804  1.1078  1.2263
 6017TIP3   OH218056   4.009   4.620   4.055  0.0107 -0.0800 -0.0965
 6017TIP3    H118057   3.929   4.573   4.077 -0.6575  0.3155 -1.5374
 6017TIP3    H218058   4.075   4.552   4.042 -0.1539 -0.4247  0.8024
 6018TIP3   OH218059   0.685   2.772   0.168  0.2280 -0.4196  0.4822
 6018TIP3    H118060   0.703   2.866   0.169  0.6653 -0.5077  0.9500
 6018TIP3    H218061   0.610   2.763   0.109  0.3553  0.1910  0.2213
 6019TIP3   OH218062   1.680   2.998   2.491 -0.2707 -0.2935 -0.5832
 6019TIP3    H118063   1.610   3.061   2.507  0.7347  0.7104  0.0042
 6019TIP3    H218064   1.636   2.923   2.451 -2.0412 -0.6192  1.7594
 6020TIP3   OH218065   2.462   4.470   2.693 -0.0176  0.0837 -0.1503
 6020TIP3    H118066   2.400   4.492   2.623 -0.6886  0.2177  0.4622
 6020TIP3    H218067   2.548   4.476   2.652 -0.4566 -1.1709 -1.3150
 6021TIP3   OH218068   3.524   1.878   3.589 -0.3945  0.1411 -0.8109
 6021TIP3    H118069   3.547   1.884   3.496  0.2960  1.4064 -0.5824
 6021TIP3    H218070   3.608   1.888   3.635 -0.7531 -0.2737 -0.0433
 6022TIP3   OH218071   2.508   4.301   2.398 -0.0005 -0.1902  0.1106
 6022TIP3    H118072   2.448   4.368   2.367  1.4571  1.2205  0.1796
 6022TIP3    H218073   2.452   4.231   2.431 -1.5705  0.2883 -1.4258
 6023TIP3   OH218074   4.102   3.581   0.951 -0.4519 -0.5791  0.1580
 6023TIP3    H118075   4.061   3.500   0.981 -2.6026 -0.5046 -2.2866
 6023TIP3    H218076   4.161   3.553   0.881 -1.1030 -0.0612 -0.6062
 6024TIP3   OH218077   3.910   5.430   3.529 -0.2071 -0.5847 -0.1611
 6024TIP3    H118078   3.934   5.364   3.464 -1.4466 -0.1533 -1.0942
 6024TIP3    H218079   3.817   5.417   3.543 -0.2923  0.4260  0.2756
 6025TIP3   OH218080   3.365   1.223   2.545  0.2823  0.1725  0.5368
 6025TIP3    H118081   3.329   1.164   2.612 -0.4026  0.2342  0.2335
 6025TIP3    H218082   3.390   1.165   2.473  1.1647  0.0902  0.9009
 6026TIP3   OH218083   5.090   1.925   0.585  0.6272 -0.0941  0.1392
 6026TIP3    H118084   5.041   1.988   0.637  1.7553 -0.0330  1.1620
 6026TIP3    H218085   5.051   1.931   0.498 -0.2604  0.9366  0.5835
 6027TIP3   OH218086   6.205   3.343   3.333 -0.3028 -0.4585  0.5227
 6027TIP3    H118087   6.242   3.282   3.398  0.2767 -2.9603 -1.9691
 6027TIP3    H218088   6.281   3.392   3.301 -0.1003 -1.2355 -0.2233
 6028TIP3   OH218089   4.264   0.926   5.048  0.4471 -0.8501 -0.4765
 6028TIP3    H118090   4.195   0.940   5.113  1.3297 -1.9445  0.7364
 6028TIP3    H218091   4.228   0.962   4.967 -0.2810  1.4910  0.8028
 6029TIP3   OH218092   1.811   4.839   2.895  0.2243  0.1486 -0.5823
 6029TIP3    H118093   1.902   4.830   2.868 -0.1311 -0.8837 -1.5110
 6029TIP3    H218094   1.812   4.818   2.989  0.8567 -0.5175 -0.7262
 6030TIP3   OH218095   3.674   3.937   3.948  0.3968 -0.4492  0.1463
 6030TIP3    H118096   3.624   3.930   4.029  0.4794  0.6032  0.3011
 6030TIP3    H218097   3.609   3.927   3.879  0.2810 -1.0516  0.3276
 6031TIP3   OH218098   6.158   5.261   3.985  0.0534  0.3562 -0.0060
 6031TIP3    H118099   6.117   5.175   3.983  1.1967 -0.2237  0.7848
 6031TIP3    H218100   6.130   5.299   4.068  2.2183 -0.6402  1.2540
 6032TIP3   OH218101   5.575   4.433   2.360 -0.0669 -0.7978  0.2336
 6032TIP3    H118102   5.544   4.452   2.449 -2.5506 -2.1674 -0.2469
 6032TIP3    H218103   5.513   4.478   2.303  0.3803 -1.4730 -0.8162
 6033TIP3   OH218104   4.475   1.876   4.449  0.2735 -0.2952 -0.3609
 6033TIP3    H118105   4.509   1.797   4.493  0.5968  0.3776  0.6330
 6033TIP3    H218106   4.426   1.842   4.374  1.1590 -1.4092 -0.4714
 6034TIP3   OH218107   1.513   4.268   3.855  0.3014 -0.3210  0.2674
 6034TIP3    H118108   1.462   4.249   3.776  0.1598  0.2248  0.2281
 6034TIP3    H218109   1.583   4.325   3.825  0.6914 -0.7253  0.4012
 6035TIP3   OH218110   0.922   0.102   4.562  0.8809  0.6190  0.8574
 6035TIP3    H118111   0.866   0.164   4.610 -1.3418  0.7807 -1.6752
 6035TIP3    H218112   0.952   0.152   4.486 -1.5900 -1.4167 -1.6729
 6036TIP3   OH218113   1.516   2.695   2.695 -0.3930  0.2565 -0.1506
 6036TIP3    H118114   1.516   2.633   2.622  0.2590 -0.1813  0.2074
 6036TIP3    H218115   1.608   2.702   2.720 -0.5846  0.5527  0.5016
 6037TIP3   OH218116   2.984   4.881   4.768  0.3734  0.0536 -0.0197
 6037TIP3    H118117   2.934   4.954   4.802  0.5348  0.3823 -0.4697
 6037TIP3    H218118   2.941   4.859   4.685  0.2437 -0.4481  0.1795
 6038TIP3   OH218119   3.695   5.514   0.431  0.1775 -0.0716  0.1495
 6038TIP3    H118120   3.627   5.485   0.370 -0.2811 -2.1552  1.5150
 6038TIP3    H218121   3.646   5.544   0.508  0.6642 -3.4175  1.9347
 6039TIP3   OH218122   3.189   4.086   4.453  0.2374 -0.3234  0.7059
 6039TIP3    H118123   3.115   4.075   4.394 -1.7317 -0.9389  3.1348
 6039TIP3    H218124   3.212   4.179   4.447 -0.0456 -0.3313 -0.8119
 6040TIP3   OH218125   0.015   2.291   5.014 -0.2335 -0.9939 -0.1358
 6040TIP3    H118126  -0.041   2.368   5.022 -1.8098 -2.0265 -0.6084
 6040TIP3    H218127   0.070   2.309   4.937  1.8706  1.0519  1.7089
 6041TIP3   OH218128   4.604   4.600   3.056 -0.1180  0.2166 -0.6022
 6041TIP3    H118129   4.544   4.638   3.120 -0.5101 -1.4215  0.0596
 6041TIP3    H218130   4.621   4.511   3.088  1.8937  0.2873 -1.2932
 6042TIP3   OH218131   2.300   0.098   3.662  0.4550  0.0273  0.4540
 6042TIP3    H118132   2.341   0.051   3.589 -0.4348  0.8173 -0.5799
 6042TIP3    H218133   2.347   0.181   3.665  0.6812 -0.1177  0.9818
 6043TIP3   OH218134   2.201   1.703   4.843 -0.3383  0.2637 -0.0687
 6043TIP3    H118135   2.219   1.710   4.937 -0.7133  0.6582 -0.0247
 6043TIP3    H218136   2.196   1.609   4.827  1.9573  0.0779 -0.1236
 6044TIP3   OH218137   3.362   5.870   4.260  0.3398  0.4842 -0.0309
 6044TIP3    H118138   3.433   5.850   4.321  0.3695  0.6559 -0.0090
 6044TIP3    H218139   3.292   5.905   4.315  0.3322  0.5514 -0.0826
 6045TIP3   OH218140   3.013   4.256   3.801  0.2542 -0.3787  0.1080
 6045TIP3    H118141   2.943   4.281   3.741 -0.3036  1.5140  1.4317
 6045TIP3    H218142   2.968   4.236   3.883  1.2171  1.2748  1.1092
 6046TIP3   OH218143   3.292   0.459   2.093  0.8092 -0.2473 -0.4765
 6046TIP3    H118144   3.305   0.543   2.137  1.5562 -0.4876 -0.2333
 6046TIP3    H218145   3.197   0.447   2.094  0.8116 -0.4688  1.5138
 6047TIP3   OH218146   3.464   2.635   0.492 -0.9054  1.0908 -0.2914
 6047TIP3    H118147   3.492   2.694   0.562  2.0854 -0.1903 -0.2487
 6047TIP3    H218148   3.463   2.690   0.414  1.8710  1.3497 -0.2572
 6048TIP3   OH218149   4.365   5.507   4.722 -0.0769 -0.1338  0.1735
 6048TIP3    H118150   4.350   5.582   4.665 -0.6077  0.7002  1.3640
 6048TIP3    H218151   4.319   5.434   4.680 -0.3965  0.4452 -0.4859
 6049TIP3   OH218152   4.997   4.281   3.744  0.4992 -0.7317  0.0311
 6049TIP3    H118153   5.045   4.363   3.730 -0.7266  0.8591  3.8368
 6049TIP3    H218154   5.060   4.224   3.788  0.2670 -0.3550  0.8689
 6050TIP3   OH218155   3.169   3.344   1.295  0.0640 -0.4804  0.1051
 6050TIP3    H118156   3.084   3.375   1.265 -0.0499 -0.3709  0.5332
 6050TIP3    H218157   3.220   3.333   1.215  0.3812  1.6126 -0.0234
 6051TIP3   OH218158   5.545   0.946   2.856 -0.4790 -0.2261  0.2013
 6051TIP3    H118159   5.586   0.945   2.770 -1.6295 -1.1036 -0.3581
 6051TIP3    H218160   5.539   0.854   2.881 -0.6688 -0.0120  0.9768
 6052TIP3   OH218161   3.704   5.097   3.472  0.0862  0.1676 -0.7217
 6052TIP3    H118162   3.722   5.005   3.494  0.2333 -0.2152 -2.3532
 6052TIP3    H218163   3.731   5.105   3.381  1.2383  2.1573 -0.2537
 6053TIP3   OH218164   2.022   2.113   2.901 -0.1225 -0.2532 -0.1308
 6053TIP3    H118165   2.090   2.122   2.968  1.2923  0.5063 -1.5859
 6053TIP3    H218166   2.016   2.019   2.886  0.0110 -0.3843  0.5790
 6054TIP3   OH218167   4.808   4.613   2.864  0.4591 -0.1636 -0.1517
 6054TIP3    H118168   4.767   4.650   2.787 -0.3567 -1.5536 -0.4236
 6054TIP3    H218169   4.735   4.586   2.920  0.9907 -1.6109 -0.1137
 6055TIP3   OH218170   6.241   0.989   3.210 -0.5218  0.0316 -0.0508
 6055TIP3    H118171   6.203   0.972   3.296  0.4066  0.0569  0.3730
 6055TIP3    H218172   6.333   0.965   3.219 -0.2294  0.8366 -0.7928
 6056TIP3   OH218173   0.928   3.746   0.044  0.0475 -0.0877  0.3195
 6056TIP3    H118174   0.976   3.756  -0.038 -0.9858  0.4522 -0.2333
 6056TIP3    H218175   0.877   3.666   0.032 -0.1273  0.0075  0.4290
 6057TIP3   OH218176   4.616   1.086   1.343  0.2386 -0.3718  0.2015
 6057TIP3    H118177   4.638   1.097   1.250  0.5890 -0.3645  0.2841
 6057TIP3    H218178   4.563   1.006   1.346 -0.5246  0.1030 -0.1207
 6058TIP3   OH218179   0.646   2.625   3.490 -0.4083  0.9573 -0.1687
 6058TIP3    H118180   0.652   2.660   3.579  1.8119 -0.3323  0.2720
 6058TIP3    H218181   0.737   2.613   3.464 -1.0502 -0.4318 -1.9245
 6059TIP3   OH218182   2.673   1.946   4.998 -0.4101  1.0250 -0.1392
 6059TIP3    H118183   2.759   1.912   5.023 -1.1598 -0.9155 -0.0334
 6059TIP3    H218184   2.637   1.981   5.079 -1.4222 -2.1117  0.9209
 6060TIP3   OH218185   2.149   5.741   0.828  0.0212  0.6109  0.4796
 6060TIP3    H118186   2.083   5.673   0.815  0.6700 -0.1622  1.0402
 6060TIP3    H218187   2.114   5.795   0.898 -0.1511  0.3698  0.5826
 6061TIP3   OH218188   3.595   4.274   1.629  0.3504 -0.2995 -0.2156
 6061TIP3    H118189   3.591   4.325   1.710 -0.6907 -0.4184 -0.1757
 6061TIP3    H218190   3.506   4.277   1.594  0.5849 -0.9727 -0.9091
 6062TIP3   OH218191   2.035   1.094   1.714  0.6628 -0.3894 -0.2720
 6062TIP3    H118192   2.115   1.096   1.662 -0.3350  3.0522 -1.9874
 6062TIP3    H218193   2.056   1.143   1.793 -0.0217  2.0020 -1.4613
 6063TIP3   OH218194   3.145   4.632   1.346 -0.0348 -0.1185  0.3989
 6063TIP3    H118195   3.170   4.641   1.438  2.5328  0.3934 -0.2737
 6063TIP3    H218196   3.129   4.722   1.317  0.9203 -0.0850 -0.0654
 6064TIP3   OH218197   4.164   3.659   3.031 -0.5845 -0.7511 -0.6298
 6064TIP3    H118198   4.138   3.743   2.992 -2.4333 -0.3296  1.3123
 6064TIP3    H218199   4.258   3.667   3.045 -0.8418  1.3983  0.3115
 6065TIP3   OH218200   6.067   5.160   1.945  0.8005  0.3523 -0.1216
 6065TIP3    H118201   6.105   5.168   2.032  0.4554 -3.1992  0.5076
 6065TIP3    H218202   6.118   5.220   1.891  3.5041  0.0127  1.8202
 6066TIP3   OH218203   3.444   5.902   3.091 -0.2441 -0.5798  0.1338
 6066TIP3    H118204   3.351   5.887   3.076 -0.3493 -1.1456  1.2525
 6066TIP3    H218205   3.487   5.826   3.052 -0.4414 -1.5085  1.6412
 6067TIP3   OH218206   4.226   2.747   3.845 -0.3748  0.6148  0.2091
 6067TIP3    H118207   4.135   2.735   3.874 -0.0636 -0.7924  0.7161
 6067TIP3    H218208   4.245   2.667   3.796  0.8767  0.4391  0.9319
 6068TIP3   OH218209   5.492   2.099   4.549  0.1129  0.1343 -0.3492
 6068TIP3    H118210   5.451   2.019   4.515  0.1920  0.8398 -2.2454
 6068TIP3    H218211   5.552   2.068   4.617  0.8594 -1.5501 -1.6910
 6069TIP3   OH218212   0.844   0.910   0.697 -0.1436 -0.3943 -0.4846
 6069TIP3    H118213   0.934   0.907   0.663  1.3300  1.3999  2.7591
 6069TIP3    H218214   0.812   0.997   0.672 -0.8496 -0.8590 -1.2408
 6070TIP3   OH218215   3.245   2.880   4.641 -0.2014  0.2468 -0.2624
 6070TIP3    H118216   3.243   2.786   4.626 -0.7189 -0.0579  1.4389
 6070TIP3    H218217   3.153   2.905   4.653 -0.0832  0.9995 -0.8582
 6071TIP3   OH218218   0.488   3.915   5.013 -0.1864 -0.2531 -0.3451
 6071TIP3    H118219   0.556   3.917   5.080 -0.7795 -0.5336  0.2825
 6071TIP3    H218220   0.530   3.876   4.936  0.8992  1.3420 -0.6132
 6072TIP3   OH218221   5.530   0.580   1.114  0.0035  0.0576 -0.6534
 6072TIP3    H118222   5.439   0.554   1.124 -0.2651  0.7044 -1.3017
 6072TIP3    H218223   5.555   0.548   1.028  1.2954 -2.6348  0.6175
 6073TIP3   OH218224   1.790   0.767   0.728  0.0070  0.1160  0.2414
 6073TIP3    H118225   1.847   0.759   0.805  2.8709  1.4874 -1.5934
 6073TIP3    H218226   1.843   0.734   0.656 -1.8988  0.6093 -1.4549
 6074TIP3   OH218227   1.396   2.946   2.587 -0.2925  0.4682 -0.1826
 6074TIP3    H118228   1.398   2.853   2.611 -0.8432  0.3903 -0.4460
 6074TIP3    H218229   1.428   2.991   2.665 -1.2461  0.1485  0.3985
 6075TIP3   OH218230   2.815   0.739   0.509 -0.1429 -0.3000  0.2545
 6075TIP3    H118231   2.886   0.760   0.448  2.0760 -1.5462  2.2471
 6075TIP3    H218232   2.843   0.774   0.593 -1.3059 -1.8786  1.3760
 6076TIP3   OH218233   1.187   3.601   3.381  0.1226  0.3484  0.0565
 6076TIP3    H118234   1.196   3.508   3.358  2.9903  0.5244  0.1386
 6076TIP3    H218235   1.149   3.600   3.469 -0.6983 -0.6927 -0.2836
 6077TIP3   OH218236   4.393   4.987   4.493 -0.0846  0.1579 -0.5983
 6077TIP3    H118237   4.426   5.016   4.408 -0.8940 -2.0027 -1.7441
 6077TIP3    H218238   4.464   4.934   4.529 -0.0567  0.3870 -0.3176
 6078TIP3   OH218239   1.238   0.186   3.786 -0.0801 -0.1570 -0.0609
 6078TIP3    H118240   1.291   0.254   3.827  1.3555 -0.6279 -1.0161
 6078TIP3    H218241   1.276   0.176   3.698 -1.3712 -0.9742 -0.5631
 6079TIP3   OH218242   5.526   4.206   3.240  0.3512 -0.3282 -0.2794
 6079TIP3    H118243   5.594   4.172   3.299  1.0694  0.4794 -0.6246
 6079TIP3    H218244   5.458   4.239   3.299  0.2336 -1.1733  0.0706
 6080TIP3   OH218245   2.260   4.170   3.472 -0.3519  0.3913 -0.2614
 6080TIP3    H118246   2.324   4.130   3.414  0.5288  1.6489 -0.1973
 6080TIP3    H218247   2.189   4.106   3.478  1.7304 -1.9326  1.2518
 6081TIP3   OH218248   0.483   3.736   4.572 -0.2656 -0.0585 -0.4279
 6081TIP3    H118249   0.527   3.726   4.657 -1.6702 -3.0140  0.0575
 6081TIP3    H218250   0.405   3.682   4.578 -2.0497  2.0327 -2.6051
 6082TIP3   OH218251   5.398   1.719   0.541  0.1500  0.1675  0.1061
 6082TIP3    H118252   5.304   1.718   0.562  0.3533 -1.2764  1.0527
 6082TIP3    H218253   5.440   1.730   0.626  0.8639  0.3572 -0.2690
 6083TIP3   OH218254   1.083   1.879   0.179  0.3551 -0.3462  0.7694
 6083TIP3    H118255   1.005   1.825   0.198  0.4655 -0.0232  2.2633
 6083TIP3    H218256   1.085   1.885   0.083 -0.8620 -1.2311  0.6598
 6084TIP3   OH218257   5.977   4.152   4.308 -0.1927  0.4370 -0.2192
 6084TIP3    H118258   6.058   4.204   4.304 -0.1553  0.4865  0.8808
 6084TIP3    H218259   5.990   4.094   4.382 -1.5209  1.0641  0.5315
 6085TIP3   OH218260   2.105   1.109   3.525  0.9947 -0.1837 -0.0406
 6085TIP3    H118261   2.118   1.016   3.543 -2.6978 -0.6722  0.8628
 6085TIP3    H218262   2.086   1.113   3.431  1.0564 -0.3390 -0.0597
 6086TIP3   OH218263   1.744   1.711   1.205  0.0608  0.0008 -0.1735
 6086TIP3    H118264   1.791   1.717   1.288  2.3759  0.3328 -1.4369
 6086TIP3    H218265   1.784   1.637   1.160 -0.6254  0.3040 -1.3194
 6087TIP3   OH218266   0.495   1.237   3.862 -0.1586 -0.2512  0.0931
 6087TIP3    H118267   0.407   1.219   3.829 -0.3533 -0.1489  0.5507
 6087TIP3    H218268   0.486   1.235   3.957 -0.2856  2.5055  0.2362
 6088TIP3   OH218269   3.013   3.622   1.026 -0.3847  0.2412 -0.6057
 6088TIP3    H118270   2.988   3.711   1.004 -1.3552 -0.2786 -1.7455
 6088TIP3    H218271   3.091   3.606   0.973 -0.3362  0.3520 -0.5670
 6089TIP3   OH218272   1.580   6.002   3.024  0.4130 -0.3859  0.2768
 6089TIP3    H118273   1.501   6.048   2.995  1.8720  0.7989 -2.2026
 6089TIP3    H218274   1.565   5.911   2.999  0.1819  0.0056 -1.0942
 6090TIP3   OH218275   2.569   2.240   3.850  0.4510 -0.1437 -0.5163
 6090TIP3    H118276   2.540   2.188   3.775  0.1226  1.7746 -1.7963
 6090TIP3    H218277   2.507   2.312   3.854  1.2577  0.5142  0.7866
 6091TIP3   OH218278   0.123   4.237   0.170  0.3900  0.1776  0.4597
 6091TIP3    H118279   0.129   4.332   0.160  0.4807  0.1166 -0.0808
 6091TIP3    H218280   0.177   4.202   0.099  1.7958 -0.2623  1.6942
 6092TIP3   OH218281   2.067   3.501   2.717 -0.4867 -0.0777 -0.1701
 6092TIP3    H118282   2.012   3.575   2.744 -0.4964 -0.7384  1.7669
 6092TIP3    H218283   2.006   3.427   2.712  0.0346 -0.6276  1.1540
 6093TIP3   OH218284   4.023   3.904   3.709 -0.0136 -0.3274 -0.8323
 6093TIP3    H118285   3.939   3.907   3.665 -0.8639  0.5263  0.7572
 6093TIP3    H218286   4.079   3.964   3.660 -0.7250  0.0857 -1.1387
 6094TIP3   OH218287   3.840   1.734   4.545 -0.2562 -0.2791  0.0719
 6094TIP3    H118288   3.919   1.770   4.585 -0.8257  0.0931  0.8959
 6094TIP3    H218289   3.871   1.686   4.469  0.5724  1.8027 -0.9818
 6095TIP3   OH218290   4.662   5.421   4.319 -0.1560 -0.0394  0.3658
 6095TIP3    H118291   4.644   5.480   4.246  2.4494 -0.7336 -0.9610
 6095TIP3    H218292   4.655   5.333   4.281 -1.9317 -0.5746  1.7924
 6096TIP3   OH218293   5.008   3.945   4.213  0.8995 -0.0061 -0.1016
 6096TIP3    H118294   4.914   3.950   4.229  0.9237 -0.0349  0.0525
 6096TIP3    H218295   5.046   3.928   4.299  1.2286  2.1461  0.2278
 6097TIP3   OH218296   1.440   0.098   1.148 -0.4760  0.1231  0.4625
 6097TIP3    H118297   1.410   0.170   1.092 -3.2154 -0.0372  1.5337
 6097TIP3    H218298   1.399   0.020   1.109  0.8410 -0.5763  0.4479
 6098TIP3   OH218299   3.002   2.093   2.551  0.0718  0.3338  0.5805
 6098TIP3    H118300   3.075   2.030   2.552  0.0088  0.2577  0.3003
 6098TIP3    H218301   2.980   2.105   2.644 -2.8030 -3.4061  0.6268
 6099TIP3   OH218302   0.399   2.285   3.023  0.1578  0.5665  0.2001
 6099TIP3    H118303   0.384   2.190   3.025 -1.2546  0.7668  0.9525
 6099TIP3    H218304   0.335   2.320   3.085 -0.3787  2.1320 -1.1549
 6100TIP3   OH218305   4.225   2.885   0.678  0.2389  0.3078 -0.6881
 6100TIP3    H118306   4.243   2.921   0.591  0.5996 -0.6483 -1.0129
 6100TIP3    H218307   4.217   2.791   0.665 -2.0982  0.3560 -0.0842
 6101TIP3   OH218308   0.349   4.139   2.282 -0.0184 -0.5926  0.4708
 6101TIP3    H118309   0.391   4.190   2.350 -1.9458 -0.1488  1.3957
 6101TIP3    H218310   0.337   4.200   2.209  2.0483 -1.0699 -0.3404
 6102TIP3   OH218311   4.378   2.181   3.979  0.0623  0.1942  0.1854
 6102TIP3    H118312   4.439   2.232   4.033  0.0674  1.6594 -1.1046
 6102TIP3    H218313   4.291   2.212   4.005 -0.0458 -0.5661  0.7481
 6103TIP3   OH218314   4.388   0.021   4.866  0.3555  0.0858  0.0079
 6103TIP3    H118315   4.336   0.078   4.923  0.1119  0.4008 -0.5265
 6103TIP3    H218316   4.323  -0.025   4.813  0.4437 -1.9088  1.5383
 6104TIP3   OH218317   2.756   0.657   2.144 -0.5342 -0.8273 -0.8719
 6104TIP3    H118318   2.735   0.613   2.227  1.4521  0.9673  0.6918
 6104TIP3    H218319   2.676   0.649   2.092 -2.4766 -0.6103  1.8500
 6105TIP3   OH218320   3.975   3.646   0.050 -0.3042 -0.1725 -0.6704
 6105TIP3    H118321   3.986   3.741   0.052  0.7666 -0.2987  0.4958
 6105TIP3    H218322   3.916   3.631  -0.024 -4.9574  1.8462  2.1676
 6106TIP3   OH218323   5.829   3.783   5.057  0.1054  0.4019  0.2544
 6106TIP3    H118324   5.817   3.713   5.121 -0.5469 -0.3481 -0.6498
 6106TIP3    H218325   5.779   3.856   5.092 -0.1786  0.0287  0.6478
 6107TIP3   OH218326   2.891   0.272   1.890 -0.2178 -0.0364 -0.1000
 6107TIP3    H118327   2.849   0.263   1.805 -2.8550  2.5038  0.7886
 6107TIP3    H218328   2.982   0.294   1.870 -0.4069 -0.9676 -2.1895
 6108TIP3   OH218329   1.355   1.306   1.259  0.1738 -0.1309  0.0520
 6108TIP3    H118330   1.419   1.271   1.197 -0.5996 -2.7250  0.5909
 6108TIP3    H218331   1.292   1.353   1.204  0.8733 -0.1935 -0.8349
 6109TIP3   OH218332   1.509   2.332   1.571 -0.0750  0.2568 -0.4592
 6109TIP3    H118333   1.602   2.311   1.567  0.0058  0.4507  0.2527
 6109TIP3    H218334   1.479   2.293   1.654 -1.2359 -2.1363 -1.8859
 6110TIP3   OH218335   4.384   4.233   0.700  0.4999  0.5425  0.2553
 6110TIP3    H118336   4.292   4.237   0.675  0.1767  1.3620  1.4979
 6110TIP3    H218337   4.390   4.158   0.759  0.7284  0.2350 -0.1489
 6111TIP3   OH218338   5.082   0.157   0.282 -0.1576  0.1436  0.1980
 6111TIP3    H118339   5.109   0.152   0.190 -1.0212 -1.5123  0.0032
 6111TIP3    H218340   4.992   0.124   0.283 -0.0901 -0.0636  1.6611
 6112TIP3   OH218341   6.281   0.633   3.991 -0.4048  0.0751 -0.4125
 6112TIP3    H118342   6.220   0.611   4.061  0.1604  2.8128  1.0458
 6112TIP3    H218343   6.357   0.577   4.007 -0.5793  0.1486  0.7204
 6113TIP3   OH218344   3.103   0.774   3.138  0.0585 -0.2340 -0.1042
 6113TIP3    H118345   3.167   0.713   3.102  1.9933  1.4792  0.2354
 6113TIP3    H218346   3.130   0.785   3.229 -0.9179  0.2904  0.1279
 6114TIP3   OH218347   1.095   2.968   4.501 -0.2812  0.3274  0.7738
 6114TIP3    H118348   1.026   2.909   4.470 -0.8569  1.8451 -1.0415
 6114TIP3    H218349   1.171   2.911   4.514 -0.8315 -0.8648 -0.7931
 6115TIP3   OH218350   5.927   1.069   0.458 -0.5900  0.7407 -0.1125
 6115TIP3    H118351   5.874   1.046   0.382 -1.4846  1.1803  0.3712
 6115TIP3    H218352   5.914   1.163   0.469  0.3901  0.8825 -0.0586
 6116TIP3   OH218353   3.194   2.552   3.586 -0.3313  0.2009  0.4814
 6116TIP3    H118354   3.124   2.616   3.574 -1.3623 -0.9992 -0.0929
 6116TIP3    H218355   3.251   2.591   3.653 -0.4329  2.1022 -0.4754
 6117TIP3   OH218356   4.500   4.787   2.292 -0.0036 -0.0045 -0.1885
 6117TIP3    H118357   4.418   4.748   2.260 -0.5895  0.0987  1.1145
 6117TIP3    H218358   4.540   4.826   2.214  0.2943 -2.5986 -1.4411
 6118TIP3   OH218359   4.244   2.243   0.017  0.6903  0.5335 -0.6142
 6118TIP3    H118360   4.324   2.264   0.063  0.9493  0.4701 -1.0276
 6118TIP3    H218361   4.238   2.147   0.022 -0.4339  0.6492  1.1790
 6119TIP3   OH218362   0.717   0.325   0.975 -0.0620  0.0453 -0.7098
 6119TIP3    H118363   0.795   0.274   0.998  0.8291  2.2046  1.3498
 6119TIP3    H218364   0.680   0.353   1.058 -1.3009  1.6019 -1.7195
 6120TIP3   OH218365   4.069   2.186   0.849  0.5033  0.5371 -0.1297
 6120TIP3    H118366   4.063   2.165   0.942 -0.3322  0.5452 -0.1757
 6120TIP3    H218367   4.043   2.106   0.804  0.9634  0.5148 -0.3586
 6121TIP3   OH218368   6.265   2.498   0.406  0.7919  0.3565  0.1425
 6121TIP3    H118369   6.276   2.404   0.390 -1.6837  0.0942 -0.3605
 6121TIP3    H218370   6.246   2.504   0.499 -0.4644  0.1668 -0.0827
 6122TIP3   OH218371   5.693   1.579   4.791  0.3812  0.2441 -0.1097
 6122TIP3    H118372   5.644   1.524   4.730  1.7208  0.6371 -1.6057
 6122TIP3    H218373   5.650   1.665   4.786 -0.6202 -0.1619  0.9103
 6123TIP3   OH218374   2.922   4.418   1.056  0.3464 -0.4351  0.0354
 6123TIP3    H118375   3.012   4.387   1.047  0.9403  0.7456  1.3412
 6123TIP3    H218376   2.872   4.341   1.080  0.0897 -2.0419 -4.7078
 6124TIP3   OH218377   5.693   1.335   2.751  0.3269 -0.2148 -0.4422
 6124TIP3    H118378   5.726   1.373   2.832  0.7157 -0.1845 -0.6084
 6124TIP3    H218379   5.771   1.302   2.707  0.1461 -0.0482 -0.8959
 6125TIP3   OH218380   3.821   2.166   0.440 -0.5725  0.2023 -0.7798
 6125TIP3    H118381   3.768   2.244   0.425  0.2217  0.5768 -1.8451
 6125TIP3    H218382   3.861   2.148   0.354  0.8249 -0.1814 -0.0782
 6126TIP3   OH218383   0.856   3.681   2.518 -0.5008  0.0617 -0.1443
 6126TIP3    H118384   0.895   3.641   2.440  0.4480  0.9060 -0.1311
 6126TIP3    H218385   0.801   3.613   2.555  2.2992 -1.8686  0.8394
 6127TIP3   OH218386   1.752   3.698   2.166  0.5708 -0.2146 -0.6916
 6127TIP3    H118387   1.795   3.627   2.214 -0.8573  0.5780  1.9662
 6127TIP3    H218388   1.821   3.734   2.111  3.0032  0.0773  2.2683
 6128TIP3   OH218389   3.183   2.939   1.988 -0.5483  0.2073 -0.2977
 6128TIP3    H118390   3.125   2.876   2.032 -0.5812 -0.4811 -1.2959
 6128TIP3    H218391   3.249   2.884   1.945  0.8321  0.9715  0.7641
 6129TIP3   OH218392   2.894   0.680   1.676  0.0622 -0.6080  0.3130
 6129TIP3    H118393   2.900   0.644   1.588  0.1763 -0.3045  0.1957
 6129TIP3    H218394   2.973   0.649   1.721  2.1244  2.4147 -0.8694
 6130TIP3   OH218395   4.638   2.566   2.445  0.3041 -0.6278 -0.0471
 6130TIP3    H118396   4.663   2.530   2.360  0.3694 -1.2988  0.2482
 6130TIP3    H218397   4.657   2.660   2.437 -1.5275 -0.3229 -1.4262
 6131TIP3   OH218398   3.316   5.727   2.469 -1.0688 -0.4958 -0.0478
 6131TIP3    H118399   3.381   5.691   2.530  0.3916 -0.3098 -1.4099
 6131TIP3    H218400   3.313   5.665   2.396  1.6553  1.9450 -2.5520
 6132TIP3   OH218401   0.341   3.514   4.604  0.3788  0.7212 -0.0077
 6132TIP3    H118402   0.289   3.485   4.679  0.8933  0.2743  0.1850
 6132TIP3    H218403   0.400   3.441   4.587 -0.4943  0.3456 -1.5641
 6133TIP3   OH218404   1.602   2.799   2.313 -0.1184  0.3197 -0.2061
 6133TIP3    H118405   1.510   2.772   2.309  0.1465 -1.0870  1.6338
 6133TIP3    H218406   1.651   2.716   2.313  0.9584  0.8778  1.8872
 6134TIP3   OH218407   5.180   0.336   1.489  0.3740  0.8665 -0.1095
 6134TIP3    H118408   5.144   0.357   1.576  0.9764  1.8941 -0.0923
 6134TIP3    H218409   5.106   0.350   1.429  0.4431  1.9897  0.0378
 6135TIP3   OH218410   2.424   3.898   1.732 -0.3199  0.2283 -0.2289
 6135TIP3    H118411   2.351   3.956   1.710 -0.5778 -0.4668 -1.2644
 6135TIP3    H218412   2.398   3.857   1.815 -1.7099 -0.9603 -1.2063
 6136TIP3   OH218413   2.426   5.497   2.963 -0.3580 -0.2096 -0.0389
 6136TIP3    H118414   2.413   5.577   2.911  2.0562  2.6128  3.2532
 6136TIP3    H218415   2.485   5.444   2.910 -1.9344  0.1027 -2.2839
 6137TIP3   OH218416   5.500   4.936   1.823 -0.0129  0.0100  0.0198
 6137TIP3    H118417   5.581   4.976   1.789  0.7795 -2.5065 -1.2561
 6137TIP3    H218418   5.529   4.888   1.901  0.1631 -2.3329 -1.4010
 6138TIP3   OH218419   2.348   1.953   1.563  0.3501  0.2407 -0.7900
 6138TIP3    H118420   2.419   1.922   1.618  0.3377 -0.3974 -1.1222
 6138TIP3    H218421   2.381   1.945   1.473 -0.3775 -0.7477 -0.9929
 6139TIP3   OH218422   0.773   4.774   4.449  0.1044  0.3930  0.1197
 6139TIP3    H118423   0.737   4.693   4.483  1.7827  0.1662  1.4886
 6139TIP3    H218424   0.837   4.747   4.384 -1.4509  0.7632 -1.6515
 6140TIP3   OH218425   2.738   2.253   4.916 -0.3158 -0.3158 -0.0973
 6140TIP3    H118426   2.825   2.293   4.914 -0.0176 -0.8871  0.8145
 6140TIP3    H218427   2.754   2.161   4.938 -1.2394 -0.1204  1.5185
 6141TIP3   OH218428   1.219   2.227   2.466  1.0505  0.4435  0.2823
 6141TIP3    H118429   1.290   2.264   2.413  0.6860 -0.7511 -1.0846
 6141TIP3    H218430   1.159   2.187   2.403  0.3586 -0.6299  1.5590
 6142TIP3   OH218431   0.495   0.585   1.706 -0.4221 -0.1659 -0.6255
 6142TIP3    H118432   0.472   0.668   1.664 -0.8195  0.4095  0.6825
 6142TIP3    H218433   0.590   0.580   1.699 -0.5521 -0.6266 -2.5462
 6143TIP3   OH218434   2.214   5.931   3.781  0.3928  0.5637 -0.0572
 6143TIP3    H118435   2.187   6.011   3.827  0.2264  1.0770 -1.0288
 6143TIP3    H218436   2.141   5.910   3.724  0.3112 -0.4784  0.4139
 6144TIP3   OH218437   2.358   2.540   1.206  0.0207  0.1062 -0.1295
 6144TIP3    H118438   2.357   2.630   1.239  1.2720  0.6943 -1.5745
 6144TIP3    H218439   2.440   2.504   1.239 -1.1077 -1.0023  1.5913
 6145TIP3   OH218440   4.424   5.108   1.954 -0.0521  0.7535 -0.0309
 6145TIP3    H118441   4.349   5.055   1.982 -0.0489  0.7095 -0.1056
 6145TIP3    H218442   4.411   5.192   1.997  0.3860  0.4204  0.7594
 6146TIP3   OH218443   4.809   0.092   1.075 -0.3788  0.1795  0.2473
 6146TIP3    H118444   4.893   0.050   1.097  0.3054  0.9258 -0.8316
 6146TIP3    H218445   4.797   0.073   0.982 -0.4386  1.6717 -0.0750
 6147TIP3   OH218446   6.207   2.290   0.727 -0.4106  0.4433 -0.2473
 6147TIP3    H118447   6.289   2.285   0.678 -1.2853 -0.2021 -1.7047
 6147TIP3    H218448   6.207   2.210   0.781  0.4544  1.0496  0.6968
 6148TIP3   OH218449   3.658   4.752   3.941 -0.0772 -0.3340  0.4034
 6148TIP3    H118450   3.677   4.658   3.936 -1.8551 -0.7306  0.0550
 6148TIP3    H218451   3.600   4.768   3.867 -0.7546  0.7880  1.1406
 6149TIP3   OH218452   2.930   4.438   0.791  0.1861  0.1131  0.2906
 6149TIP3    H118453   2.913   4.344   0.792 -1.5852  0.3868 -0.1317
 6149TIP3    H218454   2.911   4.467   0.880 -3.2227  0.6215 -0.4780
 6150TIP3   OH218455   3.614   1.897   3.307 -0.1926  0.4837  0.2877
 6150TIP3    H118456   3.676   1.838   3.349 -0.4319  0.1449  0.1653
 6150TIP3    H218457   3.626   1.883   3.213 -0.7189  0.1366  0.2669
 6151TIP3   OH218458   2.634   4.448   1.155 -0.4116 -0.5589 -0.4184
 6151TIP3    H118459   2.694   4.433   1.082 -0.6862  0.7949 -0.9560
 6151TIP3    H218460   2.666   4.529   1.196  0.6329 -2.0360  1.9057
 6152TIP3   OH218461   3.966   5.100   5.001  0.2178  0.3895  0.1859
 6152TIP3    H118462   3.910   5.176   5.013 -1.0572 -0.2494 -1.2785
 6152TIP3    H218463   4.013   5.118   4.920  0.8885  0.1788  0.5236
 6153TIP3   OH218464   0.614   0.911   1.734 -0.0021  0.3440 -0.2406
 6153TIP3    H118465   0.531   0.935   1.776  0.1610 -0.8481  0.8089
 6153TIP3    H218466   0.665   0.870   1.803  1.0071 -0.0267 -1.1798
 6154TIP3   OH218467   4.995   4.642   1.759  0.0456  0.1009  1.0407
 6154TIP3    H118468   4.912   4.610   1.725  1.3187 -1.3251 -0.9334
 6154TIP3    H218469   5.001   4.732   1.725 -0.8446  0.3483  1.5170
 6155TIP3   OH218470   1.540   0.216   3.822  0.5432 -0.1095  0.0507
 6155TIP3    H118471   1.564   0.300   3.783  1.4180 -0.6819 -0.6932
 6155TIP3    H218472   1.503   0.238   3.907  0.5528  1.0387 -0.2272
 6156TIP3   OH218473   1.133   5.259   5.155  0.5037  0.0441 -0.0277
 6156TIP3    H118474   1.168   5.289   5.239  0.5761  1.6270 -0.6061
 6156TIP3    H218475   1.125   5.338   5.102  0.6720 -0.9538 -1.5996
 6157TIP3   OH218476   3.937   3.465   3.121 -0.7913  0.3030 -0.1688
 6157TIP3    H118477   3.986   3.544   3.100  1.3184 -1.4552 -2.5220
 6157TIP3    H218478   3.990   3.421   3.187  0.2574 -0.9931 -1.7950
 6158TIP3   OH218479   3.438   4.621   2.583  0.1333  0.2296  0.1918
 6158TIP3    H118480   3.525   4.622   2.542  0.5831 -1.9836  0.9642
 6158TIP3    H218481   3.453   4.649   2.673 -0.0315  0.2763  0.2050
 6159TIP3   OH218482   0.161   5.070   1.764 -0.0181  0.6061  0.3821
 6159TIP3    H118483   0.252   5.092   1.743  0.3001 -0.7560  0.2226
 6159TIP3    H218484   0.126   5.150   1.803  1.4715  0.9449  1.1277
 6160TIP3   OH218485   6.270   3.422   4.164  0.3795  0.3909  0.2625
 6160TIP3    H118486   6.338   3.477   4.204  1.1325 -0.0647 -0.3559
 6160TIP3    H218487   6.310   3.335   4.159 -0.2446  0.1202 -0.1285
 6161TIP3   OH218488   1.270   4.069   4.486 -0.1374 -0.1351  0.2864
 6161TIP3    H118489   1.291   4.083   4.579 -0.2773  0.6336  0.2161
 6161TIP3    H218490   1.181   4.034   4.487  0.4189 -1.6184  0.4991
 6162TIP3   OH218491   2.197   2.176   4.062  0.3252 -0.0871 -0.5728
 6162TIP3    H118492   2.283   2.158   4.101 -0.0200 -2.1064 -0.6682
 6162TIP3    H218493   2.190   2.116   3.989 -1.7493 -1.0159  0.3127
 6163TIP3   OH218494   3.033   5.693   3.866 -0.7030  0.2186  0.4613
 6163TIP3    H118495   2.997   5.661   3.948 -0.6570  3.2136  1.7652
 6163TIP3    H218496   2.963   5.743   3.826  0.2745  1.5573  0.3499
 6164TIP3   OH218497   5.554   1.742   1.729  0.0674  0.2303  0.1591
 6164TIP3    H118498   5.560   1.678   1.799  1.8250  0.1728  0.0138
 6164TIP3    H218499   5.525   1.823   1.772  2.8661  0.6991  1.3808
 6165TIP3   OH218500   3.146   3.019   1.072  0.4558  0.2190  0.0258
 6165TIP3    H118501   3.211   3.085   1.048 -0.4853  0.7434 -1.2135
 6165TIP3    H218502   3.158   2.948   1.009 -1.0682  0.9470 -1.1423
 6166TIP3   OH218503   0.915   2.095   2.883 -0.2850  0.1795 -0.1471
 6166TIP3    H118504   0.938   2.145   2.806 -1.8704  0.6766 -0.3315
 6166TIP3    H218505   0.958   2.010   2.870 -0.7810  0.1380 -1.7339
 6167TIP3   OH218506   2.492   2.354   2.598  0.0925 -0.0873 -0.1744
 6167TIP3    H118507   2.581   2.363   2.633  0.6651  1.4209 -1.8551
 6167TIP3    H218508   2.448   2.436   2.622 -0.2629 -0.0694 -0.8596
 6168TIP3   OH218509   5.007   5.402   0.249 -0.2864 -0.2573  0.3763
 6168TIP3    H118510   4.961   5.389   0.332 -0.2828 -1.1628  0.2461
 6168TIP3    H218511   5.099   5.411   0.274 -0.1409 -1.5901  0.4147
 6169TIP3   OH218512   5.388   4.131   4.514 -0.5612  0.4137  0.0785
 6169TIP3    H118513   5.304   4.136   4.560 -0.4571 -0.8803  0.4509
 6169TIP3    H218514   5.411   4.222   4.495 -1.4614  0.8560  1.0416
 6170TIP3   OH218515   0.667   1.699   2.476  1.0810  0.3375  0.0055
 6170TIP3    H118516   0.677   1.728   2.566 -0.1647 -0.3188  0.3694
 6170TIP3    H218517   0.700   1.772   2.423  1.9505  0.6695  0.9717
 6171TIP3   OH218518   5.884   5.219   3.161 -0.0749  0.1104  0.7990
 6171TIP3    H118519   5.793   5.244   3.180  0.3261  0.5575  2.2432
 6171TIP3    H218520   5.883   5.196   3.068 -1.0011  3.2029 -0.0898
 6172TIP3   OH218521   0.444   4.483   4.949  0.1196 -0.4470 -0.2000
 6172TIP3    H118522   0.438   4.448   5.038  0.0914 -2.3517 -0.8989
 6172TIP3    H218523   0.400   4.418   4.895 -0.2996  0.9148 -1.5668
 6173TIP3   OH218524   2.358   1.148   0.176 -0.2288 -0.2489  0.7156
 6173TIP3    H118525   2.277   1.107   0.207 -0.0484 -0.3720  1.0310
 6173TIP3    H218526   2.371   1.113   0.088 -0.9056  0.3249  0.3779
 6174TIP3   OH218527   0.500   3.713   2.378 -0.4314 -0.0059 -0.5782
 6174TIP3    H118528   0.412   3.750   2.372 -0.7133 -0.4534  0.5800
 6174TIP3    H218529   0.543   3.765   2.446  0.1615  0.1280 -1.0484
 6175TIP3   OH218530   5.259   0.773   3.239  0.4584  0.5799 -0.0712
 6175TIP3    H118531   5.254   0.775   3.335  0.4456 -2.6877  0.1230
 6175TIP3    H218532   5.335   0.828   3.218 -0.1956  2.2857  1.6608
 6176TIP3   OH218533   1.116   1.986   3.789  0.1224  0.2487 -0.1545
 6176TIP3    H118534   1.167   2.046   3.735  0.2265  0.1071 -0.2130
 6176TIP3    H218535   1.110   2.030   3.874 -1.1344  1.0714 -0.6409
 6177TIP3   OH218536   2.761   4.056   2.565 -0.0557  0.2221 -0.0266
 6177TIP3    H118537   2.842   4.032   2.611 -0.3484  0.5864  0.6995
 6177TIP3    H218538   2.772   4.021   2.477  0.4275 -0.6844  0.3822
 6178TIP3   OH218539   3.790   3.524   0.232 -0.4423 -0.5338 -0.0179
 6178TIP3    H118540   3.841   3.552   0.156 -1.8682 -0.1555 -0.8674
 6178TIP3    H218541   3.780   3.603   0.285 -1.3853 -0.2604 -0.5934
 6179TIP3   OH218542   6.189   3.726   1.215 -0.3505 -0.4898  0.3783
 6179TIP3    H118543   6.102   3.720   1.254  0.0200  0.4390  1.3843
 6179TIP3    H218544   6.244   3.765   1.283  0.8454 -0.9992 -0.2573
 6180TIP3   OH218545   1.582   3.530   3.323  0.5870  0.7038 -0.2161
 6180TIP3    H118546   1.664   3.571   3.351  0.3954  1.4681 -0.7275
 6180TIP3    H218547   1.572   3.557   3.231  0.5774 -0.7193 -0.6570
 6181TIP3   OH218548   5.253   3.350   0.880 -0.1418  0.0428 -0.0968
 6181TIP3    H118549   5.213   3.436   0.868 -0.6398 -0.0872  0.5758
 6181TIP3    H218550   5.317   3.363   0.951 -0.1232 -0.1149 -0.0855
 6182TIP3   OH218551   1.680   0.047   0.227 -0.0556 -0.0535  0.1989
 6182TIP3    H118552   1.607  -0.013   0.220  0.0757 -0.1344 -0.4949
 6182TIP3    H218553   1.644   0.124   0.273  0.3207 -1.5380  3.2456
 6183TIP3   OH218554   0.023   1.402   0.771  0.2337 -0.4079  0.3877
 6183TIP3    H118555  -0.011   1.414   0.683  1.0207  0.5127  0.1946
 6183TIP3    H218556   0.115   1.379   0.758  0.9432  1.8397  0.9726
 6184TIP3   OH218557   2.560   2.503   1.561 -0.0117 -0.3925  0.4476
 6184TIP3    H118558   2.504   2.580   1.549  1.1380  0.5629  0.9487
 6184TIP3    H218559   2.604   2.492   1.476  0.4431  0.0357  0.6196
 6185TIP3   OH218560   3.793   1.534   1.988  0.0982  0.1080  0.7984
 6185TIP3    H118561   3.832   1.504   1.906  1.3176 -1.7267  1.9781
 6185TIP3    H218562   3.800   1.629   1.984 -0.6188  0.1374 -1.5523
 6186TIP3   OH218563   4.549   1.964   2.789 -0.1800 -0.0128 -0.2081
 6186TIP3    H118564   4.502   1.899   2.737 -1.5455  1.1821 -0.5306
 6186TIP3    H218565   4.637   1.965   2.751 -0.5284 -0.7187 -1.0675
 6187TIP3   OH218566   4.399   0.278   3.938  0.1846  0.7192  0.3091
 6187TIP3    H118567   4.326   0.233   3.981  0.1012 -0.8745 -1.3721
 6187TIP3    H218568   4.358   0.328   3.868  0.6491 -0.0359 -0.5281
 6188TIP3   OH218569   1.909   3.383   1.132  0.0498  0.6240 -0.1368
 6188TIP3    H118570   1.851   3.328   1.079 -1.1568  1.2314  0.5106
 6188TIP3    H218571   1.990   3.388   1.081 -0.1709 -0.8903 -0.6939
 6189TIP3   OH218572   1.704   1.682   3.212 -0.2757 -0.2586 -0.1254
 6189TIP3    H118573   1.676   1.769   3.183  2.5243  0.6259 -0.4321
 6189TIP3    H218574   1.728   1.636   3.132  2.2060  0.2387  0.2476
 6190TIP3   OH218575   4.879   5.764   3.235  0.5599  0.0773 -0.1658
 6190TIP3    H118576   4.812   5.704   3.264  0.6951  0.6716  1.5065
 6190TIP3    H218577   4.961   5.716   3.244  0.4311 -0.5754 -2.0051
 6191TIP3   OH218578   1.335   2.128   3.717  0.4171  0.3649 -0.0718
 6191TIP3    H118579   1.303   2.214   3.689  0.1518  1.0505  2.1803
 6191TIP3    H218580   1.380   2.093   3.640  0.9006  2.6908 -0.9145
 6192TIP3   OH218581   0.062   2.664   3.000  0.3523  0.1783  0.2119
 6192TIP3    H118582   0.112   2.604   2.944  0.4205  1.5797 -1.3017
 6192TIP3    H218583   0.125   2.730   3.027 -0.4803  1.6360 -1.2350
 6193TIP3   OH218584   6.058   4.228   2.094 -0.1125  0.5265  0.3759
 6193TIP3    H118585   6.074   4.160   2.029 -1.9396  0.7550 -0.3820
 6193TIP3    H218586   6.047   4.181   2.176  1.6393  0.1909  0.4583
 6194TIP3   OH218587   1.081   3.287   1.009  0.1946 -0.6005 -0.1649
 6194TIP3    H118588   1.133   3.230   0.953  2.2502  1.2919 -0.2990
 6194TIP3    H218589   1.061   3.363   0.954 -1.0106 -0.3769  0.5393
 6195TIP3   OH218590   3.269   4.783   3.427  0.0306 -0.3276 -0.3545
 6195TIP3    H118591   3.295   4.744   3.510  0.3515  0.0499 -0.2789
 6195TIP3    H218592   3.309   4.726   3.361  1.0256  0.2260 -0.2385
 6196TIP3   OH218593   0.027   0.975   1.958  0.2460  0.5755 -0.2478
 6196TIP3    H118594  -0.003   1.035   1.890 -2.9758 -1.6525 -1.0094
 6196TIP3    H218595  -0.022   0.999   2.036  1.3852  0.9321  0.3922
 6197TIP3   OH218596   4.049   0.130   0.092  0.2464 -0.0419 -0.0214
 6197TIP3    H118597   3.969   0.161   0.135 -1.1460 -2.8740 -0.3848
 6197TIP3    H218598   4.091   0.074   0.157 -0.3384 -1.9827 -1.2495
 6198TIP3   OH218599   0.802   2.918   1.467 -0.3528 -0.5677  0.6000
 6198TIP3    H118600   0.886   2.964   1.460 -1.0986  0.5911 -1.1943
 6198TIP3    H218601   0.825   2.826   1.454  0.4801 -0.1058 -1.5633
 6199TIP3   OH218602   5.380   2.940   0.103  0.3112 -0.0618  0.1086
 6199TIP3    H118603   5.302   2.982   0.066  0.9881  1.4008  0.2481
 6199TIP3    H218604   5.436   2.924   0.027  1.0535  1.5374  0.2698
 6200TIP3   OH218605   3.298   5.216   4.621  0.1949  0.0608 -0.0540
 6200TIP3    H118606   3.288   5.135   4.671  2.1244 -0.5122 -0.4905
 6200TIP3    H218607   3.346   5.274   4.680  1.4851 -0.2229 -0.7870
 6201TIP3   OH218608   5.123   2.118   3.992 -0.5070 -0.2737 -0.3415
 6201TIP3    H118609   5.145   2.026   4.001 -1.0272 -0.4635 -0.9322
 6201TIP3    H218610   5.207   2.163   3.988 -0.2034 -0.9439 -2.1378
 6202TIP3   OH218611   0.059   0.668   0.448 -0.4530  0.8822  0.1147
 6202TIP3    H118612  -0.018   0.700   0.495 -1.1257 -1.6538  0.8750
 6202TIP3    H218613   0.025   0.637   0.365 -0.1541  0.3876  0.1739
 6203TIP3   OH218614   0.308   3.552   4.120  0.2309 -0.0949 -0.0161
 6203TIP3    H118615   0.297   3.513   4.207  0.4336 -0.4242 -0.1386
 6203TIP3    H218616   0.244   3.623   4.118 -2.9403 -2.7627 -1.2394
 6204TIP3   OH218617   1.115   0.706   0.121 -0.0628  0.0313 -0.1887
 6204TIP3    H118618   1.183   0.766   0.150  0.2673 -0.7967  0.7796
 6204TIP3    H218619   1.157   0.651   0.055 -0.0191  0.0559 -0.1811
 6205TIP3   OH218620   4.680   4.200   2.720  0.3365 -0.0573  0.5102
 6205TIP3    H118621   4.692   4.110   2.748 -2.0695 -0.3617  0.7889
 6205TIP3    H218622   4.632   4.194   2.637  0.2255  0.9528  0.4801
 6206TIP3   OH218623   6.235   2.605   3.594  0.6069 -0.3669 -0.5642
 6206TIP3    H118624   6.286   2.577   3.669 -0.5978 -0.6835  0.1578
 6206TIP3    H218625   6.178   2.531   3.573 -0.2968  0.3338 -0.6822
 6207TIP3   OH218626   4.003   2.647   1.189 -0.2878 -0.0466  0.2261
 6207TIP3    H118627   3.999   2.732   1.145 -1.4664  1.1107  2.4116
 6207TIP3    H218628   4.096   2.634   1.207 -0.1489  1.0869  0.4187
 6208TIP3   OH218629   2.048   4.242   0.248 -0.3285 -0.1093  0.1594
 6208TIP3    H118630   2.016   4.153   0.265 -2.3754  0.3965 -0.7105
 6208TIP3    H218631   1.990   4.298   0.300  0.9290  0.7280  0.6871
 6209TIP3   OH218632   5.668   2.089   0.143 -0.4562  0.4217 -0.3836
 6209TIP3    H118633   5.753   2.046   0.153 -0.2302  0.7459 -0.9099
 6209TIP3    H218634   5.689   2.180   0.122 -0.9215  0.1212 -2.2567
 6210TIP3   OH218635   0.320   2.088   4.100  0.4861 -0.0105 -0.7661
 6210TIP3    H118636   0.237   2.122   4.131  0.5675  0.4616 -1.0617
 6210TIP3    H218637   0.360   2.048   4.178  0.1098  0.0014 -0.5643
 6211TIP3   OH218638   1.341   4.970   3.929 -0.5663  0.0521 -0.0728
 6211TIP3    H118639   1.382   4.898   3.881 -0.9046 -0.8572  0.9633
 6211TIP3    H218640   1.389   4.975   4.011 -1.4517  0.0649  0.4557
 6212TIP3   OH218641   6.000   3.571   1.768 -0.0042 -0.2163  0.4098
 6212TIP3    H118642   6.051   3.491   1.755 -0.0155 -0.3649  1.2223
 6212TIP3    H218643   6.059   3.642   1.742  0.3125 -0.4397  0.5138
 6213TIP3   OH218644   1.542   3.026   0.735 -0.0887 -0.6329 -0.6661
 6213TIP3    H118645   1.627   3.052   0.699  0.5871 -1.1475  0.5053
 6213TIP3    H218646   1.523   3.091   0.802  1.4003 -2.7303  1.9624
 6214TIP3   OH218647   1.804   3.151   4.998  0.4053 -0.3289 -0.6625
 6214TIP3    H118648   1.871   3.142   5.066  0.1586 -1.0246 -0.5044
 6214TIP3    H218649   1.853   3.144   4.916  0.6884  0.4036 -0.5645
 6215TIP3   OH218650   4.197   3.537   2.411 -0.4157 -0.8232 -0.2453
 6215TIP3    H118651   4.286   3.529   2.375 -0.8979  0.7763 -1.9794
 6215TIP3    H218652   4.200   3.617   2.463 -1.0119 -0.3196 -0.9624
 6216TIP3   OH218653   3.988   0.696   0.680  0.2683 -0.0731  0.0173
 6216TIP3    H118654   4.017   0.759   0.746  1.0056 -0.2779 -0.1069
 6216TIP3    H218655   3.893   0.690   0.694  0.3820  0.0405  0.9165
 6217TIP3   OH218656   4.118   4.058   1.625  0.1245 -0.3609  0.1992
 6217TIP3    H118657   4.202   4.102   1.639  1.2868 -1.5249 -2.3347
 6217TIP3    H218658   4.117   3.987   1.689  0.8193  0.0202  0.6437
 6218TIP3   OH218659   4.524   5.570   2.870  0.7782 -0.0657 -0.0862
 6218TIP3    H118660   4.441   5.612   2.848  0.2574 -0.4503  1.0847
 6218TIP3    H218661   4.562   5.626   2.938  0.6532 -0.7981  0.6095
 6219TIP3   OH218662   1.788   5.725   3.631  0.2003  0.3306 -0.5963
 6219TIP3    H118663   1.734   5.689   3.702 -0.6180  1.8434 -0.4167
 6219TIP3    H218664   1.726   5.744   3.561  0.2368  3.2020  0.0538
 6220TIP3   OH218665   2.712   0.899   4.631  0.3714 -0.5925 -0.0806
 6220TIP3    H118666   2.750   0.881   4.717  2.2629  0.0566 -0.7080
 6220TIP3    H218667   2.725   0.993   4.619 -0.7757 -0.4960 -0.6745
 6221TIP3   OH218668   5.825   5.315   0.775  0.5196  0.2394 -0.2027
 6221TIP3    H118669   5.793   5.399   0.810 -1.9849 -0.4404 -0.6283
 6221TIP3    H218670   5.897   5.339   0.717  0.7968  1.9473  0.7638
 6222TIP3   OH218671   5.499   5.438   0.085  0.1526 -0.3816 -0.4638
 6222TIP3    H118672   5.429   5.407   0.027  0.5258  0.3588 -1.3359
 6222TIP3    H218673   5.495   5.533   0.079  1.2955 -0.3320 -0.6037
 6223TIP3   OH218674   4.092   2.894   1.955 -0.0583 -0.2712 -0.0356
 6223TIP3    H118675   4.024   2.956   1.981  0.7264 -0.3818  2.6074
 6223TIP3    H218676   4.166   2.949   1.930 -0.4513 -0.1650 -1.0081
 6224TIP3   OH218677   2.737   4.881   2.280  0.0679  0.1569  0.0134
 6224TIP3    H118678   2.757   4.791   2.305 -0.9114  0.6133  2.8317
 6224TIP3    H218679   2.712   4.876   2.188  4.8749 -1.6403 -1.5062
 6225TIP3   OH218680   4.329   4.756   4.663 -0.7093  0.3355 -0.0018
 6225TIP3    H118681   4.350   4.781   4.573 -0.2388 -1.8654 -0.5663
 6225TIP3    H218682   4.397   4.796   4.716 -0.2128  0.5551 -0.7895
 6226TIP3   OH218683   6.028   1.735   2.127  0.2955 -0.3764 -0.0127
 6226TIP3    H118684   5.996   1.817   2.088  2.0271  0.7165  0.7265
 6226TIP3    H218685   6.050   1.680   2.052 -0.4775  0.0001 -0.5274
 6227TIP3   OH218686   1.660   2.844   1.608  0.7083 -0.0626 -0.0079
 6227TIP3    H118687   1.583   2.801   1.573 -0.6962 -2.5065  5.1379
 6227TIP3    H218688   1.734   2.795   1.574 -0.3630 -1.0600 -0.9378
 6228TIP3   OH218689   5.743   2.465   4.546  0.1761  0.1233  0.0785
 6228TIP3    H118690   5.814   2.529   4.552 -0.9028  1.4846 -0.8638
 6228TIP3    H218691   5.694   2.475   4.627  0.1925  0.2614  0.0710
 6229TIP3   OH218692   3.558   5.915   4.485 -0.4450  0.1623  0.0113
 6229TIP3    H118693   3.612   5.993   4.475 -1.3915  0.7093 -1.0346
 6229TIP3    H218694   3.615   5.843   4.461  0.9766  0.2948  2.5998
 6230TIP3   OH218695   3.500   4.311   2.366 -0.3222 -0.3534  0.1601
 6230TIP3    H118696   3.504   4.216   2.351  0.1995 -0.1311 -1.1789
 6230TIP3    H218697   3.547   4.349   2.293 -1.5761  1.0105  0.0208
 6231TIP3   OH218698   1.048   3.167   4.690  0.7146  0.2260  0.0973
 6231TIP3    H118699   1.023   3.117   4.767 -0.1550  0.2498 -0.1616
 6231TIP3    H218700   1.035   3.106   4.617 -1.1278  1.0505 -0.3066
 6232TIP3   OH218701   1.415   2.822   4.333  0.1794  0.0929 -0.4030
 6232TIP3    H118702   1.323   2.827   4.309  0.4183  2.5928 -1.1284
 6232TIP3    H218703   1.431   2.901   4.385  1.7254 -0.7469  0.4853
 6233TIP3   OH218704   4.599   2.881   4.712  0.3335  0.3223  0.4332
 6233TIP3    H118705   4.553   2.805   4.747 -0.2328  0.8002  0.7427
 6233TIP3    H218706   4.660   2.845   4.648  1.7851 -0.6385  2.2769
 6234TIP3   OH218707   4.907   3.598   3.794  0.5946 -0.0320  0.5064
 6234TIP3    H118708   4.822   3.640   3.780 -0.4076 -2.0890  0.1471
 6234TIP3    H218709   4.971   3.663   3.765 -0.9000  1.0863 -0.3894
 6235TIP3   OH218710   5.521   1.129   2.451 -0.1033  0.1405 -0.1930
 6235TIP3    H118711   5.431   1.129   2.485 -0.0036  2.3049  0.2163
 6235TIP3    H218712   5.530   1.213   2.406  2.0825  0.5188  0.8250
 6236TIP3   OH218713   5.728   3.415   3.273  0.3432 -0.9148 -0.3263
 6236TIP3    H118714   5.685   3.489   3.231  2.1497  1.0962  1.1725
 6236TIP3    H218715   5.656   3.364   3.310 -0.8983  1.4547  0.7493
 6237TIP3   OH218716   2.789   1.568   3.616  0.0989  0.0132  0.7105
 6237TIP3    H118717   2.757   1.484   3.583 -1.4870  0.7077  0.3985
 6237TIP3    H218718   2.882   1.570   3.592 -0.7506  0.1225 -3.0689
 6238TIP3   OH218719   3.514   0.198   0.715 -0.1872  0.2389  0.2021
 6238TIP3    H118720   3.425   0.233   0.710  0.6095  2.7853  1.5698
 6238TIP3    H218721   3.509   0.131   0.784 -1.3424 -0.9114 -0.9414
 6239TIP3   OH218722   4.663   1.755   3.280 -0.3868  0.3045  0.2196
 6239TIP3    H118723   4.603   1.731   3.351  1.4489 -0.2118  1.6595
 6239TIP3    H218724   4.671   1.676   3.227 -0.8239  0.3368  0.0950
 6240TIP3   OH218725   1.839   2.272   4.741 -0.4157  0.3081  0.3573
 6240TIP3    H118726   1.901   2.345   4.729  0.0578 -0.0408  0.6490
 6240TIP3    H218727   1.887   2.209   4.796 -0.7595 -0.2972 -0.0305
 6241TIP3   OH218728   2.818   0.589   4.702  0.2042 -0.1531 -0.3712
 6241TIP3    H118729   2.757   0.659   4.679 -0.4920 -1.3829 -2.5694
 6241TIP3    H218730   2.762   0.512   4.716  0.9332 -0.2919  2.1882
 6242TIP3   OH218731   0.125   0.335   3.738  0.3246  0.4235  0.2207
 6242TIP3    H118732   0.141   0.271   3.808 -1.5769 -0.7562 -0.3529
 6242TIP3    H218733   0.204   0.389   3.737  1.6838 -1.4287  1.2496
 6243TIP3   OH218734   3.692   5.260   1.759 -0.5725  0.4655  0.3152
 6243TIP3    H118735   3.713   5.308   1.839 -0.2509  0.5260  0.2000
 6243TIP3    H218736   3.778   5.244   1.719 -0.7813  1.3900 -0.5640
 6244TIP3   OH218737   3.027   1.155   0.185 -0.2555  0.1243 -0.0411
 6244TIP3    H118738   3.093   1.186   0.247  0.2560  2.0101 -1.4395
 6244TIP3    H218739   3.073   1.147   0.102 -1.2598 -0.8941 -0.5350
 6245TIP3   OH218740   3.661   3.370   3.298  0.4627 -0.7965 -0.1932
 6245TIP3    H118741   3.569   3.349   3.317  0.2929 -1.1843 -1.3411
 6245TIP3    H218742   3.656   3.445   3.238  1.0089  1.3374  2.2524
 6246TIP3   OH218743   0.882   3.522   0.415 -0.3319 -0.7862 -0.2252
 6246TIP3    H118744   0.960   3.515   0.471 -1.0375 -0.6884  0.7961
 6246TIP3    H218745   0.858   3.431   0.395 -0.2016 -0.8267 -0.1978
 6247TIP3   OH218746   0.227   1.883   0.208  0.0777 -0.3274  0.5949
 6247TIP3    H118747   0.202   1.918   0.122  0.1709  1.4530  1.2682
 6247TIP3    H218748   0.322   1.868   0.200  0.0340 -0.4805  0.3044
 6248TIP3   OH218749   4.447   0.175   3.438 -0.4544 -0.0158  0.0950
 6248TIP3    H118750   4.399   0.236   3.382 -1.5322 -2.1284 -1.4481
 6248TIP3    H218751   4.396   0.094   3.434  1.7295 -1.5121  0.7462
 6249TIP3   OH218752   6.280   0.302   2.419  0.3860 -0.0044 -0.2057
 6249TIP3    H118753   6.267   0.211   2.394 -4.1560  0.4698 -0.3255
 6249TIP3    H218754   6.308   0.299   2.510 -1.5104 -1.5708  0.3805
 6250TIP3   OH218755   1.859   1.258   2.630  0.2278  0.9919 -0.0311
 6250TIP3    H118756   1.897   1.235   2.545  2.0046  1.4515  0.5942
 6250TIP3    H218757   1.765   1.240   2.620  0.3148  1.4318 -2.2157
 6251TIP3   OH218758   3.477   3.319   3.641 -0.2005  0.0008  0.0362
 6251TIP3    H118759   3.445   3.344   3.728 -1.0497 -1.5449  0.2224
 6251TIP3    H218760   3.505   3.401   3.601  1.6304  0.5861  2.3122
 6252TIP3   OH218761   1.989   4.442   3.433 -0.3435  0.4237  0.1451
 6252TIP3    H118762   1.902   4.413   3.459  0.8370 -1.2002  2.7768
 6252TIP3    H218763   2.045   4.420   3.509  2.7684 -0.8002 -2.2646
 6253TIP3   OH218764   1.284   4.799   1.900  0.2160  0.1557 -0.7160
 6253TIP3    H118765   1.322   4.857   1.833 -0.3301  0.8623 -0.4276
 6253TIP3    H218766   1.248   4.726   1.850 -0.7670  0.9933 -1.2688
 6254TIP3   OH218767   4.495   5.291   3.757 -0.1213 -0.6038  0.8760
 6254TIP3    H118768   4.411   5.248   3.769 -0.3617 -0.2642  0.4664
 6254TIP3    H218769   4.476   5.366   3.700  0.4113 -0.3776  0.9831
 6255TIP3   OH218770   3.306   2.484   1.936 -0.6677  0.1902 -0.2449
 6255TIP3    H118771   3.312   2.554   1.870  1.7431 -1.6742 -2.2078
 6255TIP3    H218772   3.377   2.504   1.997 -1.5984  0.7920  0.6640
 6256TIP3   OH218773   1.538   2.555   0.617  0.0993  0.2576  0.3222
 6256TIP3    H118774   1.451   2.596   0.622 -0.9866 -1.9191  0.6296
 6256TIP3    H218775   1.557   2.529   0.708 -0.9690 -3.0299 -0.2335
 6257TIP3   OH218776   5.606   1.983   2.650  0.4558 -0.0466 -0.0568
 6257TIP3    H118777   5.692   2.020   2.667  0.2523  0.2527  0.3263
 6257TIP3    H218778   5.604   1.903   2.703  1.2926 -1.2044 -1.6764
 6258TIP3   OH218779   3.180   5.730   0.643 -0.4549  0.3641 -0.1482
 6258TIP3    H118780   3.187   5.656   0.583 -0.9023  1.0682 -1.0865
 6258TIP3    H218781   3.090   5.727   0.674 -0.1259 -0.2211  0.8137
 6259TIP3   OH218782   4.873   0.781   4.361 -0.1854 -0.0414  0.5827
 6259TIP3    H118783   4.961   0.781   4.322 -0.5934  2.0293 -0.4901
 6259TIP3    H218784   4.819   0.736   4.296 -0.2179  0.2293  0.4193
 6260TIP3   OH218785   4.665   2.445   3.148 -0.1985 -0.3213  0.0308
 6260TIP3    H118786   4.604   2.485   3.087  0.6392  0.0235 -0.6022
 6260TIP3    H218787   4.610   2.391   3.206 -1.2241  0.9438  0.2639
 6261TIP3   OH218788   3.499   3.857   3.528 -0.2629  0.6019 -0.4142
 6261TIP3    H118789   3.416   3.814   3.510  0.1610 -0.2639 -0.3396
 6261TIP3    H218790   3.553   3.789   3.569  0.3554  1.2561 -0.1195
 6262TIP3   OH218791   4.161   4.767   0.021 -0.4879  0.3949 -0.2906
 6262TIP3    H118792   4.135   4.854  -0.010  0.0723  0.6688 -0.0218
 6262TIP3    H218793   4.252   4.758  -0.008 -0.6467 -0.2448 -0.6059
 6263TIP3   OH218794   1.435   1.893   2.239  0.2828  0.0683  0.0448
 6263TIP3    H118795   1.431   1.948   2.161  1.9459  0.1371 -0.0218
 6263TIP3    H218796   1.499   1.825   2.218  0.5109 -0.1082  1.2284
 6264TIP3   OH218797   4.882   3.509   4.775  0.4368 -0.0123 -0.3551
 6264TIP3    H118798   4.948   3.470   4.832  0.1694 -0.6957 -0.5081
 6264TIP3    H218799   4.825   3.557   4.835  1.4421  1.1508 -0.2909
 6265TIP3   OH218800   4.099   2.121   5.082  0.1183 -0.2964 -0.3753
 6265TIP3    H118801   4.110   2.188   5.150 -0.6683 -0.2139 -0.3193
 6265TIP3    H218802   4.040   2.161   5.018  1.4364 -0.0890 -1.5072
 6266TIP3   OH218803   4.143   1.478   1.937 -0.0413 -0.1733 -0.1720
 6266TIP3    H118804   4.077   1.476   2.006  0.1722  0.5986  0.0703
 6266TIP3    H218805   4.176   1.568   1.938 -0.4388  0.0124 -1.6664
 6267TIP3   OH218806   1.849   3.904   1.841  0.1807  0.1415 -0.3913
 6267TIP3    H118807   1.854   3.992   1.879  0.0210  0.2872 -0.7025
 6267TIP3    H218808   1.894   3.848   1.904 -1.0479  0.1913  0.5627
 6268TIP3   OH218809   4.258   1.956   3.148  0.2675 -0.1709  0.0510
 6268TIP3    H118810   4.321   1.976   3.080 -1.1659  1.0141 -1.0067
 6268TIP3    H218811   4.285   1.871   3.183  1.7548 -0.2095 -1.1194
 6269TIP3   OH218812   5.813   3.720   1.546  0.1873  0.1266  0.0000
 6269TIP3    H118813   5.847   3.694   1.631  1.8542  0.9030 -0.3938
 6269TIP3    H218814   5.739   3.778   1.566  0.9357  0.7875  0.9483
 6270TIP3   OH218815   4.059   0.536   3.104  0.1477 -0.4288  0.1303
 6270TIP3    H118816   4.101   0.490   3.031  0.8268  1.7480 -0.9367
 6270TIP3    H218817   4.125   0.597   3.135 -0.9075  0.2607  1.0861
 6271TIP3   OH218818   5.573   1.771   4.501 -0.3243  0.1097 -0.3989
 6271TIP3    H118819   5.515   1.696   4.511 -0.0058 -0.0907 -0.0456
 6271TIP3    H218820   5.655   1.734   4.470 -0.1208  0.2965 -0.0864
 6272TIP3   OH218821   3.260   4.964   0.384  0.2134 -0.8929 -0.2545
 6272TIP3    H118822   3.209   5.045   0.393  0.9425 -0.4942  0.4002
 6272TIP3    H218823   3.195   4.896   0.371 -0.3800 -0.0062 -2.5336
 6273TIP3   OH218824   3.920   1.017   2.163  0.2844 -0.0680 -0.1050
 6273TIP3    H118825   3.952   1.044   2.078  0.0539  0.2083 -0.1040
 6273TIP3    H218826   3.942   0.924   2.168  0.4321 -0.0498 -0.4018
 6274TIP3   OH218827   2.440   5.658   0.011 -0.0774 -0.3600 -0.1936
 6274TIP3    H118828   2.479   5.573   0.032  1.6345 -0.2076 -2.3804
 6274TIP3    H218829   2.429   5.701   0.096  1.1234 -1.8780  0.7798
 6275TIP3   OH218830   4.214   0.354   1.568  0.0071  0.1170  0.2407
 6275TIP3    H118831   4.242   0.356   1.477 -0.1721  0.2604  0.1875
 6275TIP3    H218832   4.215   0.262   1.592  3.1023  0.2469  1.0353
 6276TIP3   OH218833   6.103   0.878   0.247 -0.4385 -0.3009  0.4388
 6276TIP3    H118834   6.012   0.877   0.220 -0.8971 -0.3531  1.9313
 6276TIP3    H218835   6.129   0.970   0.240 -0.4407 -0.3638 -0.4766
 6277TIP3   OH218836   4.478   3.047   2.420  0.1732 -0.0513 -0.0608
 6277TIP3    H118837   4.402   3.105   2.431  0.2302  0.1873 -0.8458
 6277TIP3    H218838   4.453   2.988   2.349  0.2840 -0.7270  0.4463
 6278TIP3   OH218839   0.884   3.148   3.905  0.0662  0.0953  0.4103
 6278TIP3    H118840   0.837   3.101   3.835 -0.6065 -1.2159  1.6945
 6278TIP3    H218841   0.816   3.199   3.949  0.3077  0.1074  0.7687
 6279TIP3   OH218842   0.841   4.244   2.062  0.4086 -0.0619 -0.5321
 6279TIP3    H118843   0.775   4.302   2.102 -1.1818 -1.3591 -1.1724
 6279TIP3    H218844   0.801   4.157   2.064  2.7693 -1.2045  0.4579
 6280TIP3   OH218845   0.338   4.097   3.061  0.0986  0.1997  0.0688
 6280TIP3    H118846   0.426   4.121   3.091 -0.0321  1.3217 -0.4077
 6280TIP3    H218847   0.282   4.110   3.138  0.1260  0.9031 -0.0219
 6281TIP3   OH218848   1.438   2.667   1.807  0.6904  0.5354  0.2652
 6281TIP3    H118849   1.441   2.665   1.711  1.9560 -2.1999  0.2698
 6281TIP3    H218850   1.368   2.607   1.830  1.1124  0.3302  1.0527
 6282TIP3   OH218851   0.010   0.277   2.673 -0.4223  0.1230 -0.0522
 6282TIP3    H118852   0.008   0.249   2.764  0.7360 -1.8887 -0.5863
 6282TIP3    H218853   0.085   0.231   2.635 -0.9697  0.7731 -2.0566
 6283TIP3   OH218854   1.529   4.890   2.281  0.0018  0.0352 -0.3261
 6283TIP3    H118855   1.530   4.975   2.236  0.0688 -0.8551 -2.0898
 6283TIP3    H218856   1.525   4.826   2.210  1.3160 -1.4902  0.9274
 6284TIP3   OH218857   5.356   4.008   1.114 -0.0908  0.5272 -0.0070
 6284TIP3    H118858   5.374   3.914   1.111 -0.8466  0.3856 -0.4734
 6284TIP3    H218859   5.374   4.033   1.204  1.1308  0.1484 -0.1330
 6285TIP3   OH218860   0.788   4.275   2.794  0.7965 -0.2596 -0.1393
 6285TIP3    H118861   0.874   4.310   2.819  1.5059 -1.0084 -1.4379
 6285TIP3    H218862   0.750   4.343   2.739  2.0223 -1.2787 -2.3616
 6286TIP3   OH218863   4.966   1.807   0.059 -0.2213  0.1097 -0.1553
 6286TIP3    H118864   5.056   1.829   0.081  0.2898 -2.0470  0.0645
 6286TIP3    H218865   4.972   1.731   0.002 -1.9252 -0.6228  0.5548
 6287TIP3   OH218866   2.812   5.926   3.981 -0.2466  0.4113  0.1075
 6287TIP3    H118867   2.813   5.831   3.988 -0.3975  0.3798 -0.3049
 6287TIP3    H218868   2.771   5.956   4.062 -0.4863  0.1124  0.0954
 6288TIP3   OH218869   5.637   2.994   4.513 -0.0757 -0.5847 -0.4836
 6288TIP3    H118870   5.641   3.062   4.446 -2.2852 -1.3261 -1.4625
 6288TIP3    H218871   5.625   2.913   4.464  0.5385 -1.4487  0.7374
 6289TIP3   OH218872   3.176   0.387   4.615 -0.4755 -0.5843  0.2432
 6289TIP3    H118873   3.262   0.344   4.611 -0.6925 -0.9516 -0.8472
 6289TIP3    H218874   3.120   0.326   4.662 -0.0569 -0.1647  1.3244
 6290TIP3   OH218875   5.300   0.181   1.873 -0.3658 -0.0331  0.2224
 6290TIP3    H118876   5.243   0.241   1.824  0.0265 -0.3568 -0.6526
 6290TIP3    H218877   5.294   0.211   1.963 -1.1065  0.5869 -0.0196
 6291TIP3   OH218878   0.558   0.323   3.684  0.1448  0.4400 -0.5344
 6291TIP3    H118879   0.487   0.294   3.741  2.5320 -1.3185  1.7656
 6291TIP3    H218880   0.535   0.287   3.598 -1.3753 -0.6984  0.2833
 6292TIP3   OH218881   0.846   5.536   0.194  0.3276  0.6613 -0.5641
 6292TIP3    H118882   0.756   5.514   0.172  0.8724 -1.9161 -0.5637
 6292TIP3    H218883   0.848   5.540   0.289  0.7040 -2.3717 -0.3264
 6293TIP3   OH218884   1.686   5.509   5.066  0.1016  0.4308  0.0116
 6293TIP3    H118885   1.641   5.554   4.995  1.2220  1.5200 -0.0341
 6293TIP3    H218886   1.619   5.501   5.134 -0.2512  1.8423 -0.1266
 6294TIP3   OH218887   1.544   5.601   0.237 -0.2007 -0.2235  0.2560
 6294TIP3    H118888   1.471   5.550   0.274  0.0728  0.4875  1.8435
 6294TIP3    H218889   1.604   5.613   0.310  0.4617  1.0824 -0.4735
 6295TIP3   OH218890   0.884   2.294   3.072  0.5044  0.0356 -0.0351
 6295TIP3    H118891   0.853   2.219   3.022 -0.9001  0.8762 -0.4581
 6295TIP3    H218892   0.920   2.354   3.006 -0.9099  0.9323 -0.0381
 6296TIP3   OH218893   3.517   5.433   1.005 -0.6037 -0.1395 -0.1309
 6296TIP3    H118894   3.467   5.466   1.080 -1.0505 -0.1236 -0.4336
 6296TIP3    H218895   3.511   5.502   0.940 -1.3056 -0.6901 -0.6647
 6297TIP3   OH218896   5.955   5.607   0.796 -0.6986  0.6833  0.0760
 6297TIP3    H118897   6.015   5.676   0.822 -1.0743  0.8678  0.4546
 6297TIP3    H218898   5.998   5.564   0.722 -0.3379  1.1405  0.0214
 6298TIP3   OH218899   2.344   4.718   2.179  0.1908 -0.0852 -0.2196
 6298TIP3    H118900   2.316   4.804   2.212  0.7452  0.3420 -0.8351
 6298TIP3    H218901   2.348   4.729   2.084  2.0380 -0.2333 -0.1887
 6299TIP3   OH218902   1.930   3.234   2.385  0.3783 -0.0261  0.0445
 6299TIP3    H118903   1.991   3.197   2.449  1.3306 -0.1213 -0.8811
 6299TIP3    H218904   1.962   3.202   2.300 -0.8621  0.0758 -0.4892
 6300TIP3   OH218905   5.729   2.850   2.806  0.0242 -0.1313  0.8124
 6300TIP3    H118906   5.818   2.865   2.837  0.0985  1.5412 -0.1006
 6300TIP3    H218907   5.724   2.898   2.723 -1.9211  0.4184  1.1901
 6301TIP3   OH218908   3.090   1.372   3.786  0.0092 -0.4946  0.2647
 6301TIP3    H118909   3.146   1.449   3.781  0.9097 -1.2154 -1.9440
 6301TIP3    H218910   3.004   1.406   3.812  0.7478  1.0298  0.7952
 6302TIP3   OH218911   2.473   2.273   0.867  0.7072 -0.3483  0.0607
 6302TIP3    H118912   2.387   2.233   0.852  1.4745 -2.1163  0.1444
 6302TIP3    H218913   2.517   2.268   0.782  1.7818 -2.2059  0.6630
 6303TIP3   OH218914   3.439   0.704   2.395  0.5169  0.1471 -0.4142
 6303TIP3    H118915   3.472   0.720   2.484 -1.9877 -1.2937  0.8909
 6303TIP3    H218916   3.472   0.617   2.373  0.6746  0.2742 -0.6828
 6304TIP3   OH218917   5.205   2.763   1.743  0.0300 -0.1261  0.2696
 6304TIP3    H118918   5.288   2.779   1.696  0.5133  0.3161  1.2431
 6304TIP3    H218919   5.212   2.816   1.822 -1.6804  0.8245 -0.1628
 6305TIP3   OH218920   5.618   0.460   3.672 -0.4850 -0.0713 -0.1136
 6305TIP3    H118921   5.567   0.409   3.735 -0.7057  0.0167 -0.2186
 6305TIP3    H218922   5.637   0.400   3.601  0.0282 -0.2567  0.1776
 6306TIP3   OH218923   3.363   0.199   0.039 -0.1527 -0.1603  0.3050
 6306TIP3    H118924   3.444   0.248   0.054 -0.1306 -0.3750  0.9386
 6306TIP3    H218925   3.296   0.249   0.086 -0.6513  0.7414 -1.3129
 6307TIP3   OH218926   0.171   2.868   1.084  0.0771  0.2033 -0.0724
 6307TIP3    H118927   0.104   2.906   1.028 -0.3714  0.5690  0.6926
 6307TIP3    H218928   0.188   2.934   1.151  0.1416 -0.4624  0.5904
 6308TIP3   OH218929   2.094   4.752   1.289 -0.6863 -0.1944 -0.1954
 6308TIP3    H118930   2.089   4.848   1.284  3.7248  0.3079  0.7958
 6308TIP3    H218931   2.079   4.723   1.199 -0.1665  1.6398 -0.9305
 6309TIP3   OH218932   0.109   0.265   0.927 -0.0483 -0.1594  0.5119
 6309TIP3    H118933   0.180   0.287   0.987  0.1682  0.5153  0.0288
 6309TIP3    H218934   0.038   0.325   0.951  0.7786  1.6613 -1.2517
 6310TIP3   OH218935   5.463   2.402   5.069  0.2065  0.0235  0.5239
 6310TIP3    H118936   5.471   2.465   4.998 -0.3235 -2.0418 -1.4810
 6310TIP3    H218937   5.380   2.424   5.112 -1.8806 -1.3958 -2.4585
 6311TIP3   OH218938   2.819  -0.008   4.702  0.2392  0.2050  0.0362
 6311TIP3    H118939   2.810   0.070   4.757 -3.0105 -0.5692  0.8172
 6311TIP3    H218940   2.889  -0.059   4.744  1.6220  2.1021  0.1653
 6312TIP3   OH218941   1.926   2.956   2.149  0.5029 -0.1755  0.3845
 6312TIP3    H118942   1.900   2.865   2.134 -0.5329  0.2921 -0.9496
 6312TIP3    H218943   1.942   2.962   2.243  2.5668 -2.1987  0.2437
 6313TIP3   OH218944   5.548   1.963   0.564  0.3260  0.0562 -0.0557
 6313TIP3    H118945   5.503   1.888   0.525  2.0343 -0.3920 -1.3078
 6313TIP3    H218946   5.477   2.021   0.593 -1.0715 -0.5775 -1.9581
 6314TIP3   OH218947   6.233   3.323   4.688 -0.4750 -0.2093 -0.4514
 6314TIP3    H118948   6.190   3.379   4.752  0.5464  0.3522 -0.2285
 6314TIP3    H218949   6.210   3.360   4.603  1.8055  1.8769 -0.2792
 6315TIP3   OH218950   4.954   1.911   1.949 -0.0743 -0.0052  0.1391
 6315TIP3    H118951   4.878   1.953   1.908  1.2815 -0.4842 -3.2208
 6315TIP3    H218952   4.923   1.823   1.971 -1.3979  0.9000  2.1228
 6316TIP3   OH218953   5.539   5.863   3.589 -0.1413 -0.0992  0.0927
 6316TIP3    H118954   5.612   5.919   3.615  0.9394 -1.5689  0.3147
 6316TIP3    H218955   5.579   5.790   3.543 -1.6373 -0.0165 -1.4600
 6317TIP3   OH218956   3.387   1.242   4.482  0.1933 -0.7246 -0.2029
 6317TIP3    H118957   3.380   1.171   4.546  1.0409 -2.1509 -1.6117
 6317TIP3    H218958   3.406   1.198   4.399  1.4680  1.1967 -1.0077
 6318TIP3   OH218959   1.000   4.980   2.439 -0.4978  0.2829  0.7759
 6318TIP3    H118960   1.060   4.998   2.366 -1.6659 -1.0117 -0.5872
 6318TIP3    H218961   0.916   5.015   2.409 -0.8736  0.2959  1.8060
 6319TIP3   OH218962   6.103   1.435   3.785  0.4359  0.0977  0.7163
 6319TIP3    H118963   6.166   1.449   3.714 -0.7314  0.1722 -0.3476
 6319TIP3    H218964   6.157   1.423   3.863  1.8889 -2.1167 -0.5063
 6320TIP3   OH218965   1.277   2.156   4.799  0.2255  0.2364  0.4297
 6320TIP3    H118966   1.254   2.068   4.829  0.0679 -0.5803 -1.9373
 6320TIP3    H218967   1.213   2.176   4.731 -0.0858  2.4484  1.2867
 6321TIP3   OH218968   0.742   2.008   0.329  0.6515  0.3286 -0.1879
 6321TIP3    H118969   0.788   2.085   0.363  0.1708  0.3972  0.3125
 6321TIP3    H218970   0.656   2.040   0.304  0.0846 -0.2313  0.9587
 6322TIP3   OH218971   2.650   3.233   1.129  0.7431  0.3434  0.2111
 6322TIP3    H118972   2.657   3.191   1.043 -1.0905 -1.5988  0.9283
 6322TIP3    H218973   2.560   3.267   1.131 -1.0842 -3.8160  2.9749
 6323TIP3   OH218974   2.715   3.364   0.645 -0.0901 -0.2482  0.5406
 6323TIP3    H118975   2.708   3.371   0.740  0.8136 -1.8675  0.7567
 6323TIP3    H218976   2.808   3.375   0.626  0.0715 -2.0867  0.0865
 6324TIP3   OH218977   0.194   0.092   2.853  0.4234  0.1760 -0.1293
 6324TIP3    H118978   0.239   0.165   2.895 -2.9416  1.2265  2.0482
 6324TIP3    H218979   0.248   0.015   2.873  2.8611  1.6765 -0.5374
 6325TIP3   OH218980   3.279   2.543   3.299 -0.2112  0.1743  0.1658
 6325TIP3    H118981   3.370   2.534   3.271  0.1297  3.6421 -0.2999
 6325TIP3    H218982   3.282   2.541   3.394  0.7862  2.3334  0.2544
 6326TIP3   OH218983   1.805   0.605   3.872 -0.2615 -0.2303 -0.8382
 6326TIP3    H118984   1.862   0.575   3.801  0.0676  1.4459 -1.3109
 6326TIP3    H218985   1.860   0.601   3.950  0.0801  0.0927 -1.0633
 6327TIP3   OH218986   3.177   2.697   2.664  0.6145 -0.1015 -0.4042
 6327TIP3    H118987   3.165   2.768   2.600  0.3075 -0.5034 -0.7992
 6327TIP3    H218988   3.176   2.741   2.749  1.6431  0.5225 -0.6971
 6328TIP3   OH218989   5.892   3.813   2.979  0.7904 -0.2366 -0.2288
 6328TIP3    H118990   5.972   3.766   2.956  0.6058 -0.6124 -0.1057
 6328TIP3    H218991   5.834   3.801   2.903  0.4745 -0.8147  0.1009
 6329TIP3   OH218992   2.422   5.268   1.720 -0.6644 -0.3267 -0.1319
 6329TIP3    H118993   2.481   5.298   1.789 -0.1613  1.5020 -1.2682
 6329TIP3    H218994   2.479   5.236   1.651 -1.1558 -1.9587  0.1931
 6330TIP3   OH218995   0.490   2.394   4.116 -0.5106 -0.0446 -0.2647
 6330TIP3    H118996   0.502   2.320   4.176  1.7542 -0.5791 -1.2501
 6330TIP3    H218997   0.556   2.380   4.048 -1.0892  2.0603 -1.3411
 6331TIP3   OH218998   1.623   4.383   1.545  0.3404 -0.0538 -0.1625
 6331TIP3    H118999   1.601   4.329   1.469 -1.5897  0.0405  0.2741
 6331TIP3    H219000   1.587   4.335   1.620  2.7047 -0.4329  0.8188
 6332TIP3   OH219001   0.458   4.288   3.281 -0.5933 -0.7414 -0.3993
 6332TIP3    H119002   0.500   4.279   3.196  0.9856 -0.3296  0.3055
 6332TIP3    H219003   0.394   4.358   3.269  1.0441  0.7686 -0.7688
 6333TIP3   OH219004   0.271   2.664   1.329  0.3995  0.1067 -0.1607
 6333TIP3    H119005   0.294   2.625   1.244  0.8953  1.8784 -0.9060
 6333TIP3    H219006   0.356   2.685   1.369  0.2520 -2.5247  1.7529
 6334TIP3   OH219007   5.057   3.903   4.998 -0.2501  0.1107 -0.5068
 6334TIP3    H119008   5.063   3.842   4.926 -0.0109  0.3796 -0.7204
 6334TIP3    H219009   5.144   3.943   5.002 -0.6065  0.9436 -0.8230
 6335TIP3   OH219010   5.236   5.129   2.557  0.4451 -0.1251  0.4685
 6335TIP3    H119011   5.310   5.188   2.538 -0.9113  1.3988 -0.3441
 6335TIP3    H219012   5.271   5.041   2.542  2.0640  0.5516  0.0138
 6336TIP3   OH219013   2.459   2.542   1.906 -0.6509  0.4166 -0.0662
 6336TIP3    H119014   2.488   2.499   1.987  1.1601  1.3586 -0.1744
 6336TIP3    H219015   2.414   2.473   1.858 -0.7473 -0.4684  1.2349
 6337TIP3   OH219016   6.010   0.039   2.743 -0.3220  0.0593  0.4053
 6337TIP3    H119017   6.009   0.093   2.821 -1.7375 -0.0836  0.5245
 6337TIP3    H219018   5.989   0.099   2.672 -0.2485 -0.0238  0.3133
 6338TIP3   OH219019   0.343   1.660   1.998 -0.6967 -0.1208  0.2393
 6338TIP3    H119020   0.335   1.573   2.036 -1.5404 -0.4326 -0.6127
 6338TIP3    H219021   0.261   1.674   1.950  0.3606  0.1446 -1.6232
 6339TIP3   OH219022   6.298   1.401   1.068  0.7989  0.2141 -0.2778
 6339TIP3    H119023   6.277   1.493   1.078  0.3405  0.1980 -1.0131
 6339TIP3    H219024   6.322   1.392   0.975  0.6764 -0.4303 -0.2501
 6340TIP3   OH219025   3.485   2.809   0.720 -0.7123 -0.2920 -0.4053
 6340TIP3    H119026   3.474   2.718   0.748 -1.4370  0.1326  0.7301
 6340TIP3    H219027   3.564   2.839   0.765 -1.9422  0.4260  1.3890
 6341TIP3   OH219028   1.324   3.996   3.408 -0.1860  0.3212  0.1024
 6341TIP3    H119029   1.323   3.923   3.345  0.5376  1.1516 -0.9068
 6341TIP3    H219030   1.301   4.073   3.355 -1.5098  0.7684  1.2582
 6342TIP3   OH219031   2.624   0.704   1.080 -0.1837  0.6345  0.2616
 6342TIP3    H119032   2.544   0.679   1.034 -0.1634  1.2123 -0.1050
 6342TIP3    H219033   2.632   0.798   1.064  1.2098  0.3855 -0.7152
 6343TIP3   OH219034   2.460   3.472   3.556  0.0404  0.8078  0.2599
 6343TIP3    H119035   2.398   3.511   3.494 -0.9159  0.0712  0.7321
 6343TIP3    H219036   2.413   3.469   3.639 -0.3002 -2.2031  0.0448
 6344TIP3   OH219037   5.002   1.417   3.509 -0.4420  0.1047 -0.0742
 6344TIP3    H119038   4.967   1.483   3.569  0.5131  0.1925  0.4226
 6344TIP3    H219039   4.932   1.353   3.500 -0.5804  0.0186  1.2743
 6345TIP3   OH219040   4.678   3.171   4.749  0.5918 -0.1490  0.1479
 6345TIP3    H119041   4.707   3.079   4.748  2.1385  0.2870  1.2792
 6345TIP3    H219042   4.681   3.196   4.841  0.2742  1.0682 -0.1598
 6346TIP3   OH219043   3.891   2.889   4.292 -0.0279  0.5342 -0.2555
 6346TIP3    H119044   3.806   2.857   4.321  0.2488 -0.3658 -0.4180
 6346TIP3    H219045   3.889   2.882   4.197  0.8855 -1.2608 -0.1834
 6347TIP3   OH219046   2.886   3.486   5.063  0.0487 -0.0916  0.2186
 6347TIP3    H119047   2.928   3.453   5.143  0.0748  2.2444  1.2388
 6347TIP3    H219048   2.918   3.428   4.994  0.9634 -1.4502  1.7155
 6348TIP3   OH219049   0.571   0.618   0.035 -0.5644  0.3696 -0.1392
 6348TIP3    H119050   0.606   0.580  -0.046  0.3253  0.3992  0.2167
 6348TIP3    H219051   0.649   0.651   0.081 -1.2044  1.6916  0.0381
 6349TIP3   OH219052   3.583   2.469   2.244 -0.1802  0.0192  0.2447
 6349TIP3    H119053   3.490   2.459   2.261 -0.0482  0.1786  1.1219
 6349TIP3    H219054   3.621   2.491   2.329  0.3743  1.9977 -0.4567
 6350TIP3   OH219055   4.117   4.687   1.617 -0.0944  0.4094 -0.2535
 6350TIP3    H119056   4.181   4.629   1.576  0.8620  1.3912 -0.1790
 6350TIP3    H219057   4.169   4.742   1.676 -0.7170  2.4617 -1.5373
 6351TIP3   OH219058   3.578   2.261   4.386 -0.0220 -0.3064 -0.6027
 6351TIP3    H119059   3.552   2.222   4.470 -3.1456  0.8095 -0.9032
 6351TIP3    H219060   3.656   2.313   4.407 -0.7128 -0.0545  1.6487
 6352TIP3   OH219061   4.283   1.869   0.414  0.0261  0.6550  0.2370
 6352TIP3    H119062   4.359   1.891   0.361  0.6055  0.0236  0.7918
 6352TIP3    H219063   4.265   1.777   0.393 -2.0625  1.3723 -1.6885
 6353TIP3   OH219064   3.847   5.786   1.723  0.1764 -0.8503 -0.3139
 6353TIP3    H119065   3.926   5.835   1.744 -0.0578  0.4711 -2.2333
 6353TIP3    H219066   3.796   5.786   1.803  1.7723 -1.0854  0.7424
 6354TIP3   OH219067   3.571   4.745   1.893  0.2756  0.0688  0.3316
 6354TIP3    H119068   3.580   4.837   1.867 -0.9933  0.1035 -0.0728
 6354TIP3    H219069   3.476   4.731   1.897  0.2991 -2.1085 -2.9976
 6355TIP3   OH219070   0.902   2.866   3.524 -0.5941  0.2915 -0.5417
 6355TIP3    H119071   0.808   2.863   3.545 -0.7386  0.9469 -1.0623
 6355TIP3    H219072   0.914   2.793   3.462 -0.8717  0.5141 -0.8686
 6356TIP3   OH219073   3.944   3.941   1.443  1.2140 -0.1265  0.2303
 6356TIP3    H119074   3.977   3.951   1.354 -0.7269  1.9334 -0.3598
 6356TIP3    H219075   4.004   3.992   1.497  0.8630  0.9820 -0.3735
 6357TIP3   OH219076   4.133   5.274   1.900  0.3982 -0.3910  0.4204
 6357TIP3    H119077   4.147   5.354   1.951 -2.1650  0.8845 -0.6826
 6357TIP3    H219078   4.186   5.287   1.821 -0.6632  0.7052 -0.1534
 6358TIP3   OH219079   0.005   3.667   3.204 -0.1141  0.5513 -0.0851
 6358TIP3    H119080   0.045   3.596   3.254  0.5385  0.0638 -1.2752
 6358TIP3    H219081   0.065   3.682   3.131 -0.9405  1.4031 -0.6065
 6359TIP3   OH219082   5.593   0.723   1.527  0.1484  0.0794 -0.0951
 6359TIP3    H119083   5.629   0.692   1.610  0.8720  0.3059 -0.3117
 6359TIP3    H219084   5.669   0.727   1.468 -0.0246  1.6493 -0.2494
 6360TIP3   OH219085   1.307   3.329   1.657  0.5900  0.9697 -0.3507
 6360TIP3    H119086   1.347   3.251   1.618 -0.2556  0.4126 -0.1220
 6360TIP3    H219087   1.364   3.351   1.730 -0.5398 -0.9919  1.2093
 6361TIP3   OH219088   5.528   3.342   0.473 -0.5205  0.1763 -0.1165
 6361TIP3    H119089   5.528   3.437   0.462 -1.8250  0.0064 -2.0404
 6361TIP3    H219090   5.616   3.322   0.505 -0.1595  1.9992  0.1407
 6362TIP3   OH219091   0.344   0.607   2.318 -0.5328  0.3795 -0.3824
 6362TIP3    H119092   0.435   0.635   2.319 -0.8287  1.3488 -0.0538
 6362TIP3    H219093   0.341   0.533   2.380 -0.3392  1.5517  1.0759
 6363TIP3   OH219094   0.801   3.643   3.064  0.9259  0.2712 -0.1180
 6363TIP3    H119095   0.759   3.632   3.150 -0.3116 -0.1724 -0.7470
 6363TIP3    H219096   0.810   3.554   3.031  2.2529  0.3787 -0.0698
 6364TIP3   OH219097   0.925   2.067   0.604 -0.8247 -0.6731 -0.1020
 6364TIP3    H119098   0.838   2.041   0.634 -1.7819  0.0542 -2.1299
 6364TIP3    H219099   0.910   2.144   0.550  1.4136  1.1771  1.7511
 6365TIP3   OH219100   0.131   5.908   1.097 -0.0336  0.1110  0.6278
 6365TIP3    H119101   0.165   5.859   1.172 -1.1674  0.1931  1.2287
 6365TIP3    H219102   0.039   5.924   1.120  0.1049  1.8281  0.0958
 6366TIP3   OH219103   0.781   0.627   1.243 -0.3252  0.1947 -1.1341
 6366TIP3    H119104   0.737   0.546   1.219  0.5798  0.0030 -2.2436
 6366TIP3    H219105   0.717   0.696   1.223 -1.2332 -0.2302  0.1545
 6367TIP3   OH219106   4.925   2.385   2.372 -0.0841  0.0850 -0.3225
 6367TIP3    H119107   4.947   2.433   2.452  0.7701 -1.9574  0.7531
 6367TIP3    H219108   4.952   2.295   2.390 -1.5385 -0.8169 -2.2494
 6368TIP3   OH219109   0.826   3.105   1.983  0.0900  0.1348  1.2011
 6368TIP3    H119110   0.905   3.052   1.990 -0.6173 -1.1172  0.2296
 6368TIP3    H219111   0.854   3.194   2.006  1.3842 -0.5753  2.5204
 6369TIP3   OH219112   1.641   4.370   0.880  0.1184 -0.3683  0.6791
 6369TIP3    H119113   1.620   4.461   0.859 -0.9927 -0.6125  0.7156
 6369TIP3    H219114   1.558   4.331   0.907  0.0696 -1.9938 -1.5309
 6370TIP3   OH219115   4.036   2.631   1.999 -0.2610  0.0232  0.2322
 6370TIP3    H119116   4.114   2.590   2.036  0.7354 -0.7223 -2.4699
 6370TIP3    H219117   4.060   2.722   1.985  0.2426 -0.2444 -0.7604
 6371TIP3   OH219118   0.579   1.733   1.006 -0.2715 -0.6419  0.0554
 6371TIP3    H119119   0.582   1.638   1.012 -0.5971 -0.6278  0.4657
 6371TIP3    H219120   0.487   1.755   1.021 -0.0179 -0.1935  1.0254
 6372TIP3   OH219121   4.420   5.500   3.596 -0.1046  0.0800 -0.4602
 6372TIP3    H119122   4.355   5.560   3.632 -1.0426 -0.1380 -1.7393
 6372TIP3    H219123   4.492   5.556   3.568  0.0985  0.3598  0.5851
 6373TIP3   OH219124   3.307   2.173   4.995 -0.6982  0.0436 -0.2647
 6373TIP3    H119125   3.334   2.263   4.975 -0.7945 -0.3000 -2.1597
 6373TIP3    H219126   3.387   2.122   4.988 -0.6804 -0.0543  0.6070
 6374TIP3   OH219127   5.644   5.015   5.189  0.2397  0.1139  0.6788
 6374TIP3    H119128   5.704   4.942   5.174  1.5584  1.2190  0.4516
 6374TIP3    H219129   5.573   5.001   5.126  0.8697 -0.5355  0.0969
 6375TIP3   OH219130   5.394   3.911   4.335 -0.3721 -0.4533  0.3552
 6375TIP3    H119131   5.437   3.989   4.370 -0.4845 -0.2912  0.1322
 6375TIP3    H219132   5.301   3.926   4.353 -0.3416 -0.7874  0.8080
 6376TIP3   OH219133   1.616   5.744   1.138 -0.1890  0.5086 -0.0742
 6376TIP3    H119134   1.569   5.694   1.071 -0.7693 -0.0095  0.7042
 6376TIP3    H219135   1.703   5.704   1.141 -0.4966 -0.1627  0.2079
 6377TIP3   OH219136   1.487   3.893   0.860  0.1861 -0.0212 -0.2047
 6377TIP3    H119137   1.504   3.834   0.786 -2.4637 -0.0852 -0.8858
 6377TIP3    H219138   1.556   3.874   0.923  0.6737 -2.2810 -1.3324
 6378TIP3   OH219139   5.333   4.567   2.948  0.0151  0.7348 -0.6227
 6378TIP3    H119140   5.344   4.658   2.978  0.0645  1.1972 -1.9504
 6378TIP3    H219141   5.414   4.548   2.900  0.2100 -0.1964  0.0500
 6379TIP3   OH219142   0.744   2.132   1.724 -0.0557 -0.2806  0.4039
 6379TIP3    H119143   0.794   2.153   1.645 -0.4688 -0.9249 -0.0392
 6379TIP3    H219144   0.807   2.140   1.795 -0.0250  1.8125  0.2230
 6380TIP3   OH219145   5.770   1.798   0.658 -0.1942 -0.1953  0.0320
 6380TIP3    H119146   5.728   1.752   0.730  0.2767 -1.8465 -0.7073
 6380TIP3    H219147   5.704   1.860   0.628 -1.7212 -1.8949 -0.3247
 6381TIP3   OH219148   4.423   4.809   1.165 -1.1602 -0.6156  0.1468
 6381TIP3    H119149   4.456   4.850   1.085 -2.6324 -0.6017 -0.4874
 6381TIP3    H219150   4.419   4.716   1.145 -3.5363 -0.4052 -0.6015
 6382TIP3   OH219151   2.038   0.789   1.191 -0.5433 -0.5164 -0.3317
 6382TIP3    H119152   2.012   0.706   1.230  1.2376 -1.1242 -0.3277
 6382TIP3    H219153   2.026   0.853   1.261 -0.4574 -1.0486  0.1780
 6383TIP3   OH219154   5.922   0.922   2.871 -0.9767 -0.0613 -0.1133
 6383TIP3    H119155   5.963   0.958   2.792 -0.0109 -2.2283 -0.6826
 6383TIP3    H219156   5.994   0.882   2.919 -1.4179  1.8447  2.3290
 6384TIP3   OH219157   3.306   1.615   0.901 -0.3841  0.1871  0.0210
 6384TIP3    H119158   3.277   1.685   0.843 -1.5496 -0.5355 -0.2969
 6384TIP3    H219159   3.276   1.642   0.988 -0.0439  0.5049  0.0411
 6385TIP3   OH219160   5.115   4.235   4.537 -0.6713  0.2684 -0.3780
 6385TIP3    H119161   5.144   4.230   4.628 -1.9567 -3.6750  0.0366
 6385TIP3    H219162   5.026   4.270   4.541 -0.6402  0.3182 -0.1411
 6386TIP3   OH219163   2.036   0.441   4.796 -0.0876  0.3803  0.0630
 6386TIP3    H119164   2.067   0.531   4.807  3.1292 -0.6682  0.7496
 6386TIP3    H219165   2.066   0.415   4.709 -1.5591  0.1105 -0.3972
 6387TIP3   OH219166   5.408   5.605   2.783 -0.5730 -0.4493 -0.2267
 6387TIP3    H119167   5.442   5.678   2.731  0.7896  0.5535  1.9194
 6387TIP3    H219168   5.314   5.607   2.768 -0.2292 -0.4155 -2.8307
 6388TIP3   OH219169   0.613   0.116   0.602  0.8804  0.3367 -0.3981
 6388TIP3    H119170   0.536   0.087   0.554  1.2595  0.0052 -0.8140
 6388TIP3    H219171   0.578   0.168   0.675  0.2783  0.3574 -0.6977
 6389TIP3   OH219172   4.877   0.887   2.385  0.3244  0.4406 -0.0551
 6389TIP3    H119173   4.858   0.945   2.459  1.6827  1.0340 -0.1367
 6389TIP3    H219174   4.847   0.935   2.308 -0.0525  0.3099  0.0062
 6390TIP3   OH219175   0.475   3.982   4.377 -0.2730  0.4550  0.0501
 6390TIP3    H119176   0.472   3.888   4.390  0.9120  0.2671 -0.8225
 6390TIP3    H219177   0.409   4.017   4.437 -0.5574 -0.8993  0.5629
 6391TIP3   OH219178   1.042   4.482   1.610  0.1600  0.3340  0.2740
 6391TIP3    H119179   1.015   4.518   1.526  1.8495 -0.2498 -0.5680
 6391TIP3    H219180   0.960   4.464   1.656 -0.8574 -0.6028 -1.7813
 6392TIP3   OH219181   4.235   0.788   4.650 -0.2704 -0.4804  0.2610
 6392TIP3    H119182   4.299   0.859   4.660 -1.1944  0.4569 -0.3417
 6392TIP3    H219183   4.224   0.753   4.738  0.9572 -0.5647  0.4011
 6393TIP3   OH219184   2.873   4.177   5.086 -0.7026 -0.4096  0.2000
 6393TIP3    H119185   2.858   4.159   4.994  0.0192 -1.7301  0.3066
 6393TIP3    H219186   2.786   4.190   5.123 -0.9144  2.9076 -1.1148
 6394TIP3   OH219187   6.160   5.381   2.978 -0.3194  0.3570 -0.0680
 6394TIP3    H119188   6.086   5.327   2.951 -0.4494  0.3062  0.3783
 6394TIP3    H219189   6.237   5.334   2.944 -0.5231  0.8317 -1.2347
 6395TIP3   OH219190   2.211   4.193   2.517 -0.5503 -0.3953  0.5820
 6395TIP3    H119191   2.217   4.287   2.532 -1.5043 -0.1270 -0.4982
 6395TIP3    H219192   2.283   4.155   2.566  0.2300  0.9630  0.5262
 6396TIP3   OH219193   3.495   5.381   2.422 -0.2877 -0.4629 -0.1113
 6396TIP3    H119194   3.417   5.366   2.475  0.1332  0.8523  0.9437
 6396TIP3    H219195   3.555   5.427   2.480 -0.2111  2.0101 -1.9814
 6397TIP3   OH219196   1.054   4.935   0.927 -0.8552 -0.1241  0.1153
 6397TIP3    H119197   1.136   4.973   0.898 -1.0056 -0.2146 -0.4427
 6397TIP3    H219198   0.988   5.002   0.908 -1.0172 -0.3641 -0.1943
 6398TIP3   OH219199   3.914   5.351   2.726  0.0463 -0.5357 -0.2701
 6398TIP3    H119200   3.938   5.390   2.810 -0.4718 -1.0304  0.1161
 6398TIP3    H219201   3.953   5.408   2.661 -0.2374  0.3192  0.2940
 6399TIP3   OH219202   3.390   1.867   0.823  0.4928  0.0593 -0.6507
 6399TIP3    H119203   3.469   1.825   0.790  1.1946  0.2027  0.7872
 6399TIP3    H219204   3.392   1.955   0.786  1.3269  0.2555 -0.1538
 6400TIP3   OH219205   2.490   1.171   3.329  0.0793 -0.4177  0.8100
 6400TIP3    H119206   2.526   1.221   3.256 -1.9794  0.8150  0.5618
 6400TIP3    H219207   2.451   1.094   3.290 -0.4430 -0.0868  0.6681
 6401TIP3   OH219208   0.167   2.869   3.981  0.0286  0.0643  0.5150
 6401TIP3    H119209   0.160   2.958   3.948  3.1083  0.2598  0.0905
 6401TIP3    H219210   0.259   2.845   3.967  0.0051 -2.1486  3.2329
 6402TIP3   OH219211   3.714   3.658   2.378  0.8565  0.3033  0.6337
 6402TIP3    H119212   3.643   3.597   2.359  1.4422 -0.4433  0.7812
 6402TIP3    H219213   3.774   3.608   2.433  1.6406  0.8292  0.2741
 6403TIP3   OH219214   0.953   0.979   3.321 -0.5865  0.4387  0.0321
 6403TIP3    H119215   0.886   1.017   3.265 -0.7349 -1.2082 -0.9409
 6403TIP3    H219216   0.992   1.055   3.366 -3.5842  1.3867  1.2636
 6404TIP3   OH219217   5.130   2.849   3.017  0.6818  0.0307  0.1907
 6404TIP3    H119218   5.071   2.857   3.092  1.1887  1.7136  0.4536
 6404TIP3    H219219   5.103   2.768   2.974 -0.6948 -0.1238  1.2623
 6405TIP3   OH219220   2.798   4.122   0.767 -0.0449  0.5395 -0.0801
 6405TIP3    H119221   2.774   4.162   0.684 -0.8070  0.8366  0.2727
 6405TIP3    H219222   2.891   4.140   0.776 -0.3799  2.3722  0.1180
 6406TIP3   OH219223   3.427   4.069   1.391  0.1070 -0.6047  0.1641
 6406TIP3    H119224   3.428   3.974   1.378  0.2808 -0.6622  0.5753
 6406TIP3    H219225   3.519   4.095   1.386 -0.0171 -0.3301 -0.8207
 6407TIP3   OH219226   1.460   3.394   0.750  0.1145 -0.9940  0.3252
 6407TIP3    H119227   1.449   3.405   0.655  1.7543 -1.3815  0.0472
 6407TIP3    H219228   1.378   3.357   0.780 -0.0755 -1.8189 -1.1234
 6408TIP3   OH219229   2.133   3.068   2.474  0.1179  0.1343  0.2191
 6408TIP3    H119230   2.211   3.021   2.444  0.2214  0.7401 -0.4898
 6408TIP3    H219231   2.066   3.000   2.481  0.4865 -0.2589  0.0276
 6409TIP3   OH219232   2.020   2.840   3.365  0.4542 -0.0328 -0.1577
 6409TIP3    H119233   2.015   2.873   3.275  1.9569 -0.9670 -0.6146
 6409TIP3    H219234   1.986   2.912   3.418  2.2259  1.7348 -1.2505
 6410TIP3   OH219235   3.738   0.083   0.200  0.3927  0.2693  0.0208
 6410TIP3    H119236   3.677   0.056   0.268  0.5472 -0.3998 -0.1060
 6410TIP3    H219237   3.806   0.016   0.199  1.2523  1.0996  0.2949
 6411TIP3   OH219238   2.446   4.837   1.527 -0.0591  0.3434 -0.3102
 6411TIP3    H119239   2.422   4.788   1.449  0.4999  2.1630 -1.7048
 6411TIP3    H219240   2.490   4.773   1.583  0.9597 -0.6746 -2.1787
 6412TIP3   OH219241   0.046   2.114   2.238 -0.3906  0.0081 -0.3228
 6412TIP3    H119242   0.024   2.041   2.179  0.2139 -1.5549  1.3189
 6412TIP3    H219243   0.024   2.082   2.325 -1.4913  2.3613  0.3518
 6413TIP3   OH219244   4.718   3.707   1.327 -0.1701 -0.2772  0.5855
 6413TIP3    H119245   4.661   3.664   1.263 -0.4036  0.6227  0.1757
 6413TIP3    H219246   4.797   3.729   1.276 -0.0766 -0.1685  0.7785
 6414TIP3   OH219247   3.219   1.109   1.360 -0.5961  0.2218  0.4744
 6414TIP3    H119248   3.280   1.060   1.416 -0.7110  0.3417  0.7082
 6414TIP3    H219249   3.137   1.060   1.367 -1.0500  1.1125  1.6812
 6415TIP3   OH219250   2.455   1.500   3.966  0.1491  0.2153  0.0806
 6415TIP3    H119251   2.494   1.413   3.973 -0.4729 -0.1587 -0.8871
 6415TIP3    H219252   2.517   1.558   4.009  0.7106 -0.6685  0.4804
 6416TIP3   OH219253   2.120   1.806   1.862 -0.2218 -0.3469 -0.3994
 6416TIP3    H119254   2.174   1.870   1.907  0.2603 -0.9040 -0.1736
 6416TIP3    H219255   2.031   1.823   1.893 -0.3326  1.1381 -1.4177
 6417TIP3   OH219256   1.071   0.078   2.711  0.1369  0.3690 -1.2347
 6417TIP3    H119257   1.098  -0.002   2.666  1.7726  0.3331 -0.2847
 6417TIP3    H219258   0.977   0.067   2.724  0.3538 -1.5218 -0.9326
 6418TIP3   OH219259   5.123   4.277   3.328  0.4667  0.5225 -0.2461
 6418TIP3    H119260   5.098   4.300   3.239 -0.7313 -0.3596 -0.1622
 6418TIP3    H219261   5.093   4.351   3.382 -0.1080  0.4046 -0.4030
 6419TIP3   OH219262   2.297   1.551   3.263 -0.2681  0.6384  0.9533
 6419TIP3    H119263   2.306   1.568   3.169  2.5553 -1.1199  0.7750
 6419TIP3    H219264   2.215   1.501   3.271 -0.3315  0.4444 -0.6258
 6420TIP3   OH219265   1.595   0.475   3.747 -0.0104  0.4831  0.2760
 6420TIP3    H119266   1.520   0.534   3.760 -0.9805 -0.9092  1.3161
 6420TIP3    H219267   1.661   0.505   3.809 -0.4754  0.5258  0.7562
 6421TIP3   OH219268   5.157   5.157   3.965 -0.1287  0.4527 -0.6411
 6421TIP3    H119269   5.114   5.114   4.039  2.0487  0.3250  0.6477
 6421TIP3    H219270   5.210   5.088   3.925 -1.5086  0.4550 -2.5447
 6422TIP3   OH219271   5.928   2.271   3.683  0.1444 -0.1637  0.2333
 6422TIP3    H119272   5.966   2.303   3.601 -2.2288 -1.1891 -1.3935
 6422TIP3    H219273   5.975   2.189   3.701  1.4468  0.6342  0.5478
 6423TIP3   OH219274   0.679   3.591   2.209 -0.2867  0.1416 -0.1448
 6423TIP3    H119275   0.654   3.613   2.120  1.1040  1.0118 -0.3537
 6423TIP3    H219276   0.625   3.648   2.264 -2.4018 -1.6008 -0.2911
 6424TIP3   OH219277   4.541   1.841   3.690  0.5202 -0.1192 -0.7098
 6424TIP3    H119278   4.504   1.772   3.634  1.3474 -0.8401 -0.3726
 6424TIP3    H219279   4.497   1.921   3.660  1.8547 -0.2542 -3.3173
 6425TIP3   OH219280   1.181   3.452   1.434  0.0845 -0.0196 -0.3069
 6425TIP3    H119281   1.230   3.527   1.466  0.6937  0.0085 -1.2571
 6425TIP3    H219282   1.225   3.376   1.473 -0.9817  0.1236  1.2423
 6426TIP3   OH219283   4.107   0.952   3.558  0.2764 -0.0445  0.6565
 6426TIP3    H119284   4.023   0.997   3.553  0.5779  0.7795  2.1695
 6426TIP3    H219285   4.122   0.917   3.470  0.1133  3.0078 -0.6894
 6427TIP3   OH219286   3.523   1.449   0.819 -0.0763 -0.1931  0.1041
 6427TIP3    H119287   3.465   1.515   0.857  1.1665  0.1227  1.5762
 6427TIP3    H219288   3.508   1.454   0.725 -0.9537  1.2848  0.2989
 6428TIP3   OH219289   3.182   4.590   4.592  0.3021  0.6409 -0.4261
 6428TIP3    H119290   3.223   4.564   4.509  0.8864  0.5517 -0.1146
 6428TIP3    H219291   3.250   4.641   4.637  0.0163  0.6183  0.0313
 6429TIP3   OH219292   2.828   1.015   3.828  0.4306  0.2941 -0.3700
 6429TIP3    H119293   2.869   1.044   3.747 -1.7495  0.2347 -1.5814
 6429TIP3    H219294   2.842   1.088   3.889 -0.6125  1.7664 -1.8039
 6430TIP3   OH219295   2.161   5.307   0.754  0.5395 -0.1699  0.3215
 6430TIP3    H119296   2.109   5.253   0.814 -0.6562  0.3457 -0.2001
 6430TIP3    H219297   2.244   5.320   0.799  0.6273 -1.9036  0.7351
 6431TIP3   OH219298   4.417   1.169   2.069  0.7270  0.5391  0.1634
 6431TIP3    H119299   4.331   1.194   2.034  0.9513  1.2866  0.1225
 6431TIP3    H219300   4.441   1.091   2.019 -0.6381 -0.6516  1.2938
 6432TIP3   OH219301   5.220   3.020   4.387  0.1174  0.0959  0.0815
 6432TIP3    H119302   5.128   3.019   4.412  0.1175 -0.7088  0.0563
 6432TIP3    H219303   5.263   3.070   4.457 -0.4605  1.2727 -0.3803
 6433TIP3   OH219304   1.577   0.181   2.080 -0.2814 -0.1245 -0.1665
 6433TIP3    H119305   1.529   0.246   2.131  0.7216  0.3587  0.1802
 6433TIP3    H219306   1.509   0.127   2.040 -1.1850  1.6099 -1.0883
 6434TIP3   OH219307   0.884   1.212   4.193  0.1515  0.1278 -0.3122
 6434TIP3    H119308   0.914   1.186   4.280  0.2058 -1.8228 -0.8789
 6434TIP3    H219309   0.866   1.306   4.201  0.4160  0.0412  1.7187
 6435TIP3   OH219310   5.628   1.508   1.905  0.4238 -0.0918  0.0551
 6435TIP3    H119311   5.723   1.518   1.915  0.4269  0.3608 -0.4090
 6435TIP3    H219312   5.614   1.413   1.910  1.0555 -0.2678 -1.1435
 6436TIP3   OH219313   5.861   3.254   1.588  0.2959  0.0897 -0.1019
 6436TIP3    H119314   5.785   3.313   1.582  0.3905  0.0442 -2.8144
 6436TIP3    H219315   5.824   3.167   1.598 -0.0782  0.0160 -1.8826
 6437TIP3   OH219316   1.550   5.723   2.973 -0.1256  0.5564 -0.0380
 6437TIP3    H119317   1.619   5.695   2.912  0.3038 -0.1965  0.7636
 6437TIP3    H219318   1.588   5.710   3.060 -0.6286  1.8754  0.4072
 6438TIP3   OH219319   5.655   3.791   2.820  0.6167 -0.5858  0.2714
 6438TIP3    H119320   5.665   3.746   2.736  1.1166  0.1850 -0.0983
 6438TIP3    H219321   5.563   3.781   2.842  0.6689 -1.5657  0.0701
 6439TIP3   OH219322   3.289   3.680   3.520  0.2377 -0.6053  0.4566
 6439TIP3    H119323   3.217   3.619   3.534  0.1018 -0.9726 -1.4725
 6439TIP3    H219324   3.247   3.765   3.506  0.2014 -0.7055 -0.0697
 6440TIP3   OH219325   1.615   0.167   0.819  0.3434  0.1144 -0.1822
 6440TIP3    H119326   1.528   0.135   0.844 -0.3590  2.4441  0.5351
 6440TIP3    H219327   1.659   0.184   0.902  0.6225  1.1549 -0.5313
 6441TIP3   OH219328   3.620   0.752   0.147  0.2294 -0.1515  0.4523
 6441TIP3    H119329   3.554   0.730   0.213  0.4628 -0.9418  0.4355
 6441TIP3    H219330   3.702   0.761   0.197  0.2690 -0.0031  0.3628
 6442TIP3   OH219331   4.299   1.119   0.187  0.1395  0.2898 -0.1965
 6442TIP3    H119332   4.303   1.090   0.096 -0.3291  1.3790 -0.5793
 6442TIP3    H219333   4.226   1.071   0.225 -0.6848  1.0084 -0.8416
 6443TIP3   OH219334   5.579   5.539   2.537 -0.3249  0.3251  0.3952
 6443TIP3    H119335   5.495   5.575   2.509 -0.0447  0.2926 -0.5197
 6443TIP3    H219336   5.633   5.539   2.458  0.6372  0.6124  1.0346
 6444TIP3   OH219337   2.936   5.249   0.956 -0.3654  0.2194  0.1240
 6444TIP3    H119338   3.015   5.298   0.979 -0.4872  0.9217 -0.8895
 6444TIP3    H219339   2.920   5.193   1.032  1.0594  0.1106  0.3848
 6445TIP3   OH219340   5.974   0.852   3.199  0.4050  0.4701 -0.3804
 6445TIP3    H119341   6.009   0.813   3.279  1.0864  2.6960  0.4759
 6445TIP3    H219342   6.030   0.818   3.129 -0.1296 -1.4115  0.0399
 6446TIP3   OH219343   2.882   0.923   1.849 -0.4834 -0.2639 -0.2268
 6446TIP3    H119344   2.910   0.847   1.798 -1.3401 -0.1985 -0.8072
 6446TIP3    H219345   2.911   0.999   1.798  0.7292 -0.1808  0.5495
 6447TIP3   OH219346   5.986   5.144   5.036 -0.3221 -0.0461  0.3749
 6447TIP3    H119347   6.045   5.219   5.029  1.1033 -0.9174  2.0056
 6447TIP3    H219348   5.913   5.176   5.089 -0.3116  0.5115  0.0554
 6448TIP3   OH219349   0.067   5.065   1.510  0.5547  0.4400  0.2674
 6448TIP3    H119350   0.076   5.079   1.604  1.1452  1.2730  0.0915
 6448TIP3    H219351  -0.018   5.020   1.500  0.5160  0.3025  1.1909
 6449TIP3   OH219352   3.636   5.628   5.087  0.5504  0.3671 -0.1257
 6449TIP3    H119353   3.701   5.673   5.032 -0.4621  0.3708 -1.3685
 6449TIP3    H219354   3.554   5.674   5.069  0.0899  0.0177  1.0055
 6450TIP3   OH219355   1.476   3.918   3.843 -0.0812 -0.0132  0.5480
 6450TIP3    H119356   1.505   3.827   3.834 -1.3335 -0.4180  0.3992
 6450TIP3    H219357   1.382   3.914   3.828 -0.1784  1.2884  0.7483
 6451TIP3   OH219358   2.049   2.922   0.602 -0.0444 -0.2102 -0.1789
 6451TIP3    H119359   2.127   2.898   0.552 -0.4920 -0.4085 -0.7974
 6451TIP3    H219360   2.046   2.859   0.674  0.0870 -0.5245 -0.4477
 6452TIP3   OH219361   4.386   1.411   2.388  0.5522  0.3969 -0.1207
 6452TIP3    H119362   4.306   1.377   2.347 -1.6949  2.3433  2.2885
 6452TIP3    H219363   4.388   1.503   2.366  1.6291  0.5745  0.6150
 6453TIP3   OH219364   1.208   0.637   1.740 -0.1269 -0.2093 -0.1898
 6453TIP3    H119365   1.222   0.706   1.675 -1.2511  0.2244  0.0163
 6453TIP3    H219366   1.130   0.591   1.710 -0.5260 -0.1491  0.7212
 6454TIP3   OH219367   2.910   4.107   2.122  0.3632  0.3750 -0.5805
 6454TIP3    H119368   2.978   4.110   2.054 -1.1179 -2.0275 -2.3243
 6454TIP3    H219369   2.842   4.166   2.091  0.4037  0.5494 -0.3344
 6455TIP3   OH219370   0.542   5.108   0.385  0.0711 -0.1266  0.4076
 6455TIP3    H119371   0.558   5.049   0.311  0.6762  1.3232 -0.6577
 6455TIP3    H219372   0.449   5.131   0.377 -0.2292 -1.0686  0.9627
 6456TIP3   OH219373   4.912   5.347   2.268 -0.1024 -0.0117  0.3679
 6456TIP3    H119374   4.921   5.342   2.172  1.9469 -1.6800  0.5873
 6456TIP3    H219375   4.848   5.279   2.289 -0.5283  0.3318  0.1950
 6457TIP3   OH219376   2.120   5.920   4.193 -0.7212 -0.2769  0.4439
 6457TIP3    H119377   2.025   5.913   4.192 -0.8169  0.5737 -1.9169
 6457TIP3    H219378   2.150   5.829   4.186 -1.3590 -0.4961  0.4838
 6458TIP3   OH219379   0.755   1.667   2.744 -0.6483  0.0421  0.4680
 6458TIP3    H119380   0.775   1.687   2.835  0.5441  0.4480  0.1293
 6458TIP3    H219381   0.660   1.654   2.743 -1.0359  2.3693  1.3377
 6459TIP3   OH219382   2.153   5.235   1.535 -0.1159 -0.2934 -0.1339
 6459TIP3    H119383   2.224   5.229   1.599 -1.0627  0.1662  0.9738
 6459TIP3    H219384   2.151   5.148   1.494 -0.2578 -0.9942  1.2854
 6460TIP3   OH219385   5.405   3.835   0.836 -0.1233  0.3310  0.4522
 6460TIP3    H119386   5.335   3.892   0.867 -0.4201 -0.3151  0.9955
 6460TIP3    H219387   5.362   3.777   0.773  0.1492  0.6126  0.0002
 6461TIP3   OH219388   1.214   2.962   5.181 -0.0722 -0.2815 -0.9595
 6461TIP3    H119389   1.226   2.868   5.177  1.4397 -0.1676  0.1095
 6461TIP3    H219390   1.281   2.998   5.123  1.3950  0.1946  0.9312
 6462TIP3   OH219391   2.353   3.662   2.761  0.0232  0.1059  0.2512
 6462TIP3    H119392   2.412   3.724   2.718  0.0619 -0.2496 -0.2250
 6462TIP3    H219393   2.320   3.607   2.690  1.2737 -1.4805  0.8388
 6463TIP3   OH219394   2.848   2.874   2.924  0.1805 -0.2354 -0.4405
 6463TIP3    H119395   2.756   2.861   2.903  0.3028  0.6996 -1.6557
 6463TIP3    H219396   2.847   2.906   3.014 -0.6178 -0.9526 -0.1766
 6464TIP3   OH219397   3.037   2.653   2.954  0.0541 -0.1955  0.7177
 6464TIP3    H119398   2.963   2.699   2.914  0.0310  0.4848  1.5305
 6464TIP3    H219399   3.088   2.722   2.997  0.7681 -0.7569  0.7907
 6465TIP3   OH219400   6.014   2.004   2.481  0.7657  0.0312 -0.3019
 6465TIP3    H119401   5.994   1.923   2.436  0.4583 -0.2944  0.4002
 6465TIP3    H219402   6.026   2.069   2.411  0.0679 -0.4055 -0.8368
 6466TIP3   OH219403   2.529   3.624   0.767 -0.5661  0.1599  0.0983
 6466TIP3    H119404   2.506   3.541   0.726 -0.6081  1.2398 -2.2434
 6466TIP3    H219405   2.619   3.611   0.798 -0.2624 -0.5242 -1.0068
 6467TIP3   OH219406   5.881   0.092   4.588 -0.4529 -0.1352 -0.1105
 6467TIP3    H119407   5.886   0.069   4.680  0.8389 -2.2588 -0.6479
 6467TIP3    H219408   5.962   0.139   4.570 -0.9826  0.8270 -0.0590
 6468TIP3   OH219409   6.043   5.895   4.621  0.1893 -0.4936  0.0895
 6468TIP3    H119410   5.985   5.877   4.547  1.1368 -0.5808 -0.6516
 6468TIP3    H219411   5.984   5.909   4.695 -0.7363 -3.9724  0.1770
 6469TIP3   OH219412   2.454   1.491   0.364 -0.1481 -0.4979 -0.9215
 6469TIP3    H119413   2.396   1.420   0.390  2.3310 -1.8502  1.3950
 6469TIP3    H219414   2.433   1.562   0.424 -1.2002  0.0604 -1.8959
 6470TIP3   OH219415   0.476   3.199   1.304 -0.2369  0.5867  0.5825
 6470TIP3    H119416   0.571   3.210   1.298  0.0534 -1.9181 -1.2707
 6470TIP3    H219417   0.440   3.267   1.248  0.4085  1.5857  1.3327
 6471TIP3   OH219418   1.532   1.063   2.327  0.0331 -0.6992  0.1068
 6471TIP3    H119419   1.616   1.107   2.313 -0.0487 -0.6991 -0.3701
 6471TIP3    H219420   1.555   0.974   2.353  0.2379 -0.0769  2.2633
 6472TIP3   OH219421   3.661   2.527   2.519  0.4986  0.4356 -0.3134
 6472TIP3    H119422   3.657   2.434   2.544 -1.3225 -0.5972 -3.7845
 6472TIP3    H219423   3.601   2.570   2.580 -0.6503 -1.1622 -0.2350
 6473TIP3   OH219424   0.798   3.949   3.236  0.0988 -0.3536 -0.1599
 6473TIP3    H119425   0.844   3.942   3.320  0.5578 -0.2943 -0.4045
 6473TIP3    H219426   0.813   4.040   3.209 -3.2130  0.8845  1.5086
 6474TIP3   OH219427   5.174   2.085   2.032 -0.3194  0.1755 -0.1682
 6474TIP3    H119428   5.116   2.021   1.989 -3.3877  3.6678 -1.7854
 6474TIP3    H219429   5.219   2.129   1.960  1.6379  0.0514  0.9033
 6475TIP3   OH219430   5.551   1.960   2.362 -0.2505  0.6401  0.8798
 6475TIP3    H119431   5.472   2.013   2.369  0.2591  1.4260  0.8045
 6475TIP3    H219432   5.581   1.949   2.452  0.1593  1.2832  0.8264
 6476TIP3   OH219433   4.790   0.421   0.760  0.3372 -0.0609 -0.2631
 6476TIP3    H119434   4.874   0.399   0.721  0.8916 -0.3668  1.0326
 6476TIP3    H219435   4.806   0.418   0.855 -0.7922  1.1553  0.0080
 6477TIP3   OH219436   5.667   1.197   3.701 -0.2110 -0.2494 -0.6846
 6477TIP3    H119437   5.651   1.127   3.638  2.9521 -0.6030 -1.2770
 6477TIP3    H219438   5.624   1.168   3.781 -1.9864 -1.0998 -1.8941
 6478TIP3   OH219439   1.014   4.727   1.420 -0.5074 -0.0008  0.1753
 6478TIP3    H119440   0.965   4.784   1.361 -0.1943 -0.7744 -0.8676
 6478TIP3    H219441   0.991   4.757   1.508 -1.1942  1.0059 -0.3346
 6479TIP3   OH219442   5.428   1.680   1.093  0.3289 -0.8060  0.0770
 6479TIP3    H119443   5.449   1.769   1.065 -0.6812  0.6916  3.5475
 6479TIP3    H219444   5.366   1.648   1.027  1.5443  0.5975 -1.8299
 6480TIP3   OH219445   4.105   3.505   0.231  0.8046  0.3428 -0.3105
 6480TIP3    H119446   4.042   3.536   0.166 -0.8086 -0.7866  0.6455
 6480TIP3    H219447   4.136   3.585   0.274 -1.2100  0.8688  0.2598
 6481TIP3   OH219448   3.761   0.130   4.657  0.0667 -0.2395  0.1629
 6481TIP3    H119449   3.839   0.078   4.674  0.6352 -0.3767 -2.5200
 6481TIP3    H219450   3.786   0.219   4.682  0.8081 -0.4122  0.0613
 6482TIP3   OH219451   2.226   5.683   5.002  0.2388  0.6119 -0.5337
 6482TIP3    H119452   2.288   5.637   4.945 -0.2669 -0.1222 -0.5030
 6482TIP3    H219453   2.279   5.750   5.044  0.5109  1.5932 -2.3130
 6483TIP3   OH219454   2.923   2.784   0.809 -0.0837  0.1402 -0.0385
 6483TIP3    H119455   2.923   2.861   0.751  0.6127 -0.2252 -0.5352
 6483TIP3    H219456   2.846   2.796   0.864  0.5540  1.7375  0.6049
 6484TIP3   OH219457   4.957   4.124   1.591  0.1026  0.5282 -0.2609
 6484TIP3    H119458   5.003   4.131   1.675 -0.9383  1.1073  0.2880
 6484TIP3    H219459   4.895   4.053   1.604  0.9409 -0.3649 -1.0532
 6485TIP3   OH219460   6.377   0.189   4.418  0.3756  0.1937  0.0179
 6485TIP3    H119461   6.307   0.187   4.483  0.5297  1.4266  0.2489
 6485TIP3    H219462   6.340   0.142   4.342 -1.0161  1.4735 -0.1450
 6486TIP3   OH219463   5.252   5.928   4.965  0.6504  0.4044  0.1715
 6486TIP3    H119464   5.271   6.016   4.998 -0.7028  0.2725  1.4384
 6486TIP3    H219465   5.196   5.890   5.033  0.1972 -0.9881 -0.9529
 6487TIP3   OH219466   2.050   3.056   1.905 -0.2276 -0.0837  0.0377
 6487TIP3    H119467   1.999   3.059   1.824 -1.0421  1.3118  0.5591
 6487TIP3    H219468   1.988   3.024   1.971 -0.1086  0.5478  0.4628
 6488TIP3   OH219469   5.783   1.298   0.459  0.3568  0.1626  0.3621
 6488TIP3    H119470   5.833   1.365   0.413 -0.1674 -0.6816 -1.5354
 6488TIP3    H219471   5.711   1.276   0.399  0.5172 -2.0902  0.8978
 6489TIP3   OH219472   1.857   1.164   3.620  0.7201  0.0595  0.1046
 6489TIP3    H119473   1.950   1.146   3.606  0.8520  2.0916 -2.3904
 6489TIP3    H219474   1.823   1.184   3.532 -1.1704  3.0331  1.3381
 6490TIP3   OH219475   0.788   2.824   1.746 -0.3214 -0.6553 -0.0684
 6490TIP3    H119476   0.854   2.755   1.754  0.1260 -0.5529 -2.1665
 6490TIP3    H219477   0.820   2.879   1.674 -0.3660  2.1225  1.8794
 6491TIP3   OH219478   1.808   4.684   0.067 -0.3868  0.5846 -0.9153
 6491TIP3    H119479   1.816   4.646   0.155  0.3793  1.9582 -0.3614
 6491TIP3    H219480   1.731   4.642   0.030  0.3469 -1.4212 -0.3160
 6492TIP3   OH219481   0.618   3.771   4.835  0.4080 -0.2403  0.1851
 6492TIP3    H119482   0.702   3.814   4.820  0.9176 -0.3984  2.2721
 6492TIP3    H219483   0.629   3.683   4.797  1.7735 -0.7838  1.6975
 6493TIP3   OH219484   0.883   1.789   4.105 -0.1668 -0.1950 -0.6187
 6493TIP3    H119485   0.893   1.759   4.015  0.7931 -0.2112 -0.5226
 6493TIP3    H219486   0.959   1.845   4.119  1.1429 -2.2596  0.9987
 6494TIP3   OH219487   5.804   3.585   3.506  0.1760  0.1505  0.3835
 6494TIP3    H119488   5.899   3.581   3.500  0.1332  0.6416 -0.8187
 6494TIP3    H219489   5.773   3.533   3.432 -0.4784  1.5024 -0.3133
 6495TIP3   OH219490   2.126   4.709   4.630 -0.4486  0.5700 -0.4915
 6495TIP3    H119491   2.165   4.646   4.569  0.2385  0.4248  0.0882
 6495TIP3    H219492   2.124   4.791   4.582  1.5916  0.8534 -0.1905
 6496TIP3   OH219493   1.135   3.950   2.305  0.3670  0.1629  0.6654
 6496TIP3    H119494   1.064   3.888   2.315 -0.6788  1.1212 -0.5270
 6496TIP3    H219495   1.207   3.913   2.356 -0.3552 -1.7907  0.3340
 6497TIP3   OH219496   0.244   1.846   2.618  0.3258 -0.8119 -0.1995
 6497TIP3    H119497   0.296   1.833   2.539  1.2723 -0.9286  0.4262
 6497TIP3    H219498   0.309   1.848   2.689 -0.4738 -0.3233  0.5274
 6498TIP3   OH219499   5.875   4.743   4.197 -0.0409 -0.0943  0.5246
 6498TIP3    H119500   5.814   4.671   4.181  0.1743  0.1485 -1.7654
 6498TIP3    H219501   5.823   4.822   4.180  0.2971  0.2026  0.8630
 6499TIP3   OH219502   5.994   3.620   4.317  0.2853  0.8554 -0.2073
 6499TIP3    H119503   5.917   3.613   4.374  1.2631 -1.2194  0.9767
 6499TIP3    H219504   5.959   3.640   4.230 -1.6550 -0.6550  0.1696
 6500TIP3   OH219505   4.154   1.832   3.447 -0.4641 -0.1698  0.4002
 6500TIP3    H119506   4.121   1.799   3.532 -0.8939  0.7322  0.5931
 6500TIP3    H219507   4.111   1.776   3.382  0.6521 -1.5432  0.7906
 6501TIP3   OH219508   3.149   2.409   5.121 -0.0867 -0.2592 -0.2342
 6501TIP3    H119509   3.117   2.439   5.036 -1.6863  1.8590  1.0105
 6501TIP3    H219510   3.107   2.323   5.133 -0.1541 -0.4094 -1.3802
 6502TIP3   OH219511   2.613   2.239   2.300  0.1684  0.1658  0.0370
 6502TIP3    H119512   2.558   2.234   2.378 -1.1434 -1.6286 -0.9231
 6502TIP3    H219513   2.695   2.196   2.325 -0.3371 -0.6275  0.3528
 6503TIP3   OH219514   3.153   3.452   3.802  0.0022 -0.2992  0.3439
 6503TIP3    H119515   3.166   3.536   3.845 -1.3366  0.0228  0.1756
 6503TIP3    H219516   3.077   3.414   3.847 -0.1717 -0.8560 -0.3974
 6504TIP3   OH219517   3.700   4.020   2.401 -0.1546 -0.5572  0.0545
 6504TIP3    H119518   3.778   4.041   2.452 -1.0694  1.3632  0.7442
 6504TIP3    H219519   3.669   3.937   2.438  1.2207 -1.0685  0.1255
 6505TIP3   OH219520   0.056   1.797   4.384 -0.3016  0.4881 -0.1866
 6505TIP3    H119521   0.083   1.879   4.426 -1.5209 -0.0322  1.7116
 6505TIP3    H219522   0.108   1.730   4.427  0.7003  0.1926 -1.7439
 6506TIP3   OH219523   1.812   5.777   0.852 -0.1783 -0.4751 -0.0609
 6506TIP3    H119524   1.782   5.699   0.898  0.1499 -0.3910  0.3046
 6506TIP3    H219525   1.862   5.826   0.917 -0.7740  0.2737 -0.1532
 6507TIP3   OH219526   5.910   1.149   4.525 -0.3868  0.5810 -0.1529
 6507TIP3    H119527   5.829   1.199   4.541 -0.6700 -0.0408  0.4235
 6507TIP3    H219528   5.880   1.065   4.490 -0.1142 -0.2176  1.4214
 6508TIP3   OH219529   0.312   0.160   4.829  0.2881  0.1049  0.1074
 6508TIP3    H119530   0.314   0.093   4.898  1.6175  0.4061  0.3753
 6508TIP3    H219531   0.384   0.138   4.770  0.9552  1.4534  0.3656
 6509TIP3   OH219532   3.068   5.582   1.279  0.3202 -0.0583  0.3743
 6509TIP3    H119533   3.041   5.600   1.369  2.2947  0.0831  0.9898
 6509TIP3    H219534   3.075   5.669   1.239 -2.7546 -0.2086 -0.6647
 6510TIP3   OH219535   2.436   1.552   1.624  0.0121  0.0928  0.1847
 6510TIP3    H119536   2.431   1.560   1.719  1.7770  1.3360  0.2252
 6510TIP3    H219537   2.494   1.478   1.609 -1.6785 -1.2654 -0.0016
 6511TIP3   OH219538   5.659   4.433   4.125 -0.0679  0.3519 -0.1358
 6511TIP3    H119539   5.590   4.371   4.104 -0.8058  1.0736  0.0793
 6511TIP3    H219540   5.712   4.439   4.045 -0.6282  0.2713 -0.5169
 6512TIP3   OH219541   0.793   1.684   4.648 -0.1093  0.3393 -0.1438
 6512TIP3    H119542   0.794   1.779   4.631  1.6146  0.5399  0.8070
 6512TIP3    H219543   0.842   1.646   4.574  0.3807  0.3525  0.1675
 6513TIP3   OH219544   2.944   0.417   4.102  0.3902 -0.2977  0.1113
 6513TIP3    H119545   2.895   0.477   4.159  1.9859  0.6880  0.4963
 6513TIP3    H219546   3.032   0.415   4.139  1.8277  1.2512 -2.8837
 6514TIP3   OH219547   2.884   2.720   1.202  0.3124 -0.3782  0.4752
 6514TIP3    H119548   2.897   2.778   1.277 -0.1568 -0.3982  0.5730
 6514TIP3    H219549   2.832   2.770   1.140  0.4089 -0.4847  0.3052
 6515TIP3   OH219550   2.995   4.361   4.177 -0.3935 -0.2916 -0.6815
 6515TIP3    H119551   3.001   4.266   4.170  1.5039 -0.2380 -0.3021
 6515TIP3    H219552   2.901   4.379   4.181 -0.8720 -2.0015 -2.5169
 6516TIP3   OH219553   1.753   1.181   0.094  0.2127  0.2428 -0.2499
 6516TIP3    H119554   1.743   1.215   0.183 -1.9465  1.0221 -0.7366
 6516TIP3    H219555   1.777   1.257   0.042 -0.5746  0.2262 -0.6558
 6517TIP3   OH219556   2.514   3.040   0.198 -0.4261  0.2296 -0.1072
 6517TIP3    H119557   2.551   3.128   0.210 -0.0557  0.1546 -0.6624
 6517TIP3    H219558   2.543   2.990   0.274  1.2826 -0.0524 -0.9037
 6518TIP3   OH219559   4.253   2.338   0.717  0.0767  0.2131 -0.2687
 6518TIP3    H119560   4.206   2.272   0.768 -0.7140 -0.2339 -1.5250
 6518TIP3    H219561   4.336   2.295   0.694 -0.1687 -0.1294 -0.5448
 6519TIP3   OH219562   5.296   1.076   1.284  0.4488 -0.4756 -1.2130
 6519TIP3    H119563   5.348   1.154   1.303 -1.4265  0.7110 -0.7262
 6519TIP3    H219564   5.356   1.003   1.302  1.3003  0.7500  1.4362
 6520TIP3   OH219565   4.768   3.144   3.944 -0.7772  0.0898  0.0002
 6520TIP3    H119566   4.806   3.213   3.889 -0.0159 -0.7241 -0.5276
 6520TIP3    H219567   4.836   3.076   3.947 -1.5967 -0.7345  0.3285
 6521TIP3   OH219568   4.653   2.169   1.108  0.0685  0.3796 -0.0064
 6521TIP3    H119569   4.603   2.160   1.189  1.5460  2.6428  1.2986
 6521TIP3    H219570   4.733   2.215   1.135  1.1830  0.1001 -2.5634
 6522TIP3   OH219571   2.738   4.742   2.589 -0.4083 -0.5075  0.0803
 6522TIP3    H119572   2.815   4.793   2.564 -0.8980 -0.4867 -1.5346
 6522TIP3    H219573   2.727   4.679   2.517 -2.0997 -0.2670  0.0918
 6523TIP3   OH219574   6.017   5.017   2.409  0.1781 -0.5170  0.2192
 6523TIP3    H119575   5.961   4.950   2.448 -1.4374 -0.3690 -1.7042
 6523TIP3    H219576   6.016   4.998   2.316  2.6023  0.1057  0.0094
 6524TIP3   OH219577   4.465   1.324   2.658 -0.2579 -0.0984  0.3881
 6524TIP3    H119578   4.454   1.337   2.564 -0.1407 -0.4593  0.3211
 6524TIP3    H219579   4.448   1.410   2.697  0.3926  0.2230 -0.0252
 6525TIP3   OH219580   6.203   5.952   1.289  0.1212 -0.3864 -0.4480
 6525TIP3    H119581   6.114   5.918   1.273  0.9563 -2.4556 -1.1155
 6525TIP3    H219582   6.228   5.915   1.374  0.1285  0.7399  0.0601
 6526TIP3   OH219583   4.278   0.897   3.935 -0.0510  0.2211  0.2843
 6526TIP3    H119584   4.290   0.863   3.847 -1.1233 -0.0960  0.2411
 6526TIP3    H219585   4.188   0.874   3.958  0.1187  0.5334  1.3598
 6527TIP3   OH219586   1.602   4.804   0.479 -0.0168 -0.2585  0.3417
 6527TIP3    H119587   1.618   4.757   0.397 -1.9791 -1.3004  0.4989
 6527TIP3    H219588   1.516   4.774   0.507 -0.4457  1.9306  1.5363
 6528TIP3   OH219589   5.889   2.970   1.709  0.0797  0.3520 -0.4659
 6528TIP3    H119590   5.830   3.030   1.755 -0.4828 -0.7028  0.2320
 6528TIP3    H219591   5.912   2.904   1.775  1.2557  0.1938 -1.0129
 6529TIP3   OH219592   2.673   0.582   2.407  0.0425 -1.0268 -0.6068
 6529TIP3    H119593   2.583   0.569   2.435  0.1931 -0.3640  0.2541
 6529TIP3    H219594   2.716   0.621   2.483  1.1449 -1.6676 -0.8824
 6530TIP3   OH219595   4.255   5.551   3.832 -0.0885  0.1215  0.0065
 6530TIP3    H119596   4.273   5.577   3.922 -3.1488  1.1062  0.4489
 6530TIP3    H219597   4.232   5.458   3.838  0.3310  0.0251  0.1306
 6531TIP3   OH219598   6.164   0.222   5.068 -0.6316 -0.2416 -0.3148
 6531TIP3    H119599   6.127   0.206   5.154 -0.7246  1.6227  0.0276
 6531TIP3    H219600   6.256   0.199   5.076 -0.6855 -0.2675  0.2302
 6532TIP3   OH219601   0.317   1.741   1.105 -0.4289  0.1080 -0.2230
 6532TIP3    H119602   0.231   1.766   1.070 -0.2672  0.6938 -0.2074
 6532TIP3    H219603   0.315   1.770   1.196 -0.3447 -0.2002 -0.1217
 6533TIP3   OH219604   4.558   4.452   1.338 -0.2305  0.5949  0.8327
 6533TIP3    H119605   4.640   4.499   1.353  0.4818 -0.5291  0.6004
 6533TIP3    H219606   4.539   4.465   1.245 -0.5471  1.2017  0.9788
 6534TIP3   OH219607   5.367   4.970   5.109 -0.7925  0.0487 -0.0420
 6534TIP3    H119608   5.374   4.915   5.187 -1.5764 -0.7338 -0.4950
 6534TIP3    H219609   5.288   4.939   5.065 -0.3374  0.4196 -1.1791
 6535TIP3   OH219610   5.775   5.105   4.452  0.5427  0.4432 -0.5060
 6535TIP3    H119611   5.837   5.155   4.399 -0.0309  1.5246 -0.2127
 6535TIP3    H219612   5.819   5.023   4.471  0.5991 -0.1528 -2.9857
 6536TIP3   OH219613   0.169   3.386   4.760  0.3547 -0.3536  0.1611
 6536TIP3    H119614   0.087   3.348   4.727 -0.2562  1.0601 -0.0476
 6536TIP3    H219615   0.189   3.334   4.838 -2.2959  0.9342  1.8782
 6537TIP3   OH219616   0.419   3.005   1.622  0.2306 -0.1335 -0.1375
 6537TIP3    H119617   0.325   3.018   1.608  0.2610  0.8018  0.3992
 6537TIP3    H219618   0.461   3.073   1.569  0.4919  0.9488  1.3785
 6538TIP3   OH219619   2.331   1.684   1.163  0.3649 -0.1392  0.0969
 6538TIP3    H119620   2.309   1.762   1.112  0.9421  1.5052  2.1938
 6538TIP3    H219621   2.257   1.671   1.221 -0.0851 -1.7052 -0.7766
 6539TIP3   OH219622   1.537   5.935   0.435 -0.6081 -0.3988  0.0932
 6539TIP3    H119623   1.601   5.879   0.391  0.2071  0.5960 -0.0221
 6539TIP3    H219624   1.509   5.883   0.511 -1.5341 -1.8634 -1.1767
 6540TIP3   OH219625   5.614   4.922   0.577 -0.0471 -0.1494  0.0650
 6540TIP3    H119626   5.536   4.871   0.555 -1.0443  1.1393  0.5211
 6540TIP3    H219627   5.681   4.891   0.515 -1.1039 -0.7841 -0.7916
 6541TIP3   OH219628   1.342   2.584   2.517  0.1976  0.8613 -0.1398
 6541TIP3    H119629   1.253   2.605   2.544 -0.3542  1.1154 -2.0509
 6541TIP3    H219630   1.367   2.511   2.574 -1.0625  1.0452  0.7003
 6542TIP3   OH219631   0.814   4.517   3.028  0.4204 -0.3047 -0.8027
 6542TIP3    H119632   0.857   4.481   2.951 -1.0479  1.8293 -2.7562
 6542TIP3    H219633   0.757   4.586   2.994  0.1462  1.1666  2.2588
 6543TIP3   OH219634   4.094   3.373   4.030  0.4287 -0.3933  1.0576
 6543TIP3    H119635   4.120   3.339   4.116  0.3914 -1.7729  0.5589
 6543TIP3    H219636   4.016   3.322   4.007  1.8146 -1.7947 -0.8280
 6544TIP3   OH219637   0.207   2.174   1.051  0.0648 -0.4939  0.3936
 6544TIP3    H119638   0.138   2.124   1.094  1.4695 -1.9920  1.0018
 6544TIP3    H219639   0.241   2.115   0.984  0.4172  0.4270 -0.2538
 6545TIP3   OH219640   3.777   2.913   1.448  0.0097 -0.7529  0.3130
 6545TIP3    H119641   3.819   2.993   1.416  0.5699 -0.8227  0.8317
 6545TIP3    H219642   3.704   2.944   1.502  0.1905 -0.5831  0.4650
 6546TIP3   OH219643   0.731   2.405   2.065 -0.0677  0.1164 -0.1624
 6546TIP3    H119644   0.738   2.501   2.073 -1.5490  0.1622  1.0811
 6546TIP3    H219645   0.730   2.373   2.155 -0.8050 -0.9453 -0.5252
 6547TIP3   OH219646   4.591   4.928   2.055  0.2599  0.1109 -0.0910
 6547TIP3    H119647   4.530   4.994   2.022  1.3095  1.0538 -0.2118
 6547TIP3    H219648   4.662   4.927   1.991  0.2796 -1.1231 -0.0656
 6548TIP3   OH219649   2.701   2.561   2.341 -0.6450  0.0744  0.2716
 6548TIP3    H119650   2.708   2.535   2.250 -0.0453  0.8739  0.0776
 6548TIP3    H219651   2.745   2.491   2.390  1.5659  1.0004 -0.2942
 6549TIP3   OH219652   3.258   5.246   1.508 -0.1854  0.0807  0.5967
 6549TIP3    H119653   3.353   5.255   1.512 -0.2280  0.1756  1.6603
 6549TIP3    H219654   3.228   5.263   1.597 -1.1939 -0.0725  0.3052
 6550TIP3   OH219655   3.616   2.034   4.243  0.2140  0.1643  1.2084
 6550TIP3    H119656   3.624   2.128   4.260 -0.1128 -0.0233  2.4704
 6550TIP3    H219657   3.522   2.021   4.227  0.3127  0.0987  0.6419
 6551TIP3   OH219658   2.966   4.079   4.281  0.3122 -0.0817 -0.9018
 6551TIP3    H119659   2.948   4.082   4.187  1.1707 -2.3129 -1.1835
 6551TIP3    H219660   2.880   4.089   4.322 -0.0869  0.7605 -1.8998
 6552TIP3   OH219661   4.434   3.663   3.039  0.2636 -0.8656 -0.1315
 6552TIP3    H119662   4.450   3.705   3.124  1.0777 -1.6432  0.1185
 6552TIP3    H219663   4.445   3.733   2.975 -0.4132 -0.2586  0.4029
 6553TIP3   OH219664   3.765   0.428   3.940  0.1042  0.1850 -0.3143
 6553TIP3    H119665   3.772   0.518   3.972 -0.3927  0.1385 -0.0541
 6553TIP3    H219666   3.837   0.418   3.878  0.5115  0.5794  0.0927
 6554TIP3   OH219667   1.955   1.771   3.604  0.2254  0.6308 -0.3751
 6554TIP3    H119668   2.044   1.754   3.634 -0.5876 -1.4795  0.9910
 6554TIP3    H219669   1.921   1.686   3.578 -1.9565  1.1047  0.7144
 6555TIP3   OH219670   3.788   0.829   4.276 -0.0268  0.4468  0.1191
 6555TIP3    H119671   3.786   0.925   4.282  1.7321  0.6967 -2.0581
 6555TIP3    H219672   3.708   0.801   4.320 -1.4125  3.0174 -0.5513
 6556TIP3   OH219673   1.287   0.137   2.111  0.0844 -0.1599 -0.6578
 6556TIP3    H119674   1.264   0.230   2.114  1.9226  0.3100 -0.1124
 6556TIP3    H219675   1.285   0.109   2.203  2.9879  0.2879 -0.3730
 6557TIP3   OH219676   5.955   1.279   5.165  0.0650 -0.1961 -0.2337
 6557TIP3    H119677   5.955   1.309   5.074 -0.5805 -1.1927 -0.5751
 6557TIP3    H219678   5.949   1.184   5.159  1.0479 -0.3477  0.8422
 6558TIP3   OH219679   3.573   3.731   2.654 -0.7261  0.3381 -0.0126
 6558TIP3    H119680   3.540   3.808   2.699 -0.3680 -0.5774  1.9137
 6558TIP3    H219681   3.517   3.660   2.684 -0.0259 -0.4182 -0.4680
 6559TIP3   OH219682   6.276   3.857   2.777 -0.1388  0.1144 -0.5542
 6559TIP3    H119683   6.250   3.809   2.855 -1.1424  1.1840 -0.2047
 6559TIP3    H219684   6.363   3.891   2.797 -1.2578  2.2891  1.0648
 6560TIP3   OH219685   2.155   5.833   2.885  0.0661  0.0034 -0.0664
 6560TIP3    H119686   2.180   5.793   2.801 -0.0590  0.0565 -0.1297
 6560TIP3    H219687   2.140   5.758   2.943 -1.1176 -0.0868 -0.4540
 6561TIP3   OH219688   4.015   0.939   1.513 -0.4276  0.1279  0.3116
 6561TIP3    H119689   4.037   0.847   1.501  0.5060  0.3666  0.0945
 6561TIP3    H219690   4.058   0.984   1.441 -1.3166  0.6832  0.1089
 6562TIP3   OH219691   3.093   5.117   3.345  0.4916 -0.3903  0.0748
 6562TIP3    H119692   3.179   5.118   3.388 -0.0930  2.2480  1.4193
 6562TIP3    H219693   3.034   5.079   3.410 -0.1174  2.1929  1.1640
 6563TIP3   OH219694   1.044   3.735   1.928  0.2431  0.3042  0.6837
 6563TIP3    H119695   1.136   3.740   1.954  0.2947  1.5984  0.3046
 6563TIP3    H219696   1.004   3.679   1.995  1.2886 -0.2502  0.8716
 6564TIP3   OH219697   2.110   3.124   1.477  0.2416 -0.2550 -0.1934
 6564TIP3    H119698   2.054   3.064   1.428 -0.3315  0.4365 -0.3983
 6564TIP3    H219699   2.069   3.209   1.466  1.5110  0.3222 -0.6135
 6565TIP3   OH219700   3.783   1.998   4.456  0.0490 -0.7557 -0.0262
 6565TIP3    H119701   3.706   2.013   4.401  0.8123 -1.4736 -1.3359
 6565TIP3    H219702   3.759   1.923   4.511 -0.1145 -1.1388 -0.6077
 6566TIP3   OH219703   2.204   2.189   0.792 -0.0571  0.1659 -0.2501
 6566TIP3    H119704   2.122   2.173   0.746 -0.4705 -2.9022  1.2871
 6566TIP3    H219705   2.179   2.245   0.866 -0.2127  1.4201 -1.2208
 6567TIP3   OH219706   0.512   0.099   4.357 -0.0663 -0.3641 -0.0763
 6567TIP3    H119707   0.505   0.017   4.306  0.8208  0.3583 -1.4389
 6567TIP3    H219708   0.423   0.132   4.361 -0.0408  0.0834 -2.1455
 6568TIP3   OH219709   6.002   0.238   3.136  0.0863 -0.1904  0.0840
 6568TIP3    H119710   6.078   0.296   3.146  0.7623 -0.9870 -0.3588
 6568TIP3    H219711   6.039   0.155   3.107 -1.0762 -0.2426 -1.3284
 6569TIP3   OH219712   4.790   1.263   3.554  0.2173 -0.0809  0.1079
 6569TIP3    H119713   4.737   1.291   3.629  0.8866 -1.2543  1.0703
 6569TIP3    H219714   4.733   1.205   3.505 -0.0614  0.2884 -0.0033
 6570TIP3   OH219715   4.127   1.282   2.812  0.0942  0.0984 -0.2671
 6570TIP3    H119716   4.082   1.216   2.759 -3.5313  0.0533  2.4422
 6570TIP3    H219717   4.211   1.242   2.834 -0.2388 -1.8069 -2.0969
 6571TIP3   OH219718   4.650   2.528   3.398 -0.2612 -0.2507 -0.7647
 6571TIP3    H119719   4.692   2.451   3.437  1.3615  1.1791  0.5122
 6571TIP3    H219720   4.658   2.515   3.304  1.0604 -1.0979 -0.5622
 6572TIP3   OH219721   2.409   1.331   3.530 -0.5661  0.2535 -0.2510
 6572TIP3    H119722   2.433   1.277   3.454 -1.6787  1.8614 -1.8479
 6572TIP3    H219723   2.479   1.395   3.537 -1.2441  1.1194 -1.0172
 6573TIP3   OH219724   1.559   0.983   0.069  0.6021 -0.0574  0.3115
 6573TIP3    H119725   1.578   0.955  -0.020  0.6412  0.8168  0.0331
 6573TIP3    H219726   1.634   1.037   0.094  0.1349  0.5205  0.5030
 6574TIP3   OH219727   4.276   3.569   4.616  0.8805  0.1856  0.5082
 6574TIP3    H119728   4.270   3.586   4.710 -1.7626  1.8874  0.1352
 6574TIP3    H219729   4.297   3.654   4.578 -0.4148  0.0367 -0.5902
 6575TIP3   OH219730   5.350   1.302   0.569 -0.2445 -0.0063  0.1998
 6575TIP3    H119731   5.271   1.336   0.526  0.7644  0.7332 -1.1526
 6575TIP3    H219732   5.365   1.217   0.530  0.4463  0.4934 -0.6565
 6576TIP3   OH219733   1.132   0.678   2.176 -0.1562 -0.0805 -0.3226
 6576TIP3    H119734   1.138   0.681   2.272  0.1673 -0.8185 -0.3140
 6576TIP3    H219735   1.117   0.769   2.150  1.2146  0.3559  0.3303
 6577TIP3   OH219736   2.980   3.768   3.039  0.1073  0.0351  0.7835
 6577TIP3    H119737   2.978   3.861   3.017 -1.5465 -0.3070 -0.7685
 6577TIP3    H219738   2.913   3.758   3.107 -1.7767 -0.3647 -0.9968
 6578TIP3   OH219739   4.001   2.056   1.115  0.6202  0.0225  0.6562
 6578TIP3    H119740   3.960   1.990   1.059  0.2256  0.1589  0.7832
 6578TIP3    H219741   3.952   2.052   1.197  0.8048  0.2476  0.7769
 6579TIP3   OH219742   6.060   0.865   4.499  0.0514 -0.5714  0.4355
 6579TIP3    H119743   6.056   0.869   4.403  1.9004 -2.8209  0.1618
 6579TIP3    H219744   5.969   0.861   4.527 -0.5756  1.1909 -1.1155
 6580TIP3   OH219745   0.520   1.125   4.381  0.9885 -0.0238  0.5064
 6580TIP3    H119746   0.450   1.108   4.444  1.4466 -0.7495  0.8368
 6580TIP3    H219747   0.527   1.220   4.378  0.0247  0.0624  0.5061
 6581TIP3   OH219748   4.552   3.849   2.389  0.0506 -0.5289  0.3430
 6581TIP3    H119749   4.589   3.796   2.318 -2.2080 -2.4436  0.4508
 6581TIP3    H219750   4.545   3.789   2.463 -1.2484  0.2936  0.9321
 6582TIP3   OH219751   5.620   2.094   1.971 -0.4325 -0.1883 -0.4321
 6582TIP3    H119752   5.578   2.176   1.946 -0.0042  1.0583  2.5269
 6582TIP3    H219753   5.558   2.026   1.946 -2.1425  1.2664 -0.2944
 6583TIP3   OH219754   5.593   1.847   4.806  0.0490 -0.5835  0.3305
 6583TIP3    H119755   5.650   1.863   4.881 -0.5077  1.7175  0.3412
 6583TIP3    H219756   5.648   1.862   4.730  0.4791 -2.4163  0.2390
 6584TIP3   OH219757   6.146   3.399   3.014  0.2949 -0.4458 -0.1099
 6584TIP3    H119758   6.141   3.374   3.107  0.1307 -0.6531 -0.1740
 6584TIP3    H219759   6.203   3.333   2.975 -0.6685 -1.1134 -0.4132
 6585TIP3   OH219760   3.502   1.540   1.205 -0.0721  0.3572  0.0781
 6585TIP3    H119761   3.421   1.547   1.156  0.3451 -0.8969 -0.8431
 6585TIP3    H219762   3.488   1.466   1.265  0.5045 -0.1165 -0.3551
 6586TIP3   OH219763   2.964   5.155   0.349 -0.7509  0.0434 -0.1145
 6586TIP3    H119764   2.990   5.202   0.270 -0.7579 -0.0564 -0.1758
 6586TIP3    H219765   2.868   5.157   0.347 -0.7631 -0.7128 -0.5595
 6587TIP3   OH219766   2.825   4.551   1.982  0.7876  0.0682 -0.1703
 6587TIP3    H119767   2.921   4.555   1.989  0.9934 -1.0682 -1.8880
 6587TIP3    H219768   2.801   4.634   1.941  1.0573  0.2190 -0.0305
 6588TIP3   OH219769   4.419   2.324   4.965 -0.5160 -0.6246 -0.1637
 6588TIP3    H119770   4.487   2.371   4.917 -1.6947 -0.8637 -2.1863
 6588TIP3    H219771   4.462   2.244   4.995  1.0210  0.8438  1.7565
 6589TIP3   OH219772   3.296   2.466   2.321  0.3938  0.7152  0.6724
 6589TIP3    H119773   3.203   2.486   2.325  0.4166  0.9849 -0.0189
 6589TIP3    H219774   3.309   2.398   2.387 -0.7024 -0.9148 -0.7045
 6590TIP3   OH219775   1.224   1.756   4.651 -0.2537  0.3013  0.4312
 6590TIP3    H119776   1.240   1.690   4.583 -2.0488 -3.1175  3.0434
 6590TIP3    H219777   1.311   1.787   4.675  0.5457  0.0929 -1.9197
 6591TIP3   OH219778   5.284   3.579   1.549  0.0640  0.6280  0.0674
 6591TIP3    H119779   5.193   3.562   1.526  0.5408  0.5691 -1.9329
 6591TIP3    H219780   5.304   3.663   1.510  1.3557 -0.1767 -1.1051
 6592TIP3   OH219781   5.342   4.873   2.584  0.2273  0.6228  0.5089
 6592TIP3    H119782   5.264   4.823   2.608  0.9841  0.1535  2.0835
 6592TIP3    H219783   5.408   4.807   2.566  0.2361  1.0119 -1.1220
 6593TIP3   OH219784   4.108   0.450   4.229  0.0844 -0.0060 -1.2185
 6593TIP3    H119785   4.026   0.413   4.263 -0.2096  1.3101 -0.4111
 6593TIP3    H219786   4.151   0.377   4.186 -0.7142 -1.1443 -0.1593
 6594TIP3   OH219787   1.763   0.947   2.806  0.5131  0.2262  0.1316
 6594TIP3    H119788   1.739   0.895   2.884 -0.6298  1.5957  0.7348
 6594TIP3    H219789   1.850   0.981   2.827  0.0897  0.8314  0.9612
 6595TIP3   OH219790   4.656   2.978   4.370 -0.7049 -0.0376 -0.1042
 6595TIP3    H119791   4.728   2.997   4.431  0.5045  0.7322 -1.6967
 6595TIP3    H219792   4.675   2.890   4.337  0.8548  1.0152 -2.2181
 6596TIP3   OH219793   5.813   0.817   1.379  0.0762  0.0429  0.0099
 6596TIP3    H119794   5.815   0.795   1.286  2.1742 -1.2759  0.2929
 6596TIP3    H219795   5.817   0.733   1.423  2.0238  0.7156  1.2368
 6597TIP3   OH219796   4.806   3.931   1.710  0.0803  0.3362 -0.2485
 6597TIP3    H119797   4.810   3.942   1.805 -0.6984  1.3006 -0.3132
 6597TIP3    H219798   4.855   3.850   1.693  0.9142  0.5788  0.8862
 6598TIP3   OH219799   5.812   0.228   5.184 -0.4046 -0.0419  0.4860
 6598TIP3    H119800   5.780   0.162   5.122 -0.2073 -1.2369  1.6057
 6598TIP3    H219801   5.883   0.184   5.231  0.0274  1.1308  0.9711
 6599TIP3   OH219802   1.475   4.186   2.625 -0.4639  0.5025  0.0613
 6599TIP3    H119803   1.549   4.131   2.652 -1.2948 -1.4039 -1.3223
 6599TIP3    H219804   1.514   4.252   2.568  0.3065  0.1226  0.1341
 6600TIP3   OH219805   2.051   0.985   2.218 -0.2563 -0.7315 -0.2019
 6600TIP3    H119806   2.104   0.981   2.138  0.6646 -1.0310  0.4058
 6600TIP3    H219807   1.960   0.979   2.187  0.1331 -3.1015 -1.0841
 6601TIP3   OH219808   5.342   0.037   0.688 -0.1979  0.5035 -0.3334
 6601TIP3    H119809   5.417   0.027   0.746  0.5725 -0.1081 -1.4104
 6601TIP3    H219810   5.277  -0.025   0.721  0.0097  0.5671  0.2023
 6602TIP3   OH219811   2.415   4.549   3.055 -0.0793 -0.3462 -0.4057
 6602TIP3    H119812   2.494   4.601   3.039  0.1226 -1.1043 -2.0431
 6602TIP3    H219813   2.399   4.559   3.149  1.4242  0.5786 -0.2081
 6603TIP3   OH219814   4.207   4.683   2.611  0.4023 -0.0924 -0.5058
 6603TIP3    H119815   4.292   4.722   2.591 -0.1731  1.6514  0.2719
 6603TIP3    H219816   4.217   4.645   2.698 -0.3184  2.5918  0.8615
 6604TIP3   OH219817   0.440   4.449   0.612  0.1234  0.1683  0.3970
 6604TIP3    H119818   0.521   4.478   0.653  0.1598 -2.7034  2.6733
 6604TIP3    H219819   0.468   4.401   0.534  0.4032  1.2480 -0.1855
 6605TIP3   OH219820   5.239   5.624   4.497  0.7652 -0.1518  0.0536
 6605TIP3    H119821   5.223   5.700   4.441  1.4098 -1.1401 -1.5818
 6605TIP3    H219822   5.218   5.653   4.585  0.1840  1.6522 -0.6353
 6606TIP3   OH219823   1.447   0.171   4.550 -0.1836 -0.3819  0.4332
 6606TIP3    H119824   1.359   0.133   4.545 -0.2775 -0.2353  0.8945
 6606TIP3    H219825   1.490   0.143   4.469 -1.1772  0.8890 -0.5642
 6607TIP3   OH219826   0.319   2.823   4.467 -0.3857 -0.4425  0.5818
 6607TIP3    H119827   0.271   2.816   4.385 -0.3373  2.0913  0.2743
 6607TIP3    H219828   0.376   2.899   4.456 -0.0254 -0.3160  2.7828
 6608TIP3   OH219829   2.573   4.437   2.112 -0.2847 -0.3164  0.4988
 6608TIP3    H119830   2.613   4.352   2.134 -0.5412 -0.4657  0.3892
 6608TIP3    H219831   2.644   4.486   2.070  0.1186 -0.1492  1.3432
 6609TIP3   OH219832   1.392   1.109   4.853  0.0468 -0.2631 -0.1197
 6609TIP3    H119833   1.409   1.041   4.788 -1.7753 -0.1499 -0.7901
 6609TIP3    H219834   1.329   1.167   4.810 -1.1741 -0.1478  1.6942
 6610TIP3   OH219835   4.439   2.241   2.656  0.1562 -0.0986 -0.0662
 6610TIP3    H119836   4.346   2.259   2.643 -0.0197 -0.0767  1.1782
 6610TIP3    H219837   4.444   2.190   2.737  1.2241 -0.1066 -0.1187
 6611TIP3   OH219838   4.396   0.027   2.597 -0.4348 -0.2658  0.2368
 6611TIP3    H119839   4.373  -0.066   2.597  2.0308 -0.9905 -0.9780
 6611TIP3    H219840   4.350   0.063   2.521 -1.4423 -0.4501  0.7415
 6612TIP3   OH219841   5.087   0.943   1.162  1.0445  0.6157  0.0185
 6612TIP3    H119842   5.027   1.007   1.123  0.4668 -0.3492 -0.7224
 6612TIP3    H219843   5.160   0.995   1.194 -0.5664  1.9467  1.7802
 6613TIP3   OH219844   2.361   0.891   4.501  0.4671  0.3824  0.1400
 6613TIP3    H119845   2.399   0.975   4.525 -0.6519  0.4838  1.6288
 6613TIP3    H219846   2.428   0.850   4.446  2.4540  0.8647  2.0610
 6614TIP3   OH219847   4.462   0.686   4.532  0.1732 -0.3361  0.1693
 6614TIP3    H119848   4.514   0.766   4.540  0.2788 -0.1823 -1.7481
 6614TIP3    H219849   4.376   0.709   4.567  0.6873  0.0930  1.1870
 6615TIP3   OH219850   0.450   4.213   0.878 -0.3062 -0.1132  0.7433
 6615TIP3    H119851   0.524   4.262   0.842  0.3071 -1.0178  0.7652
 6615TIP3    H219852   0.489   4.135   0.916 -1.3311 -0.9057  0.2092
 6616TIP3   OH219853   3.288   1.915   3.722 -0.0910 -0.4105 -0.9795
 6616TIP3    H119854   3.312   1.977   3.791  0.4322 -0.7288 -0.8713
 6616TIP3    H219855   3.371   1.875   3.696 -0.7120 -4.6630  2.3414
 6617TIP3   OH219856   2.776   5.346   0.564  0.5733 -0.0471  0.2821
 6617TIP3    H119857   2.716   5.420   0.567  0.1195 -0.4015  0.1221
 6617TIP3    H219858   2.735   5.284   0.504  1.6566  0.1779 -0.7226
 6618TIP3   OH219859   5.938   2.629   3.542 -0.1567 -0.2205 -0.7017
 6618TIP3    H119860   5.882   2.619   3.619  0.9718 -0.9114  0.0624
 6618TIP3    H219861   5.997   2.553   3.544  0.4925  0.2195 -1.7447
 6619TIP3   OH219862   6.005   4.367   0.388 -0.2538 -0.0756  0.7522
 6619TIP3    H119863   6.061   4.325   0.322  0.2892  1.1089  0.4368
 6619TIP3    H219864   6.058   4.439   0.422 -0.4746 -0.7555  2.6143
 6620TIP3   OH219865   1.155   0.585   2.424  0.2048 -0.0166  0.4358
 6620TIP3    H119866   1.226   0.524   2.408 -0.4289 -0.2980 -1.5868
 6620TIP3    H219867   1.196   0.660   2.467  1.1774 -1.3854  1.9934
 6621TIP3   OH219868   1.380   2.431   4.931 -0.4355 -0.1367 -0.6785
 6621TIP3    H119869   1.378   2.518   4.970 -0.5629 -0.1311 -0.6976
 6621TIP3    H219870   1.472   2.416   4.910 -0.7063  0.9205 -2.7972
 6622TIP3   OH219871   5.535   4.498   3.614  0.3339  0.1726  0.0963
 6622TIP3    H119872   5.608   4.445   3.648 -0.4274 -0.8705  0.1763
 6622TIP3    H219873   5.572   4.585   3.602  1.4908 -0.2375  0.5054
 6623TIP3   OH219874   0.299   2.589   0.158 -0.1918 -0.2006  0.5442
 6623TIP3    H119875   0.328   2.532   0.230 -0.4106 -0.4163  0.4617
 6623TIP3    H219876   0.206   2.602   0.173  0.0297  0.8700  1.0643
 6624TIP3   OH219877   0.694   5.895   2.730 -0.0850  0.2181  0.3838
 6624TIP3    H119878   0.717   5.836   2.802 -0.2572 -0.1896  0.1092
 6624TIP3    H219879   0.610   5.933   2.755  0.8591  1.7348  1.4066
 6625TIP3   OH219880   5.047   0.454   5.145 -0.6335 -0.1741 -0.6237
 6625TIP3    H119881   5.006   0.463   5.231 -1.0228 -1.2568 -0.6867
 6625TIP3    H219882   5.011   0.526   5.093 -1.3151 -0.2203 -0.2252
 6626TIP3   OH219883   1.073   1.427   4.045  0.1613  0.3734 -0.1711
 6626TIP3    H119884   1.113   1.508   4.077  0.1137 -0.5421  2.5009
 6626TIP3    H219885   0.983   1.431   4.076  0.2372 -0.8001  0.2417
 6627TIP3   OH219886   3.173   3.735   4.619  0.0501 -0.0604  0.2823
 6627TIP3    H119887   3.227   3.810   4.595  0.6592 -0.6176 -0.1508
 6627TIP3    H219888   3.110   3.727   4.547  0.8187 -0.7366 -0.3305
 6628TIP3   OH219889   1.745   3.919   0.506 -0.6082  0.4971  0.2546
 6628TIP3    H119890   1.806   3.865   0.557 -1.6062 -0.7903  0.1348
 6628TIP3    H219891   1.712   3.983   0.569 -0.9983 -0.3850  0.9784
 6629TIP3   OH219892   3.883   0.113   4.026  0.0386 -0.1757 -0.2869
 6629TIP3    H119893   3.836   0.115   3.943  1.2794 -1.1835 -1.0546
 6629TIP3    H219894   3.829   0.060   4.084 -0.8382  0.5385 -0.4383
 6630TIP3   OH219895   2.346   2.372   3.074 -0.6356 -0.2362  0.3871
 6630TIP3    H119896   2.323   2.446   3.130 -3.9990 -1.6655  1.1862
 6630TIP3    H219897   2.272   2.311   3.084  0.1534 -2.0278 -3.1110
 6631TIP3   OH219898   5.368   1.606   0.278  0.4144  0.0182  0.3231
 6631TIP3    H119899   5.443   1.596   0.220  2.0125 -0.0577  2.2777
 6631TIP3    H219900   5.404   1.645   0.358 -1.7235  0.4288  1.1722
 6632TIP3   OH219901   3.963   4.370   2.644 -0.4022  0.0979 -0.2023
 6632TIP3    H119902   3.869   4.374   2.658 -0.5371 -1.5009 -0.4605
 6632TIP3    H219903   4.002   4.392   2.729 -1.0387 -0.6747  0.2983
 6633TIP3   OH219904   0.979   4.240   0.319 -0.2477 -0.1258 -0.0644
 6633TIP3    H119905   0.976   4.300   0.244 -0.6199  0.1920  0.1987
 6633TIP3    H219906   0.968   4.297   0.395 -2.0876 -0.6742  0.1275
 6634TIP3   OH219907   4.061   4.730   4.967 -0.4101  0.0175  0.5130
 6634TIP3    H119908   4.044   4.774   4.884  0.6735  1.2139  0.8913
 6634TIP3    H219909   4.069   4.637   4.944 -2.8706 -0.0626 -0.2907
 6635TIP3   OH219910   0.067   2.629   3.821 -0.0562  0.3768 -0.2738
 6635TIP3    H119911   0.120   2.552   3.842 -2.4123 -0.8364  1.6868
 6635TIP3    H219912   0.096   2.696   3.882  0.0870  0.1298 -0.0702
 6636TIP3   OH219913   0.791   5.289   2.057 -0.6953 -0.1423  0.3791
 6636TIP3    H119914   0.814   5.344   2.131 -1.3170 -2.7098  2.6719
 6636TIP3    H219915   0.864   5.297   1.996 -0.7430  3.0229  0.6049
 6637TIP3   OH219916   3.462   1.811   2.688  0.2504  0.2444  0.1680
 6637TIP3    H119917   3.488   1.732   2.734 -0.5988 -1.1722 -1.6339
 6637TIP3    H219918   3.427   1.779   2.604  0.0553  2.5434 -0.6948
 6638TIP3   OH219919   3.387   1.521   4.545 -0.3524  0.0294 -0.2584
 6638TIP3    H119920   3.371   1.427   4.535  1.3076 -0.2690 -0.2824
 6638TIP3    H219921   3.476   1.534   4.512  0.4148  1.1778  2.0506
 6639TIP3   OH219922   2.551   1.234   3.988 -0.3821  0.2392 -0.4163
 6639TIP3    H119923   2.504   1.153   3.966 -1.3724  0.4310  0.8373
 6639TIP3    H219924   2.643   1.209   3.985 -0.5357 -0.2069 -2.7266
 6640TIP3   OH219925   5.893   0.472   1.752  0.2694  0.3349  0.3599
 6640TIP3    H119926   5.922   0.385   1.725  2.0703  0.9617  0.1349
 6640TIP3    H219927   5.909   0.475   1.846  0.4934  0.5153  0.3175
   6.35289   5.98956   5.18712   0.00000   0.00000  -2.11763   0.00000  -2.11763  -2.99478
