Title t= 221.00000 step= 110500
44463
    1GLY      N    1   2.536   3.136   4.070
    1GLY    HT1    2   2.536   3.228   4.022
    1GLY    HT2    3   2.626   3.087   4.054
    1GLY    HT3    4   2.528   3.161   4.171
    1GLY     CA    5   2.417   3.054   4.036
    1GLY    HA1    6   2.426   3.041   3.929
    1GLY    HA2    7   2.334   3.110   4.076
    1GLY      C    8   2.417   2.915   4.096
    1GLY      O    9   2.498   2.886   4.181
    2PRO      N   10   2.330   2.824   4.062
    2PRO     CD   11   2.212   2.848   3.980
    2PRO    HD1   12   2.229   2.863   3.871
    2PRO    HD2   13   2.153   2.933   4.021
    2PRO     CA   14   2.353   2.682   4.085
    2PRO     HA   15   2.325   2.678   4.189
    2PRO     CB   16   2.239   2.610   4.012
    2PRO    HB1   17   2.205   2.522   4.072
    2PRO    HB2   18   2.260   2.572   3.909
    2PRO     CG   19   2.132   2.722   4.008
    2PRO    HG1   20   2.060   2.693   3.928
    2PRO    HG2   21   2.073   2.717   4.102
    2PRO      C   22   2.491   2.619   4.082
    2PRO      O   23   2.568   2.655   3.994
    3GLY      N   24   2.527   2.530   4.179
    3GLY     HN   25   2.453   2.507   4.241
    3GLY     CA   26   2.659   2.482   4.210
    3GLY    HA1   27   2.646   2.418   4.296
    3GLY    HA2   28   2.714   2.571   4.236
    3GLY      C   29   2.725   2.404   4.104
    3GLY      O   30   2.670   2.349   4.009
    4ASP      N   31   2.856   2.380   4.129
    4ASP     HN   32   2.905   2.404   4.213
    4ASP     CA   33   2.936   2.291   4.047
    4ASP     HA   34   2.901   2.300   3.945
    4ASP     CB   35   3.088   2.328   4.053
    4ASP    HB1   36   3.159   2.254   4.010
    4ASP    HB2   37   3.120   2.334   4.159
    4ASP     CG   38   3.111   2.463   3.987
    4ASP    OD1   39   3.235   2.498   3.979
    4ASP    OD2   40   3.021   2.533   3.938
    4ASP      C   41   2.915   2.141   4.078
    4ASP      O   42   2.879   2.115   4.196
    5PRO      N   43   2.926   2.044   3.991
    5PRO     CD   44   2.961   2.074   3.854
    5PRO    HD1   45   3.055   2.133   3.855
    5PRO    HD2   46   2.875   2.126   3.805
    5PRO     CA   47   2.964   1.904   4.027
    5PRO     HA   48   2.880   1.847   4.064
    5PRO     CB   49   3.010   1.845   3.893
    5PRO    HB1   50   2.979   1.741   3.869
    5PRO    HB2   51   3.120   1.831   3.900
    5PRO     CG   52   2.970   1.938   3.777
    5PRO    HG1   53   3.039   1.927   3.691
    5PRO    HG2   54   2.864   1.916   3.753
    5PRO      C   55   3.072   1.888   4.136
    5PRO      O   56   3.172   1.957   4.129
    6GLY      N   57   3.056   1.810   4.244
    6GLY     HN   58   2.978   1.749   4.257
    6GLY     CA   59   3.153   1.821   4.347
    6GLY    HA1   60   3.113   1.793   4.444
    6GLY    HA2   61   3.194   1.921   4.356
    6GLY      C   62   3.275   1.731   4.325
    6GLY      O   63   3.297   1.685   4.215
    7PRO      N   64   3.365   1.720   4.419
    7PRO     CD   65   3.350   1.778   4.555
    7PRO    HD1   66   3.245   1.801   4.586
    7PRO    HD2   67   3.411   1.870   4.559
    7PRO     CA   68   3.476   1.630   4.411
    7PRO     HA   69   3.540   1.663   4.331
    7PRO     CB   70   3.537   1.631   4.554
    7PRO    HB1   71   3.611   1.710   4.576
    7PRO    HB2   72   3.592   1.540   4.585
    7PRO     CG   73   3.418   1.675   4.641
    7PRO    HG1   74   3.354   1.587   4.664
    7PRO    HG2   75   3.443   1.715   4.742
    7PRO      C   76   3.438   1.489   4.375
    7PRO      O   77   3.330   1.440   4.409
    8GLY      N   78   3.529   1.421   4.302
    8GLY     HN   79   3.619   1.464   4.300
    8GLY     CA   80   3.514   1.285   4.257
    8GLY    HA1   81   3.439   1.236   4.317
    8GLY    HA2   82   3.613   1.245   4.273
    8GLY      C   83   3.475   1.273   4.118
    8GLY      O   84   3.465   1.366   4.040
    9ASP      N   85   3.455   1.147   4.076
    9ASP     HN   86   3.455   1.068   4.137
    9ASP     CA   87   3.412   1.124   3.937
    9ASP     HA   88   3.490   1.162   3.874
    9ASP     CB   89   3.415   0.982   3.884
    9ASP    HB1   90   3.385   0.965   3.778
    9ASP    HB2   91   3.351   0.919   3.951
    9ASP     CG   92   3.557   0.925   3.885
    9ASP    OD1   93   3.663   0.994   3.883
    9ASP    OD2   94   3.555   0.804   3.875
    9ASP      C   95   3.275   1.179   3.907
    9ASP      O   96   3.191   1.180   3.997
   10PRO      N   97   3.237   1.222   3.785
   10PRO     CD   98   3.326   1.217   3.668
   10PRO    HD1   99   3.336   1.110   3.642
   10PRO    HD2  100   3.425   1.257   3.699
   10PRO     CA  101   3.101   1.247   3.747
   10PRO     HA  102   3.071   1.343   3.785
   10PRO     CB  103   3.102   1.251   3.590
   10PRO    HB1  104   3.028   1.316   3.539
   10PRO    HB2  105   3.080   1.152   3.547
   10PRO     CG  106   3.251   1.285   3.552
   10PRO    HG1  107   3.265   1.239   3.452
   10PRO    HG2  108   3.265   1.395   3.559
   10PRO      C  109   3.000   1.145   3.799
   10PRO      O  110   3.023   1.029   3.785
   11GLY      N  111   2.887   1.194   3.854
   11GLY     HN  112   2.873   1.290   3.879
   11GLY     CA  113   2.789   1.111   3.920
   11GLY    HA1  114   2.828   1.018   3.960
   11GLY    HA2  115   2.722   1.084   3.839
   11GLY      C  116   2.717   1.175   4.036
   11GLY      O  117   2.772   1.270   4.094
   12PRO      N  118   2.600   1.129   4.082
   12PRO     CD  119   2.519   1.044   4.000
   12PRO    HD1  120   2.572   0.947   3.984
   12PRO    HD2  121   2.490   1.093   3.904
   12PRO     CA  122   2.533   1.167   4.208
   12PRO     HA  123   2.496   1.267   4.187
   12PRO     CB  124   2.437   1.051   4.230
   12PRO    HB1  125   2.351   1.069   4.298
   12PRO    HB2  126   2.490   0.962   4.271
   12PRO     CG  127   2.387   1.022   4.089
   12PRO    HG1  128   2.352   0.918   4.071
   12PRO    HG2  129   2.310   1.095   4.058
   12PRO      C  130   2.612   1.184   4.337
   12PRO      O  131   2.709   1.110   4.360
   13GLY      N  132   2.591   1.283   4.414
   13GLY     HN  133   2.514   1.340   4.385
   13GLY     CA  134   2.637   1.308   4.548
   13GLY    HA1  135   2.626   1.413   4.569
   13GLY    HA2  136   2.742   1.283   4.558
   13GLY      C  137   2.558   1.237   4.649
   13GLY      O  138   2.500   1.133   4.625
   14ASP      N  139   2.572   1.287   4.769
   14ASP     HN  140   2.641   1.358   4.786
   14ASP     CA  141   2.496   1.228   4.879
   14ASP     HA  142   2.478   1.122   4.869
   14ASP     CB  143   2.583   1.254   4.997
   14ASP    HB1  144   2.537   1.227   5.095
   14ASP    HB2  145   2.605   1.363   4.999
   14ASP     CG  146   2.714   1.169   4.982
   14ASP    OD1  147   2.828   1.209   4.933
   14ASP    OD2  148   2.705   1.053   5.021
   14ASP      C  149   2.363   1.302   4.885
   14ASP      O  150   2.368   1.428   4.891
   15PRO      N  151   2.245   1.249   4.891
   15PRO     CD  152   2.225   1.109   4.856
   15PRO    HD1  153   2.229   1.031   4.935
   15PRO    HD2  154   2.295   1.076   4.776
   15PRO     CA  155   2.121   1.330   4.890
   15PRO     HA  156   2.132   1.389   4.801
   15PRO     CB  157   2.016   1.227   4.869
   15PRO    HB1  158   1.918   1.257   4.825
   15PRO    HB2  159   1.982   1.197   4.971
   15PRO     CG  160   2.073   1.102   4.805
   15PRO    HG1  161   2.029   1.004   4.834
   15PRO    HG2  162   2.074   1.114   4.694
   15PRO      C  163   2.094   1.420   5.012
   15PRO    OT1  164   2.104   1.372   5.126
   15PRO    OT2  165   2.054   1.543   4.998
   16LIT    LIT  166   1.980   1.496   5.195
   17LIT    LIT  167   2.715   1.817   5.829
   18LIT    LIT  168   2.716   6.746   2.486
   19LIT    LIT  169   5.263   5.106   1.284
   20LIT    LIT  170   1.788   5.926   3.714
   21LIT    LIT  171   0.027   1.647   2.816
   22LIT    LIT  172   0.543   1.235   4.258
   23LIT    LIT  173   1.354   2.051   2.848
   24LIT    LIT  174   0.885   1.614   5.348
   25LIT    LIT  175   4.830   0.655   4.619
   26LIT    LIT  176   7.745   2.048   1.731
   27LIT    LIT  177   0.477   2.974   6.146
   28LIT    LIT  178   5.118   1.026   5.028
   29LIT    LIT  179   2.705   4.856   1.030
   30LIT    LIT  180   3.619   3.788   0.172
   31LIT    LIT  181   6.948   5.786   5.558
   32LIT    LIT  182   4.675   4.405   0.852
   33LIT    LIT  183   7.291   2.457   0.935
   34LIT    LIT  184   4.737   7.197   3.471
   35LIT    LIT  185   4.115   7.685   6.629
   36LIT    LIT  186   3.580   0.265   3.509
   37LIT    LIT  187   0.287   6.647   1.095
   38LIT    LIT  188   5.164   7.684   4.348
   39LIT    LIT  189   8.104   7.524   3.585
   40LIT    LIT  190   0.199   1.026   1.896
   41LIT    LIT  191   1.343   7.377   4.449
   42LIT    LIT  192   6.931   0.713   0.628
   43LIT    LIT  193   5.796   2.601   1.009
   44LIT    LIT  194   6.897   2.379   5.361
   45LIT    LIT  195   7.366   5.411   3.340
   46LIT    LIT  196   7.064   4.776   2.492
   47LIT    LIT  197   0.537   4.871   1.888
   48LIT    LIT  198   6.086   2.825   3.493
   49LIT    LIT  199   7.834   1.842   6.435
   50LIT    LIT  200   7.776   0.555   4.314
   51LIT    LIT  201   2.414   0.556   3.963
   52LIT    LIT  202   7.469   5.746   0.817
   53LIT    LIT  203   0.101   3.429   2.169
   54LIT    LIT  204   1.282   3.460   1.637
   55LIT    LIT  205   6.170   7.807   3.511
   56LIT    LIT  206   4.585   6.866   1.828
   57LIT    LIT  207   5.705   3.273   2.618
   58LIT    LIT  208   2.872   0.982   5.008
   59LIT    LIT  209   0.811   6.332   4.437
   60LIT    LIT  210   3.362   4.980   5.186
   61CLA    CLA  211   8.195   4.762   3.873
   62CLA    CLA  212   2.251   3.965   4.629
   63CLA    CLA  213   1.707   1.306   2.665
   64CLA    CLA  214   5.000   3.310   1.370
   65CLA    CLA  215   6.787   0.039   2.800
   66CLA    CLA  216   8.151   0.513   4.023
   67CLA    CLA  217   1.113   1.136   5.881
   68CLA    CLA  218   6.241   0.480   5.060
   69CLA    CLA  219   2.027   1.941   5.847
   70CLA    CLA  220   4.091   6.770   4.870
   71CLA    CLA  221   0.644   5.461   6.075
   72CLA    CLA  222   2.768   5.520   1.243
   73CLA    CLA  223   8.219   3.447   1.509
   74CLA    CLA  224   7.589   6.055   3.436
   75CLA    CLA  225   6.616   0.772   4.433
   76CLA    CLA  226   4.187   1.185   1.393
   77CLA    CLA  227   3.373   4.538   4.350
   78CLA    CLA  228   4.078   4.548   1.107
   79CLA    CLA  229   5.185   2.315   6.689
   80CLA    CLA  230   7.292   4.295   1.387
   81CLA    CLA  231   5.710   6.329   5.986
   82CLA    CLA  232   0.172   0.675   6.242
   83CLA    CLA  233   2.030   5.263   0.155
   84CLA    CLA  234   2.487   1.347   0.239
   85CLA    CLA  235   3.723   5.795   5.590
   86CLA    CLA  236   6.988   3.836   3.570
   87CLA    CLA  237   2.854   6.519   2.804
   88CLA    CLA  238   5.246   5.529   1.072
   89CLA    CLA  239   6.711   4.633   4.623
   90CLA    CLA  240   1.195   6.258   6.742
   91CLA    CLA  241   3.398   3.292   2.062
   92CLA    CLA  242   7.409   7.376   4.633
   93CLA    CLA  243   4.767   1.331   4.608
   94CLA    CLA  244   2.002   2.466   6.393
   95CLA    CLA  245   2.172   5.455   4.473
   96CLA    CLA  246   0.402   0.963   2.411
   97CLA    CLA  247   6.370   2.354   4.319
   98CLA    CLA  248   1.323   5.995   3.865
   99CLA    CLA  249   7.397   2.346   1.120
  100CLA    CLA  250   1.001   4.125   4.129
  101CLA    CLA  251   0.035   1.658   2.588
  102CLA    CLA  252   0.518   1.047   4.690
  103TIP3   OH2  253   2.100   6.135   4.933
  103TIP3    H1  254   2.029   6.107   4.990
  103TIP3    H2  255   2.071   6.110   4.845
  104TIP3   OH2  256   6.492   6.043   5.863
  104TIP3    H1  257   6.541   6.125   5.857
  104TIP3    H2  258   6.558   5.975   5.851
  105TIP3   OH2  259   7.984   2.734   4.330
  105TIP3    H1  260   7.960   2.794   4.260
  105TIP3    H2  261   8.001   2.651   4.286
  106TIP3   OH2  262   5.886   5.857   0.452
  106TIP3    H1  263   5.928   5.812   0.526
  106TIP3    H2  264   5.957   5.875   0.391
  107TIP3   OH2  265   2.145   4.462   2.575
  107TIP3    H1  266   2.184   4.476   2.488
  107TIP3    H2  267   2.050   4.470   2.560
  108TIP3   OH2  268   0.544   5.017   1.349
  108TIP3    H1  269   0.542   5.014   1.445
  108TIP3    H2  270   0.614   4.956   1.325
  109TIP3   OH2  271   8.250   5.798   1.504
  109TIP3    H1  272   8.209   5.776   1.588
  109TIP3    H2  273   8.220   5.887   1.486
  110TIP3   OH2  274   6.406   5.363   4.544
  110TIP3    H1  275   6.344   5.378   4.473
  110TIP3    H2  276   6.444   5.450   4.561
  111TIP3   OH2  277   0.312   6.159   5.494
  111TIP3    H1  278   0.313   6.070   5.530
  111TIP3    H2  279   0.404   6.186   5.496
  112TIP3   OH2  280   2.736   2.996   5.335
  112TIP3    H1  281   2.683   2.918   5.318
  112TIP3    H2  282   2.687   3.044   5.402
  113TIP3   OH2  283   6.532   2.414   3.668
  113TIP3    H1  284   6.598   2.473   3.704
  113TIP3    H2  285   6.513   2.352   3.739
  114TIP3   OH2  286   1.504   0.638   2.252
  114TIP3    H1  287   1.414   0.650   2.223
  114TIP3    H2  288   1.508   0.682   2.337
  115TIP3   OH2  289   6.042   7.087   3.199
  115TIP3    H1  290   6.072   7.154   3.259
  115TIP3    H2  291   6.030   7.009   3.253
  116TIP3   OH2  292   1.694   2.479   5.681
  116TIP3    H1  293   1.620   2.508   5.627
  116TIP3    H2  294   1.681   2.385   5.691
  117TIP3   OH2  295   5.562   5.749   4.383
  117TIP3    H1  296   5.649   5.776   4.412
  117TIP3    H2  297   5.507   5.826   4.399
  118TIP3   OH2  298   8.010   4.027   6.515
  118TIP3    H1  299   7.917   4.045   6.498
  118TIP3    H2  300   8.049   4.113   6.529
  119TIP3   OH2  301   7.836   6.672   1.758
  119TIP3    H1  302   7.791   6.703   1.679
  119TIP3    H2  303   7.856   6.752   1.807
  120TIP3   OH2  304   4.202   2.085   2.048
  120TIP3    H1  305   4.122   2.132   2.023
  120TIP3    H2  306   4.171   2.015   2.105
  121TIP3   OH2  307   1.107   2.217   6.200
  121TIP3    H1  308   1.198   2.200   6.223
  121TIP3    H2  309   1.107   2.308   6.168
  122TIP3   OH2  310   4.917   6.775   6.139
  122TIP3    H1  311   4.850   6.735   6.083
  122TIP3    H2  312   5.000   6.758   6.094
  123TIP3   OH2  313   4.927   5.840   1.950
  123TIP3    H1  314   4.852   5.843   2.009
  123TIP3    H2  315   5.004   5.844   2.007
  124TIP3   OH2  316   0.167   6.643   4.320
  124TIP3    H1  317   0.187   6.723   4.271
  124TIP3    H2  318   0.072   6.633   4.312
  125TIP3   OH2  319   0.189   5.129   2.914
  125TIP3    H1  320   0.113   5.092   2.960
  125TIP3    H2  321   0.251   5.149   2.984
  126TIP3   OH2  322   2.603   1.565   1.629
  126TIP3    H1  323   2.632   1.492   1.574
  126TIP3    H2  324   2.651   1.641   1.596
  127TIP3   OH2  325   1.478   3.119   6.071
  127TIP3    H1  326   1.511   3.190   6.016
  127TIP3    H2  327   1.440   3.164   6.147
  128TIP3   OH2  328   5.531   6.983   5.975
  128TIP3    H1  329   5.581   6.964   6.054
  128TIP3    H2  330   5.583   6.945   5.904
  129TIP3   OH2  331   8.117   6.469   1.814
  129TIP3    H1  332   8.025   6.464   1.839
  129TIP3    H2  333   8.145   6.557   1.839
  130TIP3   OH2  334   1.013   0.411   2.863
  130TIP3    H1  335   1.000   0.486   2.921
  130TIP3    H2  336   1.080   0.358   2.906
  131TIP3   OH2  337   7.483   6.244   6.333
  131TIP3    H1  338   7.451   6.327   6.369
  131TIP3    H2  339   7.576   6.259   6.317
  132TIP3   OH2  340   3.460   4.570   5.050
  132TIP3    H1  341   3.492   4.519   5.125
  132TIP3    H2  342   3.528   4.561   4.984
  133TIP3   OH2  343   0.655   6.724   5.854
  133TIP3    H1  344   0.587   6.768   5.802
  133TIP3    H2  345   0.730   6.785   5.851
  134TIP3   OH2  346   2.406   0.904   3.734
  134TIP3    H1  347   2.314   0.912   3.711
  134TIP3    H2  348   2.449   0.976   3.688
  135TIP3   OH2  349   6.544   6.885   6.496
  135TIP3    H1  350   6.469   6.830   6.473
  135TIP3    H2  351   6.608   6.867   6.427
  136TIP3   OH2  352   1.358   3.416   1.461
  136TIP3    H1  353   1.301   3.414   1.384
  136TIP3    H2  354   1.447   3.415   1.425
  137TIP3   OH2  355   1.648   3.772   0.601
  137TIP3    H1  356   1.626   3.861   0.572
  137TIP3    H2  357   1.737   3.758   0.569
  138TIP3   OH2  358   1.611   3.331   6.320
  138TIP3    H1  359   1.518   3.312   6.309
  138TIP3    H2  360   1.636   3.376   6.240
  139TIP3   OH2  361   5.303   1.078   6.633
  139TIP3    H1  362   5.374   1.142   6.634
  139TIP3    H2  363   5.232   1.121   6.681
  140TIP3   OH2  364   3.872   0.731   0.684
  140TIP3    H1  365   3.875   0.826   0.669
  140TIP3    H2  366   3.937   0.716   0.753
  141TIP3   OH2  367   2.936   3.285   1.382
  141TIP3    H1  368   2.844   3.288   1.357
  141TIP3    H2  369   2.984   3.301   1.301
  142TIP3   OH2  370   4.861   4.886   2.598
  142TIP3    H1  371   4.915   4.963   2.611
  142TIP3    H2  372   4.776   4.909   2.635
  143TIP3   OH2  373   5.800   3.036   5.317
  143TIP3    H1  374   5.749   3.113   5.343
  143TIP3    H2  375   5.786   3.028   5.223
  144TIP3   OH2  376   1.391   6.260   1.736
  144TIP3    H1  377   1.439   6.182   1.710
  144TIP3    H2  378   1.458   6.324   1.759
  145TIP3   OH2  379   7.211   5.584   4.172
  145TIP3    H1  380   7.198   5.645   4.099
  145TIP3    H2  381   7.144   5.609   4.236
  146TIP3   OH2  382   5.870   3.355   2.141
  146TIP3    H1  383   5.797   3.393   2.190
  146TIP3    H2  384   5.847   3.263   2.130
  147TIP3   OH2  385   1.123   2.554   3.042
  147TIP3    H1  386   1.122   2.461   3.063
  147TIP3    H2  387   1.077   2.596   3.114
  148TIP3   OH2  388   7.239   3.445   2.977
  148TIP3    H1  389   7.155   3.402   2.961
  148TIP3    H2  390   7.236   3.468   3.070
  149TIP3   OH2  391   6.862   2.564   6.746
  149TIP3    H1  392   6.911   2.513   6.810
  149TIP3    H2  393   6.929   2.613   6.698
  150TIP3   OH2  394   5.229   6.318   2.184
  150TIP3    H1  395   5.210   6.410   2.202
  150TIP3    H2  396   5.314   6.320   2.140
  151TIP3   OH2  397   0.506   4.801   4.278
  151TIP3    H1  398   0.548   4.772   4.359
  151TIP3    H2  399   0.413   4.796   4.296
  152TIP3   OH2  400   1.910   6.674   5.644
  152TIP3    H1  401   1.986   6.672   5.586
  152TIP3    H2  402   1.947   6.672   5.733
  153TIP3   OH2  403   5.986   5.797   2.451
  153TIP3    H1  404   5.958   5.705   2.454
  153TIP3    H2  405   5.985   5.825   2.542
  154TIP3   OH2  406   5.179   6.721   4.109
  154TIP3    H1  407   5.168   6.655   4.177
  154TIP3    H2  408   5.252   6.775   4.140
  155TIP3   OH2  409   6.057   7.261   0.734
  155TIP3    H1  410   6.072   7.255   0.640
  155TIP3    H2  411   6.022   7.176   0.759
  156TIP3   OH2  412   1.287   4.814   3.269
  156TIP3    H1  413   1.367   4.832   3.319
  156TIP3    H2  414   1.275   4.720   3.275
  157TIP3   OH2  415   1.971   2.966   1.060
  157TIP3    H1  416   2.010   2.941   1.144
  157TIP3    H2  417   1.921   3.046   1.080
  158TIP3   OH2  418   3.150   0.961   0.959
  158TIP3    H1  419   3.190   0.993   0.878
  158TIP3    H2  420   3.206   0.889   0.987
  159TIP3   OH2  421   5.155   7.425   1.265
  159TIP3    H1  422   5.094   7.498   1.263
  159TIP3    H2  423   5.165   7.404   1.357
  160TIP3   OH2  424   3.980   3.560   1.162
  160TIP3    H1  425   4.066   3.532   1.194
  160TIP3    H2  426   3.920   3.539   1.233
  161TIP3   OH2  427   2.256   0.575   6.112
  161TIP3    H1  428   2.303   0.494   6.126
  161TIP3    H2  429   2.180   0.569   6.170
  162TIP3   OH2  430   0.058   2.872   0.727
  162TIP3    H1  431   0.124   2.807   0.751
  162TIP3    H2  432  -0.015   2.854   0.786
  163TIP3   OH2  433   0.659   1.732   3.593
  163TIP3    H1  434   0.753   1.712   3.587
  163TIP3    H2  435   0.653   1.825   3.572
  164TIP3   OH2  436   7.599   6.197   0.724
  164TIP3    H1  437   7.504   6.195   0.721
  164TIP3    H2  438   7.621   6.284   0.758
  165TIP3   OH2  439   5.209   3.288   4.867
  165TIP3    H1  440   5.211   3.349   4.941
  165TIP3    H2  441   5.284   3.313   4.813
  166TIP3   OH2  442   5.899   7.625   1.153
  166TIP3    H1  443   5.906   7.705   1.206
  166TIP3    H2  444   5.884   7.657   1.064
  167TIP3   OH2  445   7.285   2.807   5.769
  167TIP3    H1  446   7.284   2.715   5.793
  167TIP3    H2  447   7.315   2.853   5.847
  168TIP3   OH2  448   7.645   4.210   1.100
  168TIP3    H1  449   7.621   4.287   1.048
  168TIP3    H2  450   7.568   4.153   1.095
  169TIP3   OH2  451   5.879   2.888   2.540
  169TIP3    H1  452   5.794   2.849   2.517
  169TIP3    H2  453   5.930   2.815   2.577
  170TIP3   OH2  454   4.585   0.246   0.094
  170TIP3    H1  455   4.495   0.214   0.104
  170TIP3    H2  456   4.596   0.309   0.166
  171TIP3   OH2  457   4.307   5.197   6.478
  171TIP3    H1  458   4.372   5.168   6.541
  171TIP3    H2  459   4.223   5.188   6.524
  172TIP3   OH2  460   5.459   1.977   2.680
  172TIP3    H1  461   5.503   1.902   2.640
  172TIP3    H2  462   5.404   2.013   2.611
  173TIP3   OH2  463   3.415   4.988   5.364
  173TIP3    H1  464   3.413   4.901   5.403
  173TIP3    H2  465   3.479   5.037   5.417
  174TIP3   OH2  466   6.558   4.643   4.167
  174TIP3    H1  467   6.617   4.671   4.237
  174TIP3    H2  468   6.558   4.547   4.173
  175TIP3   OH2  469   4.420   6.733   4.134
  175TIP3    H1  470   4.356   6.664   4.117
  175TIP3    H2  471   4.414   6.790   4.057
  176TIP3   OH2  472   4.275   4.527   4.747
  176TIP3    H1  473   4.312   4.442   4.721
  176TIP3    H2  474   4.241   4.512   4.835
  177TIP3   OH2  475   1.120   7.699   3.762
  177TIP3    H1  476   1.182   7.628   3.744
  177TIP3    H2  477   1.145   7.731   3.849
  178TIP3   OH2  478   6.695   0.626   3.178
  178TIP3    H1  479   6.683   0.631   3.083
  178TIP3    H2  480   6.652   0.705   3.211
  179TIP3   OH2  481   7.745   6.999   4.580
  179TIP3    H1  482   7.813   6.932   4.592
  179TIP3    H2  483   7.730   7.034   4.667
  180TIP3   OH2  484   0.832   0.863   4.331
  180TIP3    H1  485   0.805   0.898   4.246
  180TIP3    H2  486   0.851   0.941   4.384
  181TIP3   OH2  487   7.793   6.640   2.934
  181TIP3    H1  488   7.728   6.590   2.885
  181TIP3    H2  489   7.755   6.650   3.022
  182TIP3   OH2  490   7.960   6.690   0.914
  182TIP3    H1  491   8.046   6.728   0.898
  182TIP3    H2  492   7.974   6.624   0.982
  183TIP3   OH2  493   1.736   5.592   6.436
  183TIP3    H1  494   1.759   5.565   6.525
  183TIP3    H2  495   1.775   5.679   6.428
  184TIP3   OH2  496   7.723   7.067   2.148
  184TIP3    H1  497   7.760   7.081   2.236
  184TIP3    H2  498   7.739   7.150   2.103
  185TIP3   OH2  499   4.381   4.606   0.093
  185TIP3    H1  500   4.438   4.590   0.168
  185TIP3    H2  501   4.297   4.629   0.131
  186TIP3   OH2  502   4.432   7.439   5.614
  186TIP3    H1  503   4.375   7.484   5.676
  186TIP3    H2  504   4.373   7.390   5.557
  187TIP3   OH2  505   3.147   5.900   4.311
  187TIP3    H1  506   3.233   5.907   4.353
  187TIP3    H2  507   3.095   5.846   4.371
  188TIP3   OH2  508   3.596   3.785   5.526
  188TIP3    H1  509   3.501   3.787   5.529
  188TIP3    H2  510   3.623   3.755   5.612
  189TIP3   OH2  511   3.738   4.005   0.913
  189TIP3    H1  512   3.775   4.037   0.831
  189TIP3    H2  513   3.787   3.925   0.931
  190TIP3   OH2  514   3.136   6.573   1.265
  190TIP3    H1  515   3.098   6.485   1.259
  190TIP3    H2  516   3.118   6.601   1.355
  191TIP3   OH2  517   8.136   5.251   0.769
  191TIP3    H1  518   8.151   5.231   0.861
  191TIP3    H2  519   8.042   5.238   0.755
  192TIP3   OH2  520   5.117   5.999   6.348
  192TIP3    H1  521   5.209   5.972   6.343
  192TIP3    H2  522   5.088   6.002   6.256
  193TIP3   OH2  523   6.587   6.023   0.606
  193TIP3    H1  524   6.658   6.055   0.550
  193TIP3    H2  525   6.614   6.045   0.695
  194TIP3   OH2  526   6.313   3.447   2.613
  194TIP3    H1  527   6.375   3.412   2.549
  194TIP3    H2  528   6.343   3.536   2.630
  195TIP3   OH2  529   6.486   7.760   0.862
  195TIP3    H1  530   6.546   7.718   0.924
  195TIP3    H2  531   6.527   7.844   0.843
  196TIP3   OH2  532   4.046   6.617   6.684
  196TIP3    H1  533   4.102   6.621   6.607
  196TIP3    H2  534   4.048   6.525   6.710
  197TIP3   OH2  535   6.453   7.662   2.074
  197TIP3    H1  536   6.377   7.632   2.125
  197TIP3    H2  537   6.427   7.649   1.983
  198TIP3   OH2  538   6.637   6.099   3.288
  198TIP3    H1  539   6.573   6.055   3.232
  198TIP3    H2  540   6.591   6.176   3.321
  199TIP3   OH2  541   4.491   2.755   0.362
  199TIP3    H1  542   4.399   2.739   0.338
  199TIP3    H2  543   4.496   2.730   0.454
  200TIP3   OH2  544   4.346   3.996   4.528
  200TIP3    H1  545   4.437   3.974   4.551
  200TIP3    H2  546   4.298   3.988   4.611
  201TIP3   OH2  547   8.095   5.005   6.173
  201TIP3    H1  548   8.063   4.915   6.172
  201TIP3    H2  549   8.153   5.009   6.249
  202TIP3   OH2  550   1.704   0.772   4.778
  202TIP3    H1  551   1.618   0.741   4.806
  202TIP3    H2  552   1.698   0.781   4.683
  203TIP3   OH2  553   0.970   6.155   2.282
  203TIP3    H1  554   0.940   6.134   2.194
  203TIP3    H2  555   0.967   6.072   2.329
  204TIP3   OH2  556   3.862   4.436   3.600
  204TIP3    H1  557   3.797   4.466   3.663
  204TIP3    H2  558   3.932   4.501   3.605
  205TIP3   OH2  559   1.897   6.352   2.265
  205TIP3    H1  560   1.859   6.438   2.251
  205TIP3    H2  561   1.834   6.306   2.320
  206TIP3   OH2  562   3.677   4.749   6.332
  206TIP3    H1  563   3.769   4.725   6.320
  206TIP3    H2  564   3.639   4.675   6.380
  207TIP3   OH2  565   3.539   5.102   5.797
  207TIP3    H1  566   3.594   5.025   5.782
  207TIP3    H2  567   3.574   5.140   5.878
  208TIP3   OH2  568   7.021   1.979   2.808
  208TIP3    H1  569   6.986   1.950   2.892
  208TIP3    H2  570   6.999   1.909   2.747
  209TIP3   OH2  571   2.916   4.632   1.563
  209TIP3    H1  572   2.875   4.713   1.530
  209TIP3    H2  573   2.867   4.611   1.643
  210TIP3   OH2  574   7.009   2.878   4.505
  210TIP3    H1  575   7.075   2.835   4.449
  210TIP3    H2  576   7.060   2.936   4.562
  211TIP3   OH2  577   7.786   4.762   0.808
  211TIP3    H1  578   7.774   4.732   0.718
  211TIP3    H2  579   7.717   4.827   0.822
  212TIP3   OH2  580   0.755   6.974   1.313
  212TIP3    H1  581   0.722   7.042   1.254
  212TIP3    H2  582   0.683   6.911   1.319
  213TIP3   OH2  583   5.936   6.287   2.156
  213TIP3    H1  584   5.841   6.279   2.158
  213TIP3    H2  585   5.952   6.368   2.108
  214TIP3   OH2  586   1.755   6.315   0.870
  214TIP3    H1  587   1.675   6.367   0.883
  214TIP3    H2  588   1.826   6.374   0.893
  215TIP3   OH2  589   7.777   5.629   2.254
  215TIP3    H1  590   7.752   5.542   2.221
  215TIP3    H2  591   7.694   5.670   2.279
  216TIP3   OH2  592   2.144   4.048   3.070
  216TIP3    H1  593   2.178   4.001   3.147
  216TIP3    H2  594   2.207   4.030   3.001
  217TIP3   OH2  595   1.617   6.518   5.433
  217TIP3    H1  596   1.530   6.496   5.397
  217TIP3    H2  597   1.609   6.609   5.461
  218TIP3   OH2  598   8.122   1.978   2.760
  218TIP3    H1  599   8.083   1.931   2.833
  218TIP3    H2  600   8.180   2.043   2.801
  219TIP3   OH2  601   3.131   4.176   2.248
  219TIP3    H1  602   3.174   4.262   2.241
  219TIP3    H2  603   3.204   4.114   2.253
  220TIP3   OH2  604   2.482   4.750   1.586
  220TIP3    H1  605   2.576   4.771   1.578
  220TIP3    H2  606   2.449   4.811   1.652
  221TIP3   OH2  607   6.977   1.214   1.110
  221TIP3    H1  608   6.894   1.262   1.114
  221TIP3    H2  609   6.977   1.172   1.024
  222TIP3   OH2  610   2.115   0.416   5.435
  222TIP3    H1  611   2.021   0.428   5.419
  222TIP3    H2  612   2.149   0.504   5.447
  223TIP3   OH2  613   1.669   0.783   5.638
  223TIP3    H1  614   1.624   0.756   5.718
  223TIP3    H2  615   1.655   0.710   5.578
  224TIP3   OH2  616   6.747   0.701   0.574
  224TIP3    H1  617   6.681   0.638   0.603
  224TIP3    H2  618   6.710   0.742   0.497
  225TIP3   OH2  619   4.864   2.456   3.726
  225TIP3    H1  620   4.896   2.545   3.710
  225TIP3    H2  621   4.926   2.421   3.790
  226TIP3   OH2  622   1.971   7.211   4.756
  226TIP3    H1  623   2.045   7.209   4.817
  226TIP3    H2  624   1.991   7.284   4.698
  227TIP3   OH2  625   1.997   2.110   1.186
  227TIP3    H1  626   2.036   2.033   1.146
  227TIP3    H2  627   2.020   2.103   1.279
  228TIP3   OH2  628   0.626   7.010   3.874
  228TIP3    H1  629   0.616   7.070   3.947
  228TIP3    H2  630   0.576   6.932   3.899
  229TIP3   OH2  631   0.088   2.301   3.998
  229TIP3    H1  632  -0.002   2.268   4.003
  229TIP3    H2  633   0.097   2.359   4.074
  230TIP3   OH2  634   7.118   3.387   2.188
  230TIP3    H1  635   7.097   3.294   2.179
  230TIP3    H2  636   7.118   3.421   2.099
  231TIP3   OH2  637   5.190   4.856   5.049
  231TIP3    H1  638   5.204   4.949   5.065
  231TIP3    H2  639   5.096   4.848   5.032
  232TIP3   OH2  640   3.406   3.533   2.265
  232TIP3    H1  641   3.400   3.593   2.190
  232TIP3    H2  642   3.389   3.447   2.228
  233TIP3   OH2  643   2.972   3.220   6.130
  233TIP3    H1  644   2.961   3.239   6.036
  233TIP3    H2  645   2.903   3.272   6.172
  234TIP3   OH2  646   3.772   0.827   4.719
  234TIP3    H1  647   3.708   0.873   4.774
  234TIP3    H2  648   3.838   0.796   4.781
  235TIP3   OH2  649   3.353   2.135   1.414
  235TIP3    H1  650   3.430   2.080   1.397
  235TIP3    H2  651   3.280   2.074   1.418
  236TIP3   OH2  652   5.268   3.015   3.372
  236TIP3    H1  653   5.191   3.034   3.427
  236TIP3    H2  654   5.335   2.986   3.434
  237TIP3   OH2  655   4.964   6.328   3.930
  237TIP3    H1  656   4.940   6.395   3.867
  237TIP3    H2  657   4.915   6.250   3.902
  238TIP3   OH2  658   2.412   5.016   3.521
  238TIP3    H1  659   2.421   5.037   3.613
  238TIP3    H2  660   2.338   5.068   3.491
  239TIP3   OH2  661   5.281   7.019   3.536
  239TIP3    H1  662   5.274   6.935   3.490
  239TIP3    H2  663   5.374   7.030   3.553
  240TIP3   OH2  664   2.923   2.935   5.656
  240TIP3    H1  665   2.933   2.936   5.561
  240TIP3    H2  666   2.985   3.000   5.688
  241TIP3   OH2  667   0.129   5.726   0.563
  241TIP3    H1  668   0.186   5.655   0.533
  241TIP3    H2  669   0.046   5.682   0.585
  242TIP3   OH2  670   7.443   0.032   3.236
  242TIP3    H1  671   7.437   0.076   3.152
  242TIP3    H2  672   7.353   0.034   3.271
  243TIP3   OH2  673   3.533   7.016   0.310
  243TIP3    H1  674   3.597   6.997   0.241
  243TIP3    H2  675   3.531   6.936   0.363
  244TIP3   OH2  676   2.462   1.928   1.171
  244TIP3    H1  677   2.448   1.920   1.077
  244TIP3    H2  678   2.526   1.860   1.192
  245TIP3   OH2  679   4.891   6.419   0.612
  245TIP3    H1  680   4.949   6.375   0.550
  245TIP3    H2  681   4.928   6.507   0.622
  246TIP3   OH2  682   5.977   6.152   5.076
  246TIP3    H1  683   5.970   6.076   5.018
  246TIP3    H2  684   5.998   6.225   5.018
  247TIP3   OH2  685   8.039   1.636   0.571
  247TIP3    H1  686   8.109   1.571   0.579
  247TIP3    H2  687   7.958   1.585   0.573
  248TIP3   OH2  688   2.599   1.922   3.072
  248TIP3    H1  689   2.596   1.893   3.163
  248TIP3    H2  690   2.684   1.965   3.063
  249TIP3   OH2  691   1.305   1.643   4.462
  249TIP3    H1  692   1.316   1.738   4.455
  249TIP3    H2  693   1.384   1.607   4.423
  250TIP3   OH2  694   3.456   1.724   6.514
  250TIP3    H1  695   3.366   1.718   6.546
  250TIP3    H2  696   3.459   1.664   6.439
  251TIP3   OH2  697   1.888   3.234   4.295
  251TIP3    H1  698   1.901   3.322   4.258
  251TIP3    H2  699   1.840   3.250   4.376
  252TIP3   OH2  700   7.928   4.384   2.629
  252TIP3    H1  701   7.855   4.368   2.689
  252TIP3    H2  702   7.919   4.316   2.562
  253TIP3   OH2  703   1.573   3.999   0.442
  253TIP3    H1  704   1.479   4.018   0.445
  253TIP3    H2  705   1.592   3.986   0.350
  254TIP3   OH2  706   3.009   3.961   5.651
  254TIP3    H1  707   2.955   4.040   5.646
  254TIP3    H2  708   3.025   3.936   5.560
  255TIP3   OH2  709   5.934   1.723   3.189
  255TIP3    H1  710   5.865   1.778   3.151
  255TIP3    H2  711   5.958   1.664   3.118
  256TIP3   OH2  712   5.789   4.991   2.919
  256TIP3    H1  713   5.718   5.047   2.886
  256TIP3    H2  714   5.866   5.049   2.920
  257TIP3   OH2  715   2.195   1.147   1.983
  257TIP3    H1  716   2.245   1.220   2.017
  257TIP3    H2  717   2.177   1.092   2.059
  258TIP3   OH2  718   7.736   7.446   6.081
  258TIP3    H1  719   7.660   7.392   6.103
  258TIP3    H2  720   7.707   7.501   6.008
  259TIP3   OH2  721   7.625  -0.003   6.339
  259TIP3    H1  722   7.614   0.012   6.245
  259TIP3    H2  723   7.687   0.064   6.367
  260TIP3   OH2  724   6.148   6.000   0.125
  260TIP3    H1  725   6.114   5.956   0.203
  260TIP3    H2  726   6.086   5.976   0.056
  261TIP3   OH2  727   6.715   4.419   5.051
  261TIP3    H1  728   6.660   4.479   4.999
  261TIP3    H2  729   6.767   4.372   4.987
  262TIP3   OH2  730   2.933   4.330   0.311
  262TIP3    H1  731   2.965   4.371   0.230
  262TIP3    H2  732   2.971   4.242   0.309
  263TIP3   OH2  733   4.814   1.320   1.976
  263TIP3    H1  734   4.859   1.385   2.030
  263TIP3    H2  735   4.725   1.353   1.966
  264TIP3   OH2  736   6.410   6.276   0.475
  264TIP3    H1  737   6.431   6.188   0.507
  264TIP3    H2  738   6.378   6.262   0.386
  265TIP3   OH2  739   5.018   0.086   6.456
  265TIP3    H1  740   5.025   0.106   6.363
  265TIP3    H2  741   5.109   0.083   6.486
  266TIP3   OH2  742   4.666   4.874   1.529
  266TIP3    H1  743   4.719   4.895   1.453
  266TIP3    H2  744   4.679   4.948   1.589
  267TIP3   OH2  745   0.316   0.420   3.322
  267TIP3    H1  746   0.355   0.413   3.235
  267TIP3    H2  747   0.252   0.348   3.327
  268TIP3   OH2  748   6.164   3.126   4.699
  268TIP3    H1  749   6.170   3.041   4.742
  268TIP3    H2  750   6.215   3.115   4.619
  269TIP3   OH2  751   6.447   6.836   3.960
  269TIP3    H1  752   6.519   6.799   3.910
  269TIP3    H2  753   6.483   6.916   3.999
  270TIP3   OH2  754   7.123   3.172   3.783
  270TIP3    H1  755   7.055   3.210   3.727
  270TIP3    H2  756   7.170   3.247   3.818
  271TIP3   OH2  757   2.027   7.472   6.033
  271TIP3    H1  758   1.945   7.500   6.072
  271TIP3    H2  759   2.066   7.413   6.098
  272TIP3   OH2  760   6.637   0.521   6.656
  272TIP3    H1  761   6.589   0.569   6.723
  272TIP3    H2  762   6.570   0.490   6.595
  273TIP3   OH2  763   2.802   6.212   5.002
  273TIP3    H1  764   2.809   6.251   5.089
  273TIP3    H2  765   2.892   6.206   4.970
  274TIP3   OH2  766   7.209   2.372   5.234
  274TIP3    H1  767   7.244   2.283   5.222
  274TIP3    H2  768   7.181   2.374   5.326
  275TIP3   OH2  769   4.731   6.539   4.947
  275TIP3    H1  770   4.688   6.624   4.937
  275TIP3    H2  771   4.667   6.484   4.991
  276TIP3   OH2  772   4.576   6.189   3.592
  276TIP3    H1  773   4.668   6.214   3.601
  276TIP3    H2  774   4.564   6.181   3.497
  277TIP3   OH2  775   3.538   1.502   6.272
  277TIP3    H1  776   3.449   1.511   6.240
  277TIP3    H2  777   3.533   1.436   6.341
  278TIP3   OH2  778   7.816   6.656   2.152
  278TIP3    H1  779   7.889   6.690   2.101
  278TIP3    H2  780   7.857   6.608   2.224
  279TIP3   OH2  781   7.046   7.132   5.920
  279TIP3    H1  782   7.055   7.204   5.857
  279TIP3    H2  783   7.130   7.130   5.966
  280TIP3   OH2  784   3.413   5.924   3.268
  280TIP3    H1  785   3.354   5.917   3.193
  280TIP3    H2  786   3.406   6.016   3.295
  281TIP3   OH2  787   4.173   1.008   5.282
  281TIP3    H1  788   4.138   0.937   5.229
  281TIP3    H2  789   4.190   0.969   5.367
  282TIP3   OH2  790   1.047   0.817   0.761
  282TIP3    H1  791   1.044   0.911   0.743
  282TIP3    H2  792   0.968   0.800   0.812
  283TIP3   OH2  793   4.834   4.179   1.677
  283TIP3    H1  794   4.835   4.128   1.758
  283TIP3    H2  795   4.758   4.236   1.686
  284TIP3   OH2  796   2.164   1.434   5.651
  284TIP3    H1  797   2.159   1.345   5.617
  284TIP3    H2  798   2.113   1.431   5.732
  285TIP3   OH2  799   2.411   7.636   4.917
  285TIP3    H1  800   2.434   7.572   4.984
  285TIP3    H2  801   2.347   7.693   4.959
  286TIP3   OH2  802   2.582   1.694   4.400
  286TIP3    H1  803   2.537   1.665   4.480
  286TIP3    H2  804   2.615   1.781   4.421
  287TIP3   OH2  805   2.721   0.487   4.924
  287TIP3    H1  806   2.787   0.477   4.992
  287TIP3    H2  807   2.645   0.440   4.958
  288TIP3   OH2  808   5.394   6.685   1.200
  288TIP3    H1  809   5.355   6.598   1.196
  288TIP3    H2  810   5.433   6.689   1.288
  289TIP3   OH2  811   1.688   6.462   5.907
  289TIP3    H1  812   1.729   6.434   5.826
  289TIP3    H2  813   1.611   6.404   5.917
  290TIP3   OH2  814   7.880   2.525   2.894
  290TIP3    H1  815   7.935   2.573   2.832
  290TIP3    H2  816   7.890   2.434   2.869
  291TIP3   OH2  817   8.107   5.219   3.469
  291TIP3    H1  818   8.034   5.232   3.530
  291TIP3    H2  819   8.073   5.155   3.406
  292TIP3   OH2  820   3.382   4.274   6.758
  292TIP3    H1  821   3.343   4.237   6.679
  292TIP3    H2  822   3.418   4.358   6.731
  293TIP3   OH2  823   7.704   2.870   5.261
  293TIP3    H1  824   7.706   2.861   5.166
  293TIP3    H2  825   7.796   2.884   5.285
  294TIP3   OH2  826   5.719   0.393   4.207
  294TIP3    H1  827   5.811   0.418   4.196
  294TIP3    H2  828   5.707   0.319   4.148
  295TIP3   OH2  829   2.445   6.148   3.345
  295TIP3    H1  830   2.459   6.054   3.328
  295TIP3    H2  831   2.527   6.189   3.319
  296TIP3   OH2  832   5.271   2.903   1.771
  296TIP3    H1  833   5.270   2.900   1.675
  296TIP3    H2  834   5.186   2.941   1.794
  297TIP3   OH2  835   7.115   6.598   0.648
  297TIP3    H1  836   7.043   6.638   0.697
  297TIP3    H2  837   7.075   6.521   0.606
  298TIP3   OH2  838   1.139   2.289   2.141
  298TIP3    H1  839   1.082   2.344   2.087
  298TIP3    H2  840   1.153   2.339   2.221
  299TIP3   OH2  841   7.468   4.924   4.100
  299TIP3    H1  842   7.420   4.865   4.157
  299TIP3    H2  843   7.544   4.951   4.152
  300TIP3   OH2  844   2.687   3.661   0.478
  300TIP3    H1  845   2.641   3.643   0.396
  300TIP3    H2  846   2.780   3.651   0.457
  301TIP3   OH2  847   4.828   0.524   0.564
  301TIP3    H1  848   4.831   0.579   0.643
  301TIP3    H2  849   4.899   0.461   0.576
  302TIP3   OH2  850   4.741   4.743   1.830
  302TIP3    H1  851   4.679   4.805   1.791
  302TIP3    H2  852   4.731   4.755   1.924
  303TIP3   OH2  853   4.409   3.347   4.134
  303TIP3    H1  854   4.493   3.325   4.174
  303TIP3    H2  855   4.400   3.441   4.149
  304TIP3   OH2  856   5.099   5.333   4.131
  304TIP3    H1  857   5.070   5.415   4.171
  304TIP3    H2  858   5.095   5.350   4.036
  305TIP3   OH2  859   1.224   5.248   3.941
  305TIP3    H1  860   1.264   5.263   4.027
  305TIP3    H2  861   1.218   5.153   3.933
  306TIP3   OH2  862   2.674   3.609   5.280
  306TIP3    H1  863   2.685   3.530   5.332
  306TIP3    H2  864   2.636   3.579   5.198
  307TIP3   OH2  865   2.119   6.297   5.999
  307TIP3    H1  866   2.107   6.202   6.001
  307TIP3    H2  867   2.200   6.313   6.047
  308TIP3   OH2  868   8.284   0.205   5.637
  308TIP3    H1  869   8.320   0.276   5.690
  308TIP3    H2  870   8.196   0.234   5.614
  309TIP3   OH2  871   3.092   4.644   4.360
  309TIP3    H1  872   3.092   4.704   4.435
  309TIP3    H2  873   3.181   4.609   4.357
  310TIP3   OH2  874   0.851   7.609   2.616
  310TIP3    H1  875   0.849   7.543   2.685
  310TIP3    H2  876   0.913   7.575   2.552
  311TIP3   OH2  877   3.085   1.821   0.452
  311TIP3    H1  878   3.056   1.756   0.388
  311TIP3    H2  879   3.059   1.905   0.414
  312TIP3   OH2  880   7.052   4.483   2.707
  312TIP3    H1  881   7.061   4.432   2.788
  312TIP3    H2  882   6.978   4.442   2.662
  313TIP3   OH2  883   3.289   1.603   2.402
  313TIP3    H1  884   3.284   1.693   2.370
  313TIP3    H2  885   3.203   1.566   2.383
  314TIP3   OH2  886   8.243   7.158   1.332
  314TIP3    H1  887   8.150   7.182   1.342
  314TIP3    H2  888   8.278   7.225   1.272
  315TIP3   OH2  889   7.029   5.600   5.546
  315TIP3    H1  890   7.000   5.547   5.472
  315TIP3    H2  891   7.114   5.563   5.570
  316TIP3   OH2  892   6.686   3.938   4.451
  316TIP3    H1  893   6.654   4.011   4.505
  316TIP3    H2  894   6.710   3.978   4.368
  317TIP3   OH2  895   1.453   5.996   6.013
  317TIP3    H1  896   1.472   5.905   5.991
  317TIP3    H2  897   1.417   5.992   6.102
  318TIP3   OH2  898   0.456   4.305   5.981
  318TIP3    H1  899   0.483   4.213   5.973
  318TIP3    H2  900   0.537   4.352   6.001
  319TIP3   OH2  901   7.270   1.483   5.440
  319TIP3    H1  902   7.190   1.431   5.450
  319TIP3    H2  903   7.293   1.508   5.529
  320TIP3   OH2  904   4.087   1.140   1.091
  320TIP3    H1  905   3.996   1.169   1.082
  320TIP3    H2  906   4.109   1.159   1.182
  321TIP3   OH2  907   5.771   0.640   3.769
  321TIP3    H1  908   5.816   0.692   3.702
  321TIP3    H2  909   5.730   0.568   3.720
  322TIP3   OH2  910   2.333   7.765   2.265
  322TIP3    H1  911   2.362   7.848   2.228
  322TIP3    H2  912   2.409   7.707   2.260
  323TIP3   OH2  913   5.198   1.057   1.750
  323TIP3    H1  914   5.142   1.134   1.758
  323TIP3    H2  915   5.250   1.074   1.671
  324TIP3   OH2  916   5.077   3.945   1.791
  324TIP3    H1  917   4.984   3.964   1.807
  324TIP3    H2  918   5.078   3.901   1.706
  325TIP3   OH2  919   6.883   1.233   5.358
  325TIP3    H1  920   6.793   1.205   5.373
  325TIP3    H2  921   6.877   1.290   5.281
  326TIP3   OH2  922   7.325   7.310   5.150
  326TIP3    H1  923   7.311   7.346   5.063
  326TIP3    H2  924   7.250   7.253   5.165
  327TIP3   OH2  925   0.283   0.557   0.304
  327TIP3    H1  926   0.315   0.497   0.236
  327TIP3    H2  927   0.362   0.598   0.339
  328TIP3   OH2  928   2.322   0.804   1.676
  328TIP3    H1  929   2.244   0.764   1.713
  328TIP3    H2  930   2.395   0.759   1.719
  329TIP3   OH2  931   6.570   7.474   5.748
  329TIP3    H1  932   6.582   7.475   5.653
  329TIP3    H2  933   6.642   7.421   5.781
  330TIP3   OH2  934   4.585   6.593   5.671
  330TIP3    H1  935   4.587   6.599   5.576
  330TIP3    H2  936   4.582   6.499   5.689
  331TIP3   OH2  937   1.068   4.967   3.268
  331TIP3    H1  938   1.144   4.910   3.276
  331TIP3    H2  939   1.010   4.922   3.207
  332TIP3   OH2  940   3.386   1.940   3.516
  332TIP3    H1  941   3.401   1.994   3.438
  332TIP3    H2  942   3.308   1.888   3.494
  333TIP3   OH2  943   5.964   2.033   3.758
  333TIP3    H1  944   5.970   2.082   3.840
  333TIP3    H2  945   5.873   2.045   3.730
  334TIP3   OH2  946   4.242   3.968   0.702
  334TIP3    H1  947   4.169   3.909   0.680
  334TIP3    H2  948   4.202   4.055   0.705
  335TIP3   OH2  949   2.283   3.834   4.903
  335TIP3    H1  950   2.188   3.841   4.913
  335TIP3    H2  951   2.300   3.860   4.813
  336TIP3   OH2  952   0.458   5.455   0.707
  336TIP3    H1  953   0.521   5.397   0.665
  336TIP3    H2  954   0.478   5.449   0.801
  337TIP3   OH2  955   1.217   7.461   3.126
  337TIP3    H1  956   1.277   7.436   3.056
  337TIP3    H2  957   1.145   7.506   3.081
  338TIP3   OH2  958   5.149   1.881   0.496
  338TIP3    H1  959   5.077   1.943   0.503
  338TIP3    H2  960   5.188   1.898   0.411
  339TIP3   OH2  961   6.353   3.067   4.527
  339TIP3    H1  962   6.427   3.125   4.509
  339TIP3    H2  963   6.393   2.980   4.539
  340TIP3   OH2  964   5.393   6.012   3.123
  340TIP3    H1  965   5.335   5.939   3.101
  340TIP3    H2  966   5.473   5.970   3.155
  341TIP3   OH2  967   5.948   5.130   0.612
  341TIP3    H1  968   5.876   5.082   0.653
  341TIP3    H2  969   6.013   5.063   0.591
  342TIP3   OH2  970   4.466   7.379   1.407
  342TIP3    H1  971   4.545   7.373   1.353
  342TIP3    H2  972   4.413   7.445   1.364
  343TIP3   OH2  973   4.016   3.557   0.164
  343TIP3    H1  974   3.973   3.486   0.211
  343TIP3    H2  975   4.072   3.514   0.100
  344TIP3   OH2  976   1.604   5.929   2.329
  344TIP3    H1  977   1.559   5.852   2.363
  344TIP3    H2  978   1.670   5.894   2.269
  345TIP3   OH2  979   1.163   5.938   6.700
  345TIP3    H1  980   1.220   5.882   6.648
  345TIP3    H2  981   1.193   6.027   6.682
  346TIP3   OH2  982   8.316   7.735   6.263
  346TIP3    H1  983   8.303   7.642   6.281
  346TIP3    H2  984   8.276   7.780   6.337
  347TIP3   OH2  985   1.810   3.681   4.164
  347TIP3    H1  986   1.731   3.694   4.216
  347TIP3    H2  987   1.873   3.743   4.200
  348TIP3   OH2  988   3.330   5.231   2.381
  348TIP3    H1  989   3.239   5.261   2.379
  348TIP3    H2  990   3.372   5.277   2.307
  349TIP3   OH2  991   5.556   1.393   3.608
  349TIP3    H1  992   5.523   1.329   3.544
  349TIP3    H2  993   5.518   1.364   3.692
  350TIP3   OH2  994   4.280   6.682   3.450
  350TIP3    H1  995   4.192   6.659   3.422
  350TIP3    H2  996   4.315   6.602   3.489
  351TIP3   OH2  997   5.800   6.753   3.142
  351TIP3    H1  998   5.759   6.686   3.086
  351TIP3    H2  999   5.778   6.836   3.101
  352TIP3   OH2 1000   1.993   2.596   2.257
  352TIP3    H1 1001   1.901   2.620   2.242
  352TIP3    H2 1002   2.018   2.646   2.335
  353TIP3   OH2 1003   6.963   4.830   5.676
  353TIP3    H1 1004   6.878   4.786   5.670
  353TIP3    H2 1005   7.026   4.765   5.646
  354TIP3   OH2 1006   7.855   2.365   4.539
  354TIP3    H1 1007   7.892   2.453   4.533
  354TIP3    H2 1008   7.762   2.377   4.518
  355TIP3   OH2 1009   0.179   6.465   4.083
  355TIP3    H1 1010   0.188   6.426   4.170
  355TIP3    H2 1011   0.266   6.499   4.063
  356TIP3   OH2 1012   0.610   0.482   1.547
  356TIP3    H1 1013   0.684   0.543   1.540
  356TIP3    H2 1014   0.613   0.433   1.465
  357TIP3   OH2 1015   1.024   6.020   1.419
  357TIP3    H1 1016   1.013   6.000   1.512
  357TIP3    H2 1017   1.059   5.939   1.381
  358TIP3   OH2 1018   5.452   0.100   0.070
  358TIP3    H1 1019   5.406   0.030   0.025
  358TIP3    H2 1020   5.543   0.070   0.077
  359TIP3   OH2 1021   4.296   7.210   3.629
  359TIP3    H1 1022   4.252   7.199   3.713
  359TIP3    H2 1023   4.389   7.216   3.651
  360TIP3   OH2 1024   4.799   0.406   2.971
  360TIP3    H1 1025   4.738   0.478   2.988
  360TIP3    H2 1026   4.752   0.328   2.999
  361TIP3   OH2 1027   2.339   4.422   2.770
  361TIP3    H1 1028   2.274   4.447   2.836
  361TIP3    H2 1029   2.304   4.457   2.688
  362TIP3   OH2 1030   2.552   4.591   1.955
  362TIP3    H1 1031   2.596   4.672   1.981
  362TIP3    H2 1032   2.557   4.535   2.032
  363TIP3   OH2 1033   2.960   1.045   1.533
  363TIP3    H1 1034   3.055   1.034   1.538
  363TIP3    H2 1035   2.943   1.132   1.567
  364TIP3   OH2 1036   5.591   4.409   2.820
  364TIP3    H1 1037   5.629   4.493   2.845
  364TIP3    H2 1038   5.552   4.374   2.900
  365TIP3   OH2 1039   7.192   6.192   3.488
  365TIP3    H1 1040   7.238   6.182   3.571
  365TIP3    H2 1041   7.113   6.139   3.497
  366TIP3   OH2 1042   1.505   7.733   4.305
  366TIP3    H1 1043   1.549   7.750   4.221
  366TIP3    H2 1044   1.544   7.797   4.365
  367TIP3   OH2 1045   3.101   6.422   5.878
  367TIP3    H1 1046   3.074   6.424   5.970
  367TIP3    H2 1047   3.042   6.485   5.836
  368TIP3   OH2 1048   8.263   2.491   0.686
  368TIP3    H1 1049   8.304   2.557   0.629
  368TIP3    H2 1050   8.335   2.454   0.736
  369TIP3   OH2 1051   0.553   3.704   0.531
  369TIP3    H1 1052   0.527   3.781   0.481
  369TIP3    H2 1053   0.484   3.640   0.515
  370TIP3   OH2 1054   0.778   4.999   3.854
  370TIP3    H1 1055   0.758   4.948   3.933
  370TIP3    H2 1056   0.855   4.956   3.817
  371TIP3   OH2 1057   7.708   3.576   2.573
  371TIP3    H1 1058   7.702   3.664   2.610
  371TIP3    H2 1059   7.710   3.518   2.649
  372TIP3   OH2 1060   1.945   0.577   4.461
  372TIP3    H1 1061   1.938   0.524   4.540
  372TIP3    H2 1062   1.949   0.667   4.493
  373TIP3   OH2 1063   7.228   5.024   0.543
  373TIP3    H1 1064   7.230   5.115   0.513
  373TIP3    H2 1065   7.136   4.998   0.536
  374TIP3   OH2 1066   5.556   3.361   5.559
  374TIP3    H1 1067   5.511   3.278   5.544
  374TIP3    H2 1068   5.624   3.364   5.492
  375TIP3   OH2 1069   5.369   0.813   6.629
  375TIP3    H1 1070   5.360   0.908   6.629
  375TIP3    H2 1071   5.309   0.783   6.560
  376TIP3   OH2 1072   0.034   2.059   4.782
  376TIP3    H1 1073   0.037   1.991   4.849
  376TIP3    H2 1074   0.031   2.141   4.831
  377TIP3   OH2 1075   2.122   6.547   3.150
  377TIP3    H1 1076   2.106   6.522   3.059
  377TIP3    H2 1077   2.187   6.485   3.181
  378TIP3   OH2 1078   3.296   1.050   1.561
  378TIP3    H1 1079   3.322   1.081   1.474
  378TIP3    H2 1080   3.267   1.128   1.607
  379TIP3   OH2 1081   0.533   1.477   2.431
  379TIP3    H1 1082   0.562   1.568   2.435
  379TIP3    H2 1083   0.516   1.462   2.338
  380TIP3   OH2 1084   0.975   7.287   4.708
  380TIP3    H1 1085   1.028   7.339   4.768
  380TIP3    H2 1086   1.024   7.206   4.697
  381TIP3   OH2 1087   0.724   4.779   5.193
  381TIP3    H1 1088   0.648   4.832   5.216
  381TIP3    H2 1089   0.699   4.735   5.111
  382TIP3   OH2 1090   5.816   3.761   2.764
  382TIP3    H1 1091   5.854   3.789   2.847
  382TIP3    H2 1092   5.748   3.825   2.745
  383TIP3   OH2 1093   2.928   3.703   6.351
  383TIP3    H1 1094   2.847   3.739   6.315
  383TIP3    H2 1095   2.950   3.762   6.424
  384TIP3   OH2 1096   5.655   4.592   4.435
  384TIP3    H1 1097   5.583   4.653   4.419
  384TIP3    H2 1098   5.734   4.645   4.423
  385TIP3   OH2 1099   7.788   0.207   6.429
  385TIP3    H1 1100   7.834   0.167   6.502
  385TIP3    H2 1101   7.821   0.297   6.425
  386TIP3   OH2 1102   4.722   2.500   0.904
  386TIP3    H1 1103   4.788   2.522   0.969
  386TIP3    H2 1104   4.644   2.480   0.955
  387TIP3   OH2 1105   8.305   0.297   1.488
  387TIP3    H1 1106   8.214   0.309   1.514
  387TIP3    H2 1107   8.355   0.329   1.563
  388TIP3   OH2 1108   5.772   4.553   3.286
  388TIP3    H1 1109   5.774   4.520   3.196
  388TIP3    H2 1110   5.864   4.559   3.312
  389TIP3   OH2 1111   6.147   5.892   0.374
  389TIP3    H1 1112   6.166   5.956   0.442
  389TIP3    H2 1113   6.227   5.840   0.367
  390TIP3   OH2 1114   7.949   5.945   5.188
  390TIP3    H1 1115   7.998   5.866   5.212
  390TIP3    H2 1116   8.016   6.014   5.182
  391TIP3   OH2 1117   3.521   3.213   5.673
  391TIP3    H1 1118   3.567   3.138   5.711
  391TIP3    H2 1119   3.447   3.174   5.627
  392TIP3   OH2 1120   1.124   2.425   1.813
  392TIP3    H1 1121   1.168   2.501   1.775
  392TIP3    H2 1122   1.117   2.363   1.741
  393TIP3   OH2 1123   3.248   1.549   4.007
  393TIP3    H1 1124   3.237   1.580   4.097
  393TIP3    H2 1125   3.329   1.498   4.009
  394TIP3   OH2 1126   6.884   6.764   5.580
  394TIP3    H1 1127   6.862   6.674   5.601
  394TIP3    H2 1128   6.911   6.803   5.664
  395TIP3   OH2 1129   3.403   4.421   0.761
  395TIP3    H1 1130   3.442   4.422   0.674
  395TIP3    H2 1131   3.428   4.335   0.797
  396TIP3   OH2 1132   0.013   0.917   3.279
  396TIP3    H1 1133   0.056   0.927   3.364
  396TIP3    H2 1134  -0.073   0.881   3.300
  397TIP3   OH2 1135   2.811   6.266   4.092
  397TIP3    H1 1136   2.720   6.296   4.093
  397TIP3    H2 1137   2.863   6.346   4.087
  398TIP3   OH2 1138   6.687   2.046   3.835
  398TIP3    H1 1139   6.704   1.952   3.825
  398TIP3    H2 1140   6.700   2.082   3.747
  399TIP3   OH2 1141   2.047   6.551   1.911
  399TIP3    H1 1142   1.980   6.534   1.845
  399TIP3    H2 1143   2.046   6.473   1.966
  400TIP3   OH2 1144   6.654   5.798   1.795
  400TIP3    H1 1145   6.630   5.883   1.832
  400TIP3    H2 1146   6.582   5.777   1.736
  401TIP3   OH2 1147   2.541   0.079   4.902
  401TIP3    H1 1148   2.575   0.154   4.853
  401TIP3    H2 1149   2.516   0.016   4.834
  402TIP3   OH2 1150   3.013   0.737   0.261
  402TIP3    H1 1151   2.990   0.792   0.187
  402TIP3    H2 1152   3.046   0.657   0.222
  403TIP3   OH2 1153   0.337   6.173   3.794
  403TIP3    H1 1154   0.267   6.169   3.729
  403TIP3    H2 1155   0.357   6.266   3.802
  404TIP3   OH2 1156   5.061   3.978   3.865
  404TIP3    H1 1157   5.129   3.992   3.931
  404TIP3    H2 1158   4.989   4.033   3.893
  405TIP3   OH2 1159   1.297   6.015   1.899
  405TIP3    H1 1160   1.386   5.987   1.918
  405TIP3    H2 1161   1.293   6.105   1.931
  406TIP3   OH2 1162   5.838   3.060   3.702
  406TIP3    H1 1163   5.871   3.138   3.747
  406TIP3    H2 1164   5.839   2.991   3.768
  407TIP3   OH2 1165   5.020   6.775   4.959
  407TIP3    H1 1166   4.985   6.688   4.979
  407TIP3    H2 1167   4.983   6.797   4.874
  408TIP3   OH2 1168   3.544   1.635   3.020
  408TIP3    H1 1169   3.512   1.558   2.973
  408TIP3    H2 1170   3.483   1.705   2.995
  409TIP3   OH2 1171   3.491   6.770   5.878
  409TIP3    H1 1172   3.471   6.690   5.829
  409TIP3    H2 1173   3.587   6.777   5.874
  410TIP3   OH2 1174   5.682   1.057   2.925
  410TIP3    H1 1175   5.633   1.112   2.863
  410TIP3    H2 1176   5.773   1.086   2.916
  411TIP3   OH2 1177   5.793   4.053   1.629
  411TIP3    H1 1178   5.740   3.976   1.650
  411TIP3    H2 1179   5.786   4.108   1.706
  412TIP3   OH2 1180   3.811   7.349   6.324
  412TIP3    H1 1181   3.904   7.372   6.333
  412TIP3    H2 1182   3.786   7.315   6.410
  413TIP3   OH2 1183   4.726   0.259   2.472
  413TIP3    H1 1184   4.774   0.177   2.471
  413TIP3    H2 1185   4.785   0.322   2.430
  414TIP3   OH2 1186   3.018   4.732   0.621
  414TIP3    H1 1187   2.972   4.685   0.552
  414TIP3    H2 1188   2.998   4.824   0.604
  415TIP3   OH2 1189   2.665   2.742   5.924
  415TIP3    H1 1190   2.724   2.670   5.945
  415TIP3    H2 1191   2.611   2.708   5.852
  416TIP3   OH2 1192   4.600   1.594   4.673
  416TIP3    H1 1193   4.669   1.544   4.630
  416TIP3    H2 1194   4.534   1.530   4.697
  417TIP3   OH2 1195   3.547   0.181   0.142
  417TIP3    H1 1196   3.584   0.101   0.179
  417TIP3    H2 1197   3.617   0.245   0.147
  418TIP3   OH2 1198   7.247   2.639   3.064
  418TIP3    H1 1199   7.298   2.558   3.072
  418TIP3    H2 1200   7.283   2.682   2.986
  419TIP3   OH2 1201   7.463   7.081   2.049
  419TIP3    H1 1202   7.556   7.075   2.074
  419TIP3    H2 1203   7.430   7.154   2.101
  420TIP3   OH2 1204   6.762   3.042   0.975
  420TIP3    H1 1205   6.803   3.093   1.044
  420TIP3    H2 1206   6.771   3.095   0.896
  421TIP3   OH2 1207   8.206   1.645   0.977
  421TIP3    H1 1208   8.257   1.726   0.984
  421TIP3    H2 1209   8.271   1.575   0.971
  422TIP3   OH2 1210   6.687   4.887   1.541
  422TIP3    H1 1211   6.612   4.888   1.482
  422TIP3    H2 1212   6.662   4.825   1.610
  423TIP3   OH2 1213   2.765   3.678   0.748
  423TIP3    H1 1214   2.740   3.669   0.656
  423TIP3    H2 1215   2.726   3.761   0.776
  424TIP3   OH2 1216   6.371   6.259   5.662
  424TIP3    H1 1217   6.311   6.270   5.735
  424TIP3    H2 1218   6.455   6.237   5.702
  425TIP3   OH2 1219   5.177   1.000   0.082
  425TIP3    H1 1220   5.141   0.984   0.169
  425TIP3    H2 1221   5.205   0.914   0.051
  426TIP3   OH2 1222   5.892   4.301   3.136
  426TIP3    H1 1223   5.810   4.303   3.184
  426TIP3    H2 1224   5.945   4.236   3.183
  427TIP3   OH2 1225   1.359   6.745   6.319
  427TIP3    H1 1226   1.286   6.800   6.290
  427TIP3    H2 1227   1.416   6.739   6.243
  428TIP3   OH2 1228   1.565   6.510   4.650
  428TIP3    H1 1229   1.571   6.489   4.557
  428TIP3    H2 1230   1.471   6.520   4.667
  429TIP3   OH2 1231   1.121   0.139   1.455
  429TIP3    H1 1232   1.119   0.186   1.538
  429TIP3    H2 1233   1.092   0.051   1.476
  430TIP3   OH2 1234   0.228   4.333   2.503
  430TIP3    H1 1235   0.284   4.262   2.474
  430TIP3    H2 1236   0.173   4.352   2.427
  431TIP3   OH2 1237   6.057   2.265   6.708
  431TIP3    H1 1238   6.026   2.346   6.748
  431TIP3    H2 1239   6.120   2.230   6.771
  432TIP3   OH2 1240   5.270   6.684   4.972
  432TIP3    H1 1241   5.180   6.715   4.978
  432TIP3    H2 1242   5.266   6.610   4.911
  433TIP3   OH2 1243   2.012   3.761   5.880
  433TIP3    H1 1244   2.107   3.758   5.894
  433TIP3    H2 1245   1.990   3.854   5.892
  434TIP3   OH2 1246   7.512   5.761   0.049
  434TIP3    H1 1247   7.492   5.707  -0.027
  434TIP3    H2 1248   7.500   5.703   0.124
  435TIP3   OH2 1249   1.077   1.473   4.456
  435TIP3    H1 1250   1.134   1.547   4.476
  435TIP3    H2 1251   1.116   1.431   4.380
  436TIP3   OH2 1252   3.193   6.115   3.868
  436TIP3    H1 1253   3.212   6.075   3.783
  436TIP3    H2 1254   3.098   6.112   3.875
  437TIP3   OH2 1255   7.896   5.608   6.611
  437TIP3    H1 1256   7.950   5.564   6.544
  437TIP3    H2 1257   7.926   5.570   6.694
  438TIP3   OH2 1258   5.513   3.896   0.383
  438TIP3    H1 1259   5.516   3.829   0.451
  438TIP3    H2 1260   5.592   3.947   0.396
  439TIP3   OH2 1261   6.338   0.415   4.181
  439TIP3    H1 1262   6.407   0.437   4.244
  439TIP3    H2 1263   6.312   0.499   4.144
  440TIP3   OH2 1264   7.639   6.856   5.474
  440TIP3    H1 1265   7.557   6.901   5.493
  440TIP3    H2 1266   7.705   6.926   5.474
  441TIP3   OH2 1267   4.115   0.731   5.201
  441TIP3    H1 1268   4.044   0.675   5.233
  441TIP3    H2 1269   4.189   0.671   5.188
  442TIP3   OH2 1270   5.168   3.571   6.488
  442TIP3    H1 1271   5.161   3.623   6.408
  442TIP3    H2 1272   5.262   3.570   6.508
  443TIP3   OH2 1273   2.490   2.076   5.841
  443TIP3    H1 1274   2.519   1.997   5.793
  443TIP3    H2 1275   2.478   2.046   5.931
  444TIP3   OH2 1276   5.414   6.477   2.715
  444TIP3    H1 1277   5.344   6.417   2.688
  444TIP3    H2 1278   5.373   6.564   2.712
  445TIP3   OH2 1279   3.306   6.438   1.804
  445TIP3    H1 1280   3.349   6.489   1.735
  445TIP3    H2 1281   3.336   6.478   1.885
  446TIP3   OH2 1282   5.688   1.478   6.021
  446TIP3    H1 1283   5.683   1.398   5.967
  446TIP3    H2 1284   5.598   1.508   6.027
  447TIP3   OH2 1285   2.734   6.956   0.446
  447TIP3    H1 1286   2.651   6.939   0.400
  447TIP3    H2 1287   2.776   6.870   0.451
  448TIP3   OH2 1288   1.697   3.015   0.583
  448TIP3    H1 1289   1.681   2.971   0.666
  448TIP3    H2 1290   1.649   3.097   0.590
  449TIP3   OH2 1291   7.841   2.230   4.269
  449TIP3    H1 1292   7.931   2.229   4.303
  449TIP3    H2 1293   7.800   2.305   4.312
  450TIP3   OH2 1294   5.405   5.879   5.129
  450TIP3    H1 1295   5.387   5.824   5.205
  450TIP3    H2 1296   5.478   5.934   5.156
  451TIP3   OH2 1297   6.033   2.208   3.969
  451TIP3    H1 1298   6.092   2.281   3.988
  451TIP3    H2 1299   6.067   2.136   4.022
  452TIP3   OH2 1300   1.212   5.661   0.676
  452TIP3    H1 1301   1.177   5.676   0.764
  452TIP3    H2 1302   1.169   5.580   0.647
  453TIP3   OH2 1303   2.650   7.364   5.760
  453TIP3    H1 1304   2.691   7.396   5.680
  453TIP3    H2 1305   2.566   7.328   5.731
  454TIP3   OH2 1306   2.590   7.049   0.792
  454TIP3    H1 1307   2.535   7.041   0.714
  454TIP3    H2 1308   2.664   7.104   0.763
  455TIP3   OH2 1309   1.507   7.638   4.820
  455TIP3    H1 1310   1.457   7.619   4.740
  455TIP3    H2 1311   1.444   7.624   4.891
  456TIP3   OH2 1312   2.601   6.421   6.436
  456TIP3    H1 1313   2.595   6.476   6.515
  456TIP3    H2 1314   2.577   6.480   6.365
  457TIP3   OH2 1315   4.007   0.557   3.612
  457TIP3    H1 1316   3.953   0.632   3.588
  457TIP3    H2 1317   4.083   0.595   3.656
  458TIP3   OH2 1318   6.685   7.425   0.659
  458TIP3    H1 1319   6.772   7.400   0.629
  458TIP3    H2 1320   6.625   7.370   0.607
  459TIP3   OH2 1321   7.419   4.009   2.679
  459TIP3    H1 1322   7.371   4.057   2.611
  459TIP3    H2 1323   7.480   4.073   2.715
  460TIP3   OH2 1324   5.542   3.726   1.303
  460TIP3    H1 1325   5.572   3.635   1.309
  460TIP3    H2 1326   5.449   3.720   1.282
  461TIP3   OH2 1327   4.203   3.129   6.597
  461TIP3    H1 1328   4.150   3.100   6.523
  461TIP3    H2 1329   4.258   3.053   6.618
  462TIP3   OH2 1330   8.257   2.931   1.101
  462TIP3    H1 1331   8.281   3.022   1.081
  462TIP3    H2 1332   8.203   2.904   1.027
  463TIP3   OH2 1333   3.229   3.634   1.187
  463TIP3    H1 1334   3.276   3.561   1.226
  463TIP3    H2 1335   3.232   3.703   1.254
  464TIP3   OH2 1336   3.345   0.515   5.830
  464TIP3    H1 1337   3.345   0.610   5.818
  464TIP3    H2 1338   3.262   0.496   5.873
  465TIP3   OH2 1339   1.808   1.642   4.961
  465TIP3    H1 1340   1.890   1.593   4.962
  465TIP3    H2 1341   1.833   1.733   4.972
  466TIP3   OH2 1342   7.401   4.864   0.035
  466TIP3    H1 1343   7.318   4.862   0.083
  466TIP3    H2 1344   7.430   4.773   0.035
  467TIP3   OH2 1345   2.286   4.273   1.152
  467TIP3    H1 1346   2.253   4.362   1.138
  467TIP3    H2 1347   2.378   4.277   1.128
  468TIP3   OH2 1348   0.769   3.817   3.223
  468TIP3    H1 1349   0.791   3.776   3.307
  468TIP3    H2 1350   0.835   3.783   3.163
  469TIP3   OH2 1351   3.683   6.962   3.959
  469TIP3    H1 1352   3.746   7.020   4.003
  469TIP3    H2 1353   3.664   6.893   4.023
  470TIP3   OH2 1354   8.080   1.916   5.594
  470TIP3    H1 1355   8.019   1.982   5.628
  470TIP3    H2 1356   8.127   1.961   5.524
  471TIP3   OH2 1357   8.204   6.937   5.283
  471TIP3    H1 1358   8.246   6.854   5.306
  471TIP3    H2 1359   8.176   6.925   5.192
  472TIP3   OH2 1360   2.784   7.822   3.938
  472TIP3    H1 1361   2.778   7.785   3.850
  472TIP3    H2 1362   2.777   7.747   3.997
  473TIP3   OH2 1363   6.979   1.775   5.567
  473TIP3    H1 1364   6.954   1.690   5.529
  473TIP3    H2 1365   6.905   1.800   5.622
  474TIP3   OH2 1366   4.881   3.299   3.315
  474TIP3    H1 1367   4.845   3.384   3.341
  474TIP3    H2 1368   4.806   3.240   3.312
  475TIP3   OH2 1369   8.070   0.576   5.354
  475TIP3    H1 1370   8.140   0.595   5.417
  475TIP3    H2 1371   7.992   0.563   5.408
  476TIP3   OH2 1372   4.433   2.084   0.717
  476TIP3    H1 1373   4.440   2.052   0.807
  476TIP3    H2 1374   4.360   2.145   0.719
  477TIP3   OH2 1375   2.784   3.793   5.026
  477TIP3    H1 1376   2.740   3.877   5.021
  477TIP3    H2 1377   2.796   3.777   5.119
  478TIP3   OH2 1378   0.726   3.991   6.434
  478TIP3    H1 1379   0.661   3.975   6.503
  478TIP3    H2 1380   0.693   4.067   6.387
  479TIP3   OH2 1381   7.100   0.321   2.792
  479TIP3    H1 1382   7.155   0.388   2.750
  479TIP3    H2 1383   7.028   0.307   2.731
  480TIP3   OH2 1384   0.105   6.486   5.037
  480TIP3    H1 1385   0.039   6.518   4.976
  480TIP3    H2 1386   0.095   6.391   5.035
  481TIP3   OH2 1387   7.135   3.766   5.696
  481TIP3    H1 1388   7.096   3.679   5.681
  481TIP3    H2 1389   7.063   3.827   5.681
  482TIP3   OH2 1390   5.834   5.603   2.889
  482TIP3    H1 1391   5.756   5.569   2.932
  482TIP3    H2 1392   5.842   5.552   2.808
  483TIP3   OH2 1393   0.379   1.397   1.465
  483TIP3    H1 1394   0.376   1.492   1.470
  483TIP3    H2 1395   0.397   1.378   1.373
  484TIP3   OH2 1396   0.182   6.817   3.200
  484TIP3    H1 1397   0.216   6.776   3.121
  484TIP3    H2 1398   0.197   6.911   3.187
  485TIP3   OH2 1399   1.259   4.319   6.378
  485TIP3    H1 1400   1.330   4.256   6.389
  485TIP3    H2 1401   1.278   4.387   6.442
  486TIP3   OH2 1402   1.428   4.693   1.866
  486TIP3    H1 1403   1.458   4.614   1.822
  486TIP3    H2 1404   1.482   4.764   1.830
  487TIP3   OH2 1405   3.320   2.725   0.715
  487TIP3    H1 1406   3.336   2.721   0.810
  487TIP3    H2 1407   3.251   2.790   0.706
  488TIP3   OH2 1408   6.110   4.892   3.713
  488TIP3    H1 1409   6.056   4.817   3.686
  488TIP3    H2 1410   6.164   4.857   3.784
  489TIP3   OH2 1411   1.489   7.516   4.466
  489TIP3    H1 1412   1.514   7.586   4.406
  489TIP3    H2 1413   1.572   7.485   4.501
  490TIP3   OH2 1414   1.674   7.244   5.431
  490TIP3    H1 1415   1.713   7.160   5.408
  490TIP3    H2 1416   1.632   7.230   5.516
  491TIP3   OH2 1417   0.694   3.632   3.761
  491TIP3    H1 1418   0.691   3.721   3.795
  491TIP3    H2 1419   0.620   3.588   3.803
  492TIP3   OH2 1420   8.292   2.085   3.033
  492TIP3    H1 1421   8.347   2.162   3.050
  492TIP3    H2 1422   8.202   2.116   3.047
  493TIP3   OH2 1423   7.015  -0.012   6.565
  493TIP3    H1 1424   6.993   0.068   6.612
  493TIP3    H2 1425   7.097   0.007   6.521
  494TIP3   OH2 1426   6.497   3.969   2.975
  494TIP3    H1 1427   6.542   3.903   2.922
  494TIP3    H2 1428   6.445   3.918   3.037
  495TIP3   OH2 1429   1.928   4.924   2.991
  495TIP3    H1 1430   1.860   4.869   2.953
  495TIP3    H2 1431   1.889   4.959   3.071
  496TIP3   OH2 1432   2.675   4.841   2.583
  496TIP3    H1 1433   2.697   4.920   2.532
  496TIP3    H2 1434   2.601   4.867   2.637
  497TIP3   OH2 1435   1.306   3.669   1.175
  497TIP3    H1 1436   1.318   3.752   1.222
  497TIP3    H2 1437   1.292   3.695   1.084
  498TIP3   OH2 1438   0.796   1.881   6.191
  498TIP3    H1 1439   0.786   1.825   6.268
  498TIP3    H2 1440   0.715   1.933   6.189
  499TIP3   OH2 1441   2.367   0.292   1.091
  499TIP3    H1 1442   2.338   0.349   1.020
  499TIP3    H2 1443   2.367   0.204   1.053
  500TIP3   OH2 1444   4.269   3.758   3.259
  500TIP3    H1 1445   4.311   3.837   3.294
  500TIP3    H2 1446   4.186   3.789   3.224
  501TIP3   OH2 1447   1.539   2.847   5.511
  501TIP3    H1 1448   1.597   2.906   5.463
  501TIP3    H2 1449   1.560   2.863   5.603
  502TIP3   OH2 1450   6.745   5.987   4.454
  502TIP3    H1 1451   6.722   5.930   4.381
  502TIP3    H2 1452   6.836   5.966   4.474
  503TIP3   OH2 1453   2.898   4.835   4.823
  503TIP3    H1 1454   2.985   4.873   4.836
  503TIP3    H2 1455   2.839   4.910   4.824
  504TIP3   OH2 1456   2.940   5.733   1.938
  504TIP3    H1 1457   2.978   5.805   1.888
  504TIP3    H2 1458   2.965   5.751   2.028
  505TIP3   OH2 1459   8.166   7.222   2.928
  505TIP3    H1 1460   8.077   7.193   2.905
  505TIP3    H2 1461   8.222   7.147   2.909
  506TIP3   OH2 1462   2.236   6.251   6.296
  506TIP3    H1 1463   2.205   6.165   6.267
  506TIP3    H2 1464   2.279   6.233   6.380
  507TIP3   OH2 1465   1.970   5.634   4.319
  507TIP3    H1 1466   1.998   5.726   4.316
  507TIP3    H2 1467   2.045   5.587   4.356
  508TIP3   OH2 1468   5.062   3.718   3.956
  508TIP3    H1 1469   5.043   3.646   3.895
  508TIP3    H2 1470   5.046   3.797   3.905
  509TIP3   OH2 1471   7.360   6.396   6.606
  509TIP3    H1 1472   7.322   6.412   6.520
  509TIP3    H2 1473   7.292   6.347   6.653
  510TIP3   OH2 1474   3.661   2.612   0.314
  510TIP3    H1 1475   3.634   2.664   0.390
  510TIP3    H2 1476   3.750   2.584   0.336
  511TIP3   OH2 1477   7.200   4.917   4.413
  511TIP3    H1 1478   7.191   4.919   4.318
  511TIP3    H2 1479   7.111   4.931   4.445
  512TIP3   OH2 1480   2.560   6.415   1.131
  512TIP3    H1 1481   2.537   6.322   1.137
  512TIP3    H2 1482   2.485   6.460   1.169
  513TIP3   OH2 1483   0.564   1.559   4.530
  513TIP3    H1 1484   0.560   1.481   4.586
  513TIP3    H2 1485   0.646   1.550   4.483
  514TIP3   OH2 1486   2.360   2.622   6.606
  514TIP3    H1 1487   2.347   2.655   6.518
  514TIP3    H2 1488   2.455   2.629   6.620
  515TIP3   OH2 1489   5.154   7.565   0.905
  515TIP3    H1 1490   5.086   7.615   0.859
  515TIP3    H2 1491   5.109   7.488   0.939
  516TIP3   OH2 1492   5.207   4.951   6.161
  516TIP3    H1 1493   5.112   4.960   6.164
  516TIP3    H2 1494   5.237   5.026   6.110
  517TIP3   OH2 1495   4.684   2.647   0.601
  517TIP3    H1 1496   4.703   2.720   0.660
  517TIP3    H2 1497   4.633   2.586   0.654
  518TIP3   OH2 1498   5.628   5.655   4.109
  518TIP3    H1 1499   5.624   5.677   4.202
  518TIP3    H2 1500   5.699   5.710   4.075
  519TIP3   OH2 1501   0.621   7.714   5.150
  519TIP3    H1 1502   0.599   7.719   5.243
  519TIP3    H2 1503   0.578   7.634   5.119
  520TIP3   OH2 1504   5.978   0.194   6.149
  520TIP3    H1 1505   5.969   0.260   6.081
  520TIP3    H2 1506   6.038   0.130   6.112
  521TIP3   OH2 1507   2.007   6.449   3.584
  521TIP3    H1 1508   1.958   6.496   3.652
  521TIP3    H2 1509   2.092   6.492   3.581
  522TIP3   OH2 1510   0.897   3.566   5.113
  522TIP3    H1 1511   0.941   3.620   5.179
  522TIP3    H2 1512   0.810   3.605   5.105
  523TIP3   OH2 1513   4.315   6.813   5.080
  523TIP3    H1 1514   4.264   6.820   5.000
  523TIP3    H2 1515   4.291   6.891   5.131
  524TIP3   OH2 1516   5.796   3.476   6.233
  524TIP3    H1 1517   5.786   3.464   6.327
  524TIP3    H2 1518   5.830   3.393   6.201
  525TIP3   OH2 1519   5.844   6.677   4.061
  525TIP3    H1 1520   5.935   6.682   4.090
  525TIP3    H2 1521   5.840   6.736   3.986
  526TIP3   OH2 1522   3.003   0.238   2.526
  526TIP3    H1 1523   2.943   0.216   2.598
  526TIP3    H2 1524   3.003   0.160   2.471
  527TIP3   OH2 1525   0.563   6.965   6.699
  527TIP3    H1 1526   0.546   7.050   6.657
  527TIP3    H2 1527   0.619   6.919   6.636
  528TIP3   OH2 1528   0.946   3.263   5.836
  528TIP3    H1 1529   0.961   3.356   5.850
  528TIP3    H2 1530   0.917   3.257   5.745
  529TIP3   OH2 1531   3.774   2.612   1.569
  529TIP3    H1 1532   3.684   2.644   1.581
  529TIP3    H2 1533   3.828   2.691   1.574
  530TIP3   OH2 1534   1.826   3.823   3.916
  530TIP3    H1 1535   1.803   3.777   3.996
  530TIP3    H2 1536   1.757   3.889   3.905
  531TIP3   OH2 1537   1.149   4.523   3.105
  531TIP3    H1 1538   1.107   4.450   3.060
  531TIP3    H2 1539   1.200   4.568   3.037
  532TIP3   OH2 1540   4.617   0.859   2.930
  532TIP3    H1 1541   4.623   0.951   2.957
  532TIP3    H2 1542   4.529   0.850   2.895
  533TIP3   OH2 1543   5.397   6.473   3.002
  533TIP3    H1 1544   5.329   6.408   3.020
  533TIP3    H2 1545   5.456   6.429   2.940
  534TIP3   OH2 1546   8.023   4.248   2.144
  534TIP3    H1 1547   8.063   4.227   2.228
  534TIP3    H2 1548   7.929   4.245   2.161
  535TIP3   OH2 1549   4.115   3.499   3.296
  535TIP3    H1 1550   4.047   3.565   3.311
  535TIP3    H2 1551   4.193   3.549   3.272
  536TIP3   OH2 1552   8.266   1.857   0.417
  536TIP3    H1 1553   8.206   1.808   0.360
  536TIP3    H2 1554   8.252   1.819   0.504
  537TIP3   OH2 1555   2.071   1.635   0.524
  537TIP3    H1 1556   2.073   1.670   0.435
  537TIP3    H2 1557   2.134   1.563   0.524
  538TIP3   OH2 1558   1.036   3.057   4.501
  538TIP3    H1 1559   0.999   3.142   4.478
  538TIP3    H2 1560   1.029   3.053   4.597
  539TIP3   OH2 1561   4.378   5.704   3.028
  539TIP3    H1 1562   4.360   5.714   3.121
  539TIP3    H2 1563   4.299   5.661   2.993
  540TIP3   OH2 1564   0.552   5.722   5.921
  540TIP3    H1 1565   0.477   5.699   5.866
  540TIP3    H2 1566   0.591   5.637   5.945
  541TIP3   OH2 1567   8.072   3.875   3.682
  541TIP3    H1 1568   7.999   3.826   3.643
  541TIP3    H2 1569   8.129   3.896   3.608
  542TIP3   OH2 1570   5.838   4.238   0.688
  542TIP3    H1 1571   5.893   4.174   0.643
  542TIP3    H2 1572   5.856   4.222   0.781
  543TIP3   OH2 1573   4.266   3.547   3.735
  543TIP3    H1 1574   4.279   3.491   3.657
  543TIP3    H2 1575   4.243   3.485   3.804
  544TIP3   OH2 1576   1.331   2.761   5.762
  544TIP3    H1 1577   1.418   2.800   5.772
  544TIP3    H2 1578   1.301   2.792   5.677
  545TIP3   OH2 1579   4.874   7.359   3.191
  545TIP3    H1 1580   4.806   7.425   3.206
  545TIP3    H2 1581   4.950   7.409   3.162
  546TIP3   OH2 1582   6.862   7.710   3.394
  546TIP3    H1 1583   6.924   7.694   3.323
  546TIP3    H2 1584   6.905   7.674   3.472
  547TIP3   OH2 1585   1.833   7.201   1.975
  547TIP3    H1 1586   1.760   7.240   2.024
  547TIP3    H2 1587   1.854   7.265   1.908
  548TIP3   OH2 1588   4.360   0.099   4.773
  548TIP3    H1 1589   4.383   0.011   4.801
  548TIP3    H2 1590   4.360   0.151   4.854
  549TIP3   OH2 1591   4.227   5.155   5.163
  549TIP3    H1 1592   4.293   5.199   5.217
  549TIP3    H2 1593   4.177   5.102   5.226
  550TIP3   OH2 1594   6.710   1.279   5.031
  550TIP3    H1 1595   6.776   1.213   5.009
  550TIP3    H2 1596   6.706   1.335   4.954
  551TIP3   OH2 1597   8.301   1.122   3.985
  551TIP3    H1 1598   8.216   1.152   4.016
  551TIP3    H2 1599   8.331   1.191   3.926
  552TIP3   OH2 1600   0.969   3.102   0.828
  552TIP3    H1 1601   0.957   3.024   0.883
  552TIP3    H2 1602   1.008   3.167   0.887
  553TIP3   OH2 1603   5.990   6.277   6.338
  553TIP3    H1 1604   6.050   6.230   6.396
  553TIP3    H2 1605   5.909   6.285   6.387
  554TIP3   OH2 1606   3.366   7.550   5.696
  554TIP3    H1 1607   3.431   7.493   5.737
  554TIP3    H2 1608   3.310   7.491   5.646
  555TIP3   OH2 1609   3.114   1.256   2.807
  555TIP3    H1 1610   3.201   1.278   2.775
  555TIP3    H2 1611   3.063   1.336   2.795
  556TIP3   OH2 1612   3.490   0.238   4.343
  556TIP3    H1 1613   3.473   0.320   4.296
  556TIP3    H2 1614   3.585   0.237   4.356
  557TIP3   OH2 1615   5.554   1.233   2.744
  557TIP3    H1 1616   5.552   1.240   2.649
  557TIP3    H2 1617   5.466   1.205   2.769
  558TIP3   OH2 1618   5.821   1.337   0.513
  558TIP3    H1 1619   5.767   1.267   0.477
  558TIP3    H2 1620   5.800   1.337   0.607
  559TIP3   OH2 1621   7.000   0.123   1.048
  559TIP3    H1 1622   6.993   0.082   0.962
  559TIP3    H2 1623   6.939   0.076   1.103
  560TIP3   OH2 1624   3.895   7.374   2.677
  560TIP3    H1 1625   3.860   7.295   2.719
  560TIP3    H2 1626   3.893   7.441   2.746
  561TIP3   OH2 1627   5.012   6.609   3.904
  561TIP3    H1 1628   4.944   6.670   3.876
  561TIP3    H2 1629   5.050   6.650   3.981
  562TIP3   OH2 1630   7.420   1.876   5.687
  562TIP3    H1 1631   7.346   1.920   5.645
  562TIP3    H2 1632   7.381   1.825   5.758
  563TIP3   OH2 1633   6.599   4.406   2.247
  563TIP3    H1 1634   6.546   4.455   2.309
  563TIP3    H2 1635   6.536   4.350   2.201
  564TIP3   OH2 1636   7.071   1.314   0.377
  564TIP3    H1 1637   7.034   1.251   0.439
  564TIP3    H2 1638   7.096   1.261   0.301
  565TIP3   OH2 1639   7.856   1.405   6.011
  565TIP3    H1 1640   7.950   1.411   5.992
  565TIP3    H2 1641   7.829   1.324   5.966
  566TIP3   OH2 1642   4.455   4.080   1.604
  566TIP3    H1 1643   4.489   4.002   1.650
  566TIP3    H2 1644   4.520   4.097   1.536
  567TIP3   OH2 1645   4.563   5.296   3.441
  567TIP3    H1 1646   4.591   5.381   3.407
  567TIP3    H2 1647   4.610   5.232   3.387
  568TIP3   OH2 1648   4.954   7.231   5.503
  568TIP3    H1 1649   4.948   7.167   5.574
  568TIP3    H2 1650   5.010   7.189   5.437
  569TIP3   OH2 1651   4.861   3.216   2.498
  569TIP3    H1 1652   4.772   3.189   2.473
  569TIP3    H2 1653   4.877   3.295   2.447
  570TIP3   OH2 1654   3.370   0.891   3.497
  570TIP3    H1 1655   3.376   0.940   3.415
  570TIP3    H2 1656   3.460   0.876   3.523
  571TIP3   OH2 1657   3.537   3.537   0.540
  571TIP3    H1 1658   3.540   3.627   0.572
  571TIP3    H2 1659   3.515   3.485   0.617
  572TIP3   OH2 1660   6.763   2.710   4.159
  572TIP3    H1 1661   6.727   2.741   4.242
  572TIP3    H2 1662   6.761   2.615   4.167
  573TIP3   OH2 1663   6.287   1.964   2.392
  573TIP3    H1 1664   6.194   1.983   2.383
  573TIP3    H2 1665   6.331   2.034   2.344
  574TIP3   OH2 1666   0.167   3.384   0.836
  574TIP3    H1 1667   0.145   3.467   0.879
  574TIP3    H2 1668   0.213   3.410   0.756
  575TIP3   OH2 1669   4.347   6.053   0.804
  575TIP3    H1 1670   4.362   5.964   0.836
  575TIP3    H2 1671   4.360   6.047   0.709
  576TIP3   OH2 1672   7.628   6.571   0.177
  576TIP3    H1 1673   7.668   6.550   0.093
  576TIP3    H2 1674   7.596   6.661   0.167
  577TIP3   OH2 1675   4.696   6.835   2.151
  577TIP3    H1 1676   4.625   6.899   2.161
  577TIP3    H2 1677   4.710   6.802   2.240
  578TIP3   OH2 1678   7.674   2.878   1.307
  578TIP3    H1 1679   7.719   2.828   1.239
  578TIP3    H2 1680   7.713   2.966   1.301
  579TIP3   OH2 1681   8.047   5.501   0.863
  579TIP3    H1 1682   8.096   5.432   0.818
  579TIP3    H2 1683   8.091   5.512   0.947
  580TIP3   OH2 1684   3.818   2.879   2.453
  580TIP3    H1 1685   3.836   2.953   2.511
  580TIP3    H2 1686   3.848   2.908   2.367
  581TIP3   OH2 1687   0.283   4.383   4.125
  581TIP3    H1 1688   0.350   4.439   4.162
  581TIP3    H2 1689   0.261   4.422   4.041
  582TIP3   OH2 1690   0.764   4.528   5.290
  582TIP3    H1 1691   0.750   4.617   5.257
  582TIP3    H2 1692   0.723   4.472   5.224
  583TIP3   OH2 1693   6.458   7.153   6.409
  583TIP3    H1 1694   6.504   7.195   6.481
  583TIP3    H2 1695   6.490   7.063   6.408
  584TIP3   OH2 1696   2.097   7.130   0.356
  584TIP3    H1 1697   2.054   7.211   0.382
  584TIP3    H2 1698   2.098   7.132   0.261
  585TIP3   OH2 1699   2.879   1.782   5.750
  585TIP3    H1 1700   2.957   1.834   5.772
  585TIP3    H2 1701   2.897   1.747   5.663
  586TIP3   OH2 1702   8.087   5.640   5.760
  586TIP3    H1 1703   8.061   5.552   5.789
  586TIP3    H2 1704   8.044   5.651   5.676
  587TIP3   OH2 1705   8.293   3.238   6.105
  587TIP3    H1 1706   8.276   3.187   6.184
  587TIP3    H2 1707   8.226   3.208   6.043
  588TIP3   OH2 1708   4.450   0.471   5.934
  588TIP3    H1 1709   4.543   0.467   5.953
  588TIP3    H2 1710   4.408   0.473   6.020
  589TIP3   OH2 1711   8.293   3.408   4.572
  589TIP3    H1 1712   8.227   3.430   4.639
  589TIP3    H2 1713   8.325   3.321   4.597
  590TIP3   OH2 1714   5.144   4.812   4.640
  590TIP3    H1 1715   5.114   4.737   4.589
  590TIP3    H2 1716   5.232   4.788   4.668
  591TIP3   OH2 1717   1.697   0.481   1.356
  591TIP3    H1 1718   1.617   0.433   1.379
  591TIP3    H2 1719   1.744   0.489   1.439
  592TIP3   OH2 1720   3.447   6.728   3.781
  592TIP3    H1 1721   3.381   6.684   3.727
  592TIP3    H2 1722   3.414   6.818   3.790
  593TIP3   OH2 1723   3.660   5.950   5.838
  593TIP3    H1 1724   3.725   5.940   5.769
  593TIP3    H2 1725   3.577   5.922   5.798
  594TIP3   OH2 1726   2.798   5.874   2.352
  594TIP3    H1 1727   2.763   5.803   2.405
  594TIP3    H2 1728   2.725   5.934   2.339
  595TIP3   OH2 1729   7.355   4.516   0.223
  595TIP3    H1 1730   7.342   4.454   0.152
  595TIP3    H2 1731   7.450   4.527   0.229
  596TIP3   OH2 1732   1.909   2.434   3.140
  596TIP3    H1 1733   1.827   2.473   3.170
  596TIP3    H2 1734   1.972   2.506   3.140
  597TIP3   OH2 1735   6.760   4.942   4.226
  597TIP3    H1 1736   6.792   4.851   4.226
  597TIP3    H2 1737   6.724   4.955   4.314
  598TIP3   OH2 1738   1.367   3.702   3.042
  598TIP3    H1 1739   1.315   3.765   3.092
  598TIP3    H2 1740   1.457   3.714   3.073
  599TIP3   OH2 1741   4.680   6.096   6.356
  599TIP3    H1 1742   4.630   6.135   6.428
  599TIP3    H2 1743   4.675   6.001   6.373
  600TIP3   OH2 1744   6.675   0.665   4.131
  600TIP3    H1 1745   6.658   0.726   4.203
  600TIP3    H2 1746   6.735   0.600   4.167
  601TIP3   OH2 1747   2.893   6.005   6.210
  601TIP3    H1 1748   2.961   6.058   6.251
  601TIP3    H2 1749   2.811   6.038   6.248
  602TIP3   OH2 1750   7.110   3.247   1.592
  602TIP3    H1 1751   7.035   3.240   1.651
  602TIP3    H2 1752   7.072   3.272   1.508
  603TIP3   OH2 1753   7.084   5.176   0.138
  603TIP3    H1 1754   7.080   5.089   0.099
  603TIP3    H2 1755   7.049   5.165   0.227
  604TIP3   OH2 1756   2.488   0.796   5.561
  604TIP3    H1 1757   2.555   0.728   5.562
  604TIP3    H2 1758   2.485   0.825   5.470
  605TIP3   OH2 1759   4.332   7.064   5.513
  605TIP3    H1 1760   4.267   7.104   5.455
  605TIP3    H2 1761   4.416   7.095   5.480
  606TIP3   OH2 1762   6.937   6.449   1.273
  606TIP3    H1 1763   6.855   6.399   1.262
  606TIP3    H2 1764   6.976   6.449   1.186
  607TIP3   OH2 1765   7.162   0.631   4.081
  607TIP3    H1 1766   7.087   0.572   4.089
  607TIP3    H2 1767   7.214   0.614   4.159
  608TIP3   OH2 1768   8.033   4.597   1.303
  608TIP3    H1 1769   8.054   4.522   1.358
  608TIP3    H2 1770   7.939   4.591   1.289
  609TIP3   OH2 1771   2.839   6.309   2.564
  609TIP3    H1 1772   2.836   6.385   2.622
  609TIP3    H2 1773   2.899   6.248   2.606
  610TIP3   OH2 1774   5.276   0.969   3.315
  610TIP3    H1 1775   5.202   0.914   3.342
  610TIP3    H2 1776   5.244   1.059   3.326
  611TIP3   OH2 1777   0.650   1.593   1.603
  611TIP3    H1 1778   0.677   1.603   1.694
  611TIP3    H2 1779   0.712   1.529   1.567
  612TIP3   OH2 1780   2.456   5.686   6.450
  612TIP3    H1 1781   2.496   5.722   6.371
  612TIP3    H2 1782   2.511   5.612   6.474
  613TIP3   OH2 1783   6.952   7.245   2.938
  613TIP3    H1 1784   6.992   7.214   2.857
  613TIP3    H2 1785   7.024   7.282   2.988
  614TIP3   OH2 1786   1.504   4.283   1.376
  614TIP3    H1 1787   1.510   4.365   1.424
  614TIP3    H2 1788   1.590   4.273   1.334
  615TIP3   OH2 1789   1.346   6.488   5.315
  615TIP3    H1 1790   1.292   6.556   5.356
  615TIP3    H2 1791   1.344   6.415   5.377
  616TIP3   OH2 1792   0.278   0.487   1.028
  616TIP3    H1 1793   0.281   0.395   1.003
  616TIP3    H2 1794   0.188   0.514   1.009
  617TIP3   OH2 1795   4.730   2.401   5.462
  617TIP3    H1 1796   4.635   2.401   5.455
  617TIP3    H2 1797   4.760   2.415   5.372
  618TIP3   OH2 1798   7.672   0.822   3.579
  618TIP3    H1 1799   7.653   0.734   3.613
  618TIP3    H2 1800   7.655   0.815   3.485
  619TIP3   OH2 1801   1.506   6.942   6.427
  619TIP3    H1 1802   1.455   6.862   6.428
  619TIP3    H2 1803   1.448   7.008   6.465
  620TIP3   OH2 1804   5.719   4.467   2.227
  620TIP3    H1 1805   5.754   4.447   2.314
  620TIP3    H2 1806   5.731   4.386   2.177
  621TIP3   OH2 1807   5.481   6.611   4.314
  621TIP3    H1 1808   5.414   6.569   4.368
  621TIP3    H2 1809   5.453   6.702   4.306
  622TIP3   OH2 1810   0.948   6.692   1.446
  622TIP3    H1 1811   0.967   6.600   1.459
  622TIP3    H2 1812   0.860   6.694   1.409
  623TIP3   OH2 1813   6.699   6.870   6.251
  623TIP3    H1 1814   6.617   6.887   6.205
  623TIP3    H2 1815   6.753   6.946   6.232
  624TIP3   OH2 1816   6.826   4.276   1.534
  624TIP3    H1 1817   6.848   4.296   1.625
  624TIP3    H2 1818   6.831   4.360   1.489
  625TIP3   OH2 1819   4.888   5.658   2.783
  625TIP3    H1 1820   4.891   5.618   2.696
  625TIP3    H2 1821   4.866   5.586   2.841
  626TIP3   OH2 1822   3.708   3.221   2.038
  626TIP3    H1 1823   3.758   3.256   2.111
  626TIP3    H2 1824   3.617   3.227   2.066
  627TIP3   OH2 1825   5.106   7.232   3.441
  627TIP3    H1 1826   5.101   7.139   3.464
  627TIP3    H2 1827   5.033   7.245   3.380
  628TIP3   OH2 1828   6.126   2.821   1.042
  628TIP3    H1 1829   6.089   2.783   1.122
  628TIP3    H2 1830   6.201   2.766   1.022
  629TIP3   OH2 1831   3.056   7.144   2.948
  629TIP3    H1 1832   3.048   7.092   3.028
  629TIP3    H2 1833   3.010   7.226   2.969
  630TIP3   OH2 1834   3.968   1.553   3.121
  630TIP3    H1 1835   3.877   1.535   3.142
  630TIP3    H2 1836   3.974   1.649   3.120
  631TIP3   OH2 1837   1.070   0.743   2.486
  631TIP3    H1 1838   1.123   0.802   2.432
  631TIP3    H2 1839   1.127   0.668   2.502
  632TIP3   OH2 1840   3.530   0.615   3.682
  632TIP3    H1 1841   3.613   0.610   3.635
  632TIP3    H2 1842   3.545   0.677   3.753
  633TIP3   OH2 1843   3.154   7.261   6.077
  633TIP3    H1 1844   3.082   7.233   6.021
  633TIP3    H2 1845   3.231   7.214   6.044
  634TIP3   OH2 1846   0.435   5.078   4.396
  634TIP3    H1 1847   0.475   5.011   4.342
  634TIP3    H2 1848   0.441   5.044   4.485
  635TIP3   OH2 1849   5.843   6.465   3.470
  635TIP3    H1 1850   5.919   6.409   3.455
  635TIP3    H2 1851   5.875   6.533   3.530
  636TIP3   OH2 1852   2.802   5.979   0.380
  636TIP3    H1 1853   2.707   5.979   0.380
  636TIP3    H2 1854   2.826   5.943   0.295
  637TIP3   OH2 1855   8.170   4.961   2.039
  637TIP3    H1 1856   8.084   4.967   2.082
  637TIP3    H2 1857   8.197   5.052   2.028
  638TIP3   OH2 1858   4.985   5.622   5.360
  638TIP3    H1 1859   4.969   5.696   5.302
  638TIP3    H2 1860   5.017   5.552   5.303
  639TIP3   OH2 1861   7.397   0.663   1.409
  639TIP3    H1 1862   7.460   0.636   1.342
  639TIP3    H2 1863   7.357   0.581   1.438
  640TIP3   OH2 1864   0.596   0.281   3.245
  640TIP3    H1 1865   0.655   0.329   3.186
  640TIP3    H2 1866   0.528   0.246   3.187
  641TIP3   OH2 1867   6.108   1.378   3.696
  641TIP3    H1 1868   6.113   1.283   3.693
  641TIP3    H2 1869   6.056   1.402   3.619
  642TIP3   OH2 1870   0.970   5.357   2.056
  642TIP3    H1 1871   0.911   5.285   2.032
  642TIP3    H2 1872   0.993   5.340   2.147
  643TIP3   OH2 1873   1.926   4.987   3.641
  643TIP3    H1 1874   2.014   5.022   3.641
  643TIP3    H2 1875   1.903   4.981   3.734
  644TIP3   OH2 1876   2.166   4.224   5.852
  644TIP3    H1 1877   2.129   4.236   5.764
  644TIP3    H2 1878   2.226   4.150   5.843
  645TIP3   OH2 1879   5.942   7.530   4.194
  645TIP3    H1 1880   5.918   7.506   4.104
  645TIP3    H2 1881   5.970   7.621   4.188
  646TIP3   OH2 1882   0.447   2.562   1.211
  646TIP3    H1 1883   0.366   2.608   1.188
  646TIP3    H2 1884   0.502   2.572   1.133
  647TIP3   OH2 1885   0.227   1.217   1.866
  647TIP3    H1 1886   0.196   1.300   1.903
  647TIP3    H2 1887   0.229   1.233   1.772
  648TIP3   OH2 1888   7.680   6.505   6.393
  648TIP3    H1 1889   7.739   6.452   6.339
  648TIP3    H2 1890   7.739   6.556   6.450
  649TIP3   OH2 1891   5.652   2.698   3.256
  649TIP3    H1 1892   5.637   2.619   3.308
  649TIP3    H2 1893   5.564   2.727   3.231
  650TIP3   OH2 1894   4.201   0.535   0.348
  650TIP3    H1 1895   4.169   0.503   0.432
  650TIP3    H2 1896   4.145   0.610   0.328
  651TIP3   OH2 1897   2.480   0.461   0.077
  651TIP3    H1 1898   2.420   0.458   0.003
  651TIP3    H2 1899   2.518   0.374   0.080
  652TIP3   OH2 1900   4.438   7.120   5.160
  652TIP3    H1 1901   4.355   7.081   5.190
  652TIP3    H2 1902   4.424   7.135   5.066
  653TIP3   OH2 1903   0.797   0.770   6.033
  653TIP3    H1 1904   0.709   0.801   6.011
  653TIP3    H2 1905   0.801   0.775   6.128
  654TIP3   OH2 1906   6.586   7.060   5.105
  654TIP3    H1 1907   6.561   7.001   5.176
  654TIP3    H2 1908   6.651   7.011   5.055
  655TIP3   OH2 1909   0.211   1.136   2.633
  655TIP3    H1 1910   0.191   1.215   2.581
  655TIP3    H2 1911   0.263   1.082   2.574
  656TIP3   OH2 1912   0.217   0.040   6.439
  656TIP3    H1 1913   0.308   0.065   6.457
  656TIP3    H2 1914   0.213  -0.054   6.456
  657TIP3   OH2 1915   0.322   6.907   2.795
  657TIP3    H1 1916   0.382   6.981   2.781
  657TIP3    H2 1917   0.345   6.844   2.726
  658TIP3   OH2 1918   6.800   1.336   0.105
  658TIP3    H1 1919   6.748   1.312   0.028
  658TIP3    H2 1920   6.758   1.290   0.178
  659TIP3   OH2 1921   7.282   3.800   2.360
  659TIP3    H1 1922   7.335   3.723   2.336
  659TIP3    H2 1923   7.306   3.867   2.296
  660TIP3   OH2 1924   7.120   6.400   6.080
  660TIP3    H1 1925   7.114   6.441   5.993
  660TIP3    H2 1926   7.203   6.431   6.116
  661TIP3   OH2 1927   5.487   2.858   4.245
  661TIP3    H1 1928   5.567   2.875   4.295
  661TIP3    H2 1929   5.419   2.906   4.292
  662TIP3   OH2 1930   0.760   3.185   3.313
  662TIP3    H1 1931   0.798   3.097   3.309
  662TIP3    H2 1932   0.836   3.242   3.324
  663TIP3   OH2 1933   1.120   2.779   3.522
  663TIP3    H1 1934   1.107   2.860   3.472
  663TIP3    H2 1935   1.032   2.756   3.552
  664TIP3   OH2 1936   1.848   4.949   3.897
  664TIP3    H1 1937   1.824   4.869   3.945
  664TIP3    H2 1938   1.922   4.985   3.946
  665TIP3   OH2 1939   0.918   6.917   5.494
  665TIP3    H1 1940   0.918   6.826   5.524
  665TIP3    H2 1941   1.007   6.931   5.462
  666TIP3   OH2 1942   3.671   7.484   5.624
  666TIP3    H1 1943   3.633   7.556   5.573
  666TIP3    H2 1944   3.665   7.408   5.566
  667TIP3   OH2 1945   0.657   1.644   1.145
  667TIP3    H1 1946   0.584   1.694   1.180
  667TIP3    H2 1947   0.675   1.683   1.060
  668TIP3   OH2 1948   5.797   7.503   0.336
  668TIP3    H1 1949   5.791   7.408   0.326
  668TIP3    H2 1950   5.884   7.518   0.372
  669TIP3   OH2 1951   3.872   1.319   2.713
  669TIP3    H1 1952   3.933   1.264   2.762
  669TIP3    H2 1953   3.916   1.404   2.709
  670TIP3   OH2 1954   4.024   1.373   4.492
  670TIP3    H1 1955   4.020   1.450   4.548
  670TIP3    H2 1956   4.114   1.372   4.459
  671TIP3   OH2 1957   8.102   7.749   0.157
  671TIP3    H1 1958   8.131   7.684   0.220
  671TIP3    H2 1959   8.007   7.751   0.167
  672TIP3   OH2 1960   4.231   2.993   2.488
  672TIP3    H1 1961   4.306   2.956   2.535
  672TIP3    H2 1962   4.170   3.018   2.557
  673TIP3   OH2 1963   5.870   6.050   2.591
  673TIP3    H1 1964   5.918   6.088   2.665
  673TIP3    H2 1965   5.783   6.089   2.597
  674TIP3   OH2 1966   5.314   0.373   1.979
  674TIP3    H1 1967   5.250   0.444   1.982
  674TIP3    H2 1968   5.362   0.388   1.897
  675TIP3   OH2 1969   7.887   2.972   0.955
  675TIP3    H1 1970   7.870   2.918   1.033
  675TIP3    H2 1971   7.807   2.963   0.903
  676TIP3   OH2 1972   1.435   0.587   4.322
  676TIP3    H1 1973   1.371   0.553   4.385
  676TIP3    H2 1974   1.464   0.510   4.273
  677TIP3   OH2 1975   6.624   5.869   3.990
  677TIP3    H1 1976   6.714   5.863   4.024
  677TIP3    H2 1977   6.627   5.942   3.928
  678TIP3   OH2 1978   5.725   4.007   2.740
  678TIP3    H1 1979   5.757   4.049   2.660
  678TIP3    H2 1980   5.757   4.063   2.811
  679TIP3   OH2 1981   2.978   2.441   1.668
  679TIP3    H1 1982   3.028   2.522   1.675
  679TIP3    H2 1983   2.994   2.410   1.579
  680TIP3   OH2 1984   6.301   4.690   1.741
  680TIP3    H1 1985   6.289   4.692   1.646
  680TIP3    H2 1986   6.229   4.635   1.773
  681TIP3   OH2 1987   1.526   4.065   1.136
  681TIP3    H1 1988   1.541   4.089   1.044
  681TIP3    H2 1989   1.613   4.039   1.167
  682TIP3   OH2 1990   3.818   7.791   2.161
  682TIP3    H1 1991   3.797   7.711   2.112
  682TIP3    H2 1992   3.780   7.776   2.247
  683TIP3   OH2 1993   3.332   5.080   4.189
  683TIP3    H1 1994   3.409   5.037   4.226
  683TIP3    H2 1995   3.257   5.031   4.225
  684TIP3   OH2 1996   3.726   6.907   5.746
  684TIP3    H1 1997   3.812   6.949   5.737
  684TIP3    H2 1998   3.724   6.840   5.677
  685TIP3   OH2 1999   2.899   3.159   4.298
  685TIP3    H1 2000   2.972   3.213   4.267
  685TIP3    H2 2001   2.842   3.221   4.344
  686TIP3   OH2 2002   0.495   0.795   6.648
  686TIP3    H1 2003   0.405   0.792   6.614
  686TIP3    H2 2004   0.548   0.823   6.574
  687TIP3   OH2 2005   4.087   6.065   4.939
  687TIP3    H1 2006   4.139   5.986   4.948
  687TIP3    H2 2007   4.103   6.094   4.849
  688TIP3   OH2 2008   3.959   6.888   2.112
  688TIP3    H1 2009   4.022   6.855   2.048
  688TIP3    H2 2010   4.012   6.938   2.174
  689TIP3   OH2 2011   5.200   4.066   1.322
  689TIP3    H1 2012   5.241   3.994   1.369
  689TIP3    H2 2013   5.108   4.064   1.349
  690TIP3   OH2 2014   8.199   0.895   5.462
  690TIP3    H1 2015   8.108   0.886   5.492
  690TIP3    H2 2016   8.251   0.886   5.542
  691TIP3   OH2 2017   7.916   3.803   5.216
  691TIP3    H1 2018   7.976   3.863   5.260
  691TIP3    H2 2019   7.914   3.726   5.273
  692TIP3   OH2 2020   4.749   5.541   2.172
  692TIP3    H1 2021   4.715   5.521   2.084
  692TIP3    H2 2022   4.842   5.558   2.158
  693TIP3   OH2 2023   2.582   0.220   0.142
  693TIP3    H1 2024   2.514   0.168   0.100
  693TIP3    H2 2025   2.609   0.168   0.218
  694TIP3   OH2 2026   7.713   6.657   6.035
  694TIP3    H1 2027   7.682   6.572   6.004
  694TIP3    H2 2028   7.804   6.641   6.060
  695TIP3   OH2 2029   1.258   1.765   5.655
  695TIP3    H1 2030   1.323   1.697   5.640
  695TIP3    H2 2031   1.177   1.717   5.674
  696TIP3   OH2 2032   3.945   5.462   5.190
  696TIP3    H1 2033   4.039   5.468   5.203
  696TIP3    H2 2034   3.930   5.491   5.100
  697TIP3   OH2 2035   1.833   5.529   3.583
  697TIP3    H1 2036   1.754   5.475   3.568
  697TIP3    H2 2037   1.838   5.535   3.679
  698TIP3   OH2 2038   0.149   5.966   3.610
  698TIP3    H1 2039   0.125   5.932   3.523
  698TIP3    H2 2040   0.236   5.929   3.627
  699TIP3   OH2 2041   7.499   6.889   1.158
  699TIP3    H1 2042   7.514   6.936   1.076
  699TIP3    H2 2043   7.586   6.860   1.186
  700TIP3   OH2 2044   4.889   1.295   1.377
  700TIP3    H1 2045   4.828   1.367   1.392
  700TIP3    H2 2046   4.834   1.216   1.380
  701TIP3   OH2 2047   8.279   7.102   6.494
  701TIP3    H1 2048   8.201   7.147   6.462
  701TIP3    H2 2049   8.347   7.125   6.431
  702TIP3   OH2 2050   2.265   6.393   5.787
  702TIP3    H1 2051   2.196   6.378   5.852
  702TIP3    H2 2052   2.253   6.324   5.723
  703TIP3   OH2 2053   7.421   1.531   3.631
  703TIP3    H1 2054   7.364   1.513   3.556
  703TIP3    H2 2055   7.509   1.531   3.595
  704TIP3   OH2 2056   1.624   2.272   0.527
  704TIP3    H1 2057   1.702   2.325   0.547
  704TIP3    H2 2058   1.642   2.187   0.566
  705TIP3   OH2 2059   7.743   3.722   6.465
  705TIP3    H1 2060   7.659   3.684   6.437
  705TIP3    H2 2061   7.725   3.758   6.551
  706TIP3   OH2 2062   3.905   0.772   2.813
  706TIP3    H1 2063   3.938   0.683   2.823
  706TIP3    H2 2064   3.944   0.821   2.885
  707TIP3   OH2 2065   4.882   3.684   6.311
  707TIP3    H1 2066   4.833   3.765   6.324
  707TIP3    H2 2067   4.877   3.667   6.217
  708TIP3   OH2 2068   7.264   2.560   5.488
  708TIP3    H1 2069   7.335   2.497   5.499
  708TIP3    H2 2070   7.280   2.600   5.402
  709TIP3   OH2 2071   7.353   3.616   1.661
  709TIP3    H1 2072   7.362   3.705   1.626
  709TIP3    H2 2073   7.286   3.575   1.606
  710TIP3   OH2 2074   5.506   5.087   3.198
  710TIP3    H1 2075   5.573   5.151   3.221
  710TIP3    H2 2076   5.478   5.050   3.282
  711TIP3   OH2 2077   8.000   7.134   5.679
  711TIP3    H1 2078   8.056   7.171   5.611
  711TIP3    H2 2079   8.059   7.077   5.729
  712TIP3   OH2 2080   0.896   1.318   4.707
  712TIP3    H1 2081   0.943   1.374   4.645
  712TIP3    H2 2082   0.964   1.261   4.744
  713TIP3   OH2 2083   7.759   2.607   2.586
  713TIP3    H1 2084   7.749   2.520   2.625
  713TIP3    H2 2085   7.814   2.655   2.648
  714TIP3   OH2 2086   0.579   6.901   3.293
  714TIP3    H1 2087   0.547   6.861   3.373
  714TIP3    H2 2088   0.623   6.981   3.322
  715TIP3   OH2 2089   8.177   6.605   6.675
  715TIP3    H1 2090   8.268   6.576   6.672
  715TIP3    H2 2091   8.182   6.700   6.669
  716TIP3   OH2 2092   1.328   2.035   1.616
  716TIP3    H1 2093   1.328   1.969   1.546
  716TIP3    H2 2094   1.243   2.025   1.658
  717TIP3   OH2 2095   3.256   6.586   3.328
  717TIP3    H1 2096   3.172   6.602   3.286
  717TIP3    H2 2097   3.293   6.674   3.341
  718TIP3   OH2 2098   1.216   5.898   2.794
  718TIP3    H1 2099   1.198   5.806   2.810
  718TIP3    H2 2100   1.300   5.914   2.837
  719TIP3   OH2 2101   4.869   3.210   3.666
  719TIP3    H1 2102   4.811   3.156   3.611
  719TIP3    H2 2103   4.815   3.285   3.691
  720TIP3   OH2 2104   1.288   3.004   4.317
  720TIP3    H1 2105   1.194   3.011   4.298
  720TIP3    H2 2106   1.302   3.068   4.387
  721TIP3   OH2 2107   6.266   7.718   1.519
  721TIP3    H1 2108   6.195   7.778   1.541
  721TIP3    H2 2109   6.222   7.639   1.489
  722TIP3   OH2 2110   1.192   2.640   2.437
  722TIP3    H1 2111   1.229   2.718   2.479
  722TIP3    H2 2112   1.214   2.650   2.344
  723TIP3   OH2 2113   5.660   6.402   0.230
  723TIP3    H1 2114   5.671   6.361   0.315
  723TIP3    H2 2115   5.711   6.348   0.170
  724TIP3   OH2 2116   7.345   3.149   3.065
  724TIP3    H1 2117   7.256   3.151   3.099
  724TIP3    H2 2118   7.338   3.100   2.983
  725TIP3   OH2 2119   4.231   0.880   1.003
  725TIP3    H1 2120   4.272   0.843   1.082
  725TIP3    H2 2121   4.166   0.942   1.037
  726TIP3   OH2 2122   4.547   0.439   6.778
  726TIP3    H1 2123   4.474   0.381   6.798
  726TIP3    H2 2124   4.513   0.500   6.713
  727TIP3   OH2 2125   7.965   4.646   3.040
  727TIP3    H1 2126   7.974   4.657   3.135
  727TIP3    H2 2127   8.055   4.656   3.007
  728TIP3   OH2 2128   4.123   0.118   0.930
  728TIP3    H1 2129   4.179   0.050   0.894
  728TIP3    H2 2130   4.142   0.119   1.024
  729TIP3   OH2 2131   4.240   4.099   6.152
  729TIP3    H1 2132   4.308   4.124   6.213
  729TIP3    H2 2133   4.199   4.022   6.192
  730TIP3   OH2 2134   2.044   6.531   2.440
  730TIP3    H1 2135   1.995   6.448   2.444
  730TIP3    H2 2136   1.986   6.591   2.393
  731TIP3   OH2 2137   4.442   0.526   3.119
  731TIP3    H1 2138   4.372   0.560   3.174
  731TIP3    H2 2139   4.400   0.459   3.065
  732TIP3   OH2 2140   3.666   7.757   4.889
  732TIP3    H1 2141   3.638   7.834   4.938
  732TIP3    H2 2142   3.631   7.771   4.801
  733TIP3   OH2 2143   4.937   3.893   3.030
  733TIP3    H1 2144   4.969   3.934   3.110
  733TIP3    H2 2145   4.910   3.805   3.057
  734TIP3   OH2 2146   7.016   6.141   4.111
  734TIP3    H1 2147   6.941   6.145   4.170
  734TIP3    H2 2148   7.068   6.218   4.133
  735TIP3   OH2 2149   2.638   3.341   4.679
  735TIP3    H1 2150   2.545   3.336   4.698
  735TIP3    H2 2151   2.677   3.376   4.759
  736TIP3   OH2 2152   6.656   3.008   6.123
  736TIP3    H1 2153   6.653   3.102   6.140
  736TIP3    H2 2154   6.602   2.969   6.193
  737TIP3   OH2 2155   3.881   0.564   1.695
  737TIP3    H1 2156   3.958   0.532   1.648
  737TIP3    H2 2157   3.831   0.612   1.630
  738TIP3   OH2 2158   8.126   2.892   4.496
  738TIP3    H1 2159   8.090   2.981   4.489
  738TIP3    H2 2160   8.074   2.840   4.435
  739TIP3   OH2 2161   1.659   7.043   0.185
  739TIP3    H1 2162   1.616   6.975   0.133
  739TIP3    H2 2163   1.610   7.045   0.267
  740TIP3   OH2 2164   1.515   2.652   6.067
  740TIP3    H1 2165   1.596   2.625   6.021
  740TIP3    H2 2166   1.445   2.618   6.012
  741TIP3   OH2 2167   7.238   2.589   5.085
  741TIP3    H1 2168   7.201   2.523   5.145
  741TIP3    H2 2169   7.330   2.565   5.078
  742TIP3   OH2 2170   4.023   7.644   6.456
  742TIP3    H1 2171   4.040   7.715   6.394
  742TIP3    H2 2172   4.029   7.564   6.403
  743TIP3   OH2 2173   5.304   5.905   5.462
  743TIP3    H1 2174   5.355   5.844   5.409
  743TIP3    H2 2175   5.361   5.927   5.536
  744TIP3   OH2 2176   8.194   1.670   4.258
  744TIP3    H1 2177   8.289   1.680   4.263
  744TIP3    H2 2178   8.160   1.754   4.290
  745TIP3   OH2 2179   0.535   4.031   5.922
  745TIP3    H1 2180   0.481   4.011   5.845
  745TIP3    H2 2181   0.624   4.013   5.893
  746TIP3   OH2 2182   1.384   7.607   3.955
  746TIP3    H1 2183   1.316   7.632   4.018
  746TIP3    H2 2184   1.400   7.687   3.904
  747TIP3   OH2 2185   2.368   1.740   5.269
  747TIP3    H1 2186   2.440   1.803   5.281
  747TIP3    H2 2187   2.289   1.793   5.271
  748TIP3   OH2 2188   0.538   0.616   0.690
  748TIP3    H1 2189   0.555   0.635   0.597
  748TIP3    H2 2190   0.604   0.668   0.737
  749TIP3   OH2 2191   7.982   7.482   0.974
  749TIP3    H1 2192   7.951   7.517   1.058
  749TIP3    H2 2193   8.067   7.445   0.994
  750TIP3   OH2 2194   1.961   4.718   5.666
  750TIP3    H1 2195   1.946   4.682   5.579
  750TIP3    H2 2196   1.941   4.645   5.725
  751TIP3   OH2 2197   2.575   7.426   6.582
  751TIP3    H1 2198   2.626   7.449   6.660
  751TIP3    H2 2199   2.631   7.452   6.509
  752TIP3   OH2 2200   5.202   3.413   2.442
  752TIP3    H1 2201   5.110   3.387   2.441
  752TIP3    H2 2202   5.250   3.334   2.467
  753TIP3   OH2 2203   3.247   1.830   1.319
  753TIP3    H1 2204   3.181   1.895   1.345
  753TIP3    H2 2205   3.285   1.865   1.239
  754TIP3   OH2 2206   4.234   0.385   6.696
  754TIP3    H1 2207   4.241   0.308   6.639
  754TIP3    H2 2208   4.184   0.353   6.772
  755TIP3   OH2 2209   7.920   0.310   2.032
  755TIP3    H1 2210   7.874   0.253   1.971
  755TIP3    H2 2211   8.013   0.289   2.019
  756TIP3   OH2 2212   0.136   7.003   5.607
  756TIP3    H1 2213   0.044   7.017   5.627
  756TIP3    H2 2214   0.147   7.036   5.518
  757TIP3   OH2 2215   4.618   4.102   2.168
  757TIP3    H1 2216   4.620   4.124   2.074
  757TIP3    H2 2217   4.674   4.169   2.208
  758TIP3   OH2 2218   6.887   1.622   3.155
  758TIP3    H1 2219   6.847   1.649   3.238
  758TIP3    H2 2220   6.822   1.645   3.089
  759TIP3   OH2 2221   0.374   6.046   5.826
  759TIP3    H1 2222   0.318   5.992   5.770
  759TIP3    H2 2223   0.314   6.109   5.867
  760TIP3   OH2 2224   6.583   6.575   6.419
  760TIP3    H1 2225   6.564   6.531   6.336
  760TIP3    H2 2226   6.506   6.558   6.473
  761TIP3   OH2 2227   1.555   7.696   3.563
  761TIP3    H1 2228   1.640   7.738   3.551
  761TIP3    H2 2229   1.491   7.763   3.540
  762TIP3   OH2 2230   0.424   2.406   2.677
  762TIP3    H1 2231   0.344   2.445   2.712
  762TIP3    H2 2232   0.438   2.328   2.730
  763TIP3   OH2 2233   4.154   7.689   3.667
  763TIP3    H1 2234   4.204   7.621   3.622
  763TIP3    H2 2235   4.090   7.641   3.719
  764TIP3   OH2 2236   1.026   4.444   2.015
  764TIP3    H1 2237   1.091   4.436   1.946
  764TIP3    H2 2238   1.074   4.427   2.096
  765TIP3   OH2 2239   0.409   3.043   5.258
  765TIP3    H1 2240   0.479   2.977   5.263
  765TIP3    H2 2241   0.337   2.997   5.214
  766TIP3   OH2 2242   0.418   3.520   6.490
  766TIP3    H1 2243   0.438   3.591   6.551
  766TIP3    H2 2244   0.375   3.563   6.416
  767TIP3   OH2 2245   2.933   0.146   6.159
  767TIP3    H1 2246   2.913   0.067   6.209
  767TIP3    H2 2247   2.899   0.218   6.213
  768TIP3   OH2 2248   7.944   3.855   1.925
  768TIP3    H1 2249   7.967   3.835   2.016
  768TIP3    H2 2250   8.027   3.875   1.882
  769TIP3   OH2 2251   2.164   2.718   6.759
  769TIP3    H1 2252   2.181   2.810   6.781
  769TIP3    H2 2253   2.243   2.689   6.715
  770TIP3   OH2 2254   4.008   2.296   2.829
  770TIP3    H1 2255   4.034   2.348   2.753
  770TIP3    H2 2256   4.024   2.353   2.904
  771TIP3   OH2 2257   7.786   5.939   1.035
  771TIP3    H1 2258   7.864   5.891   1.061
  771TIP3    H2 2259   7.818   6.002   0.970
  772TIP3   OH2 2260   2.661   1.664   5.948
  772TIP3    H1 2261   2.569   1.679   5.968
  772TIP3    H2 2262   2.665   1.574   5.917
  773TIP3   OH2 2263   2.609   5.621   4.930
  773TIP3    H1 2264   2.611   5.536   4.975
  773TIP3    H2 2265   2.683   5.618   4.871
  774TIP3   OH2 2266   3.301   6.301   0.233
  774TIP3    H1 2267   3.344   6.300   0.318
  774TIP3    H2 2268   3.371   6.285   0.170
  775TIP3   OH2 2269   4.761   6.586   5.996
  775TIP3    H1 2270   4.823   6.530   5.949
  775TIP3    H2 2271   4.706   6.525   6.045
  776TIP3   OH2 2272   7.408   3.714   5.544
  776TIP3    H1 2273   7.414   3.620   5.527
  776TIP3    H2 2274   7.341   3.722   5.611
  777TIP3   OH2 2275   3.557   0.068   3.514
  777TIP3    H1 2276   3.528   0.005   3.580
  777TIP3    H2 2277   3.509   0.043   3.435
  778TIP3   OH2 2278   4.543   7.164   5.757
  778TIP3    H1 2279   4.505   7.165   5.669
  778TIP3    H2 2280   4.490   7.225   5.808
  779TIP3   OH2 2281   7.432   3.028   5.850
  779TIP3    H1 2282   7.436   3.015   5.944
  779TIP3    H2 2283   7.500   3.094   5.832
  780TIP3   OH2 2284   6.136   0.311   3.041
  780TIP3    H1 2285   6.105   0.398   3.015
  780TIP3    H2 2286   6.229   0.323   3.059
  781TIP3   OH2 2287   0.383   0.977   5.020
  781TIP3    H1 2288   0.439   1.050   4.994
  781TIP3    H2 2289   0.369   0.928   4.939
  782TIP3   OH2 2290   2.511   0.654   0.992
  782TIP3    H1 2291   2.512   0.738   0.945
  782TIP3    H2 2292   2.418   0.633   1.002
  783TIP3   OH2 2293   2.552   1.105   1.381
  783TIP3    H1 2294   2.631   1.097   1.327
  783TIP3    H2 2295   2.578   1.074   1.468
  784TIP3   OH2 2296   4.645   4.340   5.028
  784TIP3    H1 2297   4.654   4.317   4.936
  784TIP3    H2 2298   4.668   4.433   5.032
  785TIP3   OH2 2299   1.738   2.547   2.368
  785TIP3    H1 2300   1.688   2.472   2.335
  785TIP3    H2 2301   1.799   2.510   2.432
  786TIP3   OH2 2302   6.537   2.435   1.311
  786TIP3    H1 2303   6.612   2.382   1.283
  786TIP3    H2 2304   6.461   2.388   1.276
  787TIP3   OH2 2305   7.402   3.658   2.877
  787TIP3    H1 2306   7.334   3.592   2.891
  787TIP3    H2 2307   7.372   3.706   2.799
  788TIP3   OH2 2308   3.874   2.955   4.214
  788TIP3    H1 2309   3.782   2.948   4.241
  788TIP3    H2 2310   3.873   3.021   4.145
  789TIP3   OH2 2311   2.418   7.452   0.647
  789TIP3    H1 2312   2.357   7.379   0.655
  789TIP3    H2 2313   2.413   7.496   0.732
  790TIP3   OH2 2314   4.823   4.594   5.058
  790TIP3    H1 2315   4.871   4.632   5.132
  790TIP3    H2 2316   4.822   4.664   4.992
  791TIP3   OH2 2317   2.354   6.486   1.295
  791TIP3    H1 2318   2.350   6.426   1.370
  791TIP3    H2 2319   2.279   6.461   1.241
  792TIP3   OH2 2320   4.487   2.215   5.151
  792TIP3    H1 2321   4.552   2.179   5.090
  792TIP3    H2 2322   4.409   2.161   5.136
  793TIP3   OH2 2323   5.181   0.617   2.377
  793TIP3    H1 2324   5.228   0.694   2.344
  793TIP3    H2 2325   5.240   0.544   2.362
  794TIP3   OH2 2326   4.541   2.276   0.554
  794TIP3    H1 2327   4.615   2.275   0.615
  794TIP3    H2 2328   4.489   2.199   0.578
  795TIP3   OH2 2329   4.625   5.104   4.225
  795TIP3    H1 2330   4.601   5.043   4.294
  795TIP3    H2 2331   4.718   5.086   4.208
  796TIP3   OH2 2332   2.860   2.655   2.044
  796TIP3    H1 2333   2.775   2.682   2.080
  796TIP3    H2 2334   2.858   2.687   1.954
  797TIP3   OH2 2335   3.598   3.442   2.883
  797TIP3    H1 2336   3.514   3.481   2.858
  797TIP3    H2 2337   3.590   3.427   2.978
  798TIP3   OH2 2338   1.064   1.134   6.312
  798TIP3    H1 2339   1.082   1.194   6.384
  798TIP3    H2 2340   1.033   1.054   6.354
  799TIP3   OH2 2341   4.737   4.640   0.480
  799TIP3    H1 2342   4.817   4.656   0.431
  799TIP3    H2 2343   4.720   4.721   0.528
  800TIP3   OH2 2344   5.307   4.329   5.908
  800TIP3    H1 2345   5.301   4.354   6.000
  800TIP3    H2 2346   5.236   4.267   5.894
  801TIP3   OH2 2347   2.916   0.059   0.577
  801TIP3    H1 2348   2.928  -0.035   0.566
  801TIP3    H2 2349   2.906   0.071   0.671
  802TIP3   OH2 2350   7.060   3.701   5.020
  802TIP3    H1 2351   7.125   3.757   4.978
  802TIP3    H2 2352   6.986   3.758   5.037
  803TIP3   OH2 2353   2.158   4.658   0.385
  803TIP3    H1 2354   2.069   4.623   0.388
  803TIP3    H2 2355   2.187   4.658   0.476
  804TIP3   OH2 2356   8.253   3.622   6.051
  804TIP3    H1 2357   8.295   3.667   6.125
  804TIP3    H2 2358   8.289   3.664   5.973
  805TIP3   OH2 2359   3.054   3.124   0.580
  805TIP3    H1 2360   3.144   3.147   0.556
  805TIP3    H2 2361   3.000   3.165   0.512
  806TIP3   OH2 2362   4.284   2.302   5.966
  806TIP3    H1 2363   4.329   2.322   6.049
  806TIP3    H2 2364   4.351   2.259   5.912
  807TIP3   OH2 2365   3.848   5.211   2.750
  807TIP3    H1 2366   3.934   5.174   2.771
  807TIP3    H2 2367   3.801   5.139   2.706
  808TIP3   OH2 2368   7.839   3.339   0.550
  808TIP3    H1 2369   7.754   3.296   0.545
  808TIP3    H2 2370   7.819   3.429   0.576
  809TIP3   OH2 2371   3.613   5.415   2.597
  809TIP3    H1 2372   3.540   5.428   2.657
  809TIP3    H2 2373   3.688   5.453   2.642
  810TIP3   OH2 2374   5.686   5.402   2.537
  810TIP3    H1 2375   5.649   5.456   2.607
  810TIP3    H2 2376   5.686   5.314   2.572
  811TIP3   OH2 2377   7.359   1.011   3.202
  811TIP3    H1 2378   7.275   1.034   3.243
  811TIP3    H2 2379   7.425   1.046   3.261
  812TIP3   OH2 2380   5.436   1.013   1.594
  812TIP3    H1 2381   5.503   1.063   1.641
  812TIP3    H2 2382   5.476   0.927   1.580
  813TIP3   OH2 2383   1.297   3.148   2.480
  813TIP3    H1 2384   1.367   3.179   2.422
  813TIP3    H2 2385   1.216   3.171   2.434
  814TIP3   OH2 2386   1.876   1.496   6.697
  814TIP3    H1 2387   1.941   1.564   6.679
  814TIP3    H2 2388   1.849   1.512   6.787
  815TIP3   OH2 2389   2.931   0.453   5.098
  815TIP3    H1 2390   2.920   0.436   5.191
  815TIP3    H2 2391   2.994   0.525   5.094
  816TIP3   OH2 2392   4.253   4.165   2.848
  816TIP3    H1 2393   4.235   4.165   2.754
  816TIP3    H2 2394   4.298   4.082   2.864
  817TIP3   OH2 2395   3.099   5.585   6.241
  817TIP3    H1 2396   3.106   5.661   6.300
  817TIP3    H2 2397   3.189   5.567   6.214
  818TIP3   OH2 2398   6.108   3.339   2.410
  818TIP3    H1 2399   6.191   3.336   2.459
  818TIP3    H2 2400   6.090   3.247   2.389
  819TIP3   OH2 2401   6.308   4.191   0.509
  819TIP3    H1 2402   6.280   4.169   0.598
  819TIP3    H2 2403   6.332   4.284   0.514
  820TIP3   OH2 2404   6.500   6.181   4.309
  820TIP3    H1 2405   6.463   6.203   4.395
  820TIP3    H2 2406   6.482   6.087   4.299
  821TIP3   OH2 2407   1.641   7.661   2.362
  821TIP3    H1 2408   1.675   7.572   2.355
  821TIP3    H2 2409   1.674   7.693   2.446
  822TIP3   OH2 2410   5.478   7.559   1.711
  822TIP3    H1 2411   5.457   7.597   1.626
  822TIP3    H2 2412   5.534   7.485   1.692
  823TIP3   OH2 2413   1.891   1.007   3.354
  823TIP3    H1 2414   1.875   1.001   3.448
  823TIP3    H2 2415   1.964   1.068   3.346
  824TIP3   OH2 2416   3.042   0.484   4.411
  824TIP3    H1 2417   3.020   0.577   4.405
  824TIP3    H2 2418   3.130   0.483   4.449
  825TIP3   OH2 2419   3.786   1.566   4.307
  825TIP3    H1 2420   3.784   1.642   4.250
  825TIP3    H2 2421   3.858   1.583   4.368
  826TIP3   OH2 2422   7.292   2.033   0.642
  826TIP3    H1 2423   7.332   2.118   0.622
  826TIP3    H2 2424   7.343   1.999   0.715
  827TIP3   OH2 2425   2.677   6.932   3.327
  827TIP3    H1 2426   2.708   7.019   3.352
  827TIP3    H2 2427   2.583   6.944   3.313
  828TIP3   OH2 2428   2.183   5.854   0.147
  828TIP3    H1 2429   2.271   5.827   0.120
  828TIP3    H2 2430   2.133   5.858   0.065
  829TIP3   OH2 2431   4.837   5.014   5.636
  829TIP3    H1 2432   4.745   4.996   5.617
  829TIP3    H2 2433   4.863   5.079   5.571
  830TIP3   OH2 2434   5.579   0.571   1.311
  830TIP3    H1 2435   5.616   0.651   1.273
  830TIP3    H2 2436   5.522   0.537   1.242
  831TIP3   OH2 2437   6.189   7.349   4.728
  831TIP3    H1 2438   6.255   7.406   4.768
  831TIP3    H2 2439   6.107   7.397   4.738
  832TIP3   OH2 2440   1.460   0.878   2.964
  832TIP3    H1 2441   1.461   0.825   2.885
  832TIP3    H2 2442   1.433   0.965   2.934
  833TIP3   OH2 2443   1.952   2.489   1.353
  833TIP3    H1 2444   2.031   2.438   1.368
  833TIP3    H2 2445   1.913   2.452   1.273
  834TIP3   OH2 2446   4.388   5.913   2.258
  834TIP3    H1 2447   4.301   5.949   2.238
  834TIP3    H2 2448   4.424   5.973   2.324
  835TIP3   OH2 2449   7.385   0.954   4.890
  835TIP3    H1 2450   7.418   1.020   4.951
  835TIP3    H2 2451   7.443   0.879   4.902
  836TIP3   OH2 2452   1.541   2.405   3.447
  836TIP3    H1 2453   1.495   2.444   3.372
  836TIP3    H2 2454   1.545   2.312   3.426
  837TIP3   OH2 2455   3.611   5.376   6.231
  837TIP3    H1 2456   3.552   5.329   6.290
  837TIP3    H2 2457   3.601   5.332   6.147
  838TIP3   OH2 2458   7.854   0.899   0.110
  838TIP3    H1 2459   7.864   0.862   0.022
  838TIP3    H2 2460   7.816   0.828   0.161
  839TIP3   OH2 2461   4.253   2.780   1.708
  839TIP3    H1 2462   4.307   2.737   1.642
  839TIP3    H2 2463   4.243   2.715   1.777
  840TIP3   OH2 2464   6.795   1.493   5.511
  840TIP3    H1 2465   6.711   1.538   5.525
  840TIP3    H2 2466   6.794   1.470   5.418
  841TIP3   OH2 2467   6.870   1.908   5.825
  841TIP3    H1 2468   6.940   1.915   5.890
  841TIP3    H2 2469   6.836   1.997   5.817
  842TIP3   OH2 2470   4.605   5.193   0.795
  842TIP3    H1 2471   4.667   5.255   0.832
  842TIP3    H2 2472   4.622   5.111   0.842
  843TIP3   OH2 2473   0.964   1.303   0.919
  843TIP3    H1 2474   0.907   1.379   0.932
  843TIP3    H2 2475   1.050   1.333   0.950
  844TIP3   OH2 2476   1.189   5.027   4.415
  844TIP3    H1 2477   1.279   5.013   4.387
  844TIP3    H2 2478   1.137   4.969   4.359
  845TIP3   OH2 2479   4.183   1.643   2.846
  845TIP3    H1 2480   4.275   1.665   2.857
  845TIP3    H2 2481   4.137   1.726   2.856
  846TIP3   OH2 2482   1.115   6.510   1.994
  846TIP3    H1 2483   1.127   6.604   2.008
  846TIP3    H2 2484   1.101   6.475   2.082
  847TIP3   OH2 2485   7.763   5.252   3.046
  847TIP3    H1 2486   7.786   5.337   3.007
  847TIP3    H2 2487   7.812   5.188   2.994
  848TIP3   OH2 2488   1.390   7.405   4.976
  848TIP3    H1 2489   1.451   7.346   5.021
  848TIP3    H2 2490   1.359   7.464   5.044
  849TIP3   OH2 2491   0.711   1.285   5.122
  849TIP3    H1 2492   0.637   1.244   5.167
  849TIP3    H2 2493   0.743   1.218   5.062
  850TIP3   OH2 2494   3.756   5.179   0.907
  850TIP3    H1 2495   3.813   5.101   0.914
  850TIP3    H2 2496   3.733   5.183   0.814
  851TIP3   OH2 2497   7.609   3.074   0.858
  851TIP3    H1 2498   7.558   3.020   0.918
  851TIP3    H2 2499   7.655   3.136   0.915
  852TIP3   OH2 2500   3.666   5.585   0.191
  852TIP3    H1 2501   3.748   5.598   0.239
  852TIP3    H2 2502   3.602   5.560   0.259
  853TIP3   OH2 2503   8.043   3.867   1.387
  853TIP3    H1 2504   8.018   3.886   1.297
  853TIP3    H2 2505   8.009   3.779   1.404
  854TIP3   OH2 2506   2.712   0.314   5.526
  854TIP3    H1 2507   2.655   0.318   5.449
  854TIP3    H2 2508   2.792   0.360   5.499
  855TIP3   OH2 2509   0.394   3.478   4.644
  855TIP3    H1 2510   0.451   3.552   4.667
  855TIP3    H2 2511   0.306   3.506   4.669
  856TIP3   OH2 2512   6.742   5.316   4.761
  856TIP3    H1 2513   6.836   5.324   4.742
  856TIP3    H2 2514   6.716   5.234   4.721
  857TIP3   OH2 2515   1.768   0.417   4.006
  857TIP3    H1 2516   1.679   0.451   3.996
  857TIP3    H2 2517   1.805   0.469   4.078
  858TIP3   OH2 2518   7.700   2.369   0.118
  858TIP3    H1 2519   7.791   2.398   0.118
  858TIP3    H2 2520   7.675   2.369   0.211
  859TIP3   OH2 2521   8.110   1.256   3.460
  859TIP3    H1 2522   8.027   1.253   3.509
  859TIP3    H2 2523   8.166   1.312   3.514
  860TIP3   OH2 2524   5.088   5.602   4.212
  860TIP3    H1 2525   5.132   5.662   4.152
  860TIP3    H2 2526   5.157   5.571   4.270
  861TIP3   OH2 2527   4.797   1.652   0.567
  861TIP3    H1 2528   4.835   1.739   0.554
  861TIP3    H2 2529   4.703   1.665   0.553
  862TIP3   OH2 2530   6.185   2.833   0.503
  862TIP3    H1 2531   6.167   2.759   0.560
  862TIP3    H2 2532   6.218   2.793   0.422
  863TIP3   OH2 2533   4.690   2.489   0.144
  863TIP3    H1 2534   4.720   2.414   0.093
  863TIP3    H2 2535   4.597   2.497   0.123
  864TIP3   OH2 2536   7.038   2.670   0.250
  864TIP3    H1 2537   7.107   2.736   0.244
  864TIP3    H2 2538   7.061   2.617   0.326
  865TIP3   OH2 2539   4.587   0.888   4.128
  865TIP3    H1 2540   4.593   0.804   4.175
  865TIP3    H2 2541   4.650   0.879   4.056
  866TIP3   OH2 2542   6.109   0.306   4.824
  866TIP3    H1 2543   6.126   0.359   4.902
  866TIP3    H2 2544   6.175   0.335   4.761
  867TIP3   OH2 2545   0.054   1.928   3.245
  867TIP3    H1 2546   0.039   1.960   3.157
  867TIP3    H2 2547   0.012   1.993   3.302
  868TIP3   OH2 2548   6.457   6.899   5.822
  868TIP3    H1 2549   6.447   6.830   5.757
  868TIP3    H2 2550   6.372   6.942   5.825
  869TIP3   OH2 2551   1.396   2.156   4.150
  869TIP3    H1 2552   1.306   2.170   4.120
  869TIP3    H2 2553   1.415   2.233   4.203
  870TIP3   OH2 2554   7.708   0.636   0.206
  870TIP3    H1 2555   7.738   0.647   0.116
  870TIP3    H2 2556   7.778   0.588   0.249
  871TIP3   OH2 2557   3.029   0.551   3.508
  871TIP3    H1 2558   3.123   0.566   3.494
  871TIP3    H2 2559   3.024   0.505   3.592
  872TIP3   OH2 2560   3.145   1.507   4.805
  872TIP3    H1 2561   3.080   1.471   4.865
  872TIP3    H2 2562   3.189   1.430   4.769
  873TIP3   OH2 2563   5.925   2.947   0.143
  873TIP3    H1 2564   5.842   2.995   0.140
  873TIP3    H2 2565   5.984   2.998   0.087
  874TIP3   OH2 2566   3.145   4.503   6.765
  874TIP3    H1 2567   3.240   4.500   6.755
  874TIP3    H2 2568   3.123   4.596   6.761
  875TIP3   OH2 2569   4.212   6.514   2.480
  875TIP3    H1 2570   4.178   6.427   2.500
  875TIP3    H2 2571   4.158   6.544   2.407
  876TIP3   OH2 2572   3.604   7.269   3.540
  876TIP3    H1 2573   3.536   7.321   3.583
  876TIP3    H2 2574   3.576   7.178   3.552
  877TIP3   OH2 2575   1.787   2.393   5.364
  877TIP3    H1 2576   1.737   2.365   5.288
  877TIP3    H2 2577   1.729   2.453   5.411
  878TIP3   OH2 2578   3.984   1.470   4.888
  878TIP3    H1 2579   4.055   1.426   4.842
  878TIP3    H2 2580   3.913   1.406   4.892
  879TIP3   OH2 2581   8.279   5.330   5.538
  879TIP3    H1 2582   8.205   5.390   5.528
  879TIP3    H2 2583   8.274   5.273   5.461
  880TIP3   OH2 2584   3.976   4.885   1.368
  880TIP3    H1 2585   4.040   4.915   1.432
  880TIP3    H2 2586   4.024   4.882   1.285
  881TIP3   OH2 2587   3.566   0.106   1.869
  881TIP3    H1 2588   3.618   0.159   1.930
  881TIP3    H2 2589   3.558   0.161   1.791
  882TIP3   OH2 2590   7.020   3.221   4.078
  882TIP3    H1 2591   7.067   3.146   4.115
  882TIP3    H2 2592   6.928   3.198   4.087
  883TIP3   OH2 2593   5.716   7.532   3.936
  883TIP3    H1 2594   5.677   7.561   3.853
  883TIP3    H2 2595   5.643   7.537   3.999
  884TIP3   OH2 2596   4.656   5.546   5.370
  884TIP3    H1 2597   4.647   5.500   5.286
  884TIP3    H2 2598   4.748   5.572   5.373
  885TIP3   OH2 2599   0.000   0.166   0.491
  885TIP3    H1 2600   0.001   0.259   0.470
  885TIP3    H2 2601   0.077   0.153   0.547
  886TIP3   OH2 2602   3.977   7.161   5.032
  886TIP3    H1 2603   3.954   7.182   4.942
  886TIP3    H2 2604   4.068   7.131   5.027
  887TIP3   OH2 2605   2.716   7.468   5.512
  887TIP3    H1 2606   2.769   7.458   5.433
  887TIP3    H2 2607   2.724   7.561   5.534
  888TIP3   OH2 2608   6.768   1.640   3.662
  888TIP3    H1 2609   6.749   1.714   3.720
  888TIP3    H2 2610   6.794   1.569   3.721
  889TIP3   OH2 2611   3.886   3.009   3.707
  889TIP3    H1 2612   3.944   2.973   3.773
  889TIP3    H2 2613   3.800   3.013   3.749
  890TIP3   OH2 2614   6.556   1.876   0.405
  890TIP3    H1 2615   6.509   1.960   0.407
  890TIP3    H2 2616   6.620   1.886   0.334
  891TIP3   OH2 2617   4.158   2.729   6.623
  891TIP3    H1 2618   4.251   2.727   6.647
  891TIP3    H2 2619   4.158   2.754   6.531
  892TIP3   OH2 2620   3.227   3.222   0.211
  892TIP3    H1 2621   3.149   3.220   0.266
  892TIP3    H2 2622   3.207   3.165   0.137
  893TIP3   OH2 2623   3.504   2.183   2.505
  893TIP3    H1 2624   3.592   2.208   2.534
  893TIP3    H2 2625   3.461   2.266   2.487
  894TIP3   OH2 2626   3.140   3.224   1.860
  894TIP3    H1 2627   3.212   3.221   1.923
  894TIP3    H2 2628   3.073   3.166   1.897
  895TIP3   OH2 2629   7.794   2.338   3.086
  895TIP3    H1 2630   7.733   2.369   3.153
  895TIP3    H2 2631   7.838   2.417   3.056
  896TIP3   OH2 2632   4.263   7.158   6.143
  896TIP3    H1 2633   4.347   7.171   6.186
  896TIP3    H2 2634   4.250   7.063   6.145
  897TIP3   OH2 2635   6.028   0.124   0.558
  897TIP3    H1 2636   5.957   0.138   0.496
  897TIP3    H2 2637   6.010   0.038   0.596
  898TIP3   OH2 2638   4.784   5.927   2.809
  898TIP3    H1 2639   4.792   5.832   2.804
  898TIP3    H2 2640   4.691   5.944   2.794
  899TIP3   OH2 2641   4.187   3.886   1.041
  899TIP3    H1 2642   4.204   3.896   1.135
  899TIP3    H2 2643   4.148   3.970   1.015
  900TIP3   OH2 2644   0.626   3.838   1.649
  900TIP3    H1 2645   0.548   3.827   1.595
  900TIP3    H2 2646   0.699   3.822   1.589
  901TIP3   OH2 2647   0.542   5.720   6.738
  901TIP3    H1 2648   0.455   5.702   6.775
  901TIP3    H2 2649   0.555   5.814   6.752
  902TIP3   OH2 2650   3.180   3.678   2.120
  902TIP3    H1 2651   3.165   3.660   2.213
  902TIP3    H2 2652   3.188   3.773   2.116
  903TIP3   OH2 2653   1.588   5.175   4.042
  903TIP3    H1 2654   1.511   5.220   4.075
  903TIP3    H2 2655   1.613   5.223   3.963
  904TIP3   OH2 2656   8.250   3.134   5.370
  904TIP3    H1 2657   8.336   3.099   5.348
  904TIP3    H2 2658   8.268   3.217   5.415
  905TIP3   OH2 2659   0.282   6.998   2.252
  905TIP3    H1 2660   0.373   7.011   2.279
  905TIP3    H2 2661   0.230   7.044   2.319
  906TIP3   OH2 2662   3.603   4.990   6.420
  906TIP3    H1 2663   3.513   5.012   6.397
  906TIP3    H2 2664   3.614   4.900   6.389
  907TIP3   OH2 2665   2.576   2.752   1.709
  907TIP3    H1 2666   2.542   2.680   1.762
  907TIP3    H2 2667   2.663   2.769   1.745
  908TIP3   OH2 2668   3.467   2.638   4.824
  908TIP3    H1 2669   3.530   2.627   4.896
  908TIP3    H2 2670   3.455   2.733   4.816
  909TIP3   OH2 2671   3.358   3.960   2.527
  909TIP3    H1 2672   3.447   3.991   2.539
  909TIP3    H2 2673   3.304   4.022   2.578
  910TIP3   OH2 2674   4.936   2.471   1.906
  910TIP3    H1 2675   4.936   2.563   1.932
  910TIP3    H2 2676   4.917   2.473   1.812
  911TIP3   OH2 2677   3.308   7.026   3.744
  911TIP3    H1 2678   3.250   7.010   3.819
  911TIP3    H2 2679   3.384   7.071   3.780
  912TIP3   OH2 2680   6.016   3.830   5.674
  912TIP3    H1 2681   6.055   3.769   5.736
  912TIP3    H2 2682   5.926   3.840   5.704
  913TIP3   OH2 2683   6.651   6.779   2.845
  913TIP3    H1 2684   6.710   6.782   2.920
  913TIP3    H2 2685   6.604   6.696   2.855
  914TIP3   OH2 2686   0.668   6.202   2.964
  914TIP3    H1 2687   0.602   6.139   2.994
  914TIP3    H2 2688   0.624   6.287   2.969
  915TIP3   OH2 2689   1.645   1.072   3.230
  915TIP3    H1 2690   1.711   1.036   3.171
  915TIP3    H2 2691   1.654   1.020   3.310
  916TIP3   OH2 2692   7.558   7.047   0.935
  916TIP3    H1 2693   7.627   7.109   0.910
  916TIP3    H2 2694   7.572   6.971   0.877
  917TIP3   OH2 2695   0.301   0.707   2.164
  917TIP3    H1 2696   0.377   0.752   2.128
  917TIP3    H2 2697   0.329   0.676   2.250
  918TIP3   OH2 2698   3.900   6.501   0.432
  918TIP3    H1 2699   3.889   6.582   0.481
  918TIP3    H2 2700   3.983   6.513   0.384
  919TIP3   OH2 2701   0.238   2.955   2.256
  919TIP3    H1 2702   0.258   2.985   2.344
  919TIP3    H2 2703   0.142   2.956   2.251
  920TIP3   OH2 2704   6.784   3.414   6.245
  920TIP3    H1 2705   6.721   3.466   6.296
  920TIP3    H2 2706   6.826   3.479   6.189
  921TIP3   OH2 2707   4.553   4.364   0.703
  921TIP3    H1 2708   4.472   4.399   0.665
  921TIP3    H2 2709   4.565   4.279   0.660
  922TIP3   OH2 2710   7.102   2.824   4.186
  922TIP3    H1 2711   7.187   2.833   4.143
  922TIP3    H2 2712   7.071   2.737   4.161
  923TIP3   OH2 2713   3.361   3.551   3.965
  923TIP3    H1 2714   3.291   3.615   3.980
  923TIP3    H2 2715   3.339   3.511   3.880
  924TIP3   OH2 2716   7.946   2.540   2.380
  924TIP3    H1 2717   7.891   2.567   2.454
  924TIP3    H2 2718   7.897   2.568   2.303
  925TIP3   OH2 2719   5.095   3.472   1.757
  925TIP3    H1 2720   5.143   3.472   1.839
  925TIP3    H2 2721   5.150   3.421   1.697
  926TIP3   OH2 2722   3.824   0.153   5.129
  926TIP3    H1 2723   3.885   0.099   5.179
  926TIP3    H2 2724   3.752   0.171   5.190
  927TIP3   OH2 2725   6.012   5.565   2.142
  927TIP3    H1 2726   5.974   5.501   2.081
  927TIP3    H2 2727   6.061   5.625   2.085
  928TIP3   OH2 2728   1.900   7.759   4.205
  928TIP3    H1 2729   1.957   7.682   4.206
  928TIP3    H2 2730   1.814   7.726   4.178
  929TIP3   OH2 2731   4.321   4.562   2.968
  929TIP3    H1 2732   4.384   4.496   2.939
  929TIP3    H2 2733   4.278   4.522   3.044
  930TIP3   OH2 2734   1.743   3.956   3.550
  930TIP3    H1 2735   1.694   3.956   3.467
  930TIP3    H2 2736   1.744   3.864   3.577
  931TIP3   OH2 2737   8.058   5.122   6.750
  931TIP3    H1 2738   8.044   5.040   6.797
  931TIP3    H2 2739   8.153   5.133   6.747
  932TIP3   OH2 2740   7.915   5.701   2.648
  932TIP3    H1 2741   7.822   5.679   2.645
  932TIP3    H2 2742   7.920   5.790   2.614
  933TIP3   OH2 2743   6.853   6.715   0.762
  933TIP3    H1 2744   6.802   6.793   0.780
  933TIP3    H2 2745   6.839   6.658   0.838
  934TIP3   OH2 2746   8.008   0.886   3.045
  934TIP3    H1 2747   8.016   0.797   3.079
  934TIP3    H2 2748   8.000   0.940   3.124
  935TIP3   OH2 2749   7.390   4.983   6.565
  935TIP3    H1 2750   7.404   5.045   6.636
  935TIP3    H2 2751   7.399   5.035   6.485
  936TIP3   OH2 2752   3.120   0.666   1.579
  936TIP3    H1 2753   3.049   0.730   1.578
  936TIP3    H2 2754   3.180   0.697   1.646
  937TIP3   OH2 2755   7.592   2.605   1.171
  937TIP3    H1 2756   7.664   2.549   1.199
  937TIP3    H2 2757   7.520   2.544   1.154
  938TIP3   OH2 2758   0.674   2.876   0.342
  938TIP3    H1 2759   0.651   2.784   0.332
  938TIP3    H2 2760   0.629   2.903   0.422
  939TIP3   OH2 2761   7.691   0.133   5.885
  939TIP3    H1 2762   7.691   0.211   5.829
  939TIP3    H2 2763   7.749   0.071   5.840
  940TIP3   OH2 2764   3.283   5.030   1.019
  940TIP3    H1 2765   3.236   5.044   0.936
  940TIP3    H2 2766   3.312   5.117   1.045
  941TIP3   OH2 2767   5.153   2.668   3.244
  941TIP3    H1 2768   5.077   2.636   3.196
  941TIP3    H2 2769   5.118   2.710   3.322
  942TIP3   OH2 2770   8.208   7.290   0.052
  942TIP3    H1 2771   8.186   7.376   0.087
  942TIP3    H2 2772   8.290   7.303   0.005
  943TIP3   OH2 2773   0.578   1.491   4.936
  943TIP3    H1 2774   0.581   1.468   4.843
  943TIP3    H2 2775   0.604   1.412   4.982
  944TIP3   OH2 2776   3.928   3.948   1.237
  944TIP3    H1 2777   3.974   3.876   1.281
  944TIP3    H2 2778   3.928   3.923   1.145
  945TIP3   OH2 2779   4.767   2.859   5.527
  945TIP3    H1 2780   4.735   2.946   5.504
  945TIP3    H2 2781   4.850   2.851   5.480
  946TIP3   OH2 2782   6.759   1.577   3.405
  946TIP3    H1 2783   6.773   1.614   3.492
  946TIP3    H2 2784   6.674   1.533   3.412
  947TIP3   OH2 2785   5.223   2.622   4.467
  947TIP3    H1 2786   5.163   2.696   4.469
  947TIP3    H2 2787   5.169   2.548   4.436
  948TIP3   OH2 2788   0.128   6.511   2.777
  948TIP3    H1 2789   0.168   6.507   2.691
  948TIP3    H2 2790   0.111   6.420   2.801
  949TIP3   OH2 2791   6.858   5.038   3.024
  949TIP3    H1 2792   6.831   5.049   3.115
  949TIP3    H2 2793   6.944   4.996   3.029
  950TIP3   OH2 2794   0.968   5.733   1.409
  950TIP3    H1 2795   0.999   5.662   1.352
  950TIP3    H2 2796   0.872   5.728   1.403
  951TIP3   OH2 2797   4.458   6.392   2.528
  951TIP3    H1 2798   4.422   6.310   2.564
  951TIP3    H2 2799   4.383   6.451   2.522
  952TIP3   OH2 2800   4.106   5.594   4.307
  952TIP3    H1 2801   4.112   5.593   4.211
  952TIP3    H2 2802   4.106   5.687   4.330
  953TIP3   OH2 2803   3.215   3.915   0.341
  953TIP3    H1 2804   3.217   4.007   0.364
  953TIP3    H2 2805   3.228   3.913   0.246
  954TIP3   OH2 2806   4.605   7.397   1.937
  954TIP3    H1 2807   4.643   7.484   1.947
  954TIP3    H2 2808   4.675   7.338   1.967
  955TIP3   OH2 2809   1.643   4.647   2.664
  955TIP3    H1 2810   1.584   4.590   2.616
  955TIP3    H2 2811   1.645   4.610   2.753
  956TIP3   OH2 2812   4.287   6.938   3.949
  956TIP3    H1 2813   4.219   6.941   3.882
  956TIP3    H2 2814   4.247   6.977   4.026
  957TIP3   OH2 2815   5.145   5.139   6.387
  957TIP3    H1 2816   5.226   5.165   6.344
  957TIP3    H2 2817   5.148   5.043   6.386
  958TIP3   OH2 2818   0.507   2.334   4.476
  958TIP3    H1 2819   0.587   2.304   4.518
  958TIP3    H2 2820   0.532   2.412   4.428
  959TIP3   OH2 2821   0.071   4.707   5.236
  959TIP3    H1 2822   0.061   4.612   5.243
  959TIP3    H2 2823   0.007   4.742   5.299
  960TIP3   OH2 2824   5.891   5.033   2.655
  960TIP3    H1 2825   5.958   5.042   2.723
  960TIP3    H2 2826   5.930   5.075   2.578
  961TIP3   OH2 2827   5.720   4.781   2.629
  961TIP3    H1 2828   5.772   4.861   2.632
  961TIP3    H2 2829   5.781   4.711   2.656
  962TIP3   OH2 2830   0.031   1.916   4.545
  962TIP3    H1 2831   0.046   1.997   4.595
  962TIP3    H2 2832   0.072   1.848   4.598
  963TIP3   OH2 2833   0.658   0.170   2.461
  963TIP3    H1 2834   0.621   0.199   2.378
  963TIP3    H2 2835   0.605   0.095   2.487
  964TIP3   OH2 2836   1.091   4.539   0.924
  964TIP3    H1 2837   1.098   4.548   0.829
  964TIP3    H2 2838   1.002   4.504   0.938
  965TIP3   OH2 2839   7.628   4.785   1.575
  965TIP3    H1 2840   7.545   4.812   1.614
  965TIP3    H2 2841   7.638   4.693   1.599
  966TIP3   OH2 2842   4.948   2.854   0.912
  966TIP3    H1 2843   4.869   2.838   0.860
  966TIP3    H2 2844   5.010   2.893   0.851
  967TIP3   OH2 2845   5.270   5.341   5.406
  967TIP3    H1 2846   5.236   5.291   5.480
  967TIP3    H2 2847   5.341   5.393   5.443
  968TIP3   OH2 2848   4.569   5.002   5.186
  968TIP3    H1 2849   4.489   5.017   5.135
  968TIP3    H2 2850   4.562   4.912   5.216
  969TIP3   OH2 2851   0.064   6.245   5.542
  969TIP3    H1 2852   0.084   6.326   5.590
  969TIP3    H2 2853   0.150   6.208   5.522
  970TIP3   OH2 2854   3.747   0.972   1.062
  970TIP3    H1 2855   3.717   0.936   0.978
  970TIP3    H2 2856   3.779   1.060   1.039
  971TIP3   OH2 2857   3.911   4.112   0.689
  971TIP3    H1 2858   3.935   4.083   0.601
  971TIP3    H2 2859   3.977   4.178   0.711
  972TIP3   OH2 2860   5.724   5.045   1.527
  972TIP3    H1 2861   5.690   5.009   1.445
  972TIP3    H2 2862   5.814   5.070   1.507
  973TIP3   OH2 2863   4.027   3.469   6.617
  973TIP3    H1 2864   3.963   3.460   6.688
  973TIP3    H2 2865   3.995   3.411   6.549
  974TIP3   OH2 2866   5.592   7.484   6.155
  974TIP3    H1 2867   5.550   7.536   6.087
  974TIP3    H2 2868   5.648   7.422   6.108
  975TIP3   OH2 2869   2.317   6.693   2.394
  975TIP3    H1 2870   2.329   6.756   2.324
  975TIP3    H2 2871   2.223   6.676   2.396
  976TIP3   OH2 2872   5.675   7.115   3.919
  976TIP3    H1 2873   5.593   7.105   3.871
  976TIP3    H2 2874   5.657   7.078   4.006
  977TIP3   OH2 2875   1.170   2.030   2.505
  977TIP3    H1 2876   1.125   2.012   2.423
  977TIP3    H2 2877   1.158   2.124   2.520
  978TIP3   OH2 2878   7.444   4.749   2.673
  978TIP3    H1 2879   7.460   4.686   2.743
  978TIP3    H2 2880   7.497   4.717   2.600
  979TIP3   OH2 2881   0.859   5.071   0.597
  979TIP3    H1 2882   0.913   5.149   0.585
  979TIP3    H2 2883   0.919   4.998   0.586
  980TIP3   OH2 2884   2.750   5.015   3.045
  980TIP3    H1 2885   2.723   5.035   3.134
  980TIP3    H2 2886   2.761   4.920   3.044
  981TIP3   OH2 2887   0.759   2.993   2.800
  981TIP3    H1 2888   0.800   3.079   2.812
  981TIP3    H2 2889   0.817   2.948   2.738
  982TIP3   OH2 2890   5.947   3.856   5.401
  982TIP3    H1 2891   5.873   3.916   5.399
  982TIP3    H2 2892   5.975   3.854   5.492
  983TIP3   OH2 2893   2.527  -0.002   0.787
  983TIP3    H1 2894   2.470   0.073   0.802
  983TIP3    H2 2895   2.593   0.030   0.724
  984TIP3   OH2 2896   6.189   3.977   0.348
  984TIP3    H1 2897   6.154   4.011   0.266
  984TIP3    H2 2898   6.231   4.052   0.389
  985TIP3   OH2 2899   7.814   6.534   4.778
  985TIP3    H1 2900   7.788   6.517   4.687
  985TIP3    H2 2901   7.904   6.501   4.783
  986TIP3   OH2 2902   3.114   5.408   0.069
  986TIP3    H1 2903   3.170   5.373  -0.001
  986TIP3    H2 2904   3.118   5.341   0.138
  987TIP3   OH2 2905   0.132   7.672   1.079
  987TIP3    H1 2906   0.055   7.725   1.061
  987TIP3    H2 2907   0.160   7.699   1.166
  988TIP3   OH2 2908   5.975   4.132   5.890
  988TIP3    H1 2909   6.033   4.169   5.824
  988TIP3    H2 2910   6.028   4.065   5.934
  989TIP3   OH2 2911   5.705   1.694   3.589
  989TIP3    H1 2912   5.673   1.627   3.528
  989TIP3    H2 2913   5.795   1.667   3.609
  990TIP3   OH2 2914   2.559   5.185   6.010
  990TIP3    H1 2915   2.499   5.139   6.069
  990TIP3    H2 2916   2.619   5.230   6.069
  991TIP3   OH2 2917   3.971   0.761   0.367
  991TIP3    H1 2918   3.931   0.814   0.436
  991TIP3    H2 2919   3.906   0.759   0.297
  992TIP3   OH2 2920   0.581   5.294   1.718
  992TIP3    H1 2921   0.496   5.252   1.729
  992TIP3    H2 2922   0.573   5.342   1.635
  993TIP3   OH2 2923   7.043   0.478   5.963
  993TIP3    H1 2924   6.950   0.495   5.949
  993TIP3    H2 2925   7.076   0.455   5.876
  994TIP3   OH2 2926   0.558   5.661   4.443
  994TIP3    H1 2927   0.564   5.648   4.348
  994TIP3    H2 2928   0.595   5.581   4.480
  995TIP3   OH2 2929   0.264   6.985   6.148
  995TIP3    H1 2930   0.252   6.903   6.100
  995TIP3    H2 2931   0.359   7.000   6.147
  996TIP3   OH2 2932   3.397   2.038   6.427
  996TIP3    H1 2933   3.426   1.956   6.467
  996TIP3    H2 2934   3.305   2.022   6.404
  997TIP3   OH2 2935   2.335   4.166   4.400
  997TIP3    H1 2936   2.356   4.081   4.363
  997TIP3    H2 2937   2.318   4.149   4.493
  998TIP3   OH2 2938   4.252   1.227   5.157
  998TIP3    H1 2939   4.241   1.179   5.074
  998TIP3    H2 2940   4.200   1.177   5.220
  999TIP3   OH2 2941   3.590   7.404   4.113
  999TIP3    H1 2942   3.553   7.331   4.163
  999TIP3    H2 2943   3.671   7.426   4.160
 1000TIP3   OH2 2944   5.333   4.963   6.518
 1000TIP3    H1 2945   5.347   5.016   6.597
 1000TIP3    H2 2946   5.320   4.874   6.551
 1001TIP3   OH2 2947   6.338   6.613   4.258
 1001TIP3    H1 2948   6.322   6.690   4.311
 1001TIP3    H2 2949   6.404   6.641   4.194
 1002TIP3   OH2 2950   0.670   5.420   4.501
 1002TIP3    H1 2951   0.685   5.332   4.536
 1002TIP3    H2 2952   0.751   5.441   4.455
 1003TIP3   OH2 2953   1.485   4.920   4.654
 1003TIP3    H1 2954   1.405   4.964   4.683
 1003TIP3    H2 2955   1.556   4.964   4.700
 1004TIP3   OH2 2956   4.806   0.703   6.754
 1004TIP3    H1 2957   4.866   0.697   6.829
 1004TIP3    H2 2958   4.806   0.615   6.717
 1005TIP3   OH2 2959   6.005   1.542   4.712
 1005TIP3    H1 2960   6.004   1.631   4.676
 1005TIP3    H2 2961   6.076   1.498   4.666
 1006TIP3   OH2 2962   4.861   6.616   4.178
 1006TIP3    H1 2963   4.913   6.537   4.190
 1006TIP3    H2 2964   4.813   6.602   4.096
 1007TIP3   OH2 2965   4.627   6.489   4.614
 1007TIP3    H1 2966   4.660   6.400   4.625
 1007TIP3    H2 2967   4.621   6.500   4.519
 1008TIP3   OH2 2968   0.825   2.288   6.188
 1008TIP3    H1 2969   0.913   2.258   6.209
 1008TIP3    H2 2970   0.786   2.310   6.272
 1009TIP3   OH2 2971   4.364   7.438   2.333
 1009TIP3    H1 2972   4.459   7.437   2.345
 1009TIP3    H2 2973   4.351   7.484   2.250
 1010TIP3   OH2 2974   0.575   7.476   1.725
 1010TIP3    H1 2975   0.662   7.513   1.739
 1010TIP3    H2 2976   0.586   7.417   1.650
 1011TIP3   OH2 2977   7.033   2.865   3.000
 1011TIP3    H1 2978   6.964   2.814   3.041
 1011TIP3    H2 2979   7.105   2.803   2.988
 1012TIP3   OH2 2980   7.518   2.940   0.421
 1012TIP3    H1 2981   7.550   3.029   0.421
 1012TIP3    H2 2982   7.484   2.926   0.510
 1013TIP3   OH2 2983   3.056   6.629   3.948
 1013TIP3    H1 2984   3.054   6.615   4.042
 1013TIP3    H2 2985   3.119   6.564   3.916
 1014TIP3   OH2 2986   3.849   2.850   6.255
 1014TIP3    H1 2987   3.824   2.915   6.190
 1014TIP3    H2 2988   3.941   2.829   6.235
 1015TIP3   OH2 2989   0.192   4.304   6.054
 1015TIP3    H1 2990   0.280   4.316   6.018
 1015TIP3    H2 2991   0.140   4.373   6.012
 1016TIP3   OH2 2992   0.291   7.072   6.449
 1016TIP3    H1 2993   0.265   7.036   6.534
 1016TIP3    H2 2994   0.346   7.004   6.410
 1017TIP3   OH2 2995   7.773   1.366   6.288
 1017TIP3    H1 2996   7.777   1.365   6.192
 1017TIP3    H2 2997   7.755   1.275   6.312
 1018TIP3   OH2 2998   5.423   6.175   0.888
 1018TIP3    H1 2999   5.497   6.157   0.945
 1018TIP3    H2 3000   5.393   6.262   0.914
 1019TIP3   OH2 3001   5.794   5.541   0.095
 1019TIP3    H1 3002   5.764   5.585   0.175
 1019TIP3    H2 3003   5.828   5.457   0.125
 1020TIP3   OH2 3004   5.004   0.283   3.129
 1020TIP3    H1 3005   4.951   0.308   3.053
 1020TIP3    H2 3006   5.094   0.299   3.102
 1021TIP3   OH2 3007   2.967   4.334   1.547
 1021TIP3    H1 3008   2.966   4.427   1.571
 1021TIP3    H2 3009   2.995   4.334   1.455
 1022TIP3   OH2 3010   0.586   3.388   4.453
 1022TIP3    H1 3011   0.532   3.423   4.524
 1022TIP3    H2 3012   0.530   3.324   4.410
 1023TIP3   OH2 3013   0.182   1.211   0.180
 1023TIP3    H1 3014   0.178   1.283   0.242
 1023TIP3    H2 3015   0.274   1.205   0.156
 1024TIP3   OH2 3016   0.446   1.223   2.812
 1024TIP3    H1 3017   0.501   1.287   2.766
 1024TIP3    H2 3018   0.365   1.220   2.761
 1025TIP3   OH2 3019   3.821   4.137   0.221
 1025TIP3    H1 3020   3.824   4.221   0.267
 1025TIP3    H2 3021   3.790   4.159   0.133
 1026TIP3   OH2 3022   3.211   5.723   3.114
 1026TIP3    H1 3023   3.247   5.635   3.125
 1026TIP3    H2 3024   3.231   5.745   3.023
 1027TIP3   OH2 3025   4.237   6.870   1.628
 1027TIP3    H1 3026   4.317   6.922   1.621
 1027TIP3    H2 3027   4.196   6.877   1.541
 1028TIP3   OH2 3028   5.040   3.063   0.736
 1028TIP3    H1 3029   5.014   3.148   0.772
 1028TIP3    H2 3030   5.029   3.073   0.641
 1029TIP3   OH2 3031   3.506   4.776   2.117
 1029TIP3    H1 3032   3.434   4.723   2.084
 1029TIP3    H2 3033   3.471   4.822   2.192
 1030TIP3   OH2 3034   4.755   2.534   4.559
 1030TIP3    H1 3035   4.807   2.460   4.528
 1030TIP3    H2 3036   4.820   2.596   4.594
 1031TIP3   OH2 3037   4.172   1.387   0.112
 1031TIP3    H1 3038   4.196   1.474   0.144
 1031TIP3    H2 3039   4.239   1.366   0.047
 1032TIP3   OH2 3040   8.189   2.706   6.469
 1032TIP3    H1 3041   8.095   2.686   6.468
 1032TIP3    H2 3042   8.197   2.781   6.529
 1033TIP3   OH2 3043   4.162   1.749   0.549
 1033TIP3    H1 3044   4.247   1.746   0.505
 1033TIP3    H2 3045   4.140   1.842   0.550
 1034TIP3   OH2 3046   7.633   4.186   5.572
 1034TIP3    H1 3047   7.632   4.106   5.625
 1034TIP3    H2 3048   7.546   4.224   5.582
 1035TIP3   OH2 3049   1.948   0.353   0.715
 1035TIP3    H1 3050   1.933   0.434   0.667
 1035TIP3    H2 3051   1.864   0.335   0.758
 1036TIP3   OH2 3052   1.152   4.790   2.455
 1036TIP3    H1 3053   1.164   4.706   2.499
 1036TIP3    H2 3054   1.163   4.855   2.524
 1037TIP3   OH2 3055   1.144   5.070   2.137
 1037TIP3    H1 3056   1.188   4.999   2.090
 1037TIP3    H2 3057   1.067   5.090   2.083
 1038TIP3   OH2 3058   3.761   0.276   3.573
 1038TIP3    H1 3059   3.821   0.207   3.546
 1038TIP3    H2 3060   3.813   0.332   3.631
 1039TIP3   OH2 3061   5.470   5.316   6.486
 1039TIP3    H1 3062   5.383   5.314   6.526
 1039TIP3    H2 3063   5.512   5.394   6.521
 1040TIP3   OH2 3064   4.533   6.614   2.331
 1040TIP3    H1 3065   4.624   6.585   2.318
 1040TIP3    H2 3066   4.482   6.533   2.333
 1041TIP3   OH2 3067   1.292   7.071   1.023
 1041TIP3    H1 3068   1.353   7.032   0.960
 1041TIP3    H2 3069   1.249   7.141   0.975
 1042TIP3   OH2 3070   2.210   4.298   2.261
 1042TIP3    H1 3071   2.144   4.313   2.194
 1042TIP3    H2 3072   2.289   4.274   2.213
 1043TIP3   OH2 3073   6.382   1.328   6.415
 1043TIP3    H1 3074   6.381   1.410   6.365
 1043TIP3    H2 3075   6.460   1.334   6.471
 1044TIP3   OH2 3076   7.625   5.838   3.206
 1044TIP3    H1 3077   7.635   5.910   3.268
 1044TIP3    H2 3078   7.546   5.861   3.156
 1045TIP3   OH2 3079   0.149   7.797   2.329
 1045TIP3    H1 3080   0.103   7.879   2.313
 1045TIP3    H2 3081   0.224   7.798   2.269
 1046TIP3   OH2 3082   7.125   3.523   2.672
 1046TIP3    H1 3083   7.072   3.567   2.605
 1046TIP3    H2 3084   7.210   3.568   2.668
 1047TIP3   OH2 3085   2.716   5.740   2.970
 1047TIP3    H1 3086   2.643   5.747   2.908
 1047TIP3    H2 3087   2.676   5.708   3.051
 1048TIP3   OH2 3088   2.667   2.282   0.918
 1048TIP3    H1 3089   2.662   2.377   0.904
 1048TIP3    H2 3090   2.605   2.246   0.854
 1049TIP3   OH2 3091   3.602   2.131   3.930
 1049TIP3    H1 3092   3.666   2.077   3.883
 1049TIP3    H2 3093   3.520   2.117   3.882
 1050TIP3   OH2 3094   0.212   3.970   2.103
 1050TIP3    H1 3095   0.258   3.888   2.083
 1050TIP3    H2 3096   0.121   3.943   2.116
 1051TIP3   OH2 3097   4.692   6.141   5.524
 1051TIP3    H1 3098   4.769   6.110   5.476
 1051TIP3    H2 3099   4.618   6.103   5.476
 1052TIP3   OH2 3100   6.986   4.705   4.738
 1052TIP3    H1 3101   6.902   4.674   4.706
 1052TIP3    H2 3102   7.051   4.650   4.693
 1053TIP3   OH2 3103   8.269   2.926   6.606
 1053TIP3    H1 3104   8.317   2.979   6.669
 1053TIP3    H2 3105   8.178   2.928   6.637
 1054TIP3   OH2 3106   8.243   3.027   4.890
 1054TIP3    H1 3107   8.194   3.027   4.973
 1054TIP3    H2 3108   8.329   2.992   4.913
 1055TIP3   OH2 3109   1.796   0.178   1.467
 1055TIP3    H1 3110   1.714   0.206   1.508
 1055TIP3    H2 3111   1.859   0.246   1.491
 1056TIP3   OH2 3112   3.955   3.812   4.288
 1056TIP3    H1 3113   3.894   3.794   4.217
 1056TIP3    H2 3114   3.921   3.762   4.362
 1057TIP3   OH2 3115   4.579   4.738   5.353
 1057TIP3    H1 3116   4.488   4.717   5.335
 1057TIP3    H2 3117   4.626   4.655   5.342
 1058TIP3   OH2 3118   4.501   2.890   6.021
 1058TIP3    H1 3119   4.560   2.885   5.946
 1058TIP3    H2 3120   4.414   2.899   5.983
 1059TIP3   OH2 3121   0.285   1.437   0.324
 1059TIP3    H1 3122   0.374   1.449   0.357
 1059TIP3    H2 3123   0.243   1.380   0.389
 1060TIP3   OH2 3124   6.730   4.959   3.514
 1060TIP3    H1 3125   6.652   4.951   3.569
 1060TIP3    H2 3126   6.700   5.004   3.436
 1061TIP3   OH2 3127   6.377   5.930   3.562
 1061TIP3    H1 3128   6.402   6.010   3.608
 1061TIP3    H2 3129   6.461   5.888   3.541
 1062TIP3   OH2 3130   4.416   7.426   4.349
 1062TIP3    H1 3131   4.332   7.454   4.386
 1062TIP3    H2 3132   4.481   7.450   4.415
 1063TIP3   OH2 3133   1.151   7.381   4.470
 1063TIP3    H1 3134   1.091   7.335   4.529
 1063TIP3    H2 3135   1.104   7.460   4.443
 1064TIP3   OH2 3136   4.231   3.349   3.924
 1064TIP3    H1 3137   4.246   3.283   3.857
 1064TIP3    H2 3138   4.310   3.345   3.979
 1065TIP3   OH2 3139   5.061   7.236   4.506
 1065TIP3    H1 3140   4.989   7.186   4.468
 1065TIP3    H2 3141   5.027   7.267   4.589
 1066TIP3   OH2 3142   8.033   2.257   1.396
 1066TIP3    H1 3143   8.087   2.330   1.365
 1066TIP3    H2 3144   8.007   2.211   1.316
 1067TIP3   OH2 3145   4.944   1.256   2.328
 1067TIP3    H1 3146   4.939   1.284   2.419
 1067TIP3    H2 3147   4.966   1.163   2.332
 1068TIP3   OH2 3148   7.489   0.094   0.081
 1068TIP3    H1 3149   7.572   0.087   0.127
 1068TIP3    H2 3150   7.489   0.020   0.020
 1069TIP3   OH2 3151   3.066   1.699   5.559
 1069TIP3    H1 3152   3.045   1.614   5.520
 1069TIP3    H2 3153   3.128   1.679   5.629
 1070TIP3   OH2 3154   7.073   5.378   6.041
 1070TIP3    H1 3155   7.014   5.355   6.113
 1070TIP3    H2 3156   7.014   5.404   5.969
 1071TIP3   OH2 3157   3.555   0.827   1.972
 1071TIP3    H1 3158   3.521   0.863   1.890
 1071TIP3    H2 3159   3.628   0.770   1.945
 1072TIP3   OH2 3160   0.239   0.733   6.544
 1072TIP3    H1 3161   0.197   0.819   6.554
 1072TIP3    H2 3162   0.222   0.708   6.453
 1073TIP3   OH2 3163   6.729   1.466   5.236
 1073TIP3    H1 3164   6.659   1.529   5.253
 1073TIP3    H2 3165   6.699   1.417   5.160
 1074TIP3   OH2 3166   6.754   1.255   2.344
 1074TIP3    H1 3167   6.671   1.270   2.390
 1074TIP3    H2 3168   6.753   1.161   2.323
 1075TIP3   OH2 3169   5.553   2.027   2.296
 1075TIP3    H1 3170   5.477   1.980   2.332
 1075TIP3    H2 3171   5.517   2.109   2.262
 1076TIP3   OH2 3172   6.939   3.018   4.250
 1076TIP3    H1 3173   6.953   2.994   4.342
 1076TIP3    H2 3174   6.995   2.957   4.202
 1077TIP3   OH2 3175   7.922   6.585   2.390
 1077TIP3    H1 3176   8.014   6.582   2.415
 1077TIP3    H2 3177   7.875   6.552   2.466
 1078TIP3   OH2 3178   5.535   4.931   1.709
 1078TIP3    H1 3179   5.596   4.968   1.646
 1078TIP3    H2 3180   5.590   4.881   1.769
 1079TIP3   OH2 3181   7.388   5.403   2.683
 1079TIP3    H1 3182   7.345   5.484   2.656
 1079TIP3    H2 3183   7.348   5.382   2.767
 1080TIP3   OH2 3184   2.029   4.107   5.280
 1080TIP3    H1 3185   2.058   4.025   5.320
 1080TIP3    H2 3186   2.040   4.094   5.186
 1081TIP3   OH2 3187   2.501   6.074   0.953
 1081TIP3    H1 3188   2.464   6.128   0.884
 1081TIP3    H2 3189   2.578   6.033   0.913
 1082TIP3   OH2 3190   3.623   6.414   2.404
 1082TIP3    H1 3191   3.567   6.457   2.339
 1082TIP3    H2 3192   3.588   6.444   2.488
 1083TIP3   OH2 3193   2.852   6.463   3.859
 1083TIP3    H1 3194   2.923   6.504   3.909
 1083TIP3    H2 3195   2.785   6.530   3.853
 1084TIP3   OH2 3196   0.976   3.545   2.969
 1084TIP3    H1 3197   1.000   3.512   2.883
 1084TIP3    H2 3198   0.880   3.546   2.968
 1085TIP3   OH2 3199   5.133   2.914   4.511
 1085TIP3    H1 3200   5.169   2.987   4.561
 1085TIP3    H2 3201   5.195   2.902   4.438
 1086TIP3   OH2 3202   0.265   5.654   3.678
 1086TIP3    H1 3203   0.271   5.590   3.607
 1086TIP3    H2 3204   0.325   5.724   3.653
 1087TIP3   OH2 3205   3.855   6.284   0.615
 1087TIP3    H1 3206   3.871   6.368   0.574
 1087TIP3    H2 3207   3.880   6.219   0.549
 1088TIP3   OH2 3208   0.640   4.689   4.541
 1088TIP3    H1 3209   0.705   4.645   4.486
 1088TIP3    H2 3210   0.627   4.628   4.614
 1089TIP3   OH2 3211   0.079   5.807   3.343
 1089TIP3    H1 3212   0.004   5.748   3.342
 1089TIP3    H2 3213   0.139   5.771   3.278
 1090TIP3   OH2 3214   4.479   3.952   1.886
 1090TIP3    H1 3215   4.473   3.858   1.871
 1090TIP3    H2 3216   4.572   3.968   1.903
 1091TIP3   OH2 3217   4.883   6.723   3.043
 1091TIP3    H1 3218   4.914   6.807   3.078
 1091TIP3    H2 3219   4.910   6.725   2.951
 1092TIP3   OH2 3220   0.843   7.805   4.251
 1092TIP3    H1 3221   0.817   7.892   4.282
 1092TIP3    H2 3222   0.779   7.784   4.183
 1093TIP3   OH2 3223   0.264   5.308   2.258
 1093TIP3    H1 3224   0.207   5.234   2.236
 1093TIP3    H2 3225   0.241   5.329   2.348
 1094TIP3   OH2 3226   7.663   2.375   2.721
 1094TIP3    H1 3227   7.690   2.315   2.791
 1094TIP3    H2 3228   7.634   2.317   2.650
 1095TIP3   OH2 3229   7.669   5.965   6.313
 1095TIP3    H1 3230   7.592   5.914   6.290
 1095TIP3    H2 3231   7.634   6.045   6.352
 1096TIP3   OH2 3232   7.427   0.539   0.936
 1096TIP3    H1 3233   7.451   0.603   0.870
 1096TIP3    H2 3234   7.463   0.456   0.904
 1097TIP3   OH2 3235   4.627   6.980   2.637
 1097TIP3    H1 3236   4.658   6.980   2.728
 1097TIP3    H2 3237   4.608   7.071   2.618
 1098TIP3   OH2 3238   6.945   6.506   4.704
 1098TIP3    H1 3239   6.916   6.558   4.629
 1098TIP3    H2 3240   6.978   6.570   4.767
 1099TIP3   OH2 3241   0.715   4.411   6.046
 1099TIP3    H1 3242   0.789   4.354   6.069
 1099TIP3    H2 3243   0.754   4.498   6.035
 1100TIP3   OH2 3244   8.191   4.236   6.629
 1100TIP3    H1 3245   8.181   4.193   6.714
 1100TIP3    H2 3246   8.220   4.324   6.650
 1101TIP3   OH2 3247   5.504   2.998   3.056
 1101TIP3    H1 3248   5.483   2.913   3.096
 1101TIP3    H2 3249   5.568   3.037   3.117
 1102TIP3   OH2 3250   1.723   7.712   6.285
 1102TIP3    H1 3251   1.700   7.636   6.338
 1102TIP3    H2 3252   1.749   7.675   6.200
 1103TIP3   OH2 3253   2.211   2.751   4.507
 1103TIP3    H1 3254   2.258   2.668   4.493
 1103TIP3    H2 3255   2.138   2.747   4.445
 1104TIP3   OH2 3256   3.422   2.347   5.472
 1104TIP3    H1 3257   3.443   2.436   5.501
 1104TIP3    H2 3258   3.508   2.306   5.455
 1105TIP3   OH2 3259   1.670   1.869   3.898
 1105TIP3    H1 3260   1.593   1.913   3.862
 1105TIP3    H2 3261   1.661   1.877   3.993
 1106TIP3   OH2 3262   7.532   5.310   6.540
 1106TIP3    H1 3263   7.604   5.248   6.527
 1106TIP3    H2 3264   7.559   5.389   6.494
 1107TIP3   OH2 3265   6.285   7.638   5.668
 1107TIP3    H1 3266   6.364   7.591   5.695
 1107TIP3    H2 3267   6.245   7.581   5.602
 1108TIP3   OH2 3268   1.731   5.533   4.458
 1108TIP3    H1 3269   1.801   5.572   4.406
 1108TIP3    H2 3270   1.776   5.485   4.527
 1109TIP3   OH2 3271   5.327   5.694   6.686
 1109TIP3    H1 3272   5.238   5.721   6.663
 1109TIP3    H2 3273   5.327   5.689   6.781
 1110TIP3   OH2 3274   2.814   1.917   0.643
 1110TIP3    H1 3275   2.862   1.998   0.663
 1110TIP3    H2 3276   2.810   1.871   0.727
 1111TIP3   OH2 3277   3.561   2.603   1.012
 1111TIP3    H1 3278   3.471   2.618   1.044
 1111TIP3    H2 3279   3.558   2.516   0.973
 1112TIP3   OH2 3280   0.425   3.316   5.719
 1112TIP3    H1 3281   0.338   3.287   5.748
 1112TIP3    H2 3282   0.420   3.411   5.723
 1113TIP3   OH2 3283   7.529   6.381   5.429
 1113TIP3    H1 3284   7.599   6.322   5.402
 1113TIP3    H2 3285   7.561   6.468   5.405
 1114TIP3   OH2 3286   2.282   4.069   1.334
 1114TIP3    H1 3287   2.283   4.005   1.262
 1114TIP3    H2 3288   2.230   4.142   1.301
 1115TIP3   OH2 3289   2.026   5.202   6.295
 1115TIP3    H1 3290   1.989   5.140   6.359
 1115TIP3    H2 3291   1.954   5.261   6.276
 1116TIP3   OH2 3292   5.608   6.738   3.464
 1116TIP3    H1 3293   5.614   6.670   3.532
 1116TIP3    H2 3294   5.611   6.690   3.382
 1117TIP3   OH2 3295   0.810   0.765   0.452
 1117TIP3    H1 3296   0.857   0.703   0.509
 1117TIP3    H2 3297   0.792   0.840   0.508
 1118TIP3   OH2 3298   1.832   6.730   4.999
 1118TIP3    H1 3299   1.912   6.677   4.997
 1118TIP3    H2 3300   1.860   6.816   4.969
 1119TIP3   OH2 3301   6.969   7.059   4.702
 1119TIP3    H1 3302   7.057   7.096   4.710
 1119TIP3    H2 3303   6.953   7.053   4.608
 1120TIP3   OH2 3304   8.252   5.758   2.141
 1120TIP3    H1 3305   8.296   5.761   2.227
 1120TIP3    H2 3306   8.159   5.757   2.162
 1121TIP3   OH2 3307   1.237   7.451   0.559
 1121TIP3    H1 3308   1.260   7.544   0.567
 1121TIP3    H2 3309   1.220   7.424   0.649
 1122TIP3   OH2 3310   1.160   1.102   4.346
 1122TIP3    H1 3311   1.236   1.161   4.351
 1122TIP3    H2 3312   1.103   1.142   4.281
 1123TIP3   OH2 3313   6.313   5.821   2.949
 1123TIP3    H1 3314   6.311   5.726   2.961
 1123TIP3    H2 3315   6.260   5.836   2.871
 1124TIP3   OH2 3316   5.393   0.566   0.152
 1124TIP3    H1 3317   5.395   0.646   0.204
 1124TIP3    H2 3318   5.459   0.579   0.084
 1125TIP3   OH2 3319   5.639   4.877   2.373
 1125TIP3    H1 3320   5.574   4.946   2.358
 1125TIP3    H2 3321   5.619   4.844   2.461
 1126TIP3   OH2 3322   4.947   4.009   2.474
 1126TIP3    H1 3323   4.889   4.035   2.545
 1126TIP3    H2 3324   4.951   4.086   2.417
 1127TIP3   OH2 3325   2.742   6.652   2.323
 1127TIP3    H1 3326   2.788   6.570   2.306
 1127TIP3    H2 3327   2.700   6.673   2.240
 1128TIP3   OH2 3328   7.160   5.444   3.649
 1128TIP3    H1 3329   7.163   5.530   3.609
 1128TIP3    H2 3330   7.105   5.455   3.727
 1129TIP3   OH2 3331   0.341   7.149   1.785
 1129TIP3    H1 3332   0.306   7.092   1.853
 1129TIP3    H2 3333   0.394   7.213   1.832
 1130TIP3   OH2 3334   7.288   6.836   2.146
 1130TIP3    H1 3335   7.312   6.912   2.093
 1130TIP3    H2 3336   7.370   6.809   2.188
 1131TIP3   OH2 3337   5.560   6.221   3.241
 1131TIP3    H1 3338   5.616   6.200   3.167
 1131TIP3    H2 3339   5.473   6.191   3.214
 1132TIP3   OH2 3340   1.767   0.742   6.340
 1132TIP3    H1 3341   1.787   0.730   6.247
 1132TIP3    H2 3342   1.680   0.784   6.341
 1133TIP3   OH2 3343   1.919   3.820   6.655
 1133TIP3    H1 3344   1.938   3.747   6.596
 1133TIP3    H2 3345   1.838   3.795   6.699
 1134TIP3   OH2 3346   1.674   4.724   6.394
 1134TIP3    H1 3347   1.637   4.789   6.454
 1134TIP3    H2 3348   1.752   4.692   6.440
 1135TIP3   OH2 3349   7.915   2.883   1.804
 1135TIP3    H1 3350   7.975   2.943   1.849
 1135TIP3    H2 3351   7.876   2.936   1.735
 1136TIP3   OH2 3352   6.722   2.636   6.534
 1136TIP3    H1 3353   6.798   2.680   6.494
 1136TIP3    H2 3354   6.752   2.612   6.621
 1137TIP3   OH2 3355   3.081   6.594   2.443
 1137TIP3    H1 3356   3.110   6.668   2.390
 1137TIP3    H2 3357   3.033   6.538   2.381
 1138TIP3   OH2 3358   7.938   2.547   5.844
 1138TIP3    H1 3359   7.977   2.579   5.925
 1138TIP3    H2 3360   7.847   2.576   5.848
 1139TIP3   OH2 3361   0.927   4.376   4.271
 1139TIP3    H1 3362   0.871   4.345   4.342
 1139TIP3    H2 3363   0.969   4.297   4.237
 1140TIP3   OH2 3364   4.249   7.745   5.350
 1140TIP3    H1 3365   4.157   7.739   5.375
 1140TIP3    H2 3366   4.292   7.783   5.426
 1141TIP3   OH2 3367   6.937   5.762   3.360
 1141TIP3    H1 3368   6.847   5.730   3.349
 1141TIP3    H2 3369   6.984   5.729   3.284
 1142TIP3   OH2 3370   0.249   2.004   6.249
 1142TIP3    H1 3371   0.248   1.920   6.205
 1142TIP3    H2 3372   0.203   2.063   6.189
 1143TIP3   OH2 3373   2.835   5.551   6.297
 1143TIP3    H1 3374   2.817   5.637   6.335
 1143TIP3    H2 3375   2.920   5.562   6.253
 1144TIP3   OH2 3376   5.007   3.526   2.108
 1144TIP3    H1 3377   4.925   3.524   2.058
 1144TIP3    H2 3378   5.034   3.618   2.104
 1145TIP3   OH2 3379   5.006   4.072   5.359
 1145TIP3    H1 3380   4.924   4.105   5.323
 1145TIP3    H2 3381   4.991   3.978   5.371
 1146TIP3   OH2 3382   2.576   6.573   5.131
 1146TIP3    H1 3383   2.631   6.573   5.209
 1146TIP3    H2 3384   2.597   6.491   5.086
 1147TIP3   OH2 3385   1.128   5.422   0.042
 1147TIP3    H1 3386   1.057   5.441   0.103
 1147TIP3    H2 3387   1.130   5.498  -0.017
 1148TIP3   OH2 3388   4.463   4.835   3.674
 1148TIP3    H1 3389   4.438   4.786   3.752
 1148TIP3    H2 3390   4.455   4.927   3.699
 1149TIP3   OH2 3391   0.195   1.619   3.308
 1149TIP3    H1 3392   0.190   1.538   3.256
 1149TIP3    H2 3393   0.220   1.686   3.244
 1150TIP3   OH2 3394   3.148   5.686   4.097
 1150TIP3    H1 3395   3.192   5.760   4.056
 1150TIP3    H2 3396   3.134   5.712   4.188
 1151TIP3   OH2 3397   2.633   1.575   4.865
 1151TIP3    H1 3398   2.584   1.584   4.947
 1151TIP3    H2 3399   2.717   1.538   4.891
 1152TIP3   OH2 3400   0.880   0.701   2.289
 1152TIP3    H1 3401   0.907   0.775   2.236
 1152TIP3    H2 3402   0.936   0.704   2.367
 1153TIP3   OH2 3403   5.844   6.797   4.571
 1153TIP3    H1 3404   5.750   6.814   4.570
 1153TIP3    H2 3405   5.862   6.767   4.660
 1154TIP3   OH2 3406   4.438   2.172   4.571
 1154TIP3    H1 3407   4.397   2.203   4.490
 1154TIP3    H2 3408   4.399   2.226   4.640
 1155TIP3   OH2 3409   6.086   0.286   5.269
 1155TIP3    H1 3410   6.116   0.197   5.251
 1155TIP3    H2 3411   6.135   0.341   5.208
 1156TIP3   OH2 3412   2.319   7.688   3.231
 1156TIP3    H1 3413   2.257   7.760   3.246
 1156TIP3    H2 3414   2.287   7.645   3.152
 1157TIP3   OH2 3415   0.506   4.341   1.711
 1157TIP3    H1 3416   0.429   4.366   1.762
 1157TIP3    H2 3417   0.517   4.247   1.729
 1158TIP3   OH2 3418   4.065   0.363   3.444
 1158TIP3    H1 3419   4.057   0.444   3.494
 1158TIP3    H2 3420   4.048   0.294   3.508
 1159TIP3   OH2 3421   5.901   0.886   3.385
 1159TIP3    H1 3422   5.930   0.929   3.466
 1159TIP3    H2 3423   5.807   0.902   3.381
 1160TIP3   OH2 3424   2.576   7.642   2.323
 1160TIP3    H1 3425   2.666   7.668   2.303
 1160TIP3    H2 3426   2.585   7.554   2.361
 1161TIP3   OH2 3427   1.504   2.873   2.190
 1161TIP3    H1 3428   1.580   2.834   2.147
 1161TIP3    H2 3429   1.489   2.819   2.267
 1162TIP3   OH2 3430   3.355   1.202   1.043
 1162TIP3    H1 3431   3.370   1.147   1.119
 1162TIP3    H2 3432   3.402   1.159   0.972
 1163TIP3   OH2 3433   0.739   3.805   2.399
 1163TIP3    H1 3434   0.708   3.868   2.464
 1163TIP3    H2 3435   0.659   3.774   2.356
 1164TIP3   OH2 3436   6.635   0.822   0.339
 1164TIP3    H1 3437   6.679   0.881   0.278
 1164TIP3    H2 3438   6.640   0.736   0.296
 1165TIP3   OH2 3439   3.066   2.921   4.391
 1165TIP3    H1 3440   3.123   2.848   4.368
 1165TIP3    H2 3441   3.078   2.985   4.321
 1166TIP3   OH2 3442   5.638   3.147   6.193
 1166TIP3    H1 3443   5.629   3.052   6.204
 1166TIP3    H2 3444   5.652   3.180   6.282
 1167TIP3   OH2 3445   3.101   7.108   1.917
 1167TIP3    H1 3446   3.104   7.099   1.821
 1167TIP3    H2 3447   3.184   7.071   1.947
 1168TIP3   OH2 3448   1.447   7.017   1.824
 1168TIP3    H1 3449   1.527   6.998   1.776
 1168TIP3    H2 3450   1.376   6.997   1.762
 1169TIP3   OH2 3451   4.202   6.001   1.443
 1169TIP3    H1 3452   4.115   6.029   1.473
 1169TIP3    H2 3453   4.183   5.931   1.379
 1170TIP3   OH2 3454   3.030   1.431   6.484
 1170TIP3    H1 3455   3.039   1.344   6.445
 1170TIP3    H2 3456   2.937   1.453   6.473
 1171TIP3   OH2 3457   6.292   0.911   4.723
 1171TIP3    H1 3458   6.292   0.966   4.802
 1171TIP3    H2 3459   6.354   0.840   4.744
 1172TIP3   OH2 3460   2.668   7.686   4.144
 1172TIP3    H1 3461   2.619   7.619   4.097
 1172TIP3    H2 3462   2.639   7.678   4.234
 1173TIP3   OH2 3463   5.504   4.387   5.713
 1173TIP3    H1 3464   5.583   4.335   5.725
 1173TIP3    H2 3465   5.449   4.365   5.789
 1174TIP3   OH2 3466   5.997   5.140   1.452
 1174TIP3    H1 3467   6.072   5.174   1.501
 1174TIP3    H2 3468   6.033   5.069   1.398
 1175TIP3   OH2 3469   7.580   0.603   1.157
 1175TIP3    H1 3470   7.636   0.528   1.174
 1175TIP3    H2 3471   7.494   0.566   1.140
 1176TIP3   OH2 3472   3.258   2.470   4.497
 1176TIP3    H1 3473   3.334   2.457   4.553
 1176TIP3    H2 3474   3.292   2.463   4.407
 1177TIP3   OH2 3475   4.440   2.439   0.949
 1177TIP3    H1 3476   4.408   2.525   0.974
 1177TIP3    H2 3477   4.370   2.402   0.895
 1178TIP3   OH2 3478   5.526   7.450   4.138
 1178TIP3    H1 3479   5.488   7.371   4.176
 1178TIP3    H2 3480   5.583   7.485   4.207
 1179TIP3   OH2 3481   5.247   4.652   5.992
 1179TIP3    H1 3482   5.225   4.651   6.085
 1179TIP3    H2 3483   5.328   4.704   5.987
 1180TIP3   OH2 3484   1.382   7.000   3.027
 1180TIP3    H1 3485   1.291   7.007   2.996
 1180TIP3    H2 3486   1.375   6.952   3.109
 1181TIP3   OH2 3487   5.306   6.143   6.036
 1181TIP3    H1 3488   5.235   6.197   6.071
 1181TIP3    H2 3489   5.346   6.103   6.113
 1182TIP3   OH2 3490   4.305   4.885   2.505
 1182TIP3    H1 3491   4.359   4.961   2.528
 1182TIP3    H2 3492   4.294   4.838   2.587
 1183TIP3   OH2 3493   0.083   1.128   1.329
 1183TIP3    H1 3494   0.104   1.043   1.290
 1183TIP3    H2 3495  -0.011   1.124   1.345
 1184TIP3   OH2 3496   4.727   0.264   3.491
 1184TIP3    H1 3497   4.729   0.247   3.585
 1184TIP3    H2 3498   4.645   0.311   3.478
 1185TIP3   OH2 3499   4.160   2.188   5.422
 1185TIP3    H1 3500   4.104   2.231   5.357
 1185TIP3    H2 3501   4.207   2.260   5.464
 1186TIP3   OH2 3502   1.173   5.327   2.593
 1186TIP3    H1 3503   1.242   5.391   2.612
 1186TIP3    H2 3504   1.215   5.242   2.606
 1187TIP3   OH2 3505   3.532   7.565   3.153
 1187TIP3    H1 3506   3.549   7.635   3.215
 1187TIP3    H2 3507   3.536   7.485   3.205
 1188TIP3   OH2 3508   3.903   2.984   2.170
 1188TIP3    H1 3509   3.902   3.072   2.133
 1188TIP3    H2 3510   3.949   2.932   2.104
 1189TIP3   OH2 3511   4.102   2.071   5.828
 1189TIP3    H1 3512   4.030   2.089   5.887
 1189TIP3    H2 3513   4.178   2.113   5.868
 1190TIP3   OH2 3514   7.164   4.806   3.449
 1190TIP3    H1 3515   7.081   4.786   3.492
 1190TIP3    H2 3516   7.178   4.899   3.465
 1191TIP3   OH2 3517   7.307   5.610   0.549
 1191TIP3    H1 3518   7.268   5.650   0.471
 1191TIP3    H2 3519   7.233   5.570   0.594
 1192TIP3   OH2 3520   4.218   7.047   4.931
 1192TIP3    H1 3521   4.169   6.966   4.918
 1192TIP3    H2 3522   4.271   7.057   4.852
 1193TIP3   OH2 3523   5.027   5.276   5.970
 1193TIP3    H1 3524   4.990   5.359   6.001
 1193TIP3    H2 3525   5.115   5.298   5.941
 1194TIP3   OH2 3526   8.264   5.160   3.962
 1194TIP3    H1 3527   8.226   5.217   3.895
 1194TIP3    H2 3528   8.303   5.087   3.913
 1195TIP3   OH2 3529   6.977   7.609   1.868
 1195TIP3    H1 3530   6.903   7.655   1.829
 1195TIP3    H2 3531   7.048   7.674   1.869
 1196TIP3   OH2 3532   1.701   0.266   1.140
 1196TIP3    H1 3533   1.770   0.307   1.192
 1196TIP3    H2 3534   1.673   0.190   1.192
 1197TIP3   OH2 3535   0.206   3.951   3.686
 1197TIP3    H1 3536   0.134   3.889   3.700
 1197TIP3    H2 3537   0.240   3.928   3.599
 1198TIP3   OH2 3538   0.637   3.183   5.547
 1198TIP3    H1 3539   0.570   3.239   5.586
 1198TIP3    H2 3540   0.714   3.239   5.539
 1199TIP3   OH2 3541   3.325   3.010   1.083
 1199TIP3    H1 3542   3.247   2.964   1.053
 1199TIP3    H2 3543   3.374   3.027   1.002
 1200TIP3   OH2 3544   6.207   1.057   1.676
 1200TIP3    H1 3545   6.186   1.150   1.664
 1200TIP3    H2 3546   6.295   1.047   1.642
 1201TIP3   OH2 3547   1.029   6.403   1.471
 1201TIP3    H1 3548   1.110   6.405   1.523
 1201TIP3    H2 3549   1.003   6.311   1.470
 1202TIP3   OH2 3550   6.985   2.213   0.914
 1202TIP3    H1 3551   6.978   2.193   1.007
 1202TIP3    H2 3552   6.948   2.137   0.870
 1203TIP3   OH2 3553   3.304   7.267   2.741
 1203TIP3    H1 3554   3.362   7.341   2.725
 1203TIP3    H2 3555   3.339   7.225   2.819
 1204TIP3   OH2 3556   2.990   5.795   3.300
 1204TIP3    H1 3557   3.032   5.741   3.232
 1204TIP3    H2 3558   3.023   5.883   3.284
 1205TIP3   OH2 3559   4.614   5.840   4.198
 1205TIP3    H1 3560   4.672   5.852   4.273
 1205TIP3    H2 3561   4.613   5.745   4.183
 1206TIP3   OH2 3562   1.517   7.577   0.631
 1206TIP3    H1 3563   1.611   7.558   0.624
 1206TIP3    H2 3564   1.479   7.495   0.664
 1207TIP3   OH2 3565   0.936   2.422   2.369
 1207TIP3    H1 3566   0.926   2.438   2.275
 1207TIP3    H2 3567   0.847   2.426   2.403
 1208TIP3   OH2 3568   8.154   6.049   1.346
 1208TIP3    H1 3569   8.208   6.015   1.275
 1208TIP3    H2 3570   8.122   6.133   1.313
 1209TIP3   OH2 3571   0.136   2.523   0.130
 1209TIP3    H1 3572   0.142   2.500   0.037
 1209TIP3    H2 3573   0.044   2.511   0.152
 1210TIP3   OH2 3574   6.085   1.705   2.335
 1210TIP3    H1 3575   6.008   1.659   2.367
 1210TIP3    H2 3576   6.063   1.798   2.342
 1211TIP3   OH2 3577   0.300   6.076   2.584
 1211TIP3    H1 3578   0.382   6.113   2.617
 1211TIP3    H2 3579   0.323   5.986   2.559
 1212TIP3   OH2 3580   5.003   0.092   1.365
 1212TIP3    H1 3581   4.929   0.037   1.340
 1212TIP3    H2 3582   5.037   0.052   1.446
 1213TIP3   OH2 3583   4.328   2.304   1.933
 1213TIP3    H1 3584   4.290   2.223   1.968
 1213TIP3    H2 3585   4.382   2.276   1.860
 1214TIP3   OH2 3586   2.873   1.319   2.295
 1214TIP3    H1 3587   2.818   1.278   2.362
 1214TIP3    H2 3588   2.950   1.262   2.289
 1215TIP3   OH2 3589   6.353   3.649   1.908
 1215TIP3    H1 3590   6.363   3.709   1.834
 1215TIP3    H2 3591   6.262   3.618   1.900
 1216TIP3   OH2 3592   0.395   7.203   4.478
 1216TIP3    H1 3593   0.319   7.259   4.464
 1216TIP3    H2 3594   0.358   7.119   4.505
 1217TIP3   OH2 3595   6.541   0.762   3.932
 1217TIP3    H1 3596   6.595   0.709   3.990
 1217TIP3    H2 3597   6.492   0.698   3.880
 1218TIP3   OH2 3598   5.079   4.241   6.223
 1218TIP3    H1 3599   5.024   4.195   6.160
 1218TIP3    H2 3600   5.019   4.271   6.291
 1219TIP3   OH2 3601   0.871   7.174   0.140
 1219TIP3    H1 3602   0.841   7.250   0.190
 1219TIP3    H2 3603   0.953   7.201   0.100
 1220TIP3   OH2 3604   7.304   7.454   4.906
 1220TIP3    H1 3605   7.339   7.430   4.820
 1220TIP3    H2 3606   7.220   7.409   4.911
 1221TIP3   OH2 3607   6.141   3.638   5.879
 1221TIP3    H1 3608   6.179   3.551   5.866
 1221TIP3    H2 3609   6.168   3.663   5.967
 1222TIP3   OH2 3610   6.580   3.624   6.200
 1222TIP3    H1 3611   6.557   3.653   6.288
 1222TIP3    H2 3612   6.597   3.705   6.151
 1223TIP3   OH2 3613   1.506   6.776   2.685
 1223TIP3    H1 3614   1.560   6.763   2.607
 1223TIP3    H2 3615   1.564   6.758   2.758
 1224TIP3   OH2 3616   8.240   0.225   0.963
 1224TIP3    H1 3617   8.193   0.161   0.910
 1224TIP3    H2 3618   8.312   0.255   0.907
 1225TIP3   OH2 3619   1.604   1.586   0.857
 1225TIP3    H1 3620   1.539   1.582   0.927
 1225TIP3    H2 3621   1.688   1.577   0.902
 1226TIP3   OH2 3622   0.978   2.497   4.082
 1226TIP3    H1 3623   0.920   2.439   4.132
 1226TIP3    H2 3624   1.009   2.560   4.147
 1227TIP3   OH2 3625   5.288   4.612   1.235
 1227TIP3    H1 3626   5.260   4.657   1.315
 1227TIP3    H2 3627   5.340   4.538   1.266
 1228TIP3   OH2 3628   2.867   3.956   2.031
 1228TIP3    H1 3629   2.906   4.012   1.965
 1228TIP3    H2 3630   2.837   3.879   1.983
 1229TIP3   OH2 3631   6.400   7.432   1.307
 1229TIP3    H1 3632   6.360   7.349   1.334
 1229TIP3    H2 3633   6.479   7.406   1.260
 1230TIP3   OH2 3634   1.689   5.135   5.987
 1230TIP3    H1 3635   1.623   5.152   5.920
 1230TIP3    H2 3636   1.771   5.131   5.939
 1231TIP3   OH2 3637   5.911   1.394   1.027
 1231TIP3    H1 3638   5.972   1.347   1.085
 1231TIP3    H2 3639   5.915   1.485   1.057
 1232TIP3   OH2 3640   2.567   3.270   0.334
 1232TIP3    H1 3641   2.622   3.346   0.354
 1232TIP3    H2 3642   2.615   3.196   0.371
 1233TIP3   OH2 3643   3.036   4.927   5.065
 1233TIP3    H1 3644   2.989   5.004   5.034
 1233TIP3    H2 3645   3.114   4.922   5.010
 1234TIP3   OH2 3646   6.077   1.009   2.486
 1234TIP3    H1 3647   6.045   0.939   2.428
 1234TIP3    H2 3648   6.167   1.024   2.457
 1235TIP3   OH2 3649   4.831   3.049   6.431
 1235TIP3    H1 3650   4.812   3.141   6.451
 1235TIP3    H2 3651   4.801   3.001   6.508
 1236TIP3   OH2 3652   1.203   2.639   2.166
 1236TIP3    H1 3653   1.109   2.620   2.165
 1236TIP3    H2 3654   1.211   2.727   2.130
 1237TIP3   OH2 3655   6.168   4.704   6.720
 1237TIP3    H1 3656   6.111   4.662   6.656
 1237TIP3    H2 3657   6.213   4.631   6.763
 1238TIP3   OH2 3658   0.744   1.310   0.313
 1238TIP3    H1 3659   0.804   1.377   0.280
 1238TIP3    H2 3660   0.678   1.359   0.361
 1239TIP3   OH2 3661   5.233   3.964   1.048
 1239TIP3    H1 3662   5.163   3.989   0.988
 1239TIP3    H2 3663   5.192   3.967   1.135
 1240TIP3   OH2 3664   1.513   5.674   2.355
 1240TIP3    H1 3665   1.439   5.633   2.311
 1240TIP3    H2 3666   1.571   5.602   2.379
 1241TIP3   OH2 3667   7.527   6.429   3.731
 1241TIP3    H1 3668   7.543   6.416   3.637
 1241TIP3    H2 3669   7.434   6.451   3.736
 1242TIP3   OH2 3670   6.136   6.066   6.145
 1242TIP3    H1 3671   6.156   6.143   6.197
 1242TIP3    H2 3672   6.045   6.078   6.118
 1243TIP3   OH2 3673   0.251   0.123   0.618
 1243TIP3    H1 3674   0.329   0.074   0.644
 1243TIP3    H2 3675   0.276   0.214   0.629
 1244TIP3   OH2 3676   3.581   2.095   2.210
 1244TIP3    H1 3677   3.556   2.129   2.296
 1244TIP3    H2 3678   3.498   2.085   2.164
 1245TIP3   OH2 3679   7.861   2.023   2.655
 1245TIP3    H1 3680   7.892   2.021   2.564
 1245TIP3    H2 3681   7.937   1.994   2.707
 1246TIP3   OH2 3682   2.384   2.857   2.090
 1246TIP3    H1 3683   2.306   2.807   2.064
 1246TIP3    H2 3684   2.456   2.816   2.042
 1247TIP3   OH2 3685   6.580   1.451   4.401
 1247TIP3    H1 3686   6.539   1.478   4.483
 1247TIP3    H2 3687   6.597   1.533   4.354
 1248TIP3   OH2 3688   5.575   3.448   1.967
 1248TIP3    H1 3689   5.623   3.414   2.043
 1248TIP3    H2 3690   5.626   3.523   1.938
 1249TIP3   OH2 3691   7.403   1.128   4.141
 1249TIP3    H1 3692   7.359   1.045   4.160
 1249TIP3    H2 3693   7.423   1.124   4.048
 1250TIP3   OH2 3694   2.497   0.585   4.127
 1250TIP3    H1 3695   2.588   0.616   4.130
 1250TIP3    H2 3696   2.468   0.589   4.219
 1251TIP3   OH2 3697   1.533   7.379   0.020
 1251TIP3    H1 3698   1.612   7.391   0.074
 1251TIP3    H2 3699   1.559   7.315  -0.046
 1252TIP3   OH2 3700   1.195   6.925   5.869
 1252TIP3    H1 3701   1.274   6.874   5.888
 1252TIP3    H2 3702   1.169   6.962   5.953
 1253TIP3   OH2 3703   3.350   1.463   0.979
 1253TIP3    H1 3704   3.372   1.514   1.057
 1253TIP3    H2 3705   3.365   1.372   1.005
 1254TIP3   OH2 3706   8.152   6.427   3.367
 1254TIP3    H1 3707   8.233   6.476   3.355
 1254TIP3    H2 3708   8.150   6.407   3.461
 1255TIP3   OH2 3709   8.147   2.484   1.249
 1255TIP3    H1 3710   8.179   2.489   1.158
 1255TIP3    H2 3711   8.129   2.575   1.272
 1256TIP3   OH2 3712   3.214   5.325   0.578
 1256TIP3    H1 3713   3.247   5.281   0.657
 1256TIP3    H2 3714   3.270   5.293   0.508
 1257TIP3   OH2 3715   6.912   0.830   5.016
 1257TIP3    H1 3716   6.999   0.795   5.039
 1257TIP3    H2 3717   6.863   0.754   4.985
 1258TIP3   OH2 3718   2.550   1.705   0.720
 1258TIP3    H1 3719   2.644   1.686   0.720
 1258TIP3    H2 3720   2.518   1.669   0.637
 1259TIP3   OH2 3721   4.701   4.464   6.205
 1259TIP3    H1 3722   4.760   4.389   6.210
 1259TIP3    H2 3723   4.675   4.468   6.113
 1260TIP3   OH2 3724   7.480   1.948   6.670
 1260TIP3    H1 3725   7.419   1.875   6.679
 1260TIP3    H2 3726   7.424   2.026   6.670
 1261TIP3   OH2 3727   2.036   1.114   4.286
 1261TIP3    H1 3728   1.986   1.097   4.366
 1261TIP3    H2 3729   2.112   1.165   4.315
 1262TIP3   OH2 3730   4.197   5.524   5.296
 1262TIP3    H1 3731   4.204   5.461   5.367
 1262TIP3    H2 3732   4.273   5.507   5.241
 1263TIP3   OH2 3733   5.090   6.057   3.474
 1263TIP3    H1 3734   5.184   6.045   3.459
 1263TIP3    H2 3735   5.078   6.041   3.568
 1264TIP3   OH2 3736   1.677   1.348   4.107
 1264TIP3    H1 3737   1.678   1.389   4.021
 1264TIP3    H2 3738   1.767   1.321   4.122
 1265TIP3   OH2 3739   5.311   3.001   0.822
 1265TIP3    H1 3740   5.335   3.042   0.906
 1265TIP3    H2 3741   5.229   3.044   0.797
 1266TIP3   OH2 3742   2.203   4.457   5.059
 1266TIP3    H1 3743   2.185   4.390   4.992
 1266TIP3    H2 3744   2.298   4.456   5.068
 1267TIP3   OH2 3745   4.120   2.065   2.761
 1267TIP3    H1 3746   4.206   2.088   2.794
 1267TIP3    H2 3747   4.067   2.144   2.773
 1268TIP3   OH2 3748   5.062   6.357   1.819
 1268TIP3    H1 3749   5.001   6.351   1.893
 1268TIP3    H2 3750   5.090   6.267   1.803
 1269TIP3   OH2 3751   3.268   6.128   6.136
 1269TIP3    H1 3752   3.214   6.131   6.215
 1269TIP3    H2 3753   3.341   6.070   6.159
 1270TIP3   OH2 3754   1.423   6.317   2.671
 1270TIP3    H1 3755   1.358   6.298   2.604
 1270TIP3    H2 3756   1.434   6.235   2.718
 1271TIP3   OH2 3757   5.668   3.259   0.605
 1271TIP3    H1 3758   5.662   3.215   0.521
 1271TIP3    H2 3759   5.578   3.287   0.624
 1272TIP3   OH2 3760   2.820   4.533   2.978
 1272TIP3    H1 3761   2.830   4.599   2.909
 1272TIP3    H2 3762   2.861   4.455   2.942
 1273TIP3   OH2 3763   7.852   6.909   2.821
 1273TIP3    H1 3764   7.869   6.843   2.889
 1273TIP3    H2 3765   7.921   6.893   2.755
 1274TIP3   OH2 3766   2.197   1.247   0.227
 1274TIP3    H1 3767   2.284   1.286   0.231
 1274TIP3    H2 3768   2.190   1.213   0.138
 1275TIP3   OH2 3769   2.256   3.869   3.218
 1275TIP3    H1 3770   2.227   3.781   3.241
 1275TIP3    H2 3771   2.343   3.877   3.258
 1276TIP3   OH2 3772   6.252   3.158   3.375
 1276TIP3    H1 3773   6.197   3.233   3.399
 1276TIP3    H2 3774   6.319   3.155   3.443
 1277TIP3   OH2 3775   3.632   4.664   4.504
 1277TIP3    H1 3776   3.553   4.660   4.450
 1277TIP3    H2 3777   3.688   4.595   4.468
 1278TIP3   OH2 3778   7.000   1.832   1.696
 1278TIP3    H1 3779   6.950   1.844   1.777
 1278TIP3    H2 3780   7.034   1.742   1.702
 1279TIP3   OH2 3781   5.632   7.521   4.365
 1279TIP3    H1 3782   5.707   7.462   4.373
 1279TIP3    H2 3783   5.580   7.505   4.443
 1280TIP3   OH2 3784   3.919   5.163   4.806
 1280TIP3    H1 3785   3.938   5.089   4.863
 1280TIP3    H2 3786   3.986   5.158   4.737
 1281TIP3   OH2 3787   5.521   5.591   6.510
 1281TIP3    H1 3788   5.448   5.601   6.572
 1281TIP3    H2 3789   5.596   5.627   6.556
 1282TIP3   OH2 3790   1.459   3.678   3.620
 1282TIP3    H1 3791   1.484   3.650   3.532
 1282TIP3    H2 3792   1.369   3.648   3.630
 1283TIP3   OH2 3793   5.141   5.025   0.514
 1283TIP3    H1 3794   5.210   5.089   0.497
 1283TIP3    H2 3795   5.181   4.941   0.496
 1284TIP3   OH2 3796   6.769   1.269   4.479
 1284TIP3    H1 3797   6.699   1.329   4.454
 1284TIP3    H2 3798   6.846   1.301   4.433
 1285TIP3   OH2 3799   5.766   3.174   0.365
 1285TIP3    H1 3800   5.790   3.086   0.394
 1285TIP3    H2 3801   5.847   3.224   0.373
 1286TIP3   OH2 3802   2.546   1.091   3.596
 1286TIP3    H1 3803   2.550   1.169   3.652
 1286TIP3    H2 3804   2.495   1.118   3.521
 1287TIP3   OH2 3805   3.796   3.145   1.797
 1287TIP3    H1 3806   3.818   3.053   1.813
 1287TIP3    H2 3807   3.818   3.190   1.878
 1288TIP3   OH2 3808   7.541   2.433   6.126
 1288TIP3    H1 3809   7.627   2.460   6.096
 1288TIP3    H2 3810   7.557   2.390   6.210
 1289TIP3   OH2 3811   0.541   2.946   0.568
 1289TIP3    H1 3812   0.594   3.021   0.594
 1289TIP3    H2 3813   0.541   2.889   0.645
 1290TIP3   OH2 3814   6.623   3.740   0.074
 1290TIP3    H1 3815   6.575   3.661   0.100
 1290TIP3    H2 3816   6.715   3.717   0.084
 1291TIP3   OH2 3817   7.514   0.224   4.536
 1291TIP3    H1 3818   7.606   0.248   4.528
 1291TIP3    H2 3819   7.514   0.129   4.543
 1292TIP3   OH2 3820   2.806   3.624   2.043
 1292TIP3    H1 3821   2.854   3.583   1.970
 1292TIP3    H2 3822   2.875   3.651   2.104
 1293TIP3   OH2 3823   5.812   2.366   2.236
 1293TIP3    H1 3824   5.856   2.410   2.308
 1293TIP3    H2 3825   5.796   2.434   2.171
 1294TIP3   OH2 3826   2.612   2.759   5.256
 1294TIP3    H1 3827   2.689   2.702   5.255
 1294TIP3    H2 3828   2.544   2.709   5.211
 1295TIP3   OH2 3829   6.366   7.268   5.907
 1295TIP3    H1 3830   6.441   7.312   5.866
 1295TIP3    H2 3831   6.354   7.188   5.856
 1296TIP3   OH2 3832   3.728   3.352   1.073
 1296TIP3    H1 3833   3.790   3.365   1.002
 1296TIP3    H2 3834   3.776   3.377   1.152
 1297TIP3   OH2 3835   2.427   1.399   1.121
 1297TIP3    H1 3836   2.401   1.307   1.111
 1297TIP3    H2 3837   2.487   1.414   1.047
 1298TIP3   OH2 3838   1.421   6.299   2.981
 1298TIP3    H1 3839   1.419   6.232   2.912
 1298TIP3    H2 3840   1.340   6.348   2.969
 1299TIP3   OH2 3841   0.433   2.068   3.348
 1299TIP3    H1 3842   0.385   2.043   3.427
 1299TIP3    H2 3843   0.423   2.163   3.342
 1300TIP3   OH2 3844   3.059   6.317   1.215
 1300TIP3    H1 3845   2.979   6.366   1.197
 1300TIP3    H2 3846   3.077   6.269   1.134
 1301TIP3   OH2 3847   0.830   5.594   2.378
 1301TIP3    H1 3848   0.908   5.621   2.427
 1301TIP3    H2 3849   0.797   5.674   2.338
 1302TIP3   OH2 3850   4.561   2.594   3.778
 1302TIP3    H1 3851   4.466   2.592   3.785
 1302TIP3    H2 3852   4.579   2.644   3.699
 1303TIP3   OH2 3853   3.370   1.038   2.415
 1303TIP3    H1 3854   3.441   1.084   2.370
 1303TIP3    H2 3855   3.391   0.945   2.405
 1304TIP3   OH2 3856   7.051   4.547   3.755
 1304TIP3    H1 3857   7.005   4.593   3.825
 1304TIP3    H2 3858   7.141   4.577   3.761
 1305TIP3   OH2 3859   7.010   3.824   0.303
 1305TIP3    H1 3860   6.935   3.882   0.294
 1305TIP3    H2 3861   7.035   3.831   0.395
 1306TIP3   OH2 3862   6.605   2.770   5.130
 1306TIP3    H1 3863   6.638   2.747   5.043
 1306TIP3    H2 3864   6.513   2.792   5.116
 1307TIP3   OH2 3865   7.844   3.343   4.945
 1307TIP3    H1 3866   7.914   3.402   4.915
 1307TIP3    H2 3867   7.804   3.311   4.864
 1308TIP3   OH2 3868   5.019   4.565   4.564
 1308TIP3    H1 3869   5.063   4.497   4.513
 1308TIP3    H2 3870   4.988   4.521   4.642
 1309TIP3   OH2 3871   3.286   7.177   4.830
 1309TIP3    H1 3872   3.250   7.256   4.869
 1309TIP3    H2 3873   3.348   7.144   4.895
 1310TIP3   OH2 3874   2.246   0.984   0.636
 1310TIP3    H1 3875   2.242   0.902   0.586
 1310TIP3    H2 3876   2.214   0.960   0.723
 1311TIP3   OH2 3877   2.720   6.982   0.115
 1311TIP3    H1 3878   2.639   6.930   0.118
 1311TIP3    H2 3879   2.772   6.948   0.188
 1312TIP3   OH2 3880   2.114   7.829   2.436
 1312TIP3    H1 3881   2.178   7.779   2.386
 1312TIP3    H2 3882   2.156   7.845   2.520
 1313TIP3   OH2 3883   1.298   0.484   3.499
 1313TIP3    H1 3884   1.327   0.394   3.514
 1313TIP3    H2 3885   1.214   0.490   3.545
 1314TIP3   OH2 3886   4.065   3.005   5.662
 1314TIP3    H1 3887   4.046   3.099   5.665
 1314TIP3    H2 3888   4.081   2.987   5.569
 1315TIP3   OH2 3889   6.479   1.473   4.981
 1315TIP3    H1 3890   6.438   1.485   5.067
 1315TIP3    H2 3891   6.484   1.562   4.945
 1316TIP3   OH2 3892   5.541   5.113   6.062
 1316TIP3    H1 3893   5.508   5.029   6.097
 1316TIP3    H2 3894   5.545   5.170   6.139
 1317TIP3   OH2 3895   0.488   7.229   0.007
 1317TIP3    H1 3896   0.433   7.166   0.054
 1317TIP3    H2 3897   0.559   7.176  -0.030
 1318TIP3   OH2 3898   3.072   4.350   1.280
 1318TIP3    H1 3899   3.028   4.330   1.198
 1318TIP3    H2 3900   3.061   4.445   1.291
 1319TIP3   OH2 3901   6.829   6.106   3.682
 1319TIP3    H1 3902   6.905   6.100   3.740
 1319TIP3    H2 3903   6.768   6.163   3.728
 1320TIP3   OH2 3904   8.263   5.168   0.990
 1320TIP3    H1 3905   8.264   5.082   1.033
 1320TIP3    H2 3906   8.288   5.230   1.058
 1321TIP3   OH2 3907   6.373   1.182   5.420
 1321TIP3    H1 3908   6.319   1.259   5.438
 1321TIP3    H2 3909   6.389   1.186   5.325
 1322TIP3   OH2 3910   5.750   1.315   4.828
 1322TIP3    H1 3911   5.769   1.225   4.802
 1322TIP3    H2 3912   5.788   1.369   4.758
 1323TIP3   OH2 3913   7.177   3.850   2.710
 1323TIP3    H1 3914   7.151   3.880   2.623
 1323TIP3    H2 3915   7.251   3.907   2.734
 1324TIP3   OH2 3916   4.468   4.122   5.864
 1324TIP3    H1 3917   4.451   4.035   5.830
 1324TIP3    H2 3918   4.394   4.175   5.835
 1325TIP3   OH2 3919   0.133   1.995   5.215
 1325TIP3    H1 3920   0.157   1.950   5.134
 1325TIP3    H2 3921   0.168   1.940   5.285
 1326TIP3   OH2 3922   8.268   1.285   2.956
 1326TIP3    H1 3923   8.206   1.235   2.903
 1326TIP3    H2 3924   8.263   1.243   3.043
 1327TIP3   OH2 3925   5.600   4.123   5.307
 1327TIP3    H1 3926   5.539   4.104   5.379
 1327TIP3    H2 3927   5.686   4.126   5.349
 1328TIP3   OH2 3928   5.885   1.691   5.982
 1328TIP3    H1 3929   5.929   1.701   5.898
 1328TIP3    H2 3930   5.864   1.597   5.986
 1329TIP3   OH2 3931   3.424   5.614   5.325
 1329TIP3    H1 3932   3.491   5.576   5.381
 1329TIP3    H2 3933   3.461   5.698   5.296
 1330TIP3   OH2 3934   3.142   1.834   2.619
 1330TIP3    H1 3935   3.224   1.883   2.613
 1330TIP3    H2 3936   3.165   1.754   2.666
 1331TIP3   OH2 3937   4.692   5.859   3.483
 1331TIP3    H1 3938   4.760   5.920   3.454
 1331TIP3    H2 3939   4.707   5.849   3.577
 1332TIP3   OH2 3940   0.718   0.252   0.532
 1332TIP3    H1 3941   0.693   0.286   0.618
 1332TIP3    H2 3942   0.805   0.287   0.516
 1333TIP3   OH2 3943   6.468   4.940   4.127
 1333TIP3    H1 3944   6.418   4.986   4.195
 1333TIP3    H2 3945   6.543   4.903   4.174
 1334TIP3   OH2 3946   6.085   2.371   3.721
 1334TIP3    H1 3947   6.087   2.286   3.764
 1334TIP3    H2 3948   6.175   2.403   3.725
 1335TIP3   OH2 3949   1.731   2.057   0.706
 1335TIP3    H1 3950   1.775   2.075   0.790
 1335TIP3    H2 3951   1.743   1.963   0.693
 1336TIP3   OH2 3952   5.375   5.541   4.388
 1336TIP3    H1 3953   5.348   5.547   4.479
 1336TIP3    H2 3954   5.421   5.623   4.371
 1337TIP3   OH2 3955   6.306   5.184   3.614
 1337TIP3    H1 3956   6.352   5.253   3.566
 1337TIP3    H2 3957   6.303   5.215   3.704
 1338TIP3   OH2 3958   3.075   7.314   1.242
 1338TIP3    H1 3959   3.066   7.279   1.154
 1338TIP3    H2 3960   3.132   7.253   1.288
 1339TIP3   OH2 3961   7.666   3.490   5.677
 1339TIP3    H1 3962   7.659   3.573   5.724
 1339TIP3    H2 3963   7.735   3.442   5.723
 1340TIP3   OH2 3964   3.477   3.969   6.468
 1340TIP3    H1 3965   3.438   3.938   6.386
 1340TIP3    H2 3966   3.427   3.924   6.537
 1341TIP3   OH2 3967   1.299   5.912   5.413
 1341TIP3    H1 3968   1.260   5.829   5.386
 1341TIP3    H2 3969   1.259   5.930   5.498
 1342TIP3   OH2 3970   1.898   6.058   0.649
 1342TIP3    H1 3971   1.953   5.991   0.608
 1342TIP3    H2 3972   1.901   6.038   0.742
 1343TIP3   OH2 3973   4.961   7.467   5.735
 1343TIP3    H1 3974   4.968   7.467   5.639
 1343TIP3    H2 3975   4.877   7.507   5.753
 1344TIP3   OH2 3976   7.502   0.861   6.465
 1344TIP3    H1 3977   7.588   0.853   6.507
 1344TIP3    H2 3978   7.490   0.778   6.418
 1345TIP3   OH2 3979   3.357   3.200   4.640
 1345TIP3    H1 3980   3.267   3.203   4.608
 1345TIP3    H2 3981   3.350   3.214   4.734
 1346TIP3   OH2 3982   6.562   2.417   1.600
 1346TIP3    H1 3983   6.648   2.458   1.612
 1346TIP3    H2 3984   6.551   2.414   1.505
 1347TIP3   OH2 3985   4.774   3.683   5.679
 1347TIP3    H1 3986   4.703   3.693   5.742
 1347TIP3    H2 3987   4.822   3.766   5.683
 1348TIP3   OH2 3988   6.995   5.967   1.213
 1348TIP3    H1 3989   6.961   5.880   1.191
 1348TIP3    H2 3990   7.087   5.953   1.235
 1349TIP3   OH2 3991   3.676   6.590   2.030
 1349TIP3    H1 3992   3.632   6.506   2.024
 1349TIP3    H2 3993   3.704   6.597   2.121
 1350TIP3   OH2 3994   3.837   6.743   3.214
 1350TIP3    H1 3995   3.882   6.812   3.164
 1350TIP3    H2 3996   3.795   6.689   3.148
 1351TIP3   OH2 3997   8.012   2.288   0.103
 1351TIP3    H1 3998   7.951   2.223   0.068
 1351TIP3    H2 3999   8.078   2.238   0.150
 1352TIP3   OH2 4000   1.312   2.954   1.089
 1352TIP3    H1 4001   1.377   2.980   1.024
 1352TIP3    H2 4002   1.289   2.864   1.066
 1353TIP3   OH2 4003   6.074   3.580   1.880
 1353TIP3    H1 4004   6.075   3.657   1.823
 1353TIP3    H2 4005   6.049   3.508   1.822
 1354TIP3   OH2 4006   5.401   7.206   4.160
 1354TIP3    H1 4007   5.404   7.148   4.084
 1354TIP3    H2 4008   5.310   7.236   4.163
 1355TIP3   OH2 4009   5.433   3.717   6.028
 1355TIP3    H1 4010   5.486   3.638   6.021
 1355TIP3    H2 4011   5.425   3.733   6.122
 1356TIP3   OH2 4012   2.516   2.445   4.649
 1356TIP3    H1 4013   2.603   2.416   4.675
 1356TIP3    H2 4014   2.510   2.535   4.682
 1357TIP3   OH2 4015   4.744   4.299   4.668
 1357TIP3    H1 4016   4.793   4.354   4.729
 1357TIP3    H2 4017   4.772   4.210   4.689
 1358TIP3   OH2 4018   7.684   1.941   2.242
 1358TIP3    H1 4019   7.676   1.883   2.317
 1358TIP3    H2 4020   7.737   1.892   2.179
 1359TIP3   OH2 4021   0.402   5.710   2.004
 1359TIP3    H1 4022   0.312   5.684   1.986
 1359TIP3    H2 4023   0.453   5.669   1.935
 1360TIP3   OH2 4024   1.599   6.500   6.167
 1360TIP3    H1 4025   1.610   6.549   6.086
 1360TIP3    H2 4026   1.667   6.432   6.163
 1361TIP3   OH2 4027   6.073   4.883   4.797
 1361TIP3    H1 4028   6.108   4.813   4.742
 1361TIP3    H2 4029   6.026   4.838   4.866
 1362TIP3   OH2 4030   6.049   1.706   6.358
 1362TIP3    H1 4031   6.051   1.610   6.358
 1362TIP3    H2 4032   5.958   1.728   6.337
 1363TIP3   OH2 4033   1.096   4.585   2.802
 1363TIP3    H1 4034   1.029   4.521   2.826
 1363TIP3    H2 4035   1.053   4.670   2.810
 1364TIP3   OH2 4036   4.539   0.104   5.886
 1364TIP3    H1 4037   4.526   0.010   5.873
 1364TIP3    H2 4038   4.453   0.137   5.910
 1365TIP3   OH2 4039   1.851   2.637   3.525
 1365TIP3    H1 4040   1.800   2.599   3.453
 1365TIP3    H2 4041   1.786   2.662   3.590
 1366TIP3   OH2 4042   7.909   4.774   1.694
 1366TIP3    H1 4043   7.834   4.779   1.635
 1366TIP3    H2 4044   7.950   4.861   1.688
 1367TIP3   OH2 4045   1.924   4.775   2.629
 1367TIP3    H1 4046   1.852   4.752   2.571
 1367TIP3    H2 4047   1.933   4.699   2.687
 1368TIP3   OH2 4048   5.609   6.642   2.980
 1368TIP3    H1 4049   5.531   6.616   3.028
 1368TIP3    H2 4050   5.620   6.575   2.912
 1369TIP3   OH2 4051   4.537   5.152   6.145
 1369TIP3    H1 4052   4.619   5.105   6.128
 1369TIP3    H2 4053   4.554   5.202   6.224
 1370TIP3   OH2 4054   3.412   7.180   2.347
 1370TIP3    H1 4055   3.394   7.087   2.362
 1370TIP3    H2 4056   3.327   7.223   2.350
 1371TIP3   OH2 4057   4.155   4.384   6.236
 1371TIP3    H1 4058   4.104   4.353   6.311
 1371TIP3    H2 4059   4.125   4.330   6.163
 1372TIP3   OH2 4060   6.999   5.565   1.192
 1372TIP3    H1 4061   6.929   5.530   1.138
 1372TIP3    H2 4062   7.044   5.488   1.227
 1373TIP3   OH2 4063   0.101   6.563   0.395
 1373TIP3    H1 4064   0.174   6.501   0.390
 1373TIP3    H2 4065   0.025   6.513   0.368
 1374TIP3   OH2 4066   4.032   2.100   0.172
 1374TIP3    H1 4067   4.096   2.099   0.243
 1374TIP3    H2 4068   3.949   2.077   0.214
 1375TIP3   OH2 4069   7.378   3.591   2.571
 1375TIP3    H1 4070   7.464   3.566   2.536
 1375TIP3    H2 4071   7.368   3.682   2.544
 1376TIP3   OH2 4072   7.970   7.662   3.136
 1376TIP3    H1 4073   7.947   7.652   3.044
 1376TIP3    H2 4074   8.051   7.713   3.135
 1377TIP3   OH2 4075   5.634   2.584   0.859
 1377TIP3    H1 4076   5.596   2.497   0.850
 1377TIP3    H2 4077   5.560   2.644   0.857
 1378TIP3   OH2 4078   2.534   7.742   3.053
 1378TIP3    H1 4079   2.464   7.700   3.103
 1378TIP3    H2 4080   2.524   7.835   3.069
 1379TIP3   OH2 4081   4.302   5.950   3.680
 1379TIP3    H1 4082   4.353   5.872   3.698
 1379TIP3    H2 4083   4.339   5.986   3.600
 1380TIP3   OH2 4084   1.490   4.564   5.961
 1380TIP3    H1 4085   1.532   4.528   5.882
 1380TIP3    H2 4086   1.560   4.611   6.006
 1381TIP3   OH2 4087   6.181   5.792   6.215
 1381TIP3    H1 4088   6.156   5.791   6.307
 1381TIP3    H2 4089   6.144   5.874   6.181
 1382TIP3   OH2 4090   6.562   5.867   4.622
 1382TIP3    H1 4091   6.541   5.925   4.695
 1382TIP3    H2 4092   6.601   5.925   4.556
 1383TIP3   OH2 4093   0.023   5.414   6.653
 1383TIP3    H1 4094   0.032   5.358   6.576
 1383TIP3    H2 4095   0.095   5.477   6.645
 1384TIP3   OH2 4096   3.146   4.983   0.344
 1384TIP3    H1 4097   3.192   4.939   0.273
 1384TIP3    H2 4098   3.067   4.930   0.358
 1385TIP3   OH2 4099   1.118   1.316   3.552
 1385TIP3    H1 4100   1.036   1.361   3.573
 1385TIP3    H2 4101   1.103   1.225   3.578
 1386TIP3   OH2 4102   1.426   0.060   4.891
 1386TIP3    H1 4103   1.478   0.088   4.967
 1386TIP3    H2 4104   1.490   0.048   4.821
 1387TIP3   OH2 4105   4.609   6.093   0.256
 1387TIP3    H1 4106   4.572   6.155   0.319
 1387TIP3    H2 4107   4.671   6.144   0.204
 1388TIP3   OH2 4108   1.623   5.089   4.433
 1388TIP3    H1 4109   1.703   5.093   4.485
 1388TIP3    H2 4110   1.569   5.161   4.465
 1389TIP3   OH2 4111   4.666   1.066   6.207
 1389TIP3    H1 4112   4.757   1.038   6.223
 1389TIP3    H2 4113   4.654   1.142   6.264
 1390TIP3   OH2 4114   0.506   3.459   1.071
 1390TIP3    H1 4115   0.588   3.504   1.091
 1390TIP3    H2 4116   0.440   3.506   1.121
 1391TIP3   OH2 4117   2.781   7.156   0.627
 1391TIP3    H1 4118   2.774   7.083   0.564
 1391TIP3    H2 4119   2.774   7.234   0.573
 1392TIP3   OH2 4120   7.126   3.036   3.208
 1392TIP3    H1 4121   7.180   2.979   3.264
 1392TIP3    H2 4122   7.102   2.980   3.134
 1393TIP3   OH2 4123   5.865   0.653   6.672
 1393TIP3    H1 4124   5.908   0.734   6.698
 1393TIP3    H2 4125   5.932   0.585   6.685
 1394TIP3   OH2 4126   0.714   3.917   4.155
 1394TIP3    H1 4127   0.685   3.990   4.101
 1394TIP3    H2 4128   0.803   3.941   4.181
 1395TIP3   OH2 4129   1.807   4.761   5.134
 1395TIP3    H1 4130   1.753   4.795   5.063
 1395TIP3    H2 4131   1.882   4.721   5.090
 1396TIP3   OH2 4132   0.428   4.918   0.380
 1396TIP3    H1 4133   0.451   4.945   0.291
 1396TIP3    H2 4134   0.512   4.904   0.424
 1397TIP3   OH2 4135   1.135   1.979   0.656
 1397TIP3    H1 4136   1.228   1.964   0.640
 1397TIP3    H2 4137   1.130   2.011   0.746
 1398TIP3   OH2 4138   6.112   6.504   2.387
 1398TIP3    H1 4139   6.056   6.427   2.398
 1398TIP3    H2 4140   6.195   6.479   2.427
 1399TIP3   OH2 4141   7.017   6.888   3.170
 1399TIP3    H1 4142   7.073   6.904   3.246
 1399TIP3    H2 4143   6.970   6.808   3.191
 1400TIP3   OH2 4144   4.296   7.575   2.594
 1400TIP3    H1 4145   4.335   7.542   2.513
 1400TIP3    H2 4146   4.308   7.669   2.590
 1401TIP3   OH2 4147   2.500   6.080   5.907
 1401TIP3    H1 4148   2.443   6.132   5.963
 1401TIP3    H2 4149   2.589   6.106   5.933
 1402TIP3   OH2 4150   0.902   0.626   3.287
 1402TIP3    H1 4151   0.847   0.685   3.236
 1402TIP3    H2 4152   0.973   0.682   3.319
 1403TIP3   OH2 4153   7.331   3.275   0.586
 1403TIP3    H1 4154   7.284   3.335   0.528
 1403TIP3    H2 4155   7.263   3.242   0.645
 1404TIP3   OH2 4156   1.574   4.437   5.725
 1404TIP3    H1 4157   1.482   4.419   5.743
 1404TIP3    H2 4158   1.588   4.405   5.636
 1405TIP3   OH2 4159   4.534   3.684   3.315
 1405TIP3    H1 4160   4.570   3.745   3.251
 1405TIP3    H2 4161   4.444   3.668   3.286
 1406TIP3   OH2 4162   3.753   7.338   2.907
 1406TIP3    H1 4163   3.798   7.372   2.984
 1406TIP3    H2 4164   3.691   7.274   2.943
 1407TIP3   OH2 4165   8.247   1.806   6.322
 1407TIP3    H1 4166   8.253   1.890   6.368
 1407TIP3    H2 4167   8.241   1.831   6.230
 1408TIP3   OH2 4168   7.999   1.576   3.507
 1408TIP3    H1 4169   8.086   1.596   3.473
 1408TIP3    H2 4170   7.944   1.569   3.429
 1409TIP3   OH2 4171   0.407   2.218   2.890
 1409TIP3    H1 4172   0.319   2.245   2.915
 1409TIP3    H2 4173   0.447   2.188   2.972
 1410TIP3   OH2 4174   3.050   4.005   6.400
 1410TIP3    H1 4175   3.087   4.074   6.346
 1410TIP3    H2 4176   2.999   4.050   6.467
 1411TIP3   OH2 4177   6.996   1.965   3.763
 1411TIP3    H1 4178   7.028   1.875   3.769
 1411TIP3    H2 4179   6.947   1.967   3.680
 1412TIP3   OH2 4180   4.743   7.403   1.260
 1412TIP3    H1 4181   4.775   7.324   1.216
 1412TIP3    H2 4182   4.721   7.463   1.188
 1413TIP3   OH2 4183   0.040   0.369   6.638
 1413TIP3    H1 4184   0.136   0.368   6.637
 1413TIP3    H2 4185   0.016   0.310   6.710
 1414TIP3   OH2 4186   2.190   3.654   4.617
 1414TIP3    H1 4187   2.195   3.750   4.619
 1414TIP3    H2 4188   2.103   3.633   4.649
 1415TIP3   OH2 4189   5.725   2.155   3.660
 1415TIP3    H1 4190   5.724   2.242   3.698
 1415TIP3    H2 4191   5.743   2.169   3.568
 1416TIP3   OH2 4192   5.614   4.122   0.825
 1416TIP3    H1 4193   5.564   4.113   0.906
 1416TIP3    H2 4194   5.698   4.079   0.844
 1417TIP3   OH2 4195   5.059   2.031   1.105
 1417TIP3    H1 4196   5.086   1.998   1.020
 1417TIP3    H2 4197   5.017   1.957   1.148
 1418TIP3   OH2 4198   6.105   5.945   1.417
 1418TIP3    H1 4199   6.070   5.857   1.432
 1418TIP3    H2 4200   6.069   5.971   1.332
 1419TIP3   OH2 4201   3.176   2.970   0.083
 1419TIP3    H1 4202   3.190   2.946   0.174
 1419TIP3    H2 4203   3.098   2.921   0.056
 1420TIP3   OH2 4204   4.566   0.105   1.990
 1420TIP3    H1 4205   4.631   0.081   1.924
 1420TIP3    H2 4206   4.611   0.093   2.073
 1421TIP3   OH2 4207   2.978   4.596   4.953
 1421TIP3    H1 4208   2.954   4.681   4.915
 1421TIP3    H2 4209   2.894   4.550   4.962
 1422TIP3   OH2 4210   0.600   2.080   3.116
 1422TIP3    H1 4211   0.632   1.995   3.144
 1422TIP3    H2 4212   0.520   2.094   3.167
 1423TIP3   OH2 4213   3.222   2.961   5.249
 1423TIP3    H1 4214   3.147   2.921   5.204
 1423TIP3    H2 4215   3.225   2.917   5.334
 1424TIP3   OH2 4216   5.494   3.648   6.732
 1424TIP3    H1 4217   5.440   3.719   6.768
 1424TIP3    H2 4218   5.502   3.669   6.639
 1425TIP3   OH2 4219   8.197   7.681   5.978
 1425TIP3    H1 4220   8.290   7.697   5.967
 1425TIP3    H2 4221   8.170   7.740   6.048
 1426TIP3   OH2 4222   7.537   0.357   6.473
 1426TIP3    H1 4223   7.605   0.290   6.483
 1426TIP3    H2 4224   7.557   0.400   6.390
 1427TIP3   OH2 4225   3.378   7.457   2.963
 1427TIP3    H1 4226   3.431   7.495   3.034
 1427TIP3    H2 4227   3.316   7.400   3.008
 1428TIP3   OH2 4228   5.206   3.674   2.355
 1428TIP3    H1 4229   5.121   3.704   2.386
 1428TIP3    H2 4230   5.209   3.581   2.376
 1429TIP3   OH2 4231   3.191   0.814   1.266
 1429TIP3    H1 4232   3.118   0.866   1.299
 1429TIP3    H2 4233   3.150   0.734   1.233
 1430TIP3   OH2 4234   6.895   6.497   3.527
 1430TIP3    H1 4235   6.889   6.414   3.480
 1430TIP3    H2 4236   6.886   6.564   3.460
 1431TIP3   OH2 4237   4.518   6.966   0.688
 1431TIP3    H1 4238   4.598   7.002   0.726
 1431TIP3    H2 4239   4.471   6.927   0.762
 1432TIP3   OH2 4240   5.766   2.130   2.405
 1432TIP3    H1 4241   5.748   2.216   2.368
 1432TIP3    H2 4242   5.698   2.073   2.370
 1433TIP3   OH2 4243   2.587   0.843   3.190
 1433TIP3    H1 4244   2.538   0.924   3.177
 1433TIP3    H2 4245   2.624   0.850   3.278
 1434TIP3   OH2 4246   3.095   3.706   6.590
 1434TIP3    H1 4247   3.117   3.797   6.609
 1434TIP3    H2 4248   3.098   3.663   6.676
 1435TIP3   OH2 4249   6.523   6.705   5.087
 1435TIP3    H1 4250   6.445   6.688   5.034
 1435TIP3    H2 4251   6.490   6.752   5.163
 1436TIP3   OH2 4252   6.771   3.847   3.329
 1436TIP3    H1 4253   6.731   3.761   3.338
 1436TIP3    H2 4254   6.828   3.855   3.406
 1437TIP3   OH2 4255   1.280   6.291   3.250
 1437TIP3    H1 4256   1.253   6.202   3.230
 1437TIP3    H2 4257   1.211   6.347   3.213
 1438TIP3   OH2 4258   6.151   3.915   4.717
 1438TIP3    H1 4259   6.233   3.882   4.752
 1438TIP3    H2 4260   6.159   4.010   4.721
 1439TIP3   OH2 4261   7.604   1.533   2.409
 1439TIP3    H1 4262   7.586   1.470   2.339
 1439TIP3    H2 4263   7.518   1.567   2.434
 1440TIP3   OH2 4264   2.742   2.256   3.009
 1440TIP3    H1 4265   2.674   2.307   3.052
 1440TIP3    H2 4266   2.740   2.285   2.918
 1441TIP3   OH2 4267   4.200   1.828   4.613
 1441TIP3    H1 4268   4.284   1.856   4.650
 1441TIP3    H2 4269   4.169   1.904   4.563
 1442TIP3   OH2 4270   4.551   6.323   5.707
 1442TIP3    H1 4271   4.474   6.267   5.706
 1442TIP3    H2 4272   4.621   6.267   5.742
 1443TIP3   OH2 4273   5.294   0.152   6.496
 1443TIP3    H1 4274   5.302   0.123   6.405
 1443TIP3    H2 4275   5.308   0.246   6.493
 1444TIP3   OH2 4276   0.496   0.239   0.948
 1444TIP3    H1 4277   0.401   0.229   0.961
 1444TIP3    H2 4278   0.534   0.167   0.998
 1445TIP3   OH2 4279   5.735   1.883   2.976
 1445TIP3    H1 4280   5.668   1.832   3.020
 1445TIP3    H2 4281   5.711   1.975   2.992
 1446TIP3   OH2 4282   7.306   2.796   2.856
 1446TIP3    H1 4283   7.357   2.873   2.829
 1446TIP3    H2 4284   7.296   2.745   2.775
 1447TIP3   OH2 4285   0.372   3.671   3.013
 1447TIP3    H1 4286   0.433   3.686   2.940
 1447TIP3    H2 4287   0.296   3.725   2.991
 1448TIP3   OH2 4288   5.249   7.614   2.327
 1448TIP3    H1 4289   5.241   7.645   2.417
 1448TIP3    H2 4290   5.251   7.694   2.275
 1449TIP3   OH2 4291   7.724   7.303   1.206
 1449TIP3    H1 4292   7.639   7.339   1.182
 1449TIP3    H2 4293   7.785   7.377   1.196
 1450TIP3   OH2 4294   5.245   2.236   5.572
 1450TIP3    H1 4295   5.270   2.178   5.644
 1450TIP3    H2 4296   5.195   2.306   5.615
 1451TIP3   OH2 4297   6.284   1.031   1.096
 1451TIP3    H1 4298   6.189   1.040   1.103
 1451TIP3    H2 4299   6.305   1.063   1.008
 1452TIP3   OH2 4300   2.823   7.503   4.768
 1452TIP3    H1 4301   2.851   7.549   4.689
 1452TIP3    H2 4302   2.825   7.410   4.744
 1453TIP3   OH2 4303   6.220   4.492   2.128
 1453TIP3    H1 4304   6.133   4.528   2.108
 1453TIP3    H2 4305   6.208   4.447   2.211
 1454TIP3   OH2 4306   5.957   0.299   4.575
 1454TIP3    H1 4307   5.972   0.234   4.506
 1454TIP3    H2 4308   6.019   0.274   4.644
 1455TIP3   OH2 4309   4.467   3.085   1.215
 1455TIP3    H1 4310   4.545   3.127   1.180
 1455TIP3    H2 4311   4.482   3.082   1.310
 1456TIP3   OH2 4312   6.458   4.129   5.365
 1456TIP3    H1 4313   6.368   4.096   5.372
 1456TIP3    H2 4314   6.486   4.139   5.456
 1457TIP3   OH2 4315   1.430   0.921   3.462
 1457TIP3    H1 4316   1.492   0.848   3.461
 1457TIP3    H2 4317   1.385   0.916   3.377
 1458TIP3   OH2 4318   3.222   7.720   4.356
 1458TIP3    H1 4319   3.135   7.688   4.333
 1458TIP3    H2 4320   3.210   7.815   4.369
 1459TIP3   OH2 4321   0.267   1.427   4.927
 1459TIP3    H1 4322   0.351   1.473   4.926
 1459TIP3    H2 4323   0.281   1.351   4.871
 1460TIP3   OH2 4324   3.271   3.159   2.431
 1460TIP3    H1 4325   3.330   3.207   2.490
 1460TIP3    H2 4326   3.304   3.069   2.434
 1461TIP3   OH2 4327   1.555   5.116   3.365
 1461TIP3    H1 4328   1.615   5.048   3.396
 1461TIP3    H2 4329   1.490   5.124   3.434
 1462TIP3   OH2 4330   0.470   2.893   4.795
 1462TIP3    H1 4331   0.480   2.818   4.736
 1462TIP3    H2 4332   0.544   2.951   4.773
 1463TIP3   OH2 4333   7.490   4.969   0.453
 1463TIP3    H1 4334   7.517   5.056   0.422
 1463TIP3    H2 4335   7.395   4.976   0.462
 1464TIP3   OH2 4336   3.854   5.842   3.117
 1464TIP3    H1 4337   3.800   5.763   3.118
 1464TIP3    H2 4338   3.858   5.866   3.024
 1465TIP3   OH2 4339   4.337   3.087   6.216
 1465TIP3    H1 4340   4.328   3.049   6.304
 1465TIP3    H2 4341   4.427   3.066   6.190
 1466TIP3   OH2 4342   2.573   2.739   0.679
 1466TIP3    H1 4343   2.491   2.789   0.685
 1466TIP3    H2 4344   2.578   2.712   0.587
 1467TIP3   OH2 4345   7.132   7.783   0.837
 1467TIP3    H1 4346   7.054   7.730   0.821
 1467TIP3    H2 4347   7.184   7.773   0.757
 1468TIP3   OH2 4348   6.680   0.474   2.371
 1468TIP3    H1 4349   6.587   0.472   2.392
 1468TIP3    H2 4350   6.704   0.381   2.361
 1469TIP3   OH2 4351   3.012   5.222   3.036
 1469TIP3    H1 4352   2.947   5.152   3.044
 1469TIP3    H2 4353   2.960   5.302   3.026
 1470TIP3   OH2 4354   6.092   0.181   4.087
 1470TIP3    H1 4355   6.023   0.232   4.046
 1470TIP3    H2 4356   6.071   0.090   4.064
 1471TIP3   OH2 4357   0.293   5.862   2.300
 1471TIP3    H1 4358   0.338   5.780   2.277
 1471TIP3    H2 4359   0.212   5.833   2.343
 1472TIP3   OH2 4360   3.639   2.984   3.843
 1472TIP3    H1 4361   3.588   2.904   3.834
 1472TIP3    H2 4362   3.574   3.054   3.852
 1473TIP3   OH2 4363   2.284   1.640   0.971
 1473TIP3    H1 4364   2.343   1.576   0.931
 1473TIP3    H2 4365   2.307   1.723   0.929
 1474TIP3   OH2 4366   2.398   2.621   1.521
 1474TIP3    H1 4367   2.461   2.694   1.525
 1474TIP3    H2 4368   2.453   2.542   1.519
 1475TIP3   OH2 4369   1.132   2.941   6.594
 1475TIP3    H1 4370   1.116   2.862   6.645
 1475TIP3    H2 4371   1.078   3.008   6.636
 1476TIP3   OH2 4372   3.668   0.466   4.485
 1476TIP3    H1 4373   3.641   0.553   4.517
 1476TIP3    H2 4374   3.756   0.453   4.521
 1477TIP3   OH2 4375   0.183   3.181   0.545
 1477TIP3    H1 4376   0.268   3.177   0.503
 1477TIP3    H2 4377   0.199   3.154   0.636
 1478TIP3   OH2 4378   3.984   6.351   0.058
 1478TIP3    H1 4379   3.922   6.280   0.078
 1478TIP3    H2 4380   4.070   6.310   0.064
 1479TIP3   OH2 4381   3.537   7.473   2.739
 1479TIP3    H1 4382   3.501   7.484   2.827
 1479TIP3    H2 4383   3.629   7.452   2.752
 1480TIP3   OH2 4384   4.794   2.153   5.687
 1480TIP3    H1 4385   4.800   2.068   5.643
 1480TIP3    H2 4386   4.784   2.216   5.615
 1481TIP3   OH2 4387   0.219   6.970   1.970
 1481TIP3    H1 4388   0.214   6.960   2.065
 1481TIP3    H2 4389   0.128   6.983   1.942
 1482TIP3   OH2 4390   7.337   0.425   3.557
 1482TIP3    H1 4391   7.380   0.343   3.532
 1482TIP3    H2 4392   7.304   0.409   3.645
 1483TIP3   OH2 4393   4.947   5.548   1.520
 1483TIP3    H1 4394   4.989   5.593   1.593
 1483TIP3    H2 4395   4.984   5.589   1.442
 1484TIP3   OH2 4396   1.126   2.430   5.337
 1484TIP3    H1 4397   1.062   2.493   5.304
 1484TIP3    H2 4398   1.130   2.363   5.268
 1485TIP3   OH2 4399   6.956   6.483   5.291
 1485TIP3    H1 4400   6.953   6.577   5.274
 1485TIP3    H2 4401   7.031   6.452   5.242
 1486TIP3   OH2 4402   5.961   7.238   6.672
 1486TIP3    H1 4403   6.015   7.245   6.593
 1486TIP3    H2 4404   5.910   7.158   6.659
 1487TIP3   OH2 4405   8.252   4.756   6.544
 1487TIP3    H1 4406   8.158   4.739   6.532
 1487TIP3    H2 4407   8.290   4.737   6.458
 1488TIP3   OH2 4408   4.820   1.495   6.106
 1488TIP3    H1 4409   4.822   1.556   6.179
 1488TIP3    H2 4410   4.910   1.493   6.074
 1489TIP3   OH2 4411   6.727   4.878   0.314
 1489TIP3    H1 4412   6.683   4.828   0.245
 1489TIP3    H2 4413   6.666   4.948   0.335
 1490TIP3   OH2 4414   7.470   7.402   0.904
 1490TIP3    H1 4415   7.544   7.348   0.875
 1490TIP3    H2 4416   7.394   7.361   0.862
 1491TIP3   OH2 4417   7.765   6.954   1.189
 1491TIP3    H1 4418   7.755   7.040   1.148
 1491TIP3    H2 4419   7.849   6.922   1.156
 1492TIP3   OH2 4420   7.980   3.639   0.844
 1492TIP3    H1 4421   7.994   3.700   0.772
 1492TIP3    H2 4422   8.066   3.627   0.883
 1493TIP3   OH2 4423   4.718   2.795   1.846
 1493TIP3    H1 4424   4.716   2.737   1.922
 1493TIP3    H2 4425   4.809   2.793   1.815
 1494TIP3   OH2 4426   6.116   6.976   1.449
 1494TIP3    H1 4427   6.170   6.982   1.528
 1494TIP3    H2 4428   6.064   6.897   1.462
 1495TIP3   OH2 4429   0.181   2.253   5.298
 1495TIP3    H1 4430   0.246   2.263   5.229
 1495TIP3    H2 4431   0.163   2.159   5.300
 1496TIP3   OH2 4432   6.529   3.597   4.053
 1496TIP3    H1 4433   6.587   3.522   4.065
 1496TIP3    H2 4434   6.441   3.561   4.061
 1497TIP3   OH2 4435   0.160   0.346   1.718
 1497TIP3    H1 4436   0.233   0.352   1.656
 1497TIP3    H2 4437   0.160   0.431   1.762
 1498TIP3   OH2 4438   0.253   3.520   5.024
 1498TIP3    H1 4439   0.180   3.498   5.083
 1498TIP3    H2 4440   0.219   3.589   4.968
 1499TIP3   OH2 4441   3.127   5.010   3.627
 1499TIP3    H1 4442   3.174   4.962   3.695
 1499TIP3    H2 4443   3.196   5.047   3.572
 1500TIP3   OH2 4444   1.906   3.708   0.546
 1500TIP3    H1 4445   1.986   3.757   0.526
 1500TIP3    H2 4446   1.926   3.618   0.519
 1501TIP3   OH2 4447   5.445   0.252   3.927
 1501TIP3    H1 4448   5.471   0.162   3.942
 1501TIP3    H2 4449   5.490   0.277   3.846
 1502TIP3   OH2 4450   5.789   2.707   2.755
 1502TIP3    H1 4451   5.857   2.685   2.818
 1502TIP3    H2 4452   5.753   2.790   2.786
 1503TIP3   OH2 4453   2.680   3.269   1.296
 1503TIP3    H1 4454   2.634   3.283   1.379
 1503TIP3    H2 4455   2.610   3.253   1.232
 1504TIP3   OH2 4456   4.496   0.084   5.404
 1504TIP3    H1 4457   4.581   0.050   5.375
 1504TIP3    H2 4458   4.517   0.147   5.472
 1505TIP3   OH2 4459   1.635   4.771   5.509
 1505TIP3    H1 4460   1.688   4.829   5.454
 1505TIP3    H2 4461   1.689   4.692   5.518
 1506TIP3   OH2 4462   4.127   5.448   3.194
 1506TIP3    H1 4463   4.106   5.384   3.262
 1506TIP3    H2 4464   4.150   5.395   3.117
 1507TIP3   OH2 4465   2.476   2.890   5.547
 1507TIP3    H1 4466   2.478   2.940   5.465
 1507TIP3    H2 4467   2.417   2.940   5.604
 1508TIP3   OH2 4468   0.696   6.569   1.655
 1508TIP3    H1 4469   0.695   6.526   1.569
 1508TIP3    H2 4470   0.628   6.636   1.650
 1509TIP3   OH2 4471   7.268   1.237   0.787
 1509TIP3    H1 4472   7.237   1.322   0.816
 1509TIP3    H2 4473   7.280   1.186   0.868
 1510TIP3   OH2 4474   3.673   6.918   6.564
 1510TIP3    H1 4475   3.670   6.930   6.469
 1510TIP3    H2 4476   3.592   6.960   6.595
 1511TIP3   OH2 4477   4.342   3.733   1.705
 1511TIP3    H1 4478   4.309   3.656   1.660
 1511TIP3    H2 4479   4.277   3.750   1.774
 1512TIP3   OH2 4480   6.868   1.780   4.904
 1512TIP3    H1 4481   6.822   1.855   4.867
 1512TIP3    H2 4482   6.821   1.704   4.869
 1513TIP3   OH2 4483   6.758   2.777   0.791
 1513TIP3    H1 4484   6.745   2.775   0.886
 1513TIP3    H2 4485   6.821   2.707   0.774
 1514TIP3   OH2 4486   7.999   6.652   1.278
 1514TIP3    H1 4487   7.993   6.739   1.239
 1514TIP3    H2 4488   8.040   6.667   1.364
 1515TIP3   OH2 4489   7.206   5.144   3.028
 1515TIP3    H1 4490   7.210   5.211   2.959
 1515TIP3    H2 4491   7.239   5.065   2.986
 1516TIP3   OH2 4492   6.857   5.269   5.152
 1516TIP3    H1 4493   6.944   5.240   5.126
 1516TIP3    H2 4494   6.808   5.188   5.165
 1517TIP3   OH2 4495   7.190   0.607   2.421
 1517TIP3    H1 4496   7.153   0.526   2.456
 1517TIP3    H2 4497   7.135   0.677   2.458
 1518TIP3   OH2 4498   7.282   0.353   4.459
 1518TIP3    H1 4499   7.365   0.315   4.488
 1518TIP3    H2 4500   7.261   0.305   4.378
 1519TIP3   OH2 4501   3.162   2.095   2.335
 1519TIP3    H1 4502   3.180   2.126   2.424
 1519TIP3    H2 4503   3.066   2.101   2.327
 1520TIP3   OH2 4504   1.580   3.050   2.664
 1520TIP3    H1 4505   1.499   3.086   2.628
 1520TIP3    H2 4506   1.585   3.085   2.753
 1521TIP3   OH2 4507   1.471   4.662   5.310
 1521TIP3    H1 4508   1.513   4.591   5.261
 1521TIP3    H2 4509   1.538   4.692   5.371
 1522TIP3   OH2 4510   5.225   4.730   5.382
 1522TIP3    H1 4511   5.289   4.790   5.344
 1522TIP3    H2 4512   5.247   4.728   5.476
 1523TIP3   OH2 4513   2.525   3.906   2.865
 1523TIP3    H1 4514   2.469   3.981   2.886
 1523TIP3    H2 4515   2.542   3.864   2.949
 1524TIP3   OH2 4516   5.195   4.824   4.281
 1524TIP3    H1 4517   5.266   4.796   4.339
 1524TIP3    H2 4518   5.239   4.852   4.201
 1525TIP3   OH2 4519   3.323   4.791   5.153
 1525TIP3    H1 4520   3.366   4.715   5.114
 1525TIP3    H2 4521   3.237   4.759   5.180
 1526TIP3   OH2 4522   5.776   6.929   6.148
 1526TIP3    H1 4523   5.780   6.849   6.097
 1526TIP3    H2 4524   5.851   6.980   6.120
 1527TIP3   OH2 4525   3.217   4.461   4.963
 1527TIP3    H1 4526   3.150   4.524   4.939
 1527TIP3    H2 4527   3.289   4.514   4.997
 1528TIP3   OH2 4528   7.683   1.924   5.768
 1528TIP3    H1 4529   7.587   1.922   5.761
 1528TIP3    H2 4530   7.714   1.914   5.678
 1529TIP3   OH2 4531   7.797   4.401   1.260
 1529TIP3    H1 4532   7.755   4.351   1.191
 1529TIP3    H2 4533   7.725   4.428   1.318
 1530TIP3   OH2 4534   4.166   4.472   2.542
 1530TIP3    H1 4535   4.078   4.502   2.563
 1530TIP3    H2 4536   4.167   4.380   2.568
 1531TIP3   OH2 4537   5.590   0.931   2.517
 1531TIP3    H1 4538   5.628   0.861   2.571
 1531TIP3    H2 4539   5.594   0.896   2.428
 1532TIP3   OH2 4540   7.045   5.695   5.188
 1532TIP3    H1 4541   7.105   5.625   5.162
 1532TIP3    H2 4542   7.066   5.768   5.130
 1533TIP3   OH2 4543   5.838   1.369   3.621
 1533TIP3    H1 4544   5.859   1.282   3.588
 1533TIP3    H2 4545   5.743   1.376   3.610
 1534TIP3   OH2 4546   0.591   6.580   4.667
 1534TIP3    H1 4547   0.507   6.624   4.663
 1534TIP3    H2 4548   0.655   6.646   4.642
 1535TIP3   OH2 4549   1.056   1.372   2.086
 1535TIP3    H1 4550   1.094   1.441   2.141
 1535TIP3    H2 4551   1.059   1.408   1.997
 1536TIP3   OH2 4552   5.002   7.563   3.981
 1536TIP3    H1 4553   5.055   7.572   3.901
 1536TIP3    H2 4554   5.061   7.520   4.043
 1537TIP3   OH2 4555   4.411   3.507   2.329
 1537TIP3    H1 4556   4.350   3.456   2.383
 1537TIP3    H2 4557   4.435   3.581   2.384
 1538TIP3   OH2 4558   2.811   5.303   4.120
 1538TIP3    H1 4559   2.878   5.371   4.126
 1538TIP3    H2 4560   2.835   5.239   4.187
 1539TIP3   OH2 4561   2.593   5.889   5.333
 1539TIP3    H1 4562   2.611   5.796   5.348
 1539TIP3    H2 4563   2.540   5.890   5.253
 1540TIP3   OH2 4564   1.293   7.105   6.535
 1540TIP3    H1 4565   1.267   7.196   6.546
 1540TIP3    H2 4566   1.288   7.068   6.624
 1541TIP3   OH2 4567   0.272   7.122   0.185
 1541TIP3    H1 4568   0.225   7.199   0.217
 1541TIP3    H2 4569   0.306   7.080   0.264
 1542TIP3   OH2 4570   6.824   4.401   2.555
 1542TIP3    H1 4571   6.762   4.448   2.499
 1542TIP3    H2 4572   6.804   4.308   2.540
 1543TIP3   OH2 4573   5.917   6.737   3.566
 1543TIP3    H1 4574   5.925   6.818   3.515
 1543TIP3    H2 4575   5.828   6.740   3.602
 1544TIP3   OH2 4576   7.309   4.618   4.976
 1544TIP3    H1 4577   7.317   4.712   4.962
 1544TIP3    H2 4578   7.215   4.604   4.986
 1545TIP3   OH2 4579   0.926   5.046   1.977
 1545TIP3    H1 4580   0.918   4.952   1.997
 1545TIP3    H2 4581   0.845   5.084   2.012
 1546TIP3   OH2 4582   7.113   5.287   4.969
 1546TIP3    H1 4583   7.153   5.269   4.884
 1546TIP3    H2 4584   7.094   5.381   4.967
 1547TIP3   OH2 4585   1.885   0.131   0.152
 1547TIP3    H1 4586   1.943   0.133   0.076
 1547TIP3    H2 4587   1.801   0.101   0.117
 1548TIP3   OH2 4588   0.878   5.228   5.084
 1548TIP3    H1 4589   0.818   5.208   5.013
 1548TIP3    H2 4590   0.870   5.154   5.144
 1549TIP3   OH2 4591   4.483   6.489   3.204
 1549TIP3    H1 4592   4.416   6.503   3.136
 1549TIP3    H2 4593   4.502   6.576   3.238
 1550TIP3   OH2 4594   7.215   6.981   2.977
 1550TIP3    H1 4595   7.180   6.927   3.047
 1550TIP3    H2 4596   7.190   7.070   3.001
 1551TIP3   OH2 4597   1.981   5.734   1.309
 1551TIP3    H1 4598   2.071   5.708   1.329
 1551TIP3    H2 4599   1.930   5.701   1.383
 1552TIP3   OH2 4600   5.266   2.073   6.450
 1552TIP3    H1 4601   5.257   2.096   6.543
 1552TIP3    H2 4602   5.336   2.008   6.448
 1553TIP3   OH2 4603   2.390   2.140   3.007
 1553TIP3    H1 4604   2.391   2.200   2.933
 1553TIP3    H2 4605   2.472   2.091   2.999
 1554TIP3   OH2 4606   4.433   4.693   4.335
 1554TIP3    H1 4607   4.455   4.624   4.398
 1554TIP3    H2 4608   4.467   4.660   4.252
 1555TIP3   OH2 4609   1.968   0.171   5.373
 1555TIP3    H1 4610   2.026   0.110   5.327
 1555TIP3    H2 4611   1.885   0.123   5.381
 1556TIP3   OH2 4612   6.193   3.444   0.432
 1556TIP3    H1 4613   6.286   3.427   0.440
 1556TIP3    H2 4614   6.181   3.532   0.468
 1557TIP3   OH2 4615   6.084   4.176   4.263
 1557TIP3    H1 4616   6.100   4.098   4.316
 1557TIP3    H2 4617   6.020   4.227   4.313
 1558TIP3   OH2 4618   0.234   0.409   5.010
 1558TIP3    H1 4619   0.299   0.418   5.079
 1558TIP3    H2 4620   0.256   0.477   4.947
 1559TIP3   OH2 4621   6.719   0.481   6.000
 1559TIP3    H1 4622   6.647   0.420   5.987
 1559TIP3    H2 4623   6.722   0.532   5.918
 1560TIP3   OH2 4624   0.175   6.055   6.371
 1560TIP3    H1 4625   0.087   6.027   6.345
 1560TIP3    H2 4626   0.219   6.078   6.290
 1561TIP3   OH2 4627   0.289   4.921   2.736
 1561TIP3    H1 4628   0.218   4.976   2.703
 1561TIP3    H2 4629   0.294   4.942   2.829
 1562TIP3   OH2 4630   1.250   1.116   1.973
 1562TIP3    H1 4631   1.270   1.133   2.065
 1562TIP3    H2 4632   1.335   1.100   1.932
 1563TIP3   OH2 4633   1.683   4.072   0.786
 1563TIP3    H1 4634   1.639   4.157   0.784
 1563TIP3    H2 4635   1.741   4.074   0.709
 1564TIP3   OH2 4636   2.156   4.810   2.492
 1564TIP3    H1 4637   2.164   4.728   2.444
 1564TIP3    H2 4638   2.086   4.794   2.555
 1565TIP3   OH2 4639   4.165   0.340   0.774
 1565TIP3    H1 4640   4.144   0.284   0.849
 1565TIP3    H2 4641   4.227   0.404   0.809
 1566TIP3   OH2 4642   0.081   6.089   1.598
 1566TIP3    H1 4643   0.016   6.071   1.666
 1566TIP3    H2 4644   0.030   6.099   1.517
 1567TIP3   OH2 4645   7.889   1.990   1.374
 1567TIP3    H1 4646   7.907   2.059   1.438
 1567TIP3    H2 4647   7.839   2.034   1.305
 1568TIP3   OH2 4648   7.461   5.597   1.242
 1568TIP3    H1 4649   7.488   5.527   1.183
 1568TIP3    H2 4650   7.522   5.668   1.224
 1569TIP3   OH2 4651   6.301   0.908   2.745
 1569TIP3    H1 4652   6.352   0.840   2.700
 1569TIP3    H2 4653   6.286   0.974   2.677
 1570TIP3   OH2 4654   6.040   7.557   6.442
 1570TIP3    H1 4655   6.100   7.631   6.452
 1570TIP3    H2 4656   5.953   7.596   6.452
 1571TIP3   OH2 4657   1.749   1.795   0.704
 1571TIP3    H1 4658   1.674   1.749   0.740
 1571TIP3    H2 4659   1.800   1.726   0.660
 1572TIP3   OH2 4660   1.574   3.725   4.941
 1572TIP3    H1 4661   1.652   3.674   4.960
 1572TIP3    H2 4662   1.533   3.681   4.867
 1573TIP3   OH2 4663   6.340   1.995   1.750
 1573TIP3    H1 4664   6.411   2.036   1.800
 1573TIP3    H2 4665   6.385   1.939   1.687
 1574TIP3   OH2 4666   6.081   1.331   2.255
 1574TIP3    H1 4667   6.007   1.392   2.250
 1574TIP3    H2 4668   6.079   1.298   2.345
 1575TIP3   OH2 4669   3.287   1.250   6.492
 1575TIP3    H1 4670   3.371   1.207   6.475
 1575TIP3    H2 4671   3.255   1.275   6.405
 1576TIP3   OH2 4672   5.538   2.916   4.968
 1576TIP3    H1 4673   5.534   2.900   4.874
 1576TIP3    H2 4674   5.507   2.835   5.008
 1577TIP3   OH2 4675   7.328   4.158   4.036
 1577TIP3    H1 4676   7.334   4.232   3.976
 1577TIP3    H2 4677   7.363   4.084   3.987
 1578TIP3   OH2 4678   1.383   3.202   1.240
 1578TIP3    H1 4679   1.477   3.219   1.252
 1578TIP3    H2 4680   1.380   3.120   1.191
 1579TIP3   OH2 4681   3.849   5.660   3.749
 1579TIP3    H1 4682   3.810   5.707   3.822
 1579TIP3    H2 4683   3.820   5.570   3.760
 1580TIP3   OH2 4684   1.949   7.288   2.933
 1580TIP3    H1 4685   1.882   7.334   2.882
 1580TIP3    H2 4686   1.971   7.349   3.004
 1581TIP3   OH2 4687   3.597   6.396   5.705
 1581TIP3    H1 4688   3.622   6.340   5.779
 1581TIP3    H2 4689   3.678   6.436   5.676
 1582TIP3   OH2 4690   6.278   7.710   0.668
 1582TIP3    H1 4691   6.355   7.709   0.724
 1582TIP3    H2 4692   6.214   7.656   0.714
 1583TIP3   OH2 4693   6.284   5.018   1.447
 1583TIP3    H1 4694   6.252   4.956   1.512
 1583TIP3    H2 4695   6.322   4.964   1.378
 1584TIP3   OH2 4696   4.376   1.919   3.334
 1584TIP3    H1 4697   4.324   1.853   3.288
 1584TIP3    H2 4698   4.399   1.877   3.417
 1585TIP3   OH2 4699   1.303   2.305   1.616
 1585TIP3    H1 4700   1.298   2.212   1.595
 1585TIP3    H2 4701   1.396   2.324   1.620
 1586TIP3   OH2 4702   7.286   2.935   4.602
 1586TIP3    H1 4703   7.287   2.888   4.686
 1586TIP3    H2 4704   7.334   3.016   4.620
 1587TIP3   OH2 4705   5.819   0.766   5.829
 1587TIP3    H1 4706   5.802   0.801   5.742
 1587TIP3    H2 4707   5.906   0.799   5.852
 1588TIP3   OH2 4708   3.214   7.682   0.643
 1588TIP3    H1 4709   3.246   7.618   0.707
 1588TIP3    H2 4710   3.154   7.631   0.587
 1589TIP3   OH2 4711   6.298   1.024   2.334
 1589TIP3    H1 4712   6.319   0.950   2.277
 1589TIP3    H2 4713   6.314   1.101   2.279
 1590TIP3   OH2 4714   0.284   4.933   3.660
 1590TIP3    H1 4715   0.370   4.972   3.679
 1590TIP3    H2 4716   0.269   4.951   3.568
 1591TIP3   OH2 4717   4.414   7.542   2.060
 1591TIP3    H1 4718   4.443   7.630   2.034
 1591TIP3    H2 4719   4.483   7.484   2.028
 1592TIP3   OH2 4720   3.528   0.276   1.615
 1592TIP3    H1 4721   3.601   0.217   1.594
 1592TIP3    H2 4722   3.556   0.361   1.580
 1593TIP3   OH2 4723   1.198   3.856   3.239
 1593TIP3    H1 4724   1.124   3.796   3.236
 1593TIP3    H2 4725   1.173   3.928   3.181
 1594TIP3   OH2 4726   5.927   1.266   5.093
 1594TIP3    H1 4727   5.973   1.234   5.171
 1594TIP3    H2 4728   5.980   1.233   5.020
 1595TIP3   OH2 4729   7.771   1.534   0.674
 1595TIP3    H1 4730   7.821   1.553   0.754
 1595TIP3    H2 4731   7.687   1.577   0.688
 1596TIP3   OH2 4732   8.223   2.064   5.396
 1596TIP3    H1 4733   8.281   1.998   5.356
 1596TIP3    H2 4734   8.138   2.049   5.354
 1597TIP3   OH2 4735   3.060   6.169   4.951
 1597TIP3    H1 4736   3.078   6.131   5.037
 1597TIP3    H2 4737   3.140   6.217   4.929
 1598TIP3   OH2 4738   6.090   4.147   1.306
 1598TIP3    H1 4739   6.018   4.201   1.274
 1598TIP3    H2 4740   6.051   4.093   1.374
 1599TIP3   OH2 4741   1.853   6.780   1.438
 1599TIP3    H1 4742   1.936   6.816   1.468
 1599TIP3    H2 4743   1.833   6.710   1.501
 1600TIP3   OH2 4744   1.078   0.190   1.752
 1600TIP3    H1 4745   0.990   0.178   1.717
 1600TIP3    H2 4746   1.065   0.241   1.832
 1601TIP3   OH2 4747   3.968   6.461   5.326
 1601TIP3    H1 4748   4.060   6.472   5.303
 1601TIP3    H2 4749   3.949   6.370   5.306
 1602TIP3   OH2 4750   6.322   3.089   4.143
 1602TIP3    H1 4751   6.404   3.043   4.128
 1602TIP3    H2 4752   6.258   3.043   4.089
 1603TIP3   OH2 4753   6.447   7.327   5.041
 1603TIP3    H1 4754   6.372   7.282   5.000
 1603TIP3    H2 4755   6.495   7.257   5.085
 1604TIP3   OH2 4756   0.631   0.057   1.156
 1604TIP3    H1 4757   0.711   0.006   1.139
 1604TIP3    H2 4758   0.580   0.001   1.214
 1605TIP3   OH2 4759   4.866   0.718   2.440
 1605TIP3    H1 4760   4.846   0.698   2.532
 1605TIP3    H2 4761   4.961   0.718   2.435
 1606TIP3   OH2 4762   6.503   2.853   6.304
 1606TIP3    H1 4763   6.414   2.876   6.278
 1606TIP3    H2 4764   6.528   2.782   6.245
 1607TIP3   OH2 4765   0.818   7.439   1.133
 1607TIP3    H1 4766   0.844   7.485   1.054
 1607TIP3    H2 4767   0.877   7.364   1.138
 1608TIP3   OH2 4768   7.179   2.037   1.751
 1608TIP3    H1 4769   7.128   1.971   1.704
 1608TIP3    H2 4770   7.148   2.031   1.842
 1609TIP3   OH2 4771   7.054   0.078   0.084
 1609TIP3    H1 4772   7.141   0.116   0.080
 1609TIP3    H2 4773   6.995   0.154   0.092
 1610TIP3   OH2 4774   2.504   2.015   2.538
 1610TIP3    H1 4775   2.439   1.969   2.485
 1610TIP3    H2 4776   2.496   2.107   2.513
 1611TIP3   OH2 4777   3.188   4.698   2.605
 1611TIP3    H1 4778   3.123   4.674   2.539
 1611TIP3    H2 4779   3.214   4.787   2.582
 1612TIP3   OH2 4780   6.035   7.237   0.469
 1612TIP3    H1 4781   6.030   7.141   0.461
 1612TIP3    H2 4782   5.967   7.269   0.411
 1613TIP3   OH2 4783   5.327   0.974   4.578
 1613TIP3    H1 4784   5.400   1.035   4.586
 1613TIP3    H2 4785   5.251   1.029   4.560
 1614TIP3   OH2 4786   6.338   3.144   5.716
 1614TIP3    H1 4787   6.253   3.122   5.679
 1614TIP3    H2 4788   6.394   3.160   5.639
 1615TIP3   OH2 4789   2.439   5.900   2.195
 1615TIP3    H1 4790   2.348   5.905   2.224
 1615TIP3    H2 4791   2.457   5.986   2.157
 1616TIP3   OH2 4792   4.723   5.672   4.567
 1616TIP3    H1 4793   4.740   5.631   4.482
 1616TIP3    H2 4794   4.773   5.619   4.629
 1617TIP3   OH2 4795   7.267   6.877   3.623
 1617TIP3    H1 4796   7.225   6.899   3.540
 1617TIP3    H2 4797   7.357   6.905   3.613
 1618TIP3   OH2 4798   3.211   7.759   4.017
 1618TIP3    H1 4799   3.276   7.696   4.048
 1618TIP3    H2 4800   3.128   7.727   4.052
 1619TIP3   OH2 4801   0.651   4.755   2.861
 1619TIP3    H1 4802   0.559   4.728   2.865
 1619TIP3    H2 4803   0.688   4.703   2.789
 1620TIP3   OH2 4804   2.141   7.174   1.955
 1620TIP3    H1 4805   2.124   7.098   2.011
 1620TIP3    H2 4806   2.129   7.249   2.014
 1621TIP3   OH2 4807   5.184   2.585   3.602
 1621TIP3    H1 4808   5.227   2.551   3.680
 1621TIP3    H2 4809   5.102   2.535   3.596
 1622TIP3   OH2 4810   3.093   0.961   2.509
 1622TIP3    H1 4811   3.171   0.965   2.453
 1622TIP3    H2 4812   3.102   0.879   2.557
 1623TIP3   OH2 4813   0.991   4.881   2.276
 1623TIP3    H1 4814   1.038   4.854   2.355
 1623TIP3    H2 4815   1.040   4.957   2.244
 1624TIP3   OH2 4816   0.338   1.756   2.694
 1624TIP3    H1 4817   0.246   1.756   2.668
 1624TIP3    H2 4818   0.369   1.843   2.672
 1625TIP3   OH2 4819   8.300   3.655   3.030
 1625TIP3    H1 4820   8.331   3.720   2.966
 1625TIP3    H2 4821   8.211   3.634   3.003
 1626TIP3   OH2 4822   7.163   6.840   2.695
 1626TIP3    H1 4823   7.068   6.848   2.689
 1626TIP3    H2 4824   7.184   6.863   2.785
 1627TIP3   OH2 4825   0.821   6.859   1.660
 1627TIP3    H1 4826   0.893   6.823   1.609
 1627TIP3    H2 4827   0.752   6.793   1.655
 1628TIP3   OH2 4828   0.933   4.876   0.286
 1628TIP3    H1 4829   0.858   4.821   0.261
 1628TIP3    H2 4830   0.968   4.834   0.365
 1629TIP3   OH2 4831   8.121   6.022   5.592
 1629TIP3    H1 4832   8.039   5.974   5.584
 1629TIP3    H2 4833   8.184   5.970   5.542
 1630TIP3   OH2 4834   3.633   1.207   3.564
 1630TIP3    H1 4835   3.643   1.112   3.552
 1630TIP3    H2 4836   3.656   1.244   3.479
 1631TIP3   OH2 4837   2.397   5.156   2.670
 1631TIP3    H1 4838   2.482   5.189   2.699
 1631TIP3    H2 4839   2.349   5.139   2.751
 1632TIP3   OH2 4840   4.410   3.637   2.633
 1632TIP3    H1 4841   4.417   3.723   2.676
 1632TIP3    H2 4842   4.319   3.611   2.649
 1633TIP3   OH2 4843   7.020   4.114   0.940
 1633TIP3    H1 4844   6.968   4.034   0.952
 1633TIP3    H2 4845   6.954   4.183   0.932
 1634TIP3   OH2 4846   7.804   2.732   2.163
 1634TIP3    H1 4847   7.781   2.824   2.167
 1634TIP3    H2 4848   7.719   2.686   2.161
 1635TIP3   OH2 4849   4.657   3.789   0.361
 1635TIP3    H1 4850   4.684   3.718   0.303
 1635TIP3    H2 4851   4.649   3.865   0.304
 1636TIP3   OH2 4852   7.018   5.986   4.550
 1636TIP3    H1 4853   7.033   6.062   4.606
 1636TIP3    H2 4854   6.975   5.922   4.607
 1637TIP3   OH2 4855   4.416   0.164   0.713
 1637TIP3    H1 4856   4.488   0.226   0.698
 1637TIP3    H2 4857   4.358   0.176   0.638
 1638TIP3   OH2 4858   7.004   3.373   1.353
 1638TIP3    H1 4859   6.937   3.315   1.317
 1638TIP3    H2 4860   7.071   3.377   1.285
 1639TIP3   OH2 4861   4.542   4.317   1.714
 1639TIP3    H1 4862   4.498   4.367   1.645
 1639TIP3    H2 4863   4.508   4.228   1.704
 1640TIP3   OH2 4864   3.798   5.465   1.919
 1640TIP3    H1 4865   3.780   5.553   1.886
 1640TIP3    H2 4866   3.715   5.419   1.908
 1641TIP3   OH2 4867   4.827   4.803   2.092
 1641TIP3    H1 4868   4.896   4.865   2.113
 1641TIP3    H2 4869   4.764   4.812   2.163
 1642TIP3   OH2 4870   4.985   2.501   2.233
 1642TIP3    H1 4871   5.018   2.568   2.172
 1642TIP3    H2 4872   4.893   2.488   2.207
 1643TIP3   OH2 4873   2.458   5.772   0.059
 1643TIP3    H1 4874   2.507   5.693   0.083
 1643TIP3    H2 4875   2.518   5.821   0.003
 1644TIP3   OH2 4876   2.749   4.331   6.016
 1644TIP3    H1 4877   2.819   4.387   5.981
 1644TIP3    H2 4878   2.694   4.391   6.067
 1645TIP3   OH2 4879   8.085   1.134   5.200
 1645TIP3    H1 4880   8.062   1.140   5.108
 1645TIP3    H2 4881   8.040   1.056   5.231
 1646TIP3   OH2 4882   0.583   4.033   4.733
 1646TIP3    H1 4883   0.516   3.974   4.769
 1646TIP3    H2 4884   0.596   4.002   4.643
 1647TIP3   OH2 4885   3.339   1.531   5.445
 1647TIP3    H1 4886   3.252   1.527   5.404
 1647TIP3    H2 4887   3.322   1.516   5.538
 1648TIP3   OH2 4888   6.773   5.768   0.291
 1648TIP3    H1 4889   6.813   5.682   0.279
 1648TIP3    H2 4890   6.701   5.769   0.227
 1649TIP3   OH2 4891   8.010   2.144   3.059
 1649TIP3    H1 4892   7.981   2.221   3.108
 1649TIP3    H2 4893   7.976   2.069   3.108
 1650TIP3   OH2 4894   8.293   3.920   1.520
 1650TIP3    H1 4895   8.336   3.992   1.473
 1650TIP3    H2 4896   8.240   3.876   1.453
 1651TIP3   OH2 4897   0.503   6.429   5.742
 1651TIP3    H1 4898   0.408   6.432   5.751
 1651TIP3    H2 4899   0.520   6.342   5.706
 1652TIP3   OH2 4900   0.563   7.494   5.532
 1652TIP3    H1 4901   0.523   7.441   5.463
 1652TIP3    H2 4902   0.492   7.508   5.595
 1653TIP3   OH2 4903   1.449   4.579   6.345
 1653TIP3    H1 4904   1.531   4.629   6.347
 1653TIP3    H2 4905   1.476   4.489   6.330
 1654TIP3   OH2 4906   5.627   5.134   2.600
 1654TIP3    H1 4907   5.708   5.087   2.621
 1654TIP3    H2 4908   5.592   5.160   2.686
 1655TIP3   OH2 4909   4.769   4.258   2.323
 1655TIP3    H1 4910   4.829   4.284   2.393
 1655TIP3    H2 4911   4.763   4.336   2.267
 1656TIP3   OH2 4912   0.517   3.411   6.037
 1656TIP3    H1 4913   0.476   3.391   5.953
 1656TIP3    H2 4914   0.444   3.424   6.097
 1657TIP3   OH2 4915   2.909   6.074   1.679
 1657TIP3    H1 4916   2.872   6.075   1.768
 1657TIP3    H2 4917   2.919   5.981   1.658
 1658TIP3   OH2 4918   7.732   6.232   3.209
 1658TIP3    H1 4919   7.695   6.169   3.270
 1658TIP3    H2 4920   7.824   6.241   3.235
 1659TIP3   OH2 4921   6.174   7.827   3.717
 1659TIP3    H1 4922   6.185   7.788   3.804
 1659TIP3    H2 4923   6.103   7.890   3.728
 1660TIP3   OH2 4924   5.416   4.070   5.736
 1660TIP3    H1 4925   5.490   4.082   5.795
 1660TIP3    H2 4926   5.344   4.043   5.794
 1661TIP3   OH2 4927   1.178   1.651   3.091
 1661TIP3    H1 4928   1.187   1.559   3.065
 1661TIP3    H2 4929   1.230   1.659   3.171
 1662TIP3   OH2 4930   0.846   4.611   4.380
 1662TIP3    H1 4931   0.809   4.525   4.359
 1662TIP3    H2 4932   0.924   4.618   4.325
 1663TIP3   OH2 4933   3.474   5.527   1.429
 1663TIP3    H1 4934   3.511   5.496   1.512
 1663TIP3    H2 4935   3.379   5.524   1.443
 1664TIP3   OH2 4936   5.143   1.439   0.673
 1664TIP3    H1 4937   5.127   1.351   0.640
 1664TIP3    H2 4938   5.198   1.480   0.607
 1665TIP3   OH2 4939   6.973   0.982   4.319
 1665TIP3    H1 4940   6.883   1.013   4.321
 1665TIP3    H2 4941   6.966   0.888   4.334
 1666TIP3   OH2 4942   5.092   6.658   6.362
 1666TIP3    H1 4943   5.030   6.650   6.290
 1666TIP3    H2 4944   5.095   6.752   6.381
 1667TIP3   OH2 4945   0.490   2.983   6.515
 1667TIP3    H1 4946   0.529   2.908   6.561
 1667TIP3    H2 4947   0.562   3.045   6.505
 1668TIP3   OH2 4948   7.595   4.957   5.352
 1668TIP3    H1 4949   7.554   4.880   5.390
 1668TIP3    H2 4950   7.608   5.016   5.426
 1669TIP3   OH2 4951   6.019   2.873   6.138
 1669TIP3    H1 4952   5.982   2.840   6.220
 1669TIP3    H2 4953   6.070   2.800   6.103
 1670TIP3   OH2 4954   4.092   5.308   4.264
 1670TIP3    H1 4955   4.088   5.299   4.169
 1670TIP3    H2 4956   4.118   5.400   4.278
 1671TIP3   OH2 4957   7.641   4.867   1.947
 1671TIP3    H1 4958   7.598   4.841   1.865
 1671TIP3    H2 4959   7.727   4.824   1.943
 1672TIP3   OH2 4960   1.562   4.998   2.049
 1672TIP3    H1 4961   1.469   4.976   2.053
 1672TIP3    H2 4962   1.607   4.914   2.043
 1673TIP3   OH2 4963   1.263   1.839   1.931
 1673TIP3    H1 4964   1.326   1.834   2.002
 1673TIP3    H2 4965   1.280   1.761   1.878
 1674TIP3   OH2 4966   0.238   2.951   3.493
 1674TIP3    H1 4967   0.181   2.883   3.455
 1674TIP3    H2 4968   0.327   2.923   3.470
 1675TIP3   OH2 4969   7.833   7.167   4.077
 1675TIP3    H1 4970   7.821   7.181   4.171
 1675TIP3    H2 4971   7.888   7.239   4.048
 1676TIP3   OH2 4972   6.719   2.241   4.944
 1676TIP3    H1 4973   6.773   2.305   4.991
 1676TIP3    H2 4974   6.764   2.227   4.861
 1677TIP3   OH2 4975   5.358   3.184   1.022
 1677TIP3    H1 4976   5.269   3.202   1.052
 1677TIP3    H2 4977   5.412   3.253   1.063
 1678TIP3   OH2 4978   0.660   7.786   4.812
 1678TIP3    H1 4979   0.607   7.838   4.872
 1678TIP3    H2 4980   0.702   7.850   4.754
 1679TIP3   OH2 4981   3.662   2.021   3.646
 1679TIP3    H1 4982   3.709   2.089   3.598
 1679TIP3    H2 4983   3.572   2.029   3.618
 1680TIP3   OH2 4984   5.740   7.590   1.931
 1680TIP3    H1 4985   5.705   7.501   1.928
 1680TIP3    H2 4986   5.728   7.617   2.023
 1681TIP3   OH2 4987   6.832   6.301   4.835
 1681TIP3    H1 4988   6.862   6.385   4.799
 1681TIP3    H2 4989   6.762   6.326   4.896
 1682TIP3   OH2 4990   7.106   1.760   0.732
 1682TIP3    H1 4991   7.171   1.831   0.732
 1682TIP3    H2 4992   7.043   1.786   0.665
 1683TIP3   OH2 4993   7.509   6.335   3.080
 1683TIP3    H1 4994   7.447   6.269   3.111
 1683TIP3    H2 4995   7.593   6.310   3.120
 1684TIP3   OH2 4996   7.011   3.688   2.884
 1684TIP3    H1 4997   7.067   3.662   2.811
 1684TIP3    H2 4998   7.056   3.655   2.962
 1685TIP3   OH2 4999   2.441   0.911   2.107
 1685TIP3    H1 5000   2.496   0.926   2.184
 1685TIP3    H2 5001   2.440   0.996   2.062
 1686TIP3   OH2 5002   6.517   4.935   5.474
 1686TIP3    H1 5003   6.509   4.899   5.562
 1686TIP3    H2 5004   6.431   4.921   5.434
 1687TIP3   OH2 5005   3.515   6.184   4.891
 1687TIP3    H1 5006   3.505   6.256   4.954
 1687TIP3    H2 5007   3.523   6.106   4.946
 1688TIP3   OH2 5008   2.521   4.098   0.914
 1688TIP3    H1 5009   2.555   4.035   0.977
 1688TIP3    H2 5010   2.527   4.182   0.959
 1689TIP3   OH2 5011   8.233   7.604   6.619
 1689TIP3    H1 5012   8.143   7.588   6.592
 1689TIP3    H2 5013   8.227   7.619   6.714
 1690TIP3   OH2 5014   5.088   7.306   2.792
 1690TIP3    H1 5015   5.114   7.215   2.802
 1690TIP3    H2 5016   5.153   7.356   2.841
 1691TIP3   OH2 5017   6.393   2.866   0.924
 1691TIP3    H1 5018   6.475   2.851   0.972
 1691TIP3    H2 5019   6.350   2.937   0.971
 1692TIP3   OH2 5020   6.955   6.514   2.384
 1692TIP3    H1 5021   6.974   6.514   2.478
 1692TIP3    H2 5022   6.963   6.605   2.358
 1693TIP3   OH2 5023   6.245   1.681   2.117
 1693TIP3    H1 5024   6.199   1.680   2.201
 1693TIP3    H2 5025   6.204   1.752   2.068
 1694TIP3   OH2 5026   6.059   3.396   2.698
 1694TIP3    H1 5027   6.053   3.372   2.606
 1694TIP3    H2 5028   6.151   3.418   2.711
 1695TIP3   OH2 5029   7.154   6.535   2.132
 1695TIP3    H1 5030   7.109   6.511   2.213
 1695TIP3    H2 5031   7.166   6.629   2.139
 1696TIP3   OH2 5032   3.368   4.492   1.413
 1696TIP3    H1 5033   3.431   4.470   1.344
 1696TIP3    H2 5034   3.292   4.437   1.395
 1697TIP3   OH2 5035   2.720   2.206   1.174
 1697TIP3    H1 5036   2.634   2.220   1.214
 1697TIP3    H2 5037   2.715   2.252   1.090
 1698TIP3   OH2 5038   0.434   2.937   3.769
 1698TIP3    H1 5039   0.339   2.946   3.780
 1698TIP3    H2 5040   0.461   3.022   3.734
 1699TIP3   OH2 5041   3.361   6.139   4.078
 1699TIP3    H1 5042   3.284   6.161   4.131
 1699TIP3    H2 5043   3.325   6.119   3.991
 1700TIP3   OH2 5044   7.041   0.307   1.690
 1700TIP3    H1 5045   7.105   0.240   1.665
 1700TIP3    H2 5046   6.964   0.257   1.716
 1701TIP3   OH2 5047   8.119   0.652   2.802
 1701TIP3    H1 5048   8.197   0.604   2.830
 1701TIP3    H2 5049   8.114   0.727   2.861
 1702TIP3   OH2 5050   5.031   7.321   5.090
 1702TIP3    H1 5051   4.997   7.231   5.094
 1702TIP3    H2 5052   5.100   7.323   5.156
 1703TIP3   OH2 5053   6.437   3.179   6.543
 1703TIP3    H1 5054   6.515   3.214   6.500
 1703TIP3    H2 5055   6.425   3.092   6.505
 1704TIP3   OH2 5056   7.657   6.105   4.600
 1704TIP3    H1 5057   7.746   6.141   4.603
 1704TIP3    H2 5058   7.632   6.111   4.508
 1705TIP3   OH2 5059   6.939   7.595   0.507
 1705TIP3    H1 5060   7.018   7.584   0.454
 1705TIP3    H2 5061   6.869   7.562   0.452
 1706TIP3   OH2 5062   2.500   6.574   3.888
 1706TIP3    H1 5063   2.408   6.556   3.869
 1706TIP3    H2 5064   2.519   6.656   3.841
 1707TIP3   OH2 5065   4.690   1.906   3.832
 1707TIP3    H1 5066   4.606   1.952   3.825
 1707TIP3    H2 5067   4.741   1.938   3.757
 1708TIP3   OH2 5068   3.663   2.175   1.034
 1708TIP3    H1 5069   3.689   2.089   1.001
 1708TIP3    H2 5070   3.667   2.166   1.129
 1709TIP3   OH2 5071   1.721   4.399   0.354
 1709TIP3    H1 5072   1.806   4.360   0.372
 1709TIP3    H2 5073   1.705   4.380   0.262
 1710TIP3   OH2 5074   3.395   3.783   0.027
 1710TIP3    H1 5075   3.442   3.712  -0.016
 1710TIP3    H2 5076   3.305   3.750   0.036
 1711TIP3   OH2 5077   0.723   1.074   5.359
 1711TIP3    H1 5078   0.645   1.093   5.308
 1711TIP3    H2 5079   0.722   0.979   5.371
 1712TIP3   OH2 5080   1.626   3.307   3.592
 1712TIP3    H1 5081   1.604   3.306   3.685
 1712TIP3    H2 5082   1.721   3.290   3.590
 1713TIP3   OH2 5083   3.968   0.579   1.121
 1713TIP3    H1 5084   4.027   0.604   1.192
 1713TIP3    H2 5085   3.989   0.487   1.104
 1714TIP3   OH2 5086   6.792   0.207   6.525
 1714TIP3    H1 5087   6.856   0.264   6.568
 1714TIP3    H2 5088   6.753   0.262   6.457
 1715TIP3   OH2 5089   0.708   4.191   1.176
 1715TIP3    H1 5090   0.789   4.240   1.190
 1715TIP3    H2 5091   0.675   4.223   1.092
 1716TIP3   OH2 5092   7.429   2.878   3.617
 1716TIP3    H1 5093   7.410   2.899   3.708
 1716TIP3    H2 5094   7.519   2.907   3.604
 1717TIP3   OH2 5095   1.831   5.583   1.463
 1717TIP3    H1 5096   1.790   5.496   1.465
 1717TIP3    H2 5097   1.871   5.592   1.550
 1718TIP3   OH2 5098   1.444   5.502   1.709
 1718TIP3    H1 5099   1.503   5.577   1.703
 1718TIP3    H2 5100   1.496   5.433   1.751
 1719TIP3   OH2 5101   3.838   4.509   5.372
 1719TIP3    H1 5102   3.905   4.466   5.425
 1719TIP3    H2 5103   3.875   4.595   5.351
 1720TIP3   OH2 5104   1.109   3.656   5.289
 1720TIP3    H1 5105   1.118   3.708   5.369
 1720TIP3    H2 5106   1.178   3.590   5.294
 1721TIP3   OH2 5107   3.999   0.036   6.716
 1721TIP3    H1 5108   4.068   0.007   6.657
 1721TIP3    H2 5109   3.938  -0.038   6.719
 1722TIP3   OH2 5110   0.858   4.880   6.137
 1722TIP3    H1 5111   0.778   4.857   6.186
 1722TIP3    H2 5112   0.860   4.976   6.140
 1723TIP3   OH2 5113   1.406   3.146   4.554
 1723TIP3    H1 5114   1.425   3.094   4.632
 1723TIP3    H2 5115   1.492   3.172   4.521
 1724TIP3   OH2 5116   6.589   7.463   3.544
 1724TIP3    H1 5117   6.680   7.443   3.521
 1724TIP3    H2 5118   6.594   7.545   3.592
 1725TIP3   OH2 5119   1.679   4.845   2.875
 1725TIP3    H1 5120   1.671   4.810   2.964
 1725TIP3    H2 5121   1.679   4.768   2.819
 1726TIP3   OH2 5122   1.503   4.774   3.414
 1726TIP3    H1 5123   1.492   4.685   3.447
 1726TIP3    H2 5124   1.555   4.818   3.481
 1727TIP3   OH2 5125   5.468   3.147   2.837
 1727TIP3    H1 5126   5.441   3.230   2.877
 1727TIP3    H2 5127   5.470   3.086   2.910
 1728TIP3   OH2 5128   1.242   4.208   0.893
 1728TIP3    H1 5129   1.148   4.228   0.892
 1728TIP3    H2 5130   1.284   4.293   0.901
 1729TIP3   OH2 5131   1.744   0.445   0.224
 1729TIP3    H1 5132   1.785   0.490   0.151
 1729TIP3    H2 5133   1.814   0.434   0.288
 1730TIP3   OH2 5134   1.636   7.122   4.234
 1730TIP3    H1 5135   1.723   7.146   4.264
 1730TIP3    H2 5136   1.627   7.030   4.258
 1731TIP3   OH2 5137   5.508   5.534   4.937
 1731TIP3    H1 5138   5.479   5.530   5.028
 1731TIP3    H2 5139   5.570   5.607   4.935
 1732TIP3   OH2 5140   0.523   3.474   2.103
 1732TIP3    H1 5141   0.581   3.412   2.148
 1732TIP3    H2 5142   0.470   3.419   2.045
 1733TIP3   OH2 5143   2.498   4.631   2.503
 1733TIP3    H1 5144   2.501   4.706   2.563
 1733TIP3    H2 5145   2.408   4.630   2.471
 1734TIP3   OH2 5146   3.769   3.197   5.069
 1734TIP3    H1 5147   3.826   3.266   5.103
 1734TIP3    H2 5148   3.685   3.211   5.113
 1735TIP3   OH2 5149   7.403   2.948   3.919
 1735TIP3    H1 5150   7.495   2.959   3.942
 1735TIP3    H2 5151   7.355   3.006   3.979
 1736TIP3   OH2 5152   4.839   3.988   6.736
 1736TIP3    H1 5153   4.835   3.897   6.765
 1736TIP3    H2 5154   4.923   3.995   6.691
 1737TIP3   OH2 5155   5.614   3.899   4.336
 1737TIP3    H1 5156   5.554   3.827   4.320
 1737TIP3    H2 5157   5.578   3.944   4.413
 1738TIP3   OH2 5158   0.391   2.879   6.290
 1738TIP3    H1 5159   0.300   2.864   6.317
 1738TIP3    H2 5160   0.430   2.927   6.363
 1739TIP3   OH2 5161   5.054   7.505   5.438
 1739TIP3    H1 5162   5.142   7.475   5.461
 1739TIP3    H2 5163   5.012   7.429   5.398
 1740TIP3   OH2 5164   2.356   3.979   2.378
 1740TIP3    H1 5165   2.277   4.031   2.367
 1740TIP3    H2 5166   2.324   3.892   2.403
 1741TIP3   OH2 5167   0.099   4.614   1.852
 1741TIP3    H1 5168   0.050   4.532   1.854
 1741TIP3    H2 5169   0.033   4.682   1.841
 1742TIP3   OH2 5170   1.164   2.058   2.884
 1742TIP3    H1 5171   1.083   2.078   2.838
 1742TIP3    H2 5172   1.139   2.000   2.956
 1743TIP3   OH2 5173   5.661   7.072   5.273
 1743TIP3    H1 5174   5.656   7.044   5.182
 1743TIP3    H2 5175   5.674   6.990   5.322
 1744TIP3   OH2 5176   7.506   4.258   1.653
 1744TIP3    H1 5177   7.574   4.192   1.636
 1744TIP3    H2 5178   7.441   4.244   1.585
 1745TIP3   OH2 5179   3.156   0.238   4.851
 1745TIP3    H1 5180   3.223   0.201   4.909
 1745TIP3    H2 5181   3.075   0.234   4.901
 1746TIP3   OH2 5182   1.061   0.894   6.467
 1746TIP3    H1 5183   0.999   0.945   6.519
 1746TIP3    H2 5184   1.146   0.913   6.505
 1747TIP3   OH2 5185   3.419   1.924   2.556
 1747TIP3    H1 5186   3.394   1.895   2.469
 1747TIP3    H2 5187   3.464   2.007   2.542
 1748TIP3   OH2 5188   2.752   7.189   3.417
 1748TIP3    H1 5189   2.706   7.235   3.347
 1748TIP3    H2 5190   2.827   7.245   3.437
 1749TIP3   OH2 5191   4.223   1.362   3.927
 1749TIP3    H1 5192   4.238   1.427   3.859
 1749TIP3    H2 5193   4.310   1.327   3.945
 1750TIP3   OH2 5194   2.711   5.574   5.934
 1750TIP3    H1 5195   2.666   5.644   5.887
 1750TIP3    H2 5196   2.785   5.617   5.977
 1751TIP3   OH2 5197   5.671   2.931   2.787
 1751TIP3    H1 5198   5.753   2.979   2.800
 1751TIP3    H2 5199   5.603   2.993   2.814
 1752TIP3   OH2 5200   2.131   1.414   1.313
 1752TIP3    H1 5201   2.098   1.325   1.324
 1752TIP3    H2 5202   2.216   1.413   1.357
 1753TIP3   OH2 5203   1.620   0.130   3.166
 1753TIP3    H1 5204   1.638   0.199   3.102
 1753TIP3    H2 5205   1.605   0.177   3.248
 1754TIP3   OH2 5206   7.064   6.950   1.128
 1754TIP3    H1 5207   7.078   6.919   1.038
 1754TIP3    H2 5208   7.139   6.917   1.177
 1755TIP3   OH2 5209   3.138   1.082   6.072
 1755TIP3    H1 5210   3.043   1.069   6.070
 1755TIP3    H2 5211   3.164   1.078   5.979
 1756TIP3   OH2 5212   5.141   3.844   2.830
 1756TIP3    H1 5213   5.060   3.871   2.874
 1756TIP3    H2 5214   5.124   3.754   2.803
 1757TIP3   OH2 5215   4.651   6.790   4.918
 1757TIP3    H1 5216   4.607   6.852   4.860
 1757TIP3    H2 5217   4.643   6.830   5.005
 1758TIP3   OH2 5218   7.746   4.120   0.154
 1758TIP3    H1 5219   7.770   4.167   0.074
 1758TIP3    H2 5220   7.730   4.190   0.218
 1759TIP3   OH2 5221   4.022   0.845   6.048
 1759TIP3    H1 5222   4.096   0.807   6.095
 1759TIP3    H2 5223   4.037   0.939   6.051
 1760TIP3   OH2 5224   7.637   6.781   3.890
 1760TIP3    H1 5225   7.657   6.716   3.957
 1760TIP3    H2 5226   7.553   6.752   3.854
 1761TIP3   OH2 5227   3.526   3.775   0.679
 1761TIP3    H1 5228   3.573   3.752   0.759
 1761TIP3    H2 5229   3.484   3.859   0.700
 1762TIP3   OH2 5230   5.913   7.254   5.446
 1762TIP3    H1 5231   5.821   7.252   5.418
 1762TIP3    H2 5232   5.958   7.305   5.379
 1763TIP3   OH2 5233   5.710   0.121   3.665
 1763TIP3    H1 5234   5.651   0.046   3.677
 1763TIP3    H2 5235   5.798   0.082   3.665
 1764TIP3   OH2 5236   1.792   6.951   6.715
 1764TIP3    H1 5237   1.844   6.897   6.775
 1764TIP3    H2 5238   1.796   6.904   6.632
 1765TIP3   OH2 5239   0.484   4.137   4.262
 1765TIP3    H1 5240   0.451   4.121   4.174
 1765TIP3    H2 5241   0.408   4.126   4.318
 1766TIP3   OH2 5242   5.966   2.428   5.268
 1766TIP3    H1 5243   6.006   2.515   5.265
 1766TIP3    H2 5244   5.876   2.443   5.238
 1767TIP3   OH2 5245   6.730   5.192   3.240
 1767TIP3    H1 5246   6.639   5.204   3.266
 1767TIP3    H2 5247   6.760   5.279   3.215
 1768TIP3   OH2 5248   1.213   7.574   1.526
 1768TIP3    H1 5249   1.185   7.660   1.557
 1768TIP3    H2 5250   1.265   7.593   1.447
 1769TIP3   OH2 5251   5.006   3.933   0.281
 1769TIP3    H1 5252   4.918   3.897   0.269
 1769TIP3    H2 5253   4.991   4.022   0.313
 1770TIP3   OH2 5254   8.280   3.901   0.294
 1770TIP3    H1 5255   8.334   3.959   0.240
 1770TIP3    H2 5256   8.212   3.870   0.234
 1771TIP3   OH2 5257   6.760   3.673   1.879
 1771TIP3    H1 5258   6.686   3.640   1.930
 1771TIP3    H2 5259   6.757   3.624   1.797
 1772TIP3   OH2 5260   1.720   4.451   1.554
 1772TIP3    H1 5261   1.751   4.525   1.607
 1772TIP3    H2 5262   1.682   4.493   1.477
 1773TIP3   OH2 5263   7.713   4.416   6.162
 1773TIP3    H1 5264   7.742   4.389   6.249
 1773TIP3    H2 5265   7.633   4.466   6.178
 1774TIP3   OH2 5266   0.236   6.753   0.240
 1774TIP3    H1 5267   0.301   6.762   0.310
 1774TIP3    H2 5268   0.170   6.694   0.276
 1775TIP3   OH2 5269   8.020   7.018   1.730
 1775TIP3    H1 5270   8.098   7.065   1.762
 1775TIP3    H2 5271   8.052   6.961   1.661
 1776TIP3   OH2 5272   6.745   5.175   0.702
 1776TIP3    H1 5273   6.741   5.263   0.665
 1776TIP3    H2 5274   6.726   5.187   0.795
 1777TIP3   OH2 5275   4.705   1.790   1.123
 1777TIP3    H1 5276   4.800   1.798   1.121
 1777TIP3    H2 5277   4.678   1.841   1.199
 1778TIP3   OH2 5278   7.570   2.022   0.376
 1778TIP3    H1 5279   7.616   1.980   0.449
 1778TIP3    H2 5280   7.625   2.003   0.300
 1779TIP3   OH2 5281   6.172   5.064   3.996
 1779TIP3    H1 5282   6.169   4.989   3.937
 1779TIP3    H2 5283   6.086   5.107   3.985
 1780TIP3   OH2 5284   7.893   7.519   4.654
 1780TIP3    H1 5285   7.814   7.466   4.669
 1780TIP3    H2 5286   7.930   7.485   4.573
 1781TIP3   OH2 5287   3.454   4.757   1.761
 1781TIP3    H1 5288   3.509   4.728   1.689
 1781TIP3    H2 5289   3.468   4.692   1.830
 1782TIP3   OH2 5290   3.222   5.848   1.072
 1782TIP3    H1 5291   3.172   5.884   0.999
 1782TIP3    H2 5292   3.313   5.856   1.046
 1783TIP3   OH2 5293   4.086   5.524   4.586
 1783TIP3    H1 5294   4.075   5.567   4.501
 1783TIP3    H2 5295   3.997   5.515   4.620
 1784TIP3   OH2 5296   3.211   4.718   3.276
 1784TIP3    H1 5297   3.143   4.665   3.233
 1784TIP3    H2 5298   3.222   4.677   3.362
 1785TIP3   OH2 5299   7.736   7.183   5.580
 1785TIP3    H1 5300   7.755   7.174   5.487
 1785TIP3    H2 5301   7.821   7.167   5.623
 1786TIP3   OH2 5302   0.250   2.444   0.668
 1786TIP3    H1 5303   0.305   2.396   0.605
 1786TIP3    H2 5304   0.198   2.504   0.614
 1787TIP3   OH2 5305   6.284   4.419   3.855
 1787TIP3    H1 5306   6.291   4.356   3.784
 1787TIP3    H2 5307   6.252   4.369   3.930
 1788TIP3   OH2 5308   6.545   5.133   4.610
 1788TIP3    H1 5309   6.540   5.228   4.595
 1788TIP3    H2 5310   6.505   5.121   4.696
 1789TIP3   OH2 5311   6.328   3.168   3.650
 1789TIP3    H1 5312   6.271   3.244   3.637
 1789TIP3    H2 5313   6.416   3.200   3.628
 1790TIP3   OH2 5314   6.217   2.857   1.681
 1790TIP3    H1 5315   6.178   2.922   1.622
 1790TIP3    H2 5316   6.163   2.779   1.670
 1791TIP3   OH2 5317   4.854   6.148   2.647
 1791TIP3    H1 5318   4.880   6.084   2.714
 1791TIP3    H2 5319   4.892   6.115   2.566
 1792TIP3   OH2 5320   3.219   4.194   6.546
 1792TIP3    H1 5321   3.227   4.185   6.451
 1792TIP3    H2 5322   3.156   4.265   6.558
 1793TIP3   OH2 5323   5.994   4.703   6.513
 1793TIP3    H1 5324   5.912   4.685   6.467
 1793TIP3    H2 5325   6.053   4.738   6.446
 1794TIP3   OH2 5326   7.656   5.175   1.765
 1794TIP3    H1 5327   7.668   5.267   1.743
 1794TIP3    H2 5328   7.663   5.172   1.861
 1795TIP3   OH2 5329   7.795   4.797   1.176
 1795TIP3    H1 5330   7.729   4.731   1.152
 1795TIP3    H2 5331   7.871   4.775   1.122
 1796TIP3   OH2 5332   6.428   6.003   5.291
 1796TIP3    H1 5333   6.374   6.035   5.218
 1796TIP3    H2 5334   6.507   6.056   5.288
 1797TIP3   OH2 5335   3.490   0.766   1.417
 1797TIP3    H1 5336   3.494   0.854   1.380
 1797TIP3    H2 5337   3.399   0.739   1.403
 1798TIP3   OH2 5338   2.730   2.385   2.552
 1798TIP3    H1 5339   2.694   2.360   2.637
 1798TIP3    H2 5340   2.778   2.307   2.522
 1799TIP3   OH2 5341   3.605   7.166   4.267
 1799TIP3    H1 5342   3.634   7.128   4.349
 1799TIP3    H2 5343   3.681   7.161   4.209
 1800TIP3   OH2 5344   2.418   7.340   3.072
 1800TIP3    H1 5345   2.399   7.312   2.983
 1800TIP3    H2 5346   2.333   7.339   3.116
 1801TIP3   OH2 5347   7.618   5.172   0.321
 1801TIP3    H1 5348   7.701   5.166   0.368
 1801TIP3    H2 5349   7.628   5.250   0.266
 1802TIP3   OH2 5350   1.821   7.511   1.256
 1802TIP3    H1 5351   1.828   7.507   1.160
 1802TIP3    H2 5352   1.735   7.549   1.272
 1803TIP3   OH2 5353   3.097   0.695   6.650
 1803TIP3    H1 5354   3.039   0.652   6.588
 1803TIP3    H2 5355   3.077   0.655   6.734
 1804TIP3   OH2 5356   0.411   1.073   6.078
 1804TIP3    H1 5357   0.347   1.144   6.076
 1804TIP3    H2 5358   0.474   1.095   6.010
 1805TIP3   OH2 5359   4.667   0.626   3.036
 1805TIP3    H1 5360   4.579   0.605   3.068
 1805TIP3    H2 5361   4.654   0.703   2.980
 1806TIP3   OH2 5362   7.363   1.285   4.841
 1806TIP3    H1 5363   7.287   1.234   4.813
 1806TIP3    H2 5364   7.438   1.230   4.818
 1807TIP3   OH2 5365   5.599   2.893   5.735
 1807TIP3    H1 5366   5.671   2.886   5.798
 1807TIP3    H2 5367   5.642   2.920   5.654
 1808TIP3   OH2 5368   7.893   4.907   5.252
 1808TIP3    H1 5369   7.907   4.902   5.157
 1808TIP3    H2 5370   7.798   4.909   5.262
 1809TIP3   OH2 5371   7.531   1.032   4.618
 1809TIP3    H1 5372   7.495   0.964   4.675
 1809TIP3    H2 5373   7.484   1.020   4.535
 1810TIP3   OH2 5374   4.302   7.547   1.263
 1810TIP3    H1 5375   4.238   7.609   1.299
 1810TIP3    H2 5376   4.295   7.558   1.168
 1811TIP3   OH2 5377   2.633   3.143   5.553
 1811TIP3    H1 5378   2.606   3.122   5.643
 1811TIP3    H2 5379   2.620   3.237   5.545
 1812TIP3   OH2 5380   2.982   1.196   4.721
 1812TIP3    H1 5381   2.917   1.191   4.792
 1812TIP3    H2 5382   2.969   1.283   4.683
 1813TIP3   OH2 5383   0.803   0.447   5.311
 1813TIP3    H1 5384   0.766   0.519   5.260
 1813TIP3    H2 5385   0.743   0.437   5.385
 1814TIP3   OH2 5386   4.230   3.727   5.077
 1814TIP3    H1 5387   4.249   3.745   5.169
 1814TIP3    H2 5388   4.135   3.733   5.071
 1815TIP3   OH2 5389   5.519   7.112   6.234
 1815TIP3    H1 5390   5.614   7.109   6.244
 1815TIP3    H2 5391   5.501   7.200   6.200
 1816TIP3   OH2 5392   0.980   4.597   1.739
 1816TIP3    H1 5393   0.966   4.503   1.729
 1816TIP3    H2 5394   1.023   4.624   1.658
 1817TIP3   OH2 5395   8.002   6.202   3.247
 1817TIP3    H1 5396   8.032   6.283   3.289
 1817TIP3    H2 5397   8.059   6.134   3.283
 1818TIP3   OH2 5398   7.507   7.112   5.230
 1818TIP3    H1 5399   7.435   7.175   5.226
 1818TIP3    H2 5400   7.474   7.035   5.182
 1819TIP3   OH2 5401   8.059   6.190   4.419
 1819TIP3    H1 5402   8.122   6.130   4.458
 1819TIP3    H2 5403   8.100   6.217   4.337
 1820TIP3   OH2 5404   0.645   4.584   3.077
 1820TIP3    H1 5405   0.680   4.626   2.998
 1820TIP3    H2 5406   0.683   4.496   3.076
 1821TIP3   OH2 5407   8.275   3.919   4.509
 1821TIP3    H1 5408   8.212   3.929   4.579
 1821TIP3    H2 5409   8.249   3.838   4.465
 1822TIP3   OH2 5410   0.878   0.353   6.175
 1822TIP3    H1 5411   0.958   0.389   6.137
 1822TIP3    H2 5412   0.817   0.427   6.176
 1823TIP3   OH2 5413   1.995   6.133   5.225
 1823TIP3    H1 5414   2.078   6.175   5.247
 1823TIP3    H2 5415   1.983   6.067   5.293
 1824TIP3   OH2 5416   6.945   5.271   2.113
 1824TIP3    H1 5417   6.957   5.360   2.144
 1824TIP3    H2 5418   6.947   5.278   2.018
 1825TIP3   OH2 5419   7.325   7.686   4.583
 1825TIP3    H1 5420   7.319   7.591   4.584
 1825TIP3    H2 5421   7.416   7.705   4.603
 1826TIP3   OH2 5422   2.629   0.883   0.799
 1826TIP3    H1 5423   2.716   0.857   0.770
 1826TIP3    H2 5424   2.572   0.866   0.724
 1827TIP3   OH2 5425   2.130   2.034   0.772
 1827TIP3    H1 5426   2.188   2.012   0.699
 1827TIP3    H2 5427   2.092   1.951   0.799
 1828TIP3   OH2 5428   6.418   5.640   3.423
 1828TIP3    H1 5429   6.387   5.615   3.511
 1828TIP3    H2 5430   6.340   5.677   3.381
 1829TIP3   OH2 5431   5.426   4.671   2.573
 1829TIP3    H1 5432   5.511   4.670   2.617
 1829TIP3    H2 5433   5.386   4.754   2.599
 1830TIP3   OH2 5434   0.542   1.529   5.418
 1830TIP3    H1 5435   0.559   1.511   5.511
 1830TIP3    H2 5436   0.448   1.548   5.415
 1831TIP3   OH2 5437   0.971   0.371   4.736
 1831TIP3    H1 5438   1.001   0.355   4.646
 1831TIP3    H2 5439   1.039   0.426   4.774
 1832TIP3   OH2 5440   3.380   7.054   1.008
 1832TIP3    H1 5441   3.442   6.992   0.970
 1832TIP3    H2 5442   3.435   7.115   1.058
 1833TIP3   OH2 5443   8.124   2.388   2.132
 1833TIP3    H1 5444   8.217   2.404   2.117
 1833TIP3    H2 5445   8.085   2.475   2.136
 1834TIP3   OH2 5446   1.364   1.434   3.540
 1834TIP3    H1 5447   1.407   1.483   3.610
 1834TIP3    H2 5448   1.279   1.410   3.576
 1835TIP3   OH2 5449   7.615   2.348   0.375
 1835TIP3    H1 5450   7.527   2.312   0.375
 1835TIP3    H2 5451   7.644   2.343   0.466
 1836TIP3   OH2 5452   7.355   4.361   2.620
 1836TIP3    H1 5453   7.359   4.420   2.696
 1836TIP3    H2 5454   7.295   4.291   2.648
 1837TIP3   OH2 5455   8.022   6.315   5.932
 1837TIP3    H1 5456   8.071   6.389   5.895
 1837TIP3    H2 5457   8.072   6.289   6.009
 1838TIP3   OH2 5458   4.880   4.059   4.754
 1838TIP3    H1 5459   4.953   4.042   4.814
 1838TIP3    H2 5460   4.870   3.977   4.704
 1839TIP3   OH2 5461   5.038   6.606   6.616
 1839TIP3    H1 5462   5.116   6.562   6.650
 1839TIP3    H2 5463   5.046   6.600   6.521
 1840TIP3   OH2 5464   3.252   6.556   2.657
 1840TIP3    H1 5465   3.189   6.581   2.589
 1840TIP3    H2 5466   3.199   6.517   2.726
 1841TIP3   OH2 5467   0.292   3.615   1.188
 1841TIP3    H1 5468   0.236   3.643   1.261
 1841TIP3    H2 5469   0.355   3.685   1.178
 1842TIP3   OH2 5470   0.476   3.621   4.104
 1842TIP3    H1 5471   0.542   3.616   4.173
 1842TIP3    H2 5472   0.519   3.670   4.033
 1843TIP3   OH2 5473   5.665   3.510   3.044
 1843TIP3    H1 5474   5.675   3.446   3.114
 1843TIP3    H2 5475   5.745   3.501   2.992
 1844TIP3   OH2 5476   6.078   4.148   3.255
 1844TIP3    H1 5477   6.164   4.188   3.270
 1844TIP3    H2 5478   6.092   4.087   3.182
 1845TIP3   OH2 5479   2.571   0.397   2.047
 1845TIP3    H1 5480   2.597   0.379   2.138
 1845TIP3    H2 5481   2.571   0.492   2.040
 1846TIP3   OH2 5482   7.685   3.187   4.099
 1846TIP3    H1 5483   7.623   3.178   4.171
 1846TIP3    H2 5484   7.679   3.104   4.052
 1847TIP3   OH2 5485   3.902   3.390   3.001
 1847TIP3    H1 5486   3.842   3.417   2.931
 1847TIP3    H2 5487   3.854   3.410   3.082
 1848TIP3   OH2 5488   4.351   3.462   5.099
 1848TIP3    H1 5489   4.443   3.458   5.073
 1848TIP3    H2 5490   4.337   3.553   5.124
 1849TIP3   OH2 5491   4.956   0.904   5.655
 1849TIP3    H1 5492   4.914   0.989   5.645
 1849TIP3    H2 5493   5.024   0.918   5.722
 1850TIP3   OH2 5494   7.622   1.606   4.383
 1850TIP3    H1 5495   7.700   1.632   4.335
 1850TIP3    H2 5496   7.565   1.683   4.379
 1851TIP3   OH2 5497   1.326   4.486   3.531
 1851TIP3    H1 5498   1.248   4.493   3.475
 1851TIP3    H2 5499   1.323   4.396   3.564
 1852TIP3   OH2 5500   4.499   5.442   1.486
 1852TIP3    H1 5501   4.561   5.487   1.543
 1852TIP3    H2 5502   4.553   5.409   1.414
 1853TIP3   OH2 5503   6.231   5.511   2.326
 1853TIP3    H1 5504   6.272   5.426   2.314
 1853TIP3    H2 5505   6.168   5.519   2.254
 1854TIP3   OH2 5506   0.068   4.518   2.284
 1854TIP3    H1 5507   0.106   4.594   2.238
 1854TIP3    H2 5508   0.031   4.555   2.364
 1855TIP3   OH2 5509   5.904   5.595   5.574
 1855TIP3    H1 5510   5.992   5.599   5.538
 1855TIP3    H2 5511   5.881   5.502   5.571
 1856TIP3   OH2 5512   7.753   4.489   2.376
 1856TIP3    H1 5513   7.843   4.517   2.362
 1856TIP3    H2 5514   7.726   4.535   2.456
 1857TIP3   OH2 5515   2.567   1.942   0.481
 1857TIP3    H1 5516   2.617   1.967   0.403
 1857TIP3    H2 5517   2.633   1.936   0.550
 1858TIP3   OH2 5518   1.911   0.011   0.397
 1858TIP3    H1 5519   1.890   0.038   0.307
 1858TIP3    H2 5520   1.992   0.058   0.418
 1859TIP3   OH2 5521   2.660   1.648   5.461
 1859TIP3    H1 5522   2.636   1.739   5.446
 1859TIP3    H2 5523   2.610   1.623   5.539
 1860TIP3   OH2 5524   2.137   2.855   0.411
 1860TIP3    H1 5525   2.223   2.817   0.395
 1860TIP3    H2 5526   2.155   2.944   0.440
 1861TIP3   OH2 5527   4.335   3.351   6.142
 1861TIP3    H1 5528   4.307   3.261   6.155
 1861TIP3    H2 5529   4.380   3.374   6.224
 1862TIP3   OH2 5530   1.994   6.071   4.690
 1862TIP3    H1 5531   2.035   5.991   4.658
 1862TIP3    H2 5532   1.900   6.055   4.679
 1863TIP3   OH2 5533   8.211   4.954   1.576
 1863TIP3    H1 5534   8.210   4.878   1.518
 1863TIP3    H2 5535   8.137   5.007   1.547
 1864TIP3   OH2 5536   6.296   5.608   3.685
 1864TIP3    H1 5537   6.304   5.515   3.666
 1864TIP3    H2 5538   6.364   5.625   3.750
 1865TIP3   OH2 5539   1.991   6.931   1.793
 1865TIP3    H1 5540   1.905   6.907   1.759
 1865TIP3    H2 5541   1.975   6.955   1.884
 1866TIP3   OH2 5542   2.144   4.902   1.207
 1866TIP3    H1 5543   2.054   4.913   1.177
 1866TIP3    H2 5544   2.136   4.853   1.289
 1867TIP3   OH2 5545   5.976   0.500   4.218
 1867TIP3    H1 5546   6.056   0.547   4.194
 1867TIP3    H2 5547   5.970   0.510   4.313
 1868TIP3   OH2 5548   0.397   5.578   3.391
 1868TIP3    H1 5549   0.426   5.668   3.401
 1868TIP3    H2 5550   0.475   5.525   3.408
 1869TIP3   OH2 5551   7.140   3.314   6.589
 1869TIP3    H1 5552   7.061   3.286   6.543
 1869TIP3    H2 5553   7.162   3.398   6.548
 1870TIP3   OH2 5554   7.596   1.938   3.863
 1870TIP3    H1 5555   7.554   1.910   3.782
 1870TIP3    H2 5556   7.687   1.909   3.854
 1871TIP3   OH2 5557   5.590   5.906   0.431
 1871TIP3    H1 5558   5.680   5.874   0.439
 1871TIP3    H2 5559   5.563   5.925   0.521
 1872TIP3   OH2 5560   7.892   6.273   1.953
 1872TIP3    H1 5561   7.839   6.205   1.996
 1872TIP3    H2 5562   7.926   6.231   1.874
 1873TIP3   OH2 5563   5.421   1.070   6.345
 1873TIP3    H1 5564   5.337   1.060   6.300
 1873TIP3    H2 5565   5.398   1.076   6.438
 1874TIP3   OH2 5566   4.652   1.608   0.106
 1874TIP3    H1 5567   4.747   1.598   0.105
 1874TIP3    H2 5568   4.623   1.557   0.181
 1875TIP3   OH2 5569   2.771   0.629   4.686
 1875TIP3    H1 5570   2.748   0.588   4.769
 1875TIP3    H2 5571   2.720   0.710   4.685
 1876TIP3   OH2 5572   7.350   3.573   6.606
 1876TIP3    H1 5573   7.256   3.574   6.585
 1876TIP3    H2 5574   7.357   3.632   6.681
 1877TIP3   OH2 5575   1.009   0.776   2.057
 1877TIP3    H1 5576   0.916   0.783   2.037
 1877TIP3    H2 5577   1.052   0.773   1.972
 1878TIP3   OH2 5578   4.910   7.668   1.089
 1878TIP3    H1 5579   4.845   7.605   1.121
 1878TIP3    H2 5580   4.874   7.699   1.006
 1879TIP3   OH2 5581   5.077   4.322   5.073
 1879TIP3    H1 5582   5.105   4.348   5.161
 1879TIP3    H2 5583   5.159   4.306   5.025
 1880TIP3   OH2 5584   4.310   7.059   6.579
 1880TIP3    H1 5585   4.346   6.991   6.522
 1880TIP3    H2 5586   4.372   7.063   6.652
 1881TIP3   OH2 5587   4.822   5.812   1.123
 1881TIP3    H1 5588   4.847   5.905   1.121
 1881TIP3    H2 5589   4.742   5.807   1.071
 1882TIP3   OH2 5590   3.198   0.688   5.629
 1882TIP3    H1 5591   3.227   0.659   5.542
 1882TIP3    H2 5592   3.103   0.692   5.623
 1883TIP3   OH2 5593   4.583   1.189   1.699
 1883TIP3    H1 5594   4.630   1.107   1.714
 1883TIP3    H2 5595   4.492   1.162   1.688
 1884TIP3   OH2 5596   5.591   0.272   3.069
 1884TIP3    H1 5597   5.665   0.323   3.034
 1884TIP3    H2 5598   5.594   0.189   3.022
 1885TIP3   OH2 5599   6.148   3.196   0.168
 1885TIP3    H1 5600   6.149   3.291   0.152
 1885TIP3    H2 5601   6.134   3.157   0.082
 1886TIP3   OH2 5602   5.970   0.873   4.944
 1886TIP3    H1 5603   5.925   0.911   4.868
 1886TIP3    H2 5604   6.024   0.944   4.978
 1887TIP3   OH2 5605   1.291   2.843   4.019
 1887TIP3    H1 5606   1.277   2.935   3.998
 1887TIP3    H2 5607   1.295   2.799   3.934
 1888TIP3   OH2 5608   7.090   0.669   2.720
 1888TIP3    H1 5609   7.000   0.660   2.690
 1888TIP3    H2 5610   7.082   0.712   2.805
 1889TIP3   OH2 5611   4.027   6.798   5.178
 1889TIP3    H1 5612   4.077   6.732   5.225
 1889TIP3    H2 5613   4.052   6.786   5.086
 1890TIP3   OH2 5614   2.874   4.626   6.193
 1890TIP3    H1 5615   2.920   4.610   6.275
 1890TIP3    H2 5616   2.915   4.705   6.157
 1891TIP3   OH2 5617   3.194   4.995   2.603
 1891TIP3    H1 5618   3.193   5.028   2.693
 1891TIP3    H2 5619   3.219   5.070   2.550
 1892TIP3   OH2 5620   3.484   0.862   6.707
 1892TIP3    H1 5621   3.571   0.831   6.681
 1892TIP3    H2 5622   3.461   0.810   6.783
 1893TIP3   OH2 5623   3.656   2.391   0.884
 1893TIP3    H1 5624   3.564   2.391   0.859
 1893TIP3    H2 5625   3.671   2.303   0.919
 1894TIP3   OH2 5626   6.950   2.074   1.170
 1894TIP3    H1 5627   7.043   2.073   1.194
 1894TIP3    H2 5628   6.906   2.104   1.249
 1895TIP3   OH2 5629   0.270   2.383   4.362
 1895TIP3    H1 5630   0.362   2.359   4.363
 1895TIP3    H2 5631   0.226   2.314   4.412
 1896TIP3   OH2 5632   2.227   1.767   0.041
 1896TIP3    H1 5633   2.244   1.796  -0.048
 1896TIP3    H2 5634   2.200   1.675   0.032
 1897TIP3   OH2 5635   3.344   7.400   0.499
 1897TIP3    H1 5636   3.405   7.401   0.572
 1897TIP3    H2 5637   3.391   7.442   0.427
 1898TIP3   OH2 5638   3.720   4.794   1.956
 1898TIP3    H1 5639   3.644   4.785   2.014
 1898TIP3    H2 5640   3.711   4.882   1.919
 1899TIP3   OH2 5641   8.222   4.108   1.965
 1899TIP3    H1 5642   8.265   4.064   2.038
 1899TIP3    H2 5643   8.147   4.152   2.005
 1900TIP3   OH2 5644   7.870   3.090   1.275
 1900TIP3    H1 5645   7.926   3.167   1.263
 1900TIP3    H2 5646   7.918   3.019   1.232
 1901TIP3   OH2 5647   2.210   5.192   6.067
 1901TIP3    H1 5648   2.161   5.271   6.090
 1901TIP3    H2 5649   2.281   5.188   6.130
 1902TIP3   OH2 5650   7.766   2.183   6.055
 1902TIP3    H1 5651   7.827   2.252   6.081
 1902TIP3    H2 5652   7.822   2.114   6.017
 1903TIP3   OH2 5653   0.312   5.703   0.184
 1903TIP3    H1 5654   0.276   5.638   0.125
 1903TIP3    H2 5655   0.375   5.752   0.131
 1904TIP3   OH2 5656   7.790   5.247   5.403
 1904TIP3    H1 5657   7.744   5.320   5.445
 1904TIP3    H2 5658   7.813   5.279   5.316
 1905TIP3   OH2 5659   7.821   2.866   0.346
 1905TIP3    H1 5660   7.832   2.900   0.435
 1905TIP3    H2 5661   7.741   2.907   0.314
 1906TIP3   OH2 5662   3.677   6.709   4.762
 1906TIP3    H1 5663   3.625   6.639   4.801
 1906TIP3    H2 5664   3.745   6.663   4.712
 1907TIP3   OH2 5665   4.550   2.596   5.141
 1907TIP3    H1 5666   4.467   2.578   5.097
 1907TIP3    H2 5667   4.602   2.517   5.129
 1908TIP3   OH2 5668   1.362   2.545   4.507
 1908TIP3    H1 5669   1.280   2.574   4.549
 1908TIP3    H2 5670   1.419   2.621   4.510
 1909TIP3   OH2 5671   4.298   5.863   4.955
 1909TIP3    H1 5672   4.383   5.883   4.915
 1909TIP3    H2 5673   4.298   5.767   4.964
 1910TIP3   OH2 5674   2.894   0.884   5.401
 1910TIP3    H1 5675   2.801   0.907   5.408
 1910TIP3    H2 5676   2.925   0.935   5.326
 1911TIP3   OH2 5677   4.229   0.533   3.295
 1911TIP3    H1 5678   4.183   0.616   3.288
 1911TIP3    H2 5679   4.167   0.474   3.338
 1912TIP3   OH2 5680   3.132   4.352   6.074
 1912TIP3    H1 5681   3.118   4.304   5.992
 1912TIP3    H2 5682   3.097   4.439   6.057
 1913TIP3   OH2 5683   2.752   7.101   3.050
 1913TIP3    H1 5684   2.827   7.055   3.086
 1913TIP3    H2 5685   2.746   7.071   2.960
 1914TIP3   OH2 5686   4.915   0.993   3.127
 1914TIP3    H1 5687   4.926   0.981   3.033
 1914TIP3    H2 5688   4.966   0.922   3.166
 1915TIP3   OH2 5689   7.630   5.778   0.726
 1915TIP3    H1 5690   7.718   5.741   0.713
 1915TIP3    H2 5691   7.634   5.865   0.686
 1916TIP3   OH2 5692   7.556   5.457   1.960
 1916TIP3    H1 5693   7.603   5.435   1.880
 1916TIP3    H2 5694   7.599   5.537   1.992
 1917TIP3   OH2 5695   1.766   3.535   4.940
 1917TIP3    H1 5696   1.821   3.464   4.909
 1917TIP3    H2 5697   1.716   3.497   5.012
 1918TIP3   OH2 5698   6.117   4.087   6.706
 1918TIP3    H1 5699   6.179   4.089   6.779
 1918TIP3    H2 5700   6.095   3.995   6.695
 1919TIP3   OH2 5701   6.087   4.512   5.694
 1919TIP3    H1 5702   6.071   4.604   5.717
 1919TIP3    H2 5703   6.090   4.467   5.778
 1920TIP3   OH2 5704   5.465   0.762   0.622
 1920TIP3    H1 5705   5.483   0.751   0.528
 1920TIP3    H2 5706   5.378   0.725   0.634
 1921TIP3   OH2 5707   2.746   4.889   6.595
 1921TIP3    H1 5708   2.838   4.863   6.601
 1921TIP3    H2 5709   2.708   4.864   6.679
 1922TIP3   OH2 5710   0.347   6.251   6.769
 1922TIP3    H1 5711   0.381   6.170   6.732
 1922TIP3    H2 5712   0.375   6.319   6.708
 1923TIP3   OH2 5713   3.997   2.705   4.503
 1923TIP3    H1 5714   4.087   2.709   4.473
 1923TIP3    H2 5715   3.969   2.797   4.507
 1924TIP3   OH2 5716   5.958   7.521   5.765
 1924TIP3    H1 5717   6.018   7.471   5.820
 1924TIP3    H2 5718   5.984   7.500   5.676
 1925TIP3   OH2 5719   2.874   2.630   1.046
 1925TIP3    H1 5720   2.909   2.686   0.977
 1925TIP3    H2 5721   2.780   2.629   1.031
 1926TIP3   OH2 5722   0.309   1.028   5.609
 1926TIP3    H1 5723   0.274   1.060   5.692
 1926TIP3    H2 5724   0.394   1.071   5.601
 1927TIP3   OH2 5725   0.969   0.324   1.069
 1927TIP3    H1 5726   0.921   0.297   1.147
 1927TIP3    H2 5727   0.957   0.252   1.007
 1928TIP3   OH2 5728   7.647   0.029   5.250
 1928TIP3    H1 5729   7.712   0.063   5.189
 1928TIP3    H2 5730   7.691   0.027   5.335
 1929TIP3   OH2 5731   0.986   7.081   6.094
 1929TIP3    H1 5732   0.910   7.117   6.139
 1929TIP3    H2 5733   1.016   7.152   6.036
 1930TIP3   OH2 5734   7.277   1.437   6.165
 1930TIP3    H1 5735   7.351   1.430   6.226
 1930TIP3    H2 5736   7.246   1.347   6.156
 1931TIP3   OH2 5737   3.500   0.330   5.673
 1931TIP3    H1 5738   3.583   0.367   5.642
 1931TIP3    H2 5739   3.453   0.405   5.711
 1932TIP3   OH2 5740   2.948   6.486   2.222
 1932TIP3    H1 5741   2.931   6.425   2.151
 1932TIP3    H2 5742   3.000   6.556   2.182
 1933TIP3   OH2 5743   6.754   2.001   0.196
 1933TIP3    H1 5744   6.827   1.941   0.184
 1933TIP3    H2 5745   6.714   2.009   0.110
 1934TIP3   OH2 5746   4.799   4.519   2.213
 1934TIP3    H1 5747   4.742   4.575   2.265
 1934TIP3    H2 5748   4.881   4.568   2.206
 1935TIP3   OH2 5749   2.978   6.868   0.749
 1935TIP3    H1 5750   2.941   6.780   0.744
 1935TIP3    H2 5751   2.946   6.913   0.671
 1936TIP3   OH2 5752   1.940   2.199   1.969
 1936TIP3    H1 5753   1.900   2.113   1.984
 1936TIP3    H2 5754   1.919   2.249   2.048
 1937TIP3   OH2 5755   8.045   3.812   0.646
 1937TIP3    H1 5756   8.106   3.745   0.614
 1937TIP3    H2 5757   8.091   3.895   0.629
 1938TIP3   OH2 5758   7.431   3.353   2.323
 1938TIP3    H1 5759   7.430   3.290   2.251
 1938TIP3    H2 5760   7.360   3.326   2.380
 1939TIP3   OH2 5761   5.382   3.113   6.374
 1939TIP3    H1 5762   5.317   3.063   6.423
 1939TIP3    H2 5763   5.393   3.064   6.292
 1940TIP3   OH2 5764   7.968   4.340   6.007
 1940TIP3    H1 5765   7.910   4.377   6.073
 1940TIP3    H2 5766   7.952   4.392   5.928
 1941TIP3   OH2 5767   5.837   5.969   5.901
 1941TIP3    H1 5768   5.845   6.007   5.988
 1941TIP3    H2 5769   5.742   5.963   5.887
 1942TIP3   OH2 5770   4.929   0.373   1.480
 1942TIP3    H1 5771   4.968   0.293   1.445
 1942TIP3    H2 5772   4.995   0.407   1.541
 1943TIP3   OH2 5773   2.806   2.483   5.622
 1943TIP3    H1 5774   2.732   2.436   5.582
 1943TIP3    H2 5775   2.783   2.576   5.614
 1944TIP3   OH2 5776   3.336   0.178   2.480
 1944TIP3    H1 5777   3.294   0.121   2.545
 1944TIP3    H2 5778   3.273   0.184   2.409
 1945TIP3   OH2 5779   3.963   2.612   4.977
 1945TIP3    H1 5780   3.889   2.624   4.918
 1945TIP3    H2 5781   4.034   2.663   4.938
 1946TIP3   OH2 5782   4.432   4.071   4.222
 1946TIP3    H1 5783   4.496   4.083   4.293
 1946TIP3    H2 5784   4.393   3.985   4.240
 1947TIP3   OH2 5785   2.233   5.666   1.390
 1947TIP3    H1 5786   2.275   5.730   1.448
 1947TIP3    H2 5787   2.304   5.613   1.356
 1948TIP3   OH2 5788   4.360   2.748   2.990
 1948TIP3    H1 5789   4.409   2.825   3.020
 1948TIP3    H2 5790   4.404   2.675   3.033
 1949TIP3   OH2 5791   5.517   1.976   1.324
 1949TIP3    H1 5792   5.438   1.924   1.336
 1949TIP3    H2 5793   5.554   1.945   1.241
 1950TIP3   OH2 5794   4.216   3.704   5.731
 1950TIP3    H1 5795   4.248   3.755   5.805
 1950TIP3    H2 5796   4.286   3.641   5.714
 1951TIP3   OH2 5797   5.058   6.240   6.510
 1951TIP3    H1 5798   5.002   6.287   6.448
 1951TIP3    H2 5799   5.047   6.147   6.487
 1952TIP3   OH2 5800   1.479   7.001   4.505
 1952TIP3    H1 5801   1.516   7.036   4.586
 1952TIP3    H2 5802   1.555   6.965   4.458
 1953TIP3   OH2 5803   0.832   4.325   0.225
 1953TIP3    H1 5804   0.831   4.320   0.129
 1953TIP3    H2 5805   0.769   4.259   0.254
 1954TIP3   OH2 5806   3.686   7.185   6.146
 1954TIP3    H1 5807   3.724   7.183   6.058
 1954TIP3    H2 5808   3.743   7.244   6.196
 1955TIP3   OH2 5809   3.663   2.167   5.525
 1955TIP3    H1 5810   3.701   2.094   5.476
 1955TIP3    H2 5811   3.735   2.229   5.535
 1956TIP3   OH2 5812   6.327   3.120   1.041
 1956TIP3    H1 5813   6.234   3.140   1.032
 1956TIP3    H2 5814   6.371   3.178   0.978
 1957TIP3   OH2 5815   5.947   2.818   5.407
 1957TIP3    H1 5816   5.993   2.778   5.334
 1957TIP3    H2 5817   5.900   2.892   5.369
 1958TIP3   OH2 5818   0.289   2.582   2.004
 1958TIP3    H1 5819   0.287   2.620   2.092
 1958TIP3    H2 5820   0.247   2.647   1.949
 1959TIP3   OH2 5821   5.134   2.876   2.434
 1959TIP3    H1 5822   5.143   2.781   2.444
 1959TIP3    H2 5823   5.064   2.900   2.495
 1960TIP3   OH2 5824   0.161   7.573   6.464
 1960TIP3    H1 5825   0.090   7.608   6.518
 1960TIP3    H2 5826   0.116   7.528   6.392
 1961TIP3   OH2 5827   5.667   1.973   1.847
 1961TIP3    H1 5828   5.609   1.900   1.828
 1961TIP3    H2 5829   5.755   1.939   1.833
 1962TIP3   OH2 5830   1.139   7.660   5.790
 1962TIP3    H1 5831   1.192   7.678   5.712
 1962TIP3    H2 5832   1.049   7.651   5.757
 1963TIP3   OH2 5833   7.542   4.454   1.362
 1963TIP3    H1 5834   7.468   4.394   1.366
 1963TIP3    H2 5835   7.505   4.536   1.328
 1964TIP3   OH2 5836   2.405   1.679   6.037
 1964TIP3    H1 5837   2.406   1.713   6.126
 1964TIP3    H2 5838   2.312   1.666   6.018
 1965TIP3   OH2 5839   6.197   7.703   0.006
 1965TIP3    H1 5840   6.106   7.680  -0.010
 1965TIP3    H2 5841   6.193   7.780   0.063
 1966TIP3   OH2 5842   5.005   4.678   0.370
 1966TIP3    H1 5843   5.065   4.753   0.367
 1966TIP3    H2 5844   5.045   4.618   0.432
 1967TIP3   OH2 5845   2.462   4.109   5.742
 1967TIP3    H1 5846   2.487   4.175   5.678
 1967TIP3    H2 5847   2.544   4.081   5.782
 1968TIP3   OH2 5848   0.254   3.564   3.716
 1968TIP3    H1 5849   0.194   3.635   3.737
 1968TIP3    H2 5850   0.207   3.485   3.743
 1969TIP3   OH2 5851   0.419   4.985   2.979
 1969TIP3    H1 5852   0.487   5.025   3.033
 1969TIP3    H2 5853   0.454   4.899   2.957
 1970TIP3   OH2 5854   4.187   6.430   1.977
 1970TIP3    H1 5855   4.209   6.515   1.938
 1970TIP3    H2 5856   4.097   6.440   2.007
 1971TIP3   OH2 5857   3.134   3.270   5.899
 1971TIP3    H1 5858   3.193   3.321   5.954
 1971TIP3    H2 5859   3.111   3.329   5.827
 1972TIP3   OH2 5860   5.087   3.607   0.182
 1972TIP3    H1 5861   5.160   3.663   0.208
 1972TIP3    H2 5862   5.020   3.668   0.150
 1973TIP3   OH2 5863   4.275   6.005   1.706
 1973TIP3    H1 5864   4.247   5.995   1.615
 1973TIP3    H2 5865   4.366   5.975   1.706
 1974TIP3   OH2 5866   2.707   0.247   6.318
 1974TIP3    H1 5867   2.634   0.208   6.367
 1974TIP3    H2 5868   2.707   0.339   6.346
 1975TIP3   OH2 5869   0.592   4.573   6.364
 1975TIP3    H1 5870   0.513   4.522   6.347
 1975TIP3    H2 5871   0.656   4.509   6.394
 1976TIP3   OH2 5872   5.895   3.119   4.840
 1976TIP3    H1 5873   5.852   3.194   4.799
 1976TIP3    H2 5874   5.899   3.053   4.770
 1977TIP3   OH2 5875   4.506   3.388   1.911
 1977TIP3    H1 5876   4.466   3.345   1.836
 1977TIP3    H2 5877   4.434   3.431   1.956
 1978TIP3   OH2 5878   1.100   1.223   0.056
 1978TIP3    H1 5879   1.127   1.147   0.108
 1978TIP3    H2 5880   1.012   1.243   0.088
 1979TIP3   OH2 5881   5.371   1.886   6.115
 1979TIP3    H1 5882   5.442   1.909   6.175
 1979TIP3    H2 5883   5.323   1.967   6.102
 1980TIP3   OH2 5884   1.691   4.455   6.220
 1980TIP3    H1 5885   1.783   4.449   6.248
 1980TIP3    H2 5886   1.672   4.548   6.219
 1981TIP3   OH2 5887   2.283   0.939   6.562
 1981TIP3    H1 5888   2.194   0.962   6.587
 1981TIP3    H2 5889   2.334   1.018   6.580
 1982TIP3   OH2 5890   2.303   6.916   4.915
 1982TIP3    H1 5891   2.244   6.898   4.988
 1982TIP3    H2 5892   2.274   7.000   4.880
 1983TIP3   OH2 5893   1.504   5.025   0.712
 1983TIP3    H1 5894   1.467   4.941   0.686
 1983TIP3    H2 5895   1.437   5.089   0.688
 1984TIP3   OH2 5896   6.508   1.313   5.623
 1984TIP3    H1 5897   6.568   1.365   5.570
 1984TIP3    H2 5898   6.459   1.261   5.560
 1985TIP3   OH2 5899   4.086   2.053   3.668
 1985TIP3    H1 5900   4.023   1.993   3.627
 1985TIP3    H2 5901   4.105   2.014   3.753
 1986TIP3   OH2 5902   4.489   6.012   4.814
 1986TIP3    H1 5903   4.546   5.970   4.750
 1986TIP3    H2 5904   4.449   6.085   4.765
 1987TIP3   OH2 5905   5.933   0.332   3.221
 1987TIP3    H1 5906   5.947   0.375   3.305
 1987TIP3    H2 5907   6.022   0.319   3.186
 1988TIP3   OH2 5908   2.310   0.706   6.461
 1988TIP3    H1 5909   2.369   0.731   6.390
 1988TIP3    H2 5910   2.304   0.785   6.515
 1989TIP3   OH2 5911   1.056   5.149   0.181
 1989TIP3    H1 5912   0.999   5.218   0.215
 1989TIP3    H2 5913   1.022   5.068   0.220
 1990TIP3   OH2 5914   4.238   2.960   4.592
 1990TIP3    H1 5915   4.181   2.920   4.526
 1990TIP3    H2 5916   4.250   3.050   4.562
 1991TIP3   OH2 5917   7.626   0.766   6.174
 1991TIP3    H1 5918   7.660   0.712   6.102
 1991TIP3    H2 5919   7.703   0.810   6.209
 1992TIP3   OH2 5920   2.520   6.629   3.553
 1992TIP3    H1 5921   2.545   6.542   3.582
 1992TIP3    H2 5922   2.580   6.688   3.598
 1993TIP3   OH2 5923   8.302   4.649   1.488
 1993TIP3    H1 5924   8.300   4.629   1.395
 1993TIP3    H2 5925   8.247   4.582   1.528
 1994TIP3   OH2 5926   1.243   6.224   0.324
 1994TIP3    H1 5927   1.257   6.312   0.359
 1994TIP3    H2 5928   1.246   6.235   0.229
 1995TIP3   OH2 5929   3.918   4.634   2.100
 1995TIP3    H1 5930   3.980   4.687   2.151
 1995TIP3    H2 5931   3.847   4.695   2.079
 1996TIP3   OH2 5932   5.001   6.508   3.200
 1996TIP3    H1 5933   4.957   6.440   3.148
 1996TIP3    H2 5934   4.991   6.588   3.147
 1997TIP3   OH2 5935   2.038   6.502   1.513
 1997TIP3    H1 5936   2.029   6.473   1.422
 1997TIP3    H2 5937   2.084   6.430   1.557
 1998TIP3   OH2 5938   6.255   0.421   6.065
 1998TIP3    H1 5939   6.297   0.465   6.138
 1998TIP3    H2 5940   6.229   0.336   6.100
 1999TIP3   OH2 5941   6.077   3.243   3.108
 1999TIP3    H1 5942   6.148   3.214   3.165
 1999TIP3    H2 5943   6.078   3.338   3.115
 2000TIP3   OH2 5944   2.244   0.246   2.523
 2000TIP3    H1 5945   2.244   0.150   2.515
 2000TIP3    H2 5946   2.303   0.275   2.453
 2001TIP3   OH2 5947   5.128   7.498   3.167
 2001TIP3    H1 5948   5.181   7.497   3.087
 2001TIP3    H2 5949   5.190   7.483   3.238
 2002TIP3   OH2 5950   2.718   5.493   0.443
 2002TIP3    H1 5951   2.799   5.449   0.470
 2002TIP3    H2 5952   2.651   5.459   0.503
 2003TIP3   OH2 5953   4.371   6.354   4.370
 2003TIP3    H1 5954   4.431   6.381   4.300
 2003TIP3    H2 5955   4.294   6.411   4.359
 2004TIP3   OH2 5956   6.687   4.129   1.170
 2004TIP3    H1 5957   6.636   4.125   1.251
 2004TIP3    H2 5958   6.706   4.223   1.159
 2005TIP3   OH2 5959   3.409   2.833   3.021
 2005TIP3    H1 5960   3.456   2.756   2.990
 2005TIP3    H2 5961   3.365   2.804   3.101
 2006TIP3   OH2 5962   3.257   3.891   1.930
 2006TIP3    H1 5963   3.190   3.911   1.865
 2006TIP3    H2 5964   3.243   3.956   2.000
 2007TIP3   OH2 5965   7.553   5.023   4.533
 2007TIP3    H1 5966   7.510   4.961   4.474
 2007TIP3    H2 5967   7.623   5.061   4.480
 2008TIP3   OH2 5968   7.568   2.811   6.100
 2008TIP3    H1 5969   7.501   2.828   6.034
 2008TIP3    H2 5970   7.524   2.755   6.165
 2009TIP3   OH2 5971   5.913   2.745   0.875
 2009TIP3    H1 5972   5.963   2.809   0.926
 2009TIP3    H2 5973   5.978   2.698   0.825
 2010TIP3   OH2 5974   3.886   0.199   6.523
 2010TIP3    H1 5975   3.947   0.239   6.460
 2010TIP3    H2 5976   3.941   0.172   6.596
 2011TIP3   OH2 5977   4.456   7.424   0.411
 2011TIP3    H1 5978   4.425   7.358   0.350
 2011TIP3    H2 5979   4.473   7.376   0.492
 2012TIP3   OH2 5980   5.890   3.597   4.532
 2012TIP3    H1 5981   5.946   3.522   4.553
 2012TIP3    H2 5982   5.852   3.622   4.616
 2013TIP3   OH2 5983   5.997   4.761   5.768
 2013TIP3    H1 5984   5.908   4.730   5.784
 2013TIP3    H2 5985   5.990   4.856   5.767
 2014TIP3   OH2 5986   4.484   1.057   5.154
 2014TIP3    H1 5987   4.418   1.123   5.175
 2014TIP3    H2 5988   4.522   1.085   5.071
 2015TIP3   OH2 5989   0.044   1.284   6.627
 2015TIP3    H1 5990  -0.030   1.274   6.686
 2015TIP3    H2 5991   0.076   1.373   6.644
 2016TIP3   OH2 5992   2.810   5.018   0.944
 2016TIP3    H1 5993   2.879   5.055   0.998
 2016TIP3    H2 5994   2.770   5.093   0.900
 2017TIP3   OH2 5995   2.035   1.282   0.867
 2017TIP3    H1 5996   2.049   1.352   0.931
 2017TIP3    H2 5997   1.978   1.220   0.912
 2018TIP3   OH2 5998   5.052   5.656   1.750
 2018TIP3    H1 5999   5.067   5.574   1.796
 2018TIP3    H2 6000   5.015   5.714   1.816
 2019TIP3   OH2 6001   2.912   5.548   2.397
 2019TIP3    H1 6002   2.848   5.610   2.434
 2019TIP3    H2 6003   2.868   5.463   2.402
 2020TIP3   OH2 6004   1.393   4.379   0.587
 2020TIP3    H1 6005   1.452   4.340   0.652
 2020TIP3    H2 6006   1.441   4.455   0.553
 2021TIP3   OH2 6007   1.330   6.945   2.546
 2021TIP3    H1 6008   1.406   6.919   2.597
 2021TIP3    H2 6009   1.262   6.881   2.569
 2022TIP3   OH2 6010   2.397   0.706   4.474
 2022TIP3    H1 6011   2.444   0.640   4.525
 2022TIP3    H2 6012   2.467   0.762   4.438
 2023TIP3   OH2 6013   2.385   5.826   1.837
 2023TIP3    H1 6014   2.419   5.874   1.912
 2023TIP3    H2 6015   2.460   5.819   1.777
 2024TIP3   OH2 6016   6.595   1.200   2.758
 2024TIP3    H1 6017   6.572   1.287   2.789
 2024TIP3    H2 6018   6.676   1.212   2.708
 2025TIP3   OH2 6019   7.188   1.764   1.024
 2025TIP3    H1 6020   7.147   1.801   1.102
 2025TIP3    H2 6021   7.115   1.736   0.969
 2026TIP3   OH2 6022   1.761   4.841   5.913
 2026TIP3    H1 6023   1.791   4.910   5.854
 2026TIP3    H2 6024   1.779   4.759   5.866
 2027TIP3   OH2 6025   5.172   0.884   3.800
 2027TIP3    H1 6026   5.107   0.815   3.792
 2027TIP3    H2 6027   5.255   0.839   3.816
 2028TIP3   OH2 6028   4.636   4.712   6.338
 2028TIP3    H1 6029   4.728   4.724   6.312
 2028TIP3    H2 6030   4.608   4.635   6.288
 2029TIP3   OH2 6031   1.760   6.461   1.191
 2029TIP3    H1 6032   1.742   6.449   1.285
 2029TIP3    H2 6033   1.675   6.450   1.149
 2030TIP3   OH2 6034   4.864   7.639   2.706
 2030TIP3    H1 6035   4.890   7.578   2.637
 2030TIP3    H2 6036   4.947   7.673   2.740
 2031TIP3   OH2 6037   6.999   1.356   4.380
 2031TIP3    H1 6038   7.043   1.440   4.395
 2031TIP3    H2 6039   7.070   1.293   4.371
 2032TIP3   OH2 6040   5.008   7.470   2.239
 2032TIP3    H1 6041   4.998   7.510   2.152
 2032TIP3    H2 6042   5.090   7.506   2.273
 2033TIP3   OH2 6043   1.528   1.912   5.739
 2033TIP3    H1 6044   1.553   1.923   5.831
 2033TIP3    H2 6045   1.449   1.859   5.741
 2034TIP3   OH2 6046   1.053   5.552   1.198
 2034TIP3    H1 6047   1.011   5.466   1.208
 2034TIP3    H2 6048   1.114   5.540   1.125
 2035TIP3   OH2 6049   7.898   3.314   2.474
 2035TIP3    H1 6050   7.833   3.245   2.461
 2035TIP3    H2 6051   7.857   3.392   2.436
 2036TIP3   OH2 6052   6.012   3.324   5.661
 2036TIP3    H1 6053   6.048   3.236   5.650
 2036TIP3    H2 6054   5.982   3.348   5.573
 2037TIP3   OH2 6055   4.627   5.970   2.524
 2037TIP3    H1 6056   4.561   6.026   2.485
 2037TIP3    H2 6057   4.711   6.005   2.494
 2038TIP3   OH2 6058   1.160   2.841   3.088
 2038TIP3    H1 6059   1.237   2.830   3.144
 2038TIP3    H2 6060   1.162   2.765   3.030
 2039TIP3   OH2 6061   3.538   7.633   3.436
 2039TIP3    H1 6062   3.606   7.653   3.501
 2039TIP3    H2 6063   3.492   7.557   3.472
 2040TIP3   OH2 6064   4.685   4.301   3.036
 2040TIP3    H1 6065   4.607   4.306   2.980
 2040TIP3    H2 6066   4.662   4.351   3.114
 2041TIP3   OH2 6067   6.986   2.613   0.762
 2041TIP3    H1 6068   6.985   2.522   0.731
 2041TIP3    H2 6069   7.055   2.655   0.711
 2042TIP3   OH2 6070   5.216   2.221   0.577
 2042TIP3    H1 6071   5.243   2.306   0.612
 2042TIP3    H2 6072   5.160   2.242   0.503
 2043TIP3   OH2 6073   2.105   1.817   4.317
 2043TIP3    H1 6074   2.190   1.792   4.282
 2043TIP3    H2 6075   2.072   1.737   4.358
 2044TIP3   OH2 6076   5.085   1.612   1.334
 2044TIP3    H1 6077   5.022   1.655   1.391
 2044TIP3    H2 6078   5.116   1.537   1.386
 2045TIP3   OH2 6079   3.410   7.603   6.715
 2045TIP3    H1 6080   3.494   7.608   6.760
 2045TIP3    H2 6081   3.433   7.576   6.626
 2046TIP3   OH2 6082   6.488   7.695   2.532
 2046TIP3    H1 6083   6.495   7.785   2.501
 2046TIP3    H2 6084   6.560   7.649   2.489
 2047TIP3   OH2 6085   8.223   6.025   5.245
 2047TIP3    H1 6086   8.302   5.987   5.206
 2047TIP3    H2 6087   8.238   6.020   5.340
 2048TIP3   OH2 6088   3.011   6.695   6.568
 2048TIP3    H1 6089   2.939   6.700   6.632
 2048TIP3    H2 6090   2.987   6.759   6.501
 2049TIP3   OH2 6091   3.156   1.098   4.532
 2049TIP3    H1 6092   3.086   1.113   4.596
 2049TIP3    H2 6093   3.222   1.165   4.553
 2050TIP3   OH2 6094   2.713   5.372   6.128
 2050TIP3    H1 6095   2.658   5.434   6.081
 2050TIP3    H2 6096   2.770   5.426   6.182
 2051TIP3   OH2 6097   6.547   1.104   4.760
 2051TIP3    H1 6098   6.525   1.083   4.669
 2051TIP3    H2 6099   6.591   1.025   4.793
 2052TIP3   OH2 6100   5.196   4.606   4.973
 2052TIP3    H1 6101   5.123   4.569   5.023
 2052TIP3    H2 6102   5.201   4.697   5.002
 2053TIP3   OH2 6103   2.892   0.882   6.096
 2053TIP3    H1 6104   2.957   0.872   6.026
 2053TIP3    H2 6105   2.941   0.867   6.177
 2054TIP3   OH2 6106   5.000   5.898   4.111
 2054TIP3    H1 6107   5.058   5.970   4.138
 2054TIP3    H2 6108   4.956   5.872   4.192
 2055TIP3   OH2 6109   6.366   2.614   2.416
 2055TIP3    H1 6110   6.427   2.597   2.344
 2055TIP3    H2 6111   6.281   2.588   2.382
 2056TIP3   OH2 6112   2.907   5.694   6.717
 2056TIP3    H1 6113   2.912   5.723   6.808
 2056TIP3    H2 6114   2.990   5.648   6.702
 2057TIP3   OH2 6115   4.987   5.828   5.185
 2057TIP3    H1 6116   5.056   5.894   5.174
 2057TIP3    H2 6117   4.980   5.787   5.099
 2058TIP3   OH2 6118   6.676   5.300   0.980
 2058TIP3    H1 6119   6.583   5.293   1.001
 2058TIP3    H2 6120   6.689   5.393   0.959
 2059TIP3   OH2 6121   7.991   5.097   5.030
 2059TIP3    H1 6122   8.025   5.125   4.945
 2059TIP3    H2 6123   7.983   5.002   5.023
 2060TIP3   OH2 6124   5.282   6.555   3.292
 2060TIP3    H1 6125   5.213   6.508   3.246
 2060TIP3    H2 6126   5.363   6.530   3.246
 2061TIP3   OH2 6127   7.992   2.167   4.696
 2061TIP3    H1 6128   7.976   2.207   4.611
 2061TIP3    H2 6129   8.077   2.203   4.724
 2062TIP3   OH2 6130   7.281   0.484   2.677
 2062TIP3    H1 6131   7.361   0.530   2.703
 2062TIP3    H2 6132   7.213   0.551   2.678
 2063TIP3   OH2 6133   8.130   1.632   2.861
 2063TIP3    H1 6134   8.095   1.706   2.911
 2063TIP3    H2 6135   8.084   1.555   2.895
 2064TIP3   OH2 6136   4.038   5.867   1.814
 2064TIP3    H1 6137   4.100   5.940   1.816
 2064TIP3    H2 6138   3.983   5.885   1.738
 2065TIP3   OH2 6139   4.163   1.351   2.066
 2065TIP3    H1 6140   4.178   1.319   1.977
 2065TIP3    H2 6141   4.068   1.342   2.079
 2066TIP3   OH2 6142   4.232   2.711   5.244
 2066TIP3    H1 6143   4.296   2.647   5.275
 2066TIP3    H2 6144   4.253   2.723   5.151
 2067TIP3   OH2 6145   3.696   0.932   6.058
 2067TIP3    H1 6146   3.726   1.006   6.007
 2067TIP3    H2 6147   3.741   0.940   6.142
 2068TIP3   OH2 6148   3.840   7.365   3.171
 2068TIP3    H1 6149   3.932   7.370   3.144
 2068TIP3    H2 6150   3.845   7.354   3.266
 2069TIP3   OH2 6151   1.879   4.087   6.186
 2069TIP3    H1 6152   1.815   4.052   6.125
 2069TIP3    H2 6153   1.869   4.035   6.266
 2070TIP3   OH2 6154   1.504   0.828   6.355
 2070TIP3    H1 6155   1.472   0.851   6.268
 2070TIP3    H2 6156   1.440   0.763   6.387
 2071TIP3   OH2 6157   1.052   3.641   0.769
 2071TIP3    H1 6158   1.072   3.554   0.735
 2071TIP3    H2 6159   0.984   3.675   0.711
 2072TIP3   OH2 6160   2.346   0.677   3.196
 2072TIP3    H1 6161   2.419   0.728   3.161
 2072TIP3    H2 6162   2.322   0.618   3.125
 2073TIP3   OH2 6163   2.879   0.065   0.192
 2073TIP3    H1 6164   2.793   0.084   0.155
 2073TIP3    H2 6165   2.930   0.033   0.117
 2074TIP3   OH2 6166   2.515   4.321   3.965
 2074TIP3    H1 6167   2.439   4.295   4.017
 2074TIP3    H2 6168   2.590   4.287   4.013
 2075TIP3   OH2 6169   7.125   5.720   3.553
 2075TIP3    H1 6170   7.080   5.777   3.490
 2075TIP3    H2 6171   7.140   5.776   3.629
 2076TIP3   OH2 6172   3.111   2.386   0.886
 2076TIP3    H1 6173   3.081   2.370   0.796
 2076TIP3    H2 6174   3.050   2.336   0.941
 2077TIP3   OH2 6175   4.755   6.369   4.311
 2077TIP3    H1 6176   4.725   6.289   4.354
 2077TIP3    H2 6177   4.684   6.392   4.251
 2078TIP3   OH2 6178   3.916   4.227   6.089
 2078TIP3    H1 6179   3.940   4.162   6.155
 2078TIP3    H2 6180   3.850   4.184   6.036
 2079TIP3   OH2 6181   4.115   6.397   1.634
 2079TIP3    H1 6182   4.146   6.448   1.559
 2079TIP3    H2 6183   4.141   6.448   1.710
 2080TIP3   OH2 6184   5.624   4.550   4.121
 2080TIP3    H1 6185   5.633   4.643   4.103
 2080TIP3    H2 6186   5.571   4.546   4.201
 2081TIP3   OH2 6187   6.335   2.795   5.042
 2081TIP3    H1 6188   6.355   2.863   4.978
 2081TIP3    H2 6189   6.309   2.843   5.121
 2082TIP3   OH2 6190   7.968   2.812   0.696
 2082TIP3    H1 6191   7.875   2.835   0.705
 2082TIP3    H2 6192   8.002   2.871   0.629
 2083TIP3   OH2 6193   1.502   2.136   4.620
 2083TIP3    H1 6194   1.529   2.221   4.585
 2083TIP3    H2 6195   1.551   2.073   4.568
 2084TIP3   OH2 6196   4.610   4.335   1.991
 2084TIP3    H1 6197   4.577   4.422   2.010
 2084TIP3    H2 6198   4.595   4.323   1.897
 2085TIP3   OH2 6199   1.897   3.598   3.746
 2085TIP3    H1 6200   1.898   3.527   3.810
 2085TIP3    H2 6201   1.874   3.676   3.796
 2086TIP3   OH2 6202   3.797   2.379   1.762
 2086TIP3    H1 6203   3.845   2.377   1.680
 2086TIP3    H2 6204   3.802   2.470   1.791
 2087TIP3   OH2 6205   0.721   7.299   5.239
 2087TIP3    H1 6206   0.758   7.234   5.299
 2087TIP3    H2 6207   0.796   7.330   5.189
 2088TIP3   OH2 6208   6.969   4.994   4.797
 2088TIP3    H1 6209   6.886   4.972   4.839
 2088TIP3    H2 6210   6.995   4.913   4.753
 2089TIP3   OH2 6211   5.068   4.313   2.223
 2089TIP3    H1 6212   5.121   4.236   2.205
 2089TIP3    H2 6213   5.042   4.304   2.315
 2090TIP3   OH2 6214   1.811   5.321   5.743
 2090TIP3    H1 6215   1.842   5.245   5.792
 2090TIP3    H2 6216   1.891   5.362   5.709
 2091TIP3   OH2 6217   4.276   4.813   3.077
 2091TIP3    H1 6218   4.290   4.729   3.034
 2091TIP3    H2 6219   4.342   4.871   3.040
 2092TIP3   OH2 6220   3.238   5.997   2.719
 2092TIP3    H1 6221   3.205   5.943   2.647
 2092TIP3    H2 6222   3.307   6.051   2.679
 2093TIP3   OH2 6223   0.209   0.023   4.796
 2093TIP3    H1 6224   0.163   0.076   4.861
 2093TIP3    H2 6225   0.302   0.041   4.811
 2094TIP3   OH2 6226   2.202   4.154   4.941
 2094TIP3    H1 6227   2.142   4.086   4.971
 2094TIP3    H2 6228   2.220   4.131   4.849
 2095TIP3   OH2 6229   1.934   2.426   4.000
 2095TIP3    H1 6230   1.939   2.424   3.905
 2095TIP3    H2 6231   1.985   2.350   4.028
 2096TIP3   OH2 6232   3.450   0.841   5.948
 2096TIP3    H1 6233   3.540   0.863   5.971
 2096TIP3    H2 6234   3.406   0.827   6.032
 2097TIP3   OH2 6235   2.792   1.730   0.408
 2097TIP3    H1 6236   2.788   1.653   0.465
 2097TIP3    H2 6237   2.848   1.792   0.455
 2098TIP3   OH2 6238   7.618   4.718   4.371
 2098TIP3    H1 6239   7.680   4.655   4.336
 2098TIP3    H2 6240   7.532   4.681   4.353
 2099TIP3   OH2 6241   1.004   4.078   3.818
 2099TIP3    H1 6242   0.987   4.072   3.913
 2099TIP3    H2 6243   1.098   4.095   3.811
 2100TIP3   OH2 6244   4.439   1.805   0.057
 2100TIP3    H1 6245   4.519   1.759   0.083
 2100TIP3    H2 6246   4.458   1.897   0.077
 2101TIP3   OH2 6247   4.217   6.573   5.232
 2101TIP3    H1 6248   4.295   6.560   5.286
 2101TIP3    H2 6249   4.250   6.615   5.152
 2102TIP3   OH2 6250   1.248   0.381   1.403
 2102TIP3    H1 6251   1.302   0.375   1.324
 2102TIP3    H2 6252   1.223   0.290   1.422
 2103TIP3   OH2 6253   0.084   1.850   0.984
 2103TIP3    H1 6254   0.077   1.923   1.046
 2103TIP3    H2 6255   0.169   1.810   1.004
 2104TIP3   OH2 6256   7.019   0.850   2.472
 2104TIP3    H1 6257   7.091   0.883   2.526
 2104TIP3    H2 6258   6.942   0.898   2.504
 2105TIP3   OH2 6259   3.242   1.531   0.721
 2105TIP3    H1 6260   3.254   1.465   0.653
 2105TIP3    H2 6261   3.285   1.494   0.798
 2106TIP3   OH2 6262   2.867   5.742   5.244
 2106TIP3    H1 6263   2.794   5.696   5.286
 2106TIP3    H2 6264   2.825   5.804   5.184
 2107TIP3   OH2 6265   2.196   2.383   2.488
 2107TIP3    H1 6266   2.291   2.382   2.480
 2107TIP3    H2 6267   2.169   2.467   2.449
 2108TIP3   OH2 6268   0.145   3.817   1.735
 2108TIP3    H1 6269   0.068   3.850   1.688
 2108TIP3    H2 6270   0.206   3.891   1.735
 2109TIP3   OH2 6271   3.057   4.103   1.660
 2109TIP3    H1 6272   3.077   4.111   1.753
 2109TIP3    H2 6273   3.006   4.181   1.639
 2110TIP3   OH2 6274   2.542   3.700   4.211
 2110TIP3    H1 6275   2.564   3.730   4.300
 2110TIP3    H2 6276   2.614   3.733   4.157
 2111TIP3   OH2 6277   4.929   4.967   4.689
 2111TIP3    H1 6278   5.002   4.909   4.665
 2111TIP3    H2 6279   4.854   4.933   4.640
 2112TIP3   OH2 6280   4.261   4.685   5.632
 2112TIP3    H1 6281   4.172   4.720   5.625
 2112TIP3    H2 6282   4.254   4.617   5.700
 2113TIP3   OH2 6283   5.245   0.296   0.786
 2113TIP3    H1 6284   5.215   0.359   0.852
 2113TIP3    H2 6285   5.191   0.314   0.709
 2114TIP3   OH2 6286   0.004   5.818   5.543
 2114TIP3    H1 6287   0.076   5.826   5.606
 2114TIP3    H2 6288   0.017   5.732   5.503
 2115TIP3   OH2 6289   7.143   7.200   0.533
 2115TIP3    H1 6290   7.047   7.203   0.541
 2115TIP3    H2 6291   7.161   7.115   0.492
 2116TIP3   OH2 6292   7.297   5.580   3.300
 2116TIP3    H1 6293   7.317   5.667   3.333
 2116TIP3    H2 6294   7.221   5.593   3.244
 2117TIP3   OH2 6295   2.406   4.160   2.120
 2117TIP3    H1 6296   2.463   4.086   2.100
 2117TIP3    H2 6297   2.335   4.154   2.057
 2118TIP3   OH2 6298   7.093   0.693   1.373
 2118TIP3    H1 6299   7.172   0.638   1.372
 2118TIP3    H2 6300   7.039   0.656   1.303
 2119TIP3   OH2 6301   2.585   3.930   2.228
 2119TIP3    H1 6302   2.656   3.932   2.292
 2119TIP3    H2 6303   2.505   3.929   2.281
 2120TIP3   OH2 6304   3.500   6.306   1.488
 2120TIP3    H1 6305   3.410   6.292   1.457
 2120TIP3    H2 6306   3.523   6.224   1.532
 2121TIP3   OH2 6307   5.619   6.949   4.595
 2121TIP3    H1 6308   5.528   6.943   4.623
 2121TIP3    H2 6309   5.626   7.035   4.553
 2122TIP3   OH2 6310   5.101   1.475   6.084
 2122TIP3    H1 6311   5.170   1.435   6.138
 2122TIP3    H2 6312   5.103   1.567   6.108
 2123TIP3   OH2 6313   6.365   4.785   5.286
 2123TIP3    H1 6314   6.332   4.718   5.345
 2123TIP3    H2 6315   6.301   4.789   5.215
 2124TIP3   OH2 6316   7.813   5.036   6.262
 2124TIP3    H1 6317   7.903   5.008   6.245
 2124TIP3    H2 6318   7.790   5.090   6.186
 2125TIP3   OH2 6319   5.233   6.502   0.728
 2125TIP3    H1 6320   5.191   6.447   0.662
 2125TIP3    H2 6321   5.254   6.583   0.683
 2126TIP3   OH2 6322   6.305   6.736   2.625
 2126TIP3    H1 6323   6.221   6.776   2.602
 2126TIP3    H2 6324   6.324   6.677   2.552
 2127TIP3   OH2 6325   7.325   4.596   3.706
 2127TIP3    H1 6326   7.382   4.672   3.698
 2127TIP3    H2 6327   7.338   4.547   3.625
 2128TIP3   OH2 6328   3.960   2.335   6.024
 2128TIP3    H1 6329   3.929   2.250   5.993
 2128TIP3    H2 6330   4.030   2.314   6.086
 2129TIP3   OH2 6331   7.611   6.866   5.883
 2129TIP3    H1 6332   7.627   6.792   5.942
 2129TIP3    H2 6333   7.519   6.858   5.859
 2130TIP3   OH2 6334   7.310   6.504   1.882
 2130TIP3    H1 6335   7.386   6.552   1.851
 2130TIP3    H2 6336   7.273   6.559   1.951
 2131TIP3   OH2 6337   4.370   4.021   3.641
 2131TIP3    H1 6338   4.290   4.034   3.692
 2131TIP3    H2 6339   4.441   4.047   3.700
 2132TIP3   OH2 6340   4.960   4.723   4.355
 2132TIP3    H1 6341   4.984   4.664   4.426
 2132TIP3    H2 6342   5.044   4.758   4.324
 2133TIP3   OH2 6343   3.807   5.436   0.816
 2133TIP3    H1 6344   3.814   5.351   0.860
 2133TIP3    H2 6345   3.777   5.415   0.728
 2134TIP3   OH2 6346   3.126   4.760   3.869
 2134TIP3    H1 6347   3.044   4.723   3.901
 2134TIP3    H2 6348   3.153   4.700   3.800
 2135TIP3   OH2 6349   6.859   3.887   2.674
 2135TIP3    H1 6350   6.946   3.875   2.637
 2135TIP3    H2 6351   6.852   3.822   2.743
 2136TIP3   OH2 6352   7.008   3.454   1.952
 2136TIP3    H1 6353   6.927   3.499   1.928
 2136TIP3    H2 6354   6.997   3.365   1.918
 2137TIP3   OH2 6355   4.761   3.828   0.800
 2137TIP3    H1 6356   4.681   3.780   0.778
 2137TIP3    H2 6357   4.774   3.888   0.727
 2138TIP3   OH2 6358   0.411   0.890   3.495
 2138TIP3    H1 6359   0.497   0.869   3.459
 2138TIP3    H2 6360   0.374   0.805   3.519
 2139TIP3   OH2 6361   2.454   4.682   4.858
 2139TIP3    H1 6362   2.474   4.667   4.950
 2139TIP3    H2 6363   2.493   4.608   4.813
 2140TIP3   OH2 6364   1.657   2.254   6.183
 2140TIP3    H1 6365   1.641   2.342   6.217
 2140TIP3    H2 6366   1.752   2.249   6.174
 2141TIP3   OH2 6367   1.597   6.734   1.296
 2141TIP3    H1 6368   1.565   6.654   1.337
 2141TIP3    H2 6369   1.669   6.763   1.353
 2142TIP3   OH2 6370   6.047   4.407   4.482
 2142TIP3    H1 6371   6.103   4.407   4.404
 2142TIP3    H2 6372   5.963   4.374   4.450
 2143TIP3   OH2 6373   1.284   3.617   5.773
 2143TIP3    H1 6374   1.368   3.641   5.734
 2143TIP3    H2 6375   1.307   3.569   5.853
 2144TIP3   OH2 6376   7.649   0.946   3.981
 2144TIP3    H1 6377   7.561   0.907   3.986
 2144TIP3    H2 6378   7.636   1.028   3.933
 2145TIP3   OH2 6379   1.638   4.131   4.524
 2145TIP3    H1 6380   1.723   4.131   4.480
 2145TIP3    H2 6381   1.654   4.174   4.608
 2146TIP3   OH2 6382   7.811   7.399   5.102
 2146TIP3    H1 6383   7.805   7.493   5.089
 2146TIP3    H2 6384   7.784   7.386   5.193
 2147TIP3   OH2 6385   1.473   0.463   0.730
 2147TIP3    H1 6386   1.432   0.382   0.759
 2147TIP3    H2 6387   1.503   0.445   0.641
 2148TIP3   OH2 6388   3.641   4.247   5.026
 2148TIP3    H1 6389   3.621   4.315   5.090
 2148TIP3    H2 6390   3.649   4.294   4.943
 2149TIP3   OH2 6391   2.116   1.814   3.513
 2149TIP3    H1 6392   2.091   1.791   3.423
 2149TIP3    H2 6393   2.117   1.731   3.560
 2150TIP3   OH2 6394   3.978   6.800   0.262
 2150TIP3    H1 6395   4.041   6.772   0.195
 2150TIP3    H2 6396   3.945   6.718   0.298
 2151TIP3   OH2 6397   7.719   4.482   3.191
 2151TIP3    H1 6398   7.679   4.523   3.268
 2151TIP3    H2 6399   7.810   4.466   3.216
 2152TIP3   OH2 6400   5.648   6.188   2.621
 2152TIP3    H1 6401   5.584   6.167   2.689
 2152TIP3    H2 6402   5.600   6.246   2.561
 2153TIP3   OH2 6403   6.154   1.316   1.691
 2153TIP3    H1 6404   6.174   1.360   1.774
 2153TIP3    H2 6405   6.112   1.383   1.638
 2154TIP3   OH2 6406   6.431   0.356   0.173
 2154TIP3    H1 6407   6.394   0.285   0.120
 2154TIP3    H2 6408   6.430   0.322   0.262
 2155TIP3   OH2 6409   5.277   5.549   1.969
 2155TIP3    H1 6410   5.316   5.476   2.016
 2155TIP3    H2 6411   5.315   5.543   1.881
 2156TIP3   OH2 6412   7.332   2.272   0.119
 2156TIP3    H1 6413   7.369   2.360   0.120
 2156TIP3    H2 6414   7.280   2.268   0.039
 2157TIP3   OH2 6415   2.763   1.600   4.222
 2157TIP3    H1 6416   2.709   1.635   4.292
 2157TIP3    H2 6417   2.817   1.533   4.264
 2158TIP3   OH2 6418   2.320   1.102   1.727
 2158TIP3    H1 6419   2.321   1.007   1.715
 2158TIP3    H2 6420   2.281   1.114   1.814
 2159TIP3   OH2 6421   6.535   4.959   4.891
 2159TIP3    H1 6422   6.522   5.033   4.950
 2159TIP3    H2 6423   6.454   4.954   4.840
 2160TIP3   OH2 6424   5.745   7.576   4.690
 2160TIP3    H1 6425   5.825   7.570   4.638
 2160TIP3    H2 6426   5.743   7.667   4.720
 2161TIP3   OH2 6427   5.456   2.144   0.712
 2161TIP3    H1 6428   5.361   2.139   0.705
 2161TIP3    H2 6429   5.486   2.170   0.625
 2162TIP3   OH2 6430   5.013   2.424   3.098
 2162TIP3    H1 6431   4.999   2.389   3.186
 2162TIP3    H2 6432   5.055   2.352   3.051
 2163TIP3   OH2 6433   7.792   4.725   5.527
 2163TIP3    H1 6434   7.783   4.818   5.508
 2163TIP3    H2 6435   7.703   4.695   5.544
 2164TIP3   OH2 6436   2.117   2.701   2.459
 2164TIP3    H1 6437   2.155   2.788   2.451
 2164TIP3    H2 6438   2.164   2.661   2.533
 2165TIP3   OH2 6439   7.562   0.320   0.311
 2165TIP3    H1 6440   7.623   0.352   0.378
 2165TIP3    H2 6441   7.613   0.254   0.264
 2166TIP3   OH2 6442   3.505   4.858   4.844
 2166TIP3    H1 6443   3.595   4.823   4.846
 2166TIP3    H2 6444   3.456   4.793   4.794
 2167TIP3   OH2 6445   7.960   0.238   4.504
 2167TIP3    H1 6446   8.016   0.265   4.431
 2167TIP3    H2 6447   7.894   0.307   4.511
 2168TIP3   OH2 6448   6.505   0.156   6.684
 2168TIP3    H1 6449   6.443   0.116   6.744
 2168TIP3    H2 6450   6.588   0.156   6.732
 2169TIP3   OH2 6451   0.860   4.598   0.594
 2169TIP3    H1 6452   0.936   4.555   0.634
 2169TIP3    H2 6453   0.831   4.662   0.660
 2170TIP3   OH2 6454   7.889   0.079   1.864
 2170TIP3    H1 6455   7.937   0.103   1.785
 2170TIP3    H2 6456   7.952   0.030   1.917
 2171TIP3   OH2 6457   3.130   1.890   5.869
 2171TIP3    H1 6458   3.144   1.984   5.879
 2171TIP3    H2 6459   3.079   1.865   5.946
 2172TIP3   OH2 6460   4.937   6.806   0.937
 2172TIP3    H1 6461   4.950   6.772   1.026
 2172TIP3    H2 6462   4.857   6.764   0.906
 2173TIP3   OH2 6463   3.865   7.821   5.133
 2173TIP3    H1 6464   3.869   7.757   5.062
 2173TIP3    H2 6465   3.933   7.794   5.194
 2174TIP3   OH2 6466   1.996   0.078   6.265
 2174TIP3    H1 6467   2.075   0.105   6.218
 2174TIP3    H2 6468   2.003   0.121   6.350
 2175TIP3   OH2 6469   4.320   4.749   6.080
 2175TIP3    H1 6470   4.226   4.757   6.062
 2175TIP3    H2 6471   4.341   4.826   6.133
 2176TIP3   OH2 6472   5.789   7.181   6.313
 2176TIP3    H1 6473   5.838   7.201   6.233
 2176TIP3    H2 6474   5.835   7.106   6.351
 2177TIP3   OH2 6475   3.781   4.068   4.818
 2177TIP3    H1 6476   3.705   4.106   4.862
 2177TIP3    H2 6477   3.825   4.142   4.777
 2178TIP3   OH2 6478   2.241   7.594   2.997
 2178TIP3    H1 6479   2.204   7.643   2.924
 2178TIP3    H2 6480   2.243   7.503   2.967
 2179TIP3   OH2 6481   5.120   1.449   3.847
 2179TIP3    H1 6482   5.069   1.444   3.928
 2179TIP3    H2 6483   5.211   1.443   3.876
 2180TIP3   OH2 6484   7.108   2.087   4.348
 2180TIP3    H1 6485   7.135   2.166   4.395
 2180TIP3    H2 6486   7.126   2.106   4.256
 2181TIP3   OH2 6487   2.698   2.157   2.728
 2181TIP3    H1 6488   2.774   2.104   2.704
 2181TIP3    H2 6489   2.623   2.100   2.713
 2182TIP3   OH2 6490   7.400   5.126   1.711
 2182TIP3    H1 6491   7.358   5.209   1.689
 2182TIP3    H2 6492   7.480   5.151   1.756
 2183TIP3   OH2 6493   0.787   0.611   4.689
 2183TIP3    H1 6494   0.795   0.520   4.659
 2183TIP3    H2 6495   0.877   0.639   4.705
 2184TIP3   OH2 6496   2.035   5.938   1.613
 2184TIP3    H1 6497   2.101   5.993   1.656
 2184TIP3    H2 6498   2.046   5.852   1.653
 2185TIP3   OH2 6499   4.750   4.737   3.006
 2185TIP3    H1 6500   4.758   4.681   2.930
 2185TIP3    H2 6501   4.802   4.815   2.985
 2186TIP3   OH2 6502   7.874   3.053   0.555
 2186TIP3    H1 6503   7.793   3.096   0.581
 2186TIP3    H2 6504   7.926   3.122   0.514
 2187TIP3   OH2 6505   2.265   1.481   4.585
 2187TIP3    H1 6506   2.339   1.527   4.624
 2187TIP3    H2 6507   2.188   1.518   4.628
 2188TIP3   OH2 6508   7.390   6.686   3.785
 2188TIP3    H1 6509   7.318   6.678   3.847
 2188TIP3    H2 6510   7.348   6.694   3.700
 2189TIP3   OH2 6511   3.269   6.958   5.426
 2189TIP3    H1 6512   3.215   6.992   5.355
 2189TIP3    H2 6513   3.353   6.937   5.384
 2190TIP3   OH2 6514   5.297   2.146   0.058
 2190TIP3    H1 6515   5.383   2.174   0.027
 2190TIP3    H2 6516   5.249   2.228   0.072
 2191TIP3   OH2 6517   3.810   2.081   1.653
 2191TIP3    H1 6518   3.801   2.055   1.745
 2191TIP3    H2 6519   3.750   2.155   1.643
 2192TIP3   OH2 6520   3.493   3.266   0.121
 2192TIP3    H1 6521   3.551   3.215   0.178
 2192TIP3    H2 6522   3.410   3.268   0.168
 2193TIP3   OH2 6523   6.307   7.485   5.233
 2193TIP3    H1 6524   6.343   7.417   5.176
 2193TIP3    H2 6525   6.367   7.558   5.224
 2194TIP3   OH2 6526   4.207   5.535   5.938
 2194TIP3    H1 6527   4.153   5.609   5.911
 2194TIP3    H2 6528   4.297   5.568   5.932
 2195TIP3   OH2 6529   0.234   0.887   4.731
 2195TIP3    H1 6530   0.176   0.939   4.786
 2195TIP3    H2 6531   0.298   0.950   4.698
 2196TIP3   OH2 6532   4.321   2.037   2.322
 2196TIP3    H1 6533   4.267   1.959   2.311
 2196TIP3    H2 6534   4.326   2.075   2.234
 2197TIP3   OH2 6535   0.719   5.078   1.619
 2197TIP3    H1 6536   0.672   5.153   1.656
 2197TIP3    H2 6537   0.772   5.116   1.549
 2198TIP3   OH2 6538   6.880   5.447   5.821
 2198TIP3    H1 6539   6.903   5.425   5.731
 2198TIP3    H2 6540   6.786   5.434   5.826
 2199TIP3   OH2 6541   7.681   7.735   5.768
 2199TIP3    H1 6542   7.741   7.680   5.718
 2199TIP3    H2 6543   7.653   7.680   5.841
 2200TIP3   OH2 6544   1.505   4.642   4.540
 2200TIP3    H1 6545   1.531   4.668   4.452
 2200TIP3    H2 6546   1.526   4.718   4.595
 2201TIP3   OH2 6547   0.674   1.201   5.988
 2201TIP3    H1 6548   0.669   1.171   5.897
 2201TIP3    H2 6549   0.767   1.200   6.009
 2202TIP3   OH2 6550   4.946   3.145   4.876
 2202TIP3    H1 6551   4.962   3.212   4.942
 2202TIP3    H2 6552   4.877   3.182   4.821
 2203TIP3   OH2 6553   4.693   3.320   1.316
 2203TIP3    H1 6554   4.787   3.310   1.326
 2203TIP3    H2 6555   4.656   3.250   1.371
 2204TIP3   OH2 6556   1.037   1.595   5.204
 2204TIP3    H1 6557   1.087   1.518   5.175
 2204TIP3    H2 6558   1.081   1.669   5.162
 2205TIP3   OH2 6559   3.539   4.877   0.984
 2205TIP3    H1 6560   3.536   4.851   0.892
 2205TIP3    H2 6561   3.451   4.910   1.003
 2206TIP3   OH2 6562   5.964   0.856   1.277
 2206TIP3    H1 6563   5.924   0.889   1.358
 2206TIP3    H2 6564   6.046   0.816   1.306
 2207TIP3   OH2 6565   8.273   0.441   0.479
 2207TIP3    H1 6566   8.269   0.455   0.385
 2207TIP3    H2 6567   8.259   0.529   0.516
 2208TIP3   OH2 6568   2.778   4.726   4.568
 2208TIP3    H1 6569   2.715   4.782   4.523
 2208TIP3    H2 6570   2.809   4.779   4.642
 2209TIP3   OH2 6571   3.158   0.539   4.818
 2209TIP3    H1 6572   3.151   0.447   4.843
 2209TIP3    H2 6573   3.239   0.545   4.768
 2210TIP3   OH2 6574   7.964   5.418   5.832
 2210TIP3    H1 6575   7.985   5.366   5.910
 2210TIP3    H2 6576   7.874   5.447   5.847
 2211TIP3   OH2 6577   6.278   6.210   3.330
 2211TIP3    H1 6578   6.357   6.263   3.342
 2211TIP3    H2 6579   6.311   6.122   3.313
 2212TIP3   OH2 6580   3.108   0.798   4.694
 2212TIP3    H1 6581   3.125   0.721   4.748
 2212TIP3    H2 6582   3.032   0.774   4.641
 2213TIP3   OH2 6583   1.689   3.101   2.425
 2213TIP3    H1 6584   1.661   3.054   2.504
 2213TIP3    H2 6585   1.613   3.155   2.401
 2214TIP3   OH2 6586   7.687   3.983   2.308
 2214TIP3    H1 6587   7.611   4.030   2.274
 2214TIP3    H2 6588   7.676   3.986   2.404
 2215TIP3   OH2 6589   2.379   5.560   4.809
 2215TIP3    H1 6590   2.451   5.589   4.865
 2215TIP3    H2 6591   2.300   5.594   4.852
 2216TIP3   OH2 6592   4.641   5.547   3.347
 2216TIP3    H1 6593   4.584   5.624   3.340
 2216TIP3    H2 6594   4.691   5.545   3.266
 2217TIP3   OH2 6595   7.696   0.711   4.384
 2217TIP3    H1 6596   7.722   0.803   4.370
 2217TIP3    H2 6597   7.660   0.709   4.473
 2218TIP3   OH2 6598   7.367   1.393   3.882
 2218TIP3    H1 6599   7.276   1.381   3.856
 2218TIP3    H2 6600   7.401   1.459   3.821
 2219TIP3   OH2 6601   8.065   0.022   0.513
 2219TIP3    H1 6602   8.143   0.075   0.528
 2219TIP3    H2 6603   8.024   0.015   0.600
 2220TIP3   OH2 6604   7.829   7.667   2.820
 2220TIP3    H1 6605   7.760   7.601   2.815
 2220TIP3    H2 6606   7.897   7.636   2.761
 2221TIP3   OH2 6607   3.209   0.459   1.417
 2221TIP3    H1 6608   3.191   0.531   1.477
 2221TIP3    H2 6609   3.126   0.445   1.371
 2222TIP3   OH2 6610   2.276   2.455   0.707
 2222TIP3    H1 6611   2.186   2.434   0.731
 2222TIP3    H2 6612   2.309   2.508   0.780
 2223TIP3   OH2 6613   4.566   5.701   0.237
 2223TIP3    H1 6614   4.506   5.627   0.246
 2223TIP3    H2 6615   4.653   5.662   0.248
 2224TIP3   OH2 6616   4.471   7.157   0.343
 2224TIP3    H1 6617   4.528   7.159   0.266
 2224TIP3    H2 6618   4.433   7.069   0.342
 2225TIP3   OH2 6619   2.530   4.857   6.423
 2225TIP3    H1 6620   2.609   4.858   6.476
 2225TIP3    H2 6621   2.543   4.783   6.363
 2226TIP3   OH2 6622   6.464   1.564   4.635
 2226TIP3    H1 6623   6.500   1.548   4.722
 2226TIP3    H2 6624   6.496   1.650   4.611
 2227TIP3   OH2 6625   6.137   6.529   4.060
 2227TIP3    H1 6626   6.185   6.537   3.978
 2227TIP3    H2 6627   6.199   6.557   4.127
 2228TIP3   OH2 6628   5.392   7.646   1.466
 2228TIP3    H1 6629   5.355   7.734   1.476
 2228TIP3    H2 6630   5.478   7.661   1.428
 2229TIP3   OH2 6631   0.268   1.603   5.897
 2229TIP3    H1 6632   0.177   1.581   5.877
 2229TIP3    H2 6633   0.320   1.535   5.854
 2230TIP3   OH2 6634   4.326   0.992   2.172
 2230TIP3    H1 6635   4.364   0.905   2.182
 2230TIP3    H2 6636   4.391   1.041   2.121
 2231TIP3   OH2 6637   3.296   0.460   4.502
 2231TIP3    H1 6638   3.333   0.465   4.590
 2231TIP3    H2 6639   3.369   0.480   4.444
 2232TIP3   OH2 6640   0.422   6.909   4.574
 2232TIP3    H1 6641   0.494   6.912   4.638
 2232TIP3    H2 6642   0.384   6.822   4.584
 2233TIP3   OH2 6643   8.245   6.735   6.387
 2233TIP3    H1 6644   8.168   6.678   6.378
 2233TIP3    H2 6645   8.230   6.783   6.468
 2234TIP3   OH2 6646   0.212   7.341   6.272
 2234TIP3    H1 6647   0.250   7.270   6.325
 2234TIP3    H2 6648   0.273   7.351   6.199
 2235TIP3   OH2 6649   2.045   5.233   2.950
 2235TIP3    H1 6650   2.006   5.257   2.865
 2235TIP3    H2 6651   1.996   5.285   3.014
 2236TIP3   OH2 6652   6.438   1.756   4.110
 2236TIP3    H1 6653   6.468   1.686   4.051
 2236TIP3    H2 6654   6.498   1.753   4.184
 2237TIP3   OH2 6655   7.131   5.539   2.026
 2237TIP3    H1 6656   7.066   5.554   2.095
 2237TIP3    H2 6657   7.207   5.503   2.073
 2238TIP3   OH2 6658   1.374   2.251   5.771
 2238TIP3    H1 6659   1.448   2.208   5.814
 2238TIP3    H2 6660   1.371   2.338   5.812
 2239TIP3   OH2 6661   0.860   0.563   4.060
 2239TIP3    H1 6662   0.831   0.478   4.028
 2239TIP3    H2 6663   0.780   0.615   4.064
 2240TIP3   OH2 6664   0.922   7.020   2.534
 2240TIP3    H1 6665   1.008   7.021   2.576
 2240TIP3    H2 6666   0.941   7.002   2.442
 2241TIP3   OH2 6667   7.599   6.448   0.860
 2241TIP3    H1 6668   7.583   6.539   0.884
 2241TIP3    H2 6669   7.650   6.413   0.934
 2242TIP3   OH2 6670   0.667   6.337   4.568
 2242TIP3    H1 6671   0.616   6.404   4.614
 2242TIP3    H2 6672   0.646   6.255   4.613
 2243TIP3   OH2 6673   6.457   1.469   0.056
 2243TIP3    H1 6674   6.441   1.537  -0.009
 2243TIP3    H2 6675   6.492   1.516   0.132
 2244TIP3   OH2 6676   8.039   6.375   2.171
 2244TIP3    H1 6677   8.080   6.345   2.089
 2244TIP3    H2 6678   7.945   6.380   2.150
 2245TIP3   OH2 6679   7.011   2.150   4.742
 2245TIP3    H1 6680   6.920   2.121   4.740
 2245TIP3    H2 6681   7.040   2.145   4.651
 2246TIP3   OH2 6682   0.037   0.559   3.068
 2246TIP3    H1 6683   0.070   0.510   2.992
 2246TIP3    H2 6684  -0.008   0.493   3.120
 2247TIP3   OH2 6685   2.955   5.811   1.589
 2247TIP3    H1 6686   2.963   5.805   1.493
 2247TIP3    H2 6687   2.910   5.731   1.614
 2248TIP3   OH2 6688   7.271   2.300   2.438
 2248TIP3    H1 6689   7.270   2.389   2.473
 2248TIP3    H2 6690   7.198   2.298   2.377
 2249TIP3   OH2 6691   3.569   4.669   3.450
 2249TIP3    H1 6692   3.537   4.598   3.394
 2249TIP3    H2 6693   3.625   4.721   3.393
 2250TIP3   OH2 6694   5.890   6.088   6.683
 2250TIP3    H1 6695   5.918   6.077   6.592
 2250TIP3    H2 6696   5.857   6.178   6.687
 2251TIP3   OH2 6697   1.104   0.820   1.182
 2251TIP3    H1 6698   1.102   0.902   1.133
 2251TIP3    H2 6699   1.092   0.752   1.115
 2252TIP3   OH2 6700   7.346   1.567   1.544
 2252TIP3    H1 6701   7.315   1.510   1.474
 2252TIP3    H2 6702   7.410   1.625   1.502
 2253TIP3   OH2 6703   0.960   5.927   2.426
 2253TIP3    H1 6704   0.929   5.876   2.501
 2253TIP3    H2 6705   1.020   5.868   2.380
 2254TIP3   OH2 6706   7.944   0.828   1.518
 2254TIP3    H1 6707   7.928   0.920   1.500
 2254TIP3    H2 6708   7.869   0.800   1.571
 2255TIP3   OH2 6709   5.927   0.396   5.957
 2255TIP3    H1 6710   5.845   0.361   5.922
 2255TIP3    H2 6711   5.967   0.442   5.882
 2256TIP3   OH2 6712   0.279   0.198   0.218
 2256TIP3    H1 6713   0.272   0.104   0.231
 2256TIP3    H2 6714   0.361   0.222   0.262
 2257TIP3   OH2 6715   7.022   0.986   0.293
 2257TIP3    H1 6716   7.107   1.000   0.249
 2257TIP3    H2 6717   7.042   0.994   0.386
 2258TIP3   OH2 6718   1.433   7.635   2.628
 2258TIP3    H1 6719   1.428   7.697   2.556
 2258TIP3    H2 6720   1.499   7.672   2.687
 2259TIP3   OH2 6721   3.073   0.417   2.264
 2259TIP3    H1 6722   3.091   0.510   2.252
 2259TIP3    H2 6723   3.004   0.397   2.201
 2260TIP3   OH2 6724   4.028   7.163   1.038
 2260TIP3    H1 6725   3.970   7.172   1.114
 2260TIP3    H2 6726   4.007   7.077   1.002
 2261TIP3   OH2 6727   1.550   4.369   4.661
 2261TIP3    H1 6728   1.601   4.446   4.635
 2261TIP3    H2 6729   1.489   4.355   4.589
 2262TIP3   OH2 6730   2.881   7.442   5.282
 2262TIP3    H1 6731   2.972   7.411   5.281
 2262TIP3    H2 6732   2.869   7.482   5.196
 2263TIP3   OH2 6733   1.238   6.877   4.061
 2263TIP3    H1 6734   1.318   6.827   4.043
 2263TIP3    H2 6735   1.198   6.832   4.135
 2264TIP3   OH2 6736   0.144   6.526   6.699
 2264TIP3    H1 6737   0.230   6.501   6.666
 2264TIP3    H2 6738   0.134   6.479   6.781
 2265TIP3   OH2 6739   0.150   6.561   3.597
 2265TIP3    H1 6740   0.215   6.580   3.664
 2265TIP3    H2 6741   0.081   6.626   3.610
 2266TIP3   OH2 6742   0.977   3.821   4.353
 2266TIP3    H1 6743   0.982   3.726   4.367
 2266TIP3    H2 6744   0.972   3.831   4.258
 2267TIP3   OH2 6745   2.704   6.785   4.515
 2267TIP3    H1 6746   2.673   6.869   4.482
 2267TIP3    H2 6747   2.632   6.754   4.571
 2268TIP3   OH2 6748   4.912   0.521   1.204
 2268TIP3    H1 6749   4.859   0.583   1.255
 2268TIP3    H2 6750   4.852   0.449   1.186
 2269TIP3   OH2 6751   6.951   1.199   0.834
 2269TIP3    H1 6752   6.919   1.146   0.760
 2269TIP3    H2 6753   7.010   1.262   0.794
 2270TIP3   OH2 6754   2.818   4.657   2.710
 2270TIP3    H1 6755   2.777   4.728   2.661
 2270TIP3    H2 6756   2.815   4.582   2.650
 2271TIP3   OH2 6757   6.345   4.182   3.700
 2271TIP3    H1 6758   6.356   4.202   3.607
 2271TIP3    H2 6759   6.419   4.125   3.721
 2272TIP3   OH2 6760   8.267   7.304   0.528
 2272TIP3    H1 6761   8.323   7.357   0.472
 2272TIP3    H2 6762   8.199   7.271   0.469
 2273TIP3   OH2 6763   2.833   6.189   6.475
 2273TIP3    H1 6764   2.762   6.167   6.415
 2273TIP3    H2 6765   2.796   6.176   6.562
 2274TIP3   OH2 6766   6.343   1.946   5.306
 2274TIP3    H1 6767   6.322   1.989   5.224
 2274TIP3    H2 6768   6.259   1.919   5.342
 2275TIP3   OH2 6769   5.029   3.097   1.602
 2275TIP3    H1 6770   4.957   3.041   1.572
 2275TIP3    H2 6771   5.036   3.164   1.534
 2276TIP3   OH2 6772   2.829   5.621   4.761
 2276TIP3    H1 6773   2.803   5.692   4.703
 2276TIP3    H2 6774   2.888   5.662   4.825
 2277TIP3   OH2 6775   2.693   6.934   2.456
 2277TIP3    H1 6776   2.722   7.023   2.476
 2277TIP3    H2 6777   2.680   6.933   2.361
 2278TIP3   OH2 6778   3.741   5.593   3.082
 2278TIP3    H1 6779   3.719   5.509   3.043
 2278TIP3    H2 6780   3.710   5.587   3.173
 2279TIP3   OH2 6781   3.144   5.216   1.507
 2279TIP3    H1 6782   3.237   5.236   1.505
 2279TIP3    H2 6783   3.114   5.232   1.417
 2280TIP3   OH2 6784   0.433   6.817   6.454
 2280TIP3    H1 6785   0.348   6.775   6.469
 2280TIP3    H2 6786   0.461   6.784   6.368
 2281TIP3   OH2 6787   4.198   5.281   6.035
 2281TIP3    H1 6788   4.200   5.371   6.003
 2281TIP3    H2 6789   4.240   5.230   5.965
 2282TIP3   OH2 6790   4.723   6.276   2.414
 2282TIP3    H1 6791   4.629   6.281   2.431
 2282TIP3    H2 6792   4.761   6.248   2.496
 2283TIP3   OH2 6793   0.865   5.468   4.307
 2283TIP3    H1 6794   0.943   5.503   4.264
 2283TIP3    H2 6795   0.871   5.373   4.295
 2284TIP3   OH2 6796   6.339   7.745   1.823
 2284TIP3    H1 6797   6.335   7.650   1.821
 2284TIP3    H2 6798   6.299   7.769   1.907
 2285TIP3   OH2 6799   2.609   5.752   1.665
 2285TIP3    H1 6800   2.672   5.736   1.595
 2285TIP3    H2 6801   2.657   5.734   1.746
 2286TIP3   OH2 6802   7.438   0.032   5.081
 2286TIP3    H1 6803   7.347   0.040   5.108
 2286TIP3    H2 6804   7.487   0.028   5.164
 2287TIP3   OH2 6805   0.183   1.704   1.950
 2287TIP3    H1 6806   0.198   1.762   2.025
 2287TIP3    H2 6807   0.196   1.759   1.873
 2288TIP3   OH2 6808   2.843   7.756   5.806
 2288TIP3    H1 6809   2.922   7.723   5.764
 2288TIP3    H2 6810   2.785   7.779   5.733
 2289TIP3   OH2 6811   4.327   6.275   4.904
 2289TIP3    H1 6812   4.367   6.348   4.858
 2289TIP3    H2 6813   4.240   6.266   4.866
 2290TIP3   OH2 6814   3.488   4.065   5.815
 2290TIP3    H1 6815   3.562   4.049   5.757
 2290TIP3    H2 6816   3.411   4.041   5.763
 2291TIP3   OH2 6817   6.670   6.238   3.876
 2291TIP3    H1 6818   6.684   6.332   3.864
 2291TIP3    H2 6819   6.722   6.216   3.953
 2292TIP3   OH2 6820   5.839   2.521   3.491
 2292TIP3    H1 6821   5.854   2.615   3.496
 2292TIP3    H2 6822   5.833   2.493   3.583
 2293TIP3   OH2 6823   0.909   4.136   1.964
 2293TIP3    H1 6824   0.847   4.194   2.009
 2293TIP3    H2 6825   0.947   4.191   1.895
 2294TIP3   OH2 6826   3.779   3.439   4.175
 2294TIP3    H1 6827   3.870   3.447   4.147
 2294TIP3    H2 6828   3.729   3.487   4.110
 2295TIP3   OH2 6829   6.606   4.155   1.444
 2295TIP3    H1 6830   6.518   4.174   1.478
 2295TIP3    H2 6831   6.664   4.211   1.496
 2296TIP3   OH2 6832   1.608   0.279   2.939
 2296TIP3    H1 6833   1.583   0.248   2.852
 2296TIP3    H2 6834   1.539   0.342   2.962
 2297TIP3   OH2 6835   3.635   2.695   6.191
 2297TIP3    H1 6836   3.705   2.734   6.242
 2297TIP3    H2 6837   3.663   2.606   6.174
 2298TIP3   OH2 6838   3.884   1.008   0.582
 2298TIP3    H1 6839   3.834   1.075   0.629
 2298TIP3    H2 6840   3.877   1.032   0.490
 2299TIP3   OH2 6841   2.647   5.883   3.644
 2299TIP3    H1 6842   2.597   5.946   3.593
 2299TIP3    H2 6843   2.735   5.885   3.605
 2300TIP3   OH2 6844   7.423   3.917   1.624
 2300TIP3    H1 6845   7.453   3.954   1.541
 2300TIP3    H2 6846   7.494   3.936   1.685
 2301TIP3   OH2 6847   2.493   3.934   3.398
 2301TIP3    H1 6848   2.533   3.917   3.483
 2301TIP3    H2 6849   2.565   3.967   3.344
 2302TIP3   OH2 6850   0.552   0.592   5.420
 2302TIP3    H1 6851   0.522   0.510   5.458
 2302TIP3    H2 6852   0.494   0.659   5.457
 2303TIP3   OH2 6853   6.038   6.208   2.788
 2303TIP3    H1 6854   6.052   6.143   2.857
 2303TIP3    H2 6855   6.017   6.289   2.835
 2304TIP3   OH2 6856   1.258   5.680   2.581
 2304TIP3    H1 6857   1.181   5.654   2.631
 2304TIP3    H2 6858   1.231   5.677   2.490
 2305TIP3   OH2 6859   2.807   6.107   5.971
 2305TIP3    H1 6860   2.847   6.082   6.055
 2305TIP3    H2 6861   2.804   6.025   5.921
 2306TIP3   OH2 6862   7.819   5.696   4.865
 2306TIP3    H1 6863   7.764   5.647   4.926
 2306TIP3    H2 6864   7.872   5.629   4.821
 2307TIP3   OH2 6865   5.000   2.303   0.391
 2307TIP3    H1 6866   4.904   2.311   0.397
 2307TIP3    H2 6867   5.021   2.331   0.302
 2308TIP3   OH2 6868   4.432   5.077   1.592
 2308TIP3    H1 6869   4.526   5.081   1.609
 2308TIP3    H2 6870   4.395   5.150   1.642
 2309TIP3   OH2 6871   3.840   4.876   3.142
 2309TIP3    H1 6872   3.757   4.886   3.188
 2309TIP3    H2 6873   3.816   4.863   3.051
 2310TIP3   OH2 6874   2.078   1.948   3.743
 2310TIP3    H1 6875   1.992   1.987   3.759
 2310TIP3    H2 6876   2.071   1.911   3.655
 2311TIP3   OH2 6877   0.412   6.429   4.272
 2311TIP3    H1 6878   0.463   6.504   4.303
 2311TIP3    H2 6879   0.322   6.450   4.297
 2312TIP3   OH2 6880   5.588   4.529   3.490
 2312TIP3    H1 6881   5.593   4.447   3.539
 2312TIP3    H2 6882   5.652   4.519   3.420
 2313TIP3   OH2 6883   5.480   7.044   1.321
 2313TIP3    H1 6884   5.455   6.998   1.241
 2313TIP3    H2 6885   5.397   7.062   1.365
 2314TIP3   OH2 6886   5.609   6.061   5.129
 2314TIP3    H1 6887   5.544   6.128   5.106
 2314TIP3    H2 6888   5.693   6.107   5.124
 2315TIP3   OH2 6889   5.342   7.383   0.171
 2315TIP3    H1 6890   5.364   7.432   0.251
 2315TIP3    H2 6891   5.288   7.443   0.121
 2316TIP3   OH2 6892   3.183   0.609   3.096
 2316TIP3    H1 6893   3.240   0.684   3.079
 2316TIP3    H2 6894   3.096   0.639   3.070
 2317TIP3   OH2 6895   5.072   5.789   6.575
 2317TIP3    H1 6896   5.122   5.858   6.532
 2317TIP3    H2 6897   5.066   5.719   6.509
 2318TIP3   OH2 6898   8.157   4.174   5.947
 2318TIP3    H1 6899   8.094   4.242   5.975
 2318TIP3    H2 6900   8.157   4.112   6.020
 2319TIP3   OH2 6901   2.663   5.693   2.035
 2319TIP3    H1 6902   2.758   5.700   2.044
 2319TIP3    H2 6903   2.628   5.771   2.078
 2320TIP3   OH2 6904   0.554   6.563   5.054
 2320TIP3    H1 6905   0.561   6.493   5.118
 2320TIP3    H2 6906   0.466   6.599   5.067
 2321TIP3   OH2 6907   1.745   4.099   6.720
 2321TIP3    H1 6908   1.736   4.022   6.664
 2321TIP3    H2 6909   1.812   4.076   6.783
 2322TIP3   OH2 6910   7.876   3.359   4.584
 2322TIP3    H1 6911   7.918   3.441   4.611
 2322TIP3    H2 6912   7.918   3.292   4.637
 2323TIP3   OH2 6913   7.916   0.544   3.379
 2323TIP3    H1 6914   7.953   0.505   3.459
 2323TIP3    H2 6915   7.826   0.512   3.377
 2324TIP3   OH2 6916   6.899   6.258   5.807
 2324TIP3    H1 6917   6.947   6.247   5.890
 2324TIP3    H2 6918   6.958   6.221   5.741
 2325TIP3   OH2 6919   6.050   2.975   6.711
 2325TIP3    H1 6920   6.018   2.980   6.621
 2325TIP3    H2 6921   6.114   3.046   6.718
 2326TIP3   OH2 6922   8.287   4.655   4.626
 2326TIP3    H1 6923   8.269   4.743   4.593
 2326TIP3    H2 6924   8.228   4.644   4.701
 2327TIP3   OH2 6925   4.774   2.861   6.216
 2327TIP3    H1 6926   4.813   2.925   6.276
 2327TIP3    H2 6927   4.698   2.828   6.262
 2328TIP3   OH2 6928   2.557   3.137   6.074
 2328TIP3    H1 6929   2.493   3.068   6.057
 2328TIP3    H2 6930   2.627   3.093   6.124
 2329TIP3   OH2 6931   1.644   6.935   5.829
 2329TIP3    H1 6932   1.672   6.875   5.760
 2329TIP3    H2 6933   1.567   6.893   5.868
 2330TIP3   OH2 6934   5.395   2.667   1.875
 2330TIP3    H1 6935   5.335   2.634   1.943
 2330TIP3    H2 6936   5.346   2.738   1.833
 2331TIP3   OH2 6937   7.421   0.735   3.375
 2331TIP3    H1 6938   7.509   0.748   3.340
 2331TIP3    H2 6939   7.405   0.641   3.365
 2332TIP3   OH2 6940   8.167   1.671   4.997
 2332TIP3    H1 6941   8.183   1.582   5.028
 2332TIP3    H2 6942   8.074   1.685   5.013
 2333TIP3   OH2 6943   7.335   4.655   3.282
 2333TIP3    H1 6944   7.288   4.724   3.328
 2333TIP3    H2 6945   7.422   4.655   3.321
 2334TIP3   OH2 6946   1.621   2.100   2.111
 2334TIP3    H1 6947   1.540   2.149   2.107
 2334TIP3    H2 6948   1.627   2.057   2.026
 2335TIP3   OH2 6949   1.072   3.967   4.571
 2335TIP3    H1 6950   1.066   3.895   4.508
 2335TIP3    H2 6951   1.033   3.932   4.651
 2336TIP3   OH2 6952   1.783   1.531   1.268
 2336TIP3    H1 6953   1.842   1.561   1.199
 2336TIP3    H2 6954   1.839   1.519   1.345
 2337TIP3   OH2 6955   1.312   7.049   5.663
 2337TIP3    H1 6956   1.238   7.100   5.630
 2337TIP3    H2 6957   1.275   6.997   5.734
 2338TIP3   OH2 6958   7.447   2.172   3.127
 2338TIP3    H1 6959   7.369   2.134   3.169
 2338TIP3    H2 6960   7.503   2.199   3.199
 2339TIP3   OH2 6961   2.494   1.074   0.353
 2339TIP3    H1 6962   2.420   1.050   0.409
 2339TIP3    H2 6963   2.469   1.158   0.315
 2340TIP3   OH2 6964   2.862   5.826   0.114
 2340TIP3    H1 6965   2.906   5.749   0.150
 2340TIP3    H2 6966   2.931   5.873   0.067
 2341TIP3   OH2 6967   4.330   1.494   3.705
 2341TIP3    H1 6968   4.331   1.451   3.619
 2341TIP3    H2 6969   4.357   1.584   3.687
 2342TIP3   OH2 6970   3.452   5.547   0.349
 2342TIP3    H1 6971   3.411   5.594   0.422
 2342TIP3    H2 6972   3.378   5.508   0.302
 2343TIP3   OH2 6973   6.475   3.507   0.133
 2343TIP3    H1 6974   6.460   3.506   0.038
 2343TIP3    H2 6975   6.478   3.414   0.157
 2344TIP3   OH2 6976   8.033   6.075   3.923
 2344TIP3    H1 6977   8.017   6.169   3.930
 2344TIP3    H2 6978   8.110   6.067   3.868
 2345TIP3   OH2 6979   0.568   6.039   6.378
 2345TIP3    H1 6980   0.569   5.965   6.318
 2345TIP3    H2 6981   0.636   6.019   6.443
 2346TIP3   OH2 6982   6.091   2.294   3.413
 2346TIP3    H1 6983   6.081   2.356   3.486
 2346TIP3    H2 6984   6.039   2.332   3.342
 2347TIP3   OH2 6985   1.670   1.377   4.744
 2347TIP3    H1 6986   1.604   1.419   4.799
 2347TIP3    H2 6987   1.663   1.284   4.764
 2348TIP3   OH2 6988   5.070   1.894   5.542
 2348TIP3    H1 6989   5.086   1.927   5.453
 2348TIP3    H2 6990   4.977   1.910   5.557
 2349TIP3   OH2 6991   4.664   4.559   5.894
 2349TIP3    H1 6992   4.670   4.654   5.901
 2349TIP3    H2 6993   4.720   4.537   5.819
 2350TIP3   OH2 6994   4.554   7.722   0.862
 2350TIP3    H1 6995   4.467   7.700   0.896
 2350TIP3    H2 6996   4.563   7.816   0.879
 2351TIP3   OH2 6997   1.238   0.143   2.620
 2351TIP3    H1 6998   1.152   0.131   2.661
 2351TIP3    H2 6999   1.271   0.224   2.658
 2352TIP3   OH2 7000   0.746   3.014   5.364
 2352TIP3    H1 7001   0.687   2.939   5.375
 2352TIP3    H2 7002   0.716   3.077   5.429
 2353TIP3   OH2 7003   3.144   1.950   6.405
 2353TIP3    H1 7004   3.055   1.937   6.371
 2353TIP3    H2 7005   3.133   1.954   6.500
 2354TIP3   OH2 7006   0.817   0.387   3.098
 2354TIP3    H1 7007   0.868   0.373   3.018
 2354TIP3    H2 7008   0.881   0.404   3.166
 2355TIP3   OH2 7009   6.999   4.538   5.994
 2355TIP3    H1 7010   6.982   4.443   5.994
 2355TIP3    H2 7011   6.925   4.575   5.946
 2356TIP3   OH2 7012   1.109   6.726   5.700
 2356TIP3    H1 7013   1.082   6.664   5.768
 2356TIP3    H2 7014   1.143   6.801   5.749
 2357TIP3   OH2 7015   4.791   0.716   1.019
 2357TIP3    H1 7016   4.841   0.713   1.101
 2357TIP3    H2 7017   4.718   0.656   1.033
 2358TIP3   OH2 7018   3.093   6.918   3.888
 2358TIP3    H1 7019   3.075   6.982   3.819
 2358TIP3    H2 7020   3.040   6.842   3.865
 2359TIP3   OH2 7021   0.799   5.028   2.975
 2359TIP3    H1 7022   0.758   4.993   3.054
 2359TIP3    H2 7023   0.726   5.054   2.919
 2360TIP3   OH2 7024   6.496   2.180   5.430
 2360TIP3    H1 7025   6.469   2.229   5.508
 2360TIP3    H2 7026   6.416   2.134   5.402
 2361TIP3   OH2 7027   0.941   1.368   2.438
 2361TIP3    H1 7028   0.988   1.441   2.399
 2361TIP3    H2 7029   0.896   1.326   2.363
 2362TIP3   OH2 7030   2.531   0.022   2.527
 2362TIP3    H1 7031   2.550   0.013   2.434
 2362TIP3    H2 7032   2.437   0.039   2.531
 2363TIP3   OH2 7033   1.166   7.628   0.905
 2363TIP3    H1 7034   1.104   7.677   0.958
 2363TIP3    H2 7035   1.156   7.662   0.816
 2364TIP3   OH2 7036   2.573   4.427   2.157
 2364TIP3    H1 7037   2.651   4.401   2.108
 2364TIP3    H2 7038   2.557   4.353   2.216
 2365TIP3   OH2 7039   6.307   0.439   2.746
 2365TIP3    H1 7040   6.279   0.348   2.757
 2365TIP3    H2 7041   6.391   0.433   2.700
 2366TIP3   OH2 7042   2.729   2.732   5.556
 2366TIP3    H1 7043   2.643   2.763   5.584
 2366TIP3    H2 7044   2.791   2.787   5.604
 2367TIP3   OH2 7045   1.497   5.551   6.279
 2367TIP3    H1 7046   1.460   5.478   6.328
 2367TIP3    H2 7047   1.563   5.589   6.337
 2368TIP3   OH2 7048   7.956   6.262   1.290
 2368TIP3    H1 7049   7.998   6.307   1.363
 2368TIP3    H2 7050   7.868   6.299   1.287
 2369TIP3   OH2 7051   2.492   0.649   4.857
 2369TIP3    H1 7052   2.519   0.601   4.779
 2369TIP3    H2 7053   2.497   0.585   4.928
 2370TIP3   OH2 7054   6.113   2.136   1.768
 2370TIP3    H1 7055   6.049   2.088   1.821
 2370TIP3    H2 7056   6.190   2.079   1.766
 2371TIP3   OH2 7057   4.753   0.957   1.746
 2371TIP3    H1 7058   4.763   0.953   1.841
 2371TIP3    H2 7059   4.814   1.026   1.719
 2372TIP3   OH2 7060   5.371   3.656   0.442
 2372TIP3    H1 7061   5.311   3.681   0.512
 2372TIP3    H2 7062   5.345   3.712   0.368
 2373TIP3   OH2 7063   0.608   3.314   3.021
 2373TIP3    H1 7064   0.580   3.404   3.006
 2373TIP3    H2 7065   0.703   3.317   3.014
 2374TIP3   OH2 7066   8.074   2.285   5.915
 2374TIP3    H1 7067   8.014   2.323   5.980
 2374TIP3    H2 7068   8.138   2.354   5.898
 2375TIP3   OH2 7069   5.139   2.454   4.739
 2375TIP3    H1 7070   5.110   2.540   4.770
 2375TIP3    H2 7071   5.077   2.432   4.669
 2376TIP3   OH2 7072   2.303   3.136   3.295
 2376TIP3    H1 7073   2.323   3.043   3.289
 2376TIP3    H2 7074   2.379   3.179   3.255
 2377TIP3   OH2 7075   4.252   5.610   3.496
 2377TIP3    H1 7076   4.329   5.642   3.449
 2377TIP3    H2 7077   4.197   5.687   3.507
 2378TIP3   OH2 7078   3.334   5.942   3.660
 2378TIP3    H1 7079   3.310   5.976   3.574
 2378TIP3    H2 7080   3.353   5.849   3.646
 2379TIP3   OH2 7081   0.522   4.469   0.867
 2379TIP3    H1 7082   0.542   4.485   0.775
 2379TIP3    H2 7083   0.430   4.495   0.876
 2380TIP3   OH2 7084   4.539   3.155   5.906
 2380TIP3    H1 7085   4.552   3.068   5.869
 2380TIP3    H2 7086   4.575   3.149   5.994
 2381TIP3   OH2 7087   1.630   3.536   1.650
 2381TIP3    H1 7088   1.666   3.618   1.683
 2381TIP3    H2 7089   1.706   3.479   1.637
 2382TIP3   OH2 7090   3.457   2.425   3.841
 2382TIP3    H1 7091   3.452   2.461   3.753
 2382TIP3    H2 7092   3.370   2.441   3.878
 2383TIP3   OH2 7093   5.739   4.651   1.225
 2383TIP3    H1 7094   5.769   4.673   1.137
 2383TIP3    H2 7095   5.697   4.566   1.216
 2384TIP3   OH2 7096   2.815   5.367   0.143
 2384TIP3    H1 7097   2.866   5.298   0.185
 2384TIP3    H2 7098   2.730   5.326   0.127
 2385TIP3   OH2 7099   6.678   2.075   4.102
 2385TIP3    H1 7100   6.696   2.094   4.011
 2385TIP3    H2 7101   6.657   1.981   4.103
 2386TIP3   OH2 7102   4.773   4.527   1.708
 2386TIP3    H1 7103   4.759   4.617   1.737
 2386TIP3    H2 7104   4.685   4.489   1.704
 2387TIP3   OH2 7105   2.402   7.517   1.989
 2387TIP3    H1 7106   2.459   7.476   1.924
 2387TIP3    H2 7107   2.434   7.607   1.995
 2388TIP3   OH2 7108   7.369   1.869   0.842
 2388TIP3    H1 7109   7.307   1.827   0.902
 2388TIP3    H2 7110   7.451   1.874   0.892
 2389TIP3   OH2 7111   5.588   5.450   5.948
 2389TIP3    H1 7112   5.581   5.380   5.884
 2389TIP3    H2 7113   5.679   5.447   5.978
 2390TIP3   OH2 7114   2.864   2.743   4.024
 2390TIP3    H1 7115   2.806   2.740   3.948
 2390TIP3    H2 7116   2.913   2.661   4.019
 2391TIP3   OH2 7117   3.857   3.768   6.175
 2391TIP3    H1 7118   3.816   3.748   6.259
 2391TIP3    H2 7119   3.789   3.813   6.125
 2392TIP3   OH2 7120   6.731   3.249   4.670
 2392TIP3    H1 7121   6.819   3.215   4.656
 2392TIP3    H2 7122   6.745   3.340   4.697
 2393TIP3   OH2 7123   1.165   4.041   5.238
 2393TIP3    H1 7124   1.178   4.136   5.245
 2393TIP3    H2 7125   1.147   4.027   5.145
 2394TIP3   OH2 7126   4.389   2.631   5.658
 2394TIP3    H1 7127   4.378   2.726   5.661
 2394TIP3    H2 7128   4.364   2.607   5.569
 2395TIP3   OH2 7129   5.908   0.298   5.075
 2395TIP3    H1 7130   5.957   0.258   5.147
 2395TIP3    H2 7131   5.934   0.390   5.077
 2396TIP3   OH2 7132   1.774   5.125   5.080
 2396TIP3    H1 7133   1.852   5.070   5.086
 2396TIP3    H2 7134   1.802   5.209   5.115
 2397TIP3   OH2 7135   5.709   4.191   5.052
 2397TIP3    H1 7136   5.677   4.153   5.134
 2397TIP3    H2 7137   5.796   4.154   5.040
 2398TIP3   OH2 7138   5.740   1.048   4.744
 2398TIP3    H1 7139   5.685   1.027   4.669
 2398TIP3    H2 7140   5.830   1.041   4.711
 2399TIP3   OH2 7141   4.905   3.088   5.690
 2399TIP3    H1 7142   4.853   3.013   5.664
 2399TIP3    H2 7143   4.936   3.067   5.778
 2400TIP3   OH2 7144   0.086   6.097   3.941
 2400TIP3    H1 7145   0.179   6.088   3.923
 2400TIP3    H2 7146   0.043   6.043   3.874
 2401TIP3   OH2 7147   5.581   0.057   4.368
 2401TIP3    H1 7148   5.579   0.120   4.295
 2401TIP3    H2 7149   5.490   0.052   4.397
 2402TIP3   OH2 7150   5.253   6.850   3.252
 2402TIP3    H1 7151   5.228   6.758   3.264
 2402TIP3    H2 7152   5.346   6.847   3.230
 2403TIP3   OH2 7153   6.133   0.207   1.732
 2403TIP3    H1 7154   6.167   0.260   1.660
 2403TIP3    H2 7155   6.041   0.193   1.710
 2404TIP3   OH2 7156   6.247   5.313   4.751
 2404TIP3    H1 7157   6.168   5.312   4.697
 2404TIP3    H2 7158   6.312   5.358   4.697
 2405TIP3   OH2 7159   4.440   1.479   1.709
 2405TIP3    H1 7160   4.424   1.573   1.719
 2405TIP3    H2 7161   4.364   1.448   1.659
 2406TIP3   OH2 7162   1.101   5.812   5.689
 2406TIP3    H1 7163   1.149   5.737   5.724
 2406TIP3    H2 7164   1.142   5.888   5.731
 2407TIP3   OH2 7165   1.633   2.552   1.801
 2407TIP3    H1 7166   1.651   2.552   1.707
 2407TIP3    H2 7167   1.573   2.478   1.814
 2408TIP3   OH2 7168   3.877   0.235   2.968
 2408TIP3    H1 7169   3.903   0.146   2.947
 2408TIP3    H2 7170   3.799   0.225   3.023
 2409TIP3   OH2 7171   0.655   4.846   6.366
 2409TIP3    H1 7172   0.624   4.755   6.369
 2409TIP3    H2 7173   0.653   4.874   6.458
 2410TIP3   OH2 7174   4.990   0.054   5.043
 2410TIP3    H1 7175   5.074   0.096   5.060
 2410TIP3    H2 7176   4.982  -0.012   5.111
 2411TIP3   OH2 7177   3.468   5.874   0.918
 2411TIP3    H1 7178   3.534   5.807   0.901
 2411TIP3    H2 7179   3.517   5.947   0.956
 2412TIP3   OH2 7180   3.471   0.932   2.740
 2412TIP3    H1 7181   3.501   0.951   2.651
 2412TIP3    H2 7182   3.485   0.838   2.750
 2413TIP3   OH2 7183   7.223   5.343   4.528
 2413TIP3    H1 7184   7.297   5.344   4.589
 2413TIP3    H2 7185   7.250   5.283   4.458
 2414TIP3   OH2 7186   6.997   1.426   2.833
 2414TIP3    H1 7187   7.033   1.340   2.810
 2414TIP3    H2 7188   6.919   1.435   2.780
 2415TIP3   OH2 7189   4.255   1.219   2.581
 2415TIP3    H1 7190   4.216   1.136   2.554
 2415TIP3    H2 7191   4.270   1.266   2.499
 2416TIP3   OH2 7192   0.708   1.058   1.069
 2416TIP3    H1 7193   0.670   1.105   1.143
 2416TIP3    H2 7194   0.700   1.119   0.995
 2417TIP3   OH2 7195   2.982   4.927   0.039
 2417TIP3    H1 7196   2.903   4.887   0.075
 2417TIP3    H2 7197   2.968   4.928  -0.056
 2418TIP3   OH2 7198   4.288   4.555   6.705
 2418TIP3    H1 7199   4.233   4.621   6.748
 2418TIP3    H2 7200   4.368   4.552   6.758
 2419TIP3   OH2 7201   4.281   7.336   6.468
 2419TIP3    H1 7202   4.353   7.362   6.412
 2419TIP3    H2 7203   4.300   7.245   6.490
 2420TIP3   OH2 7204   3.872   3.015   1.407
 2420TIP3    H1 7205   3.947   3.065   1.442
 2420TIP3    H2 7206   3.857   2.946   1.472
 2421TIP3   OH2 7207   3.008   4.028   5.202
 2421TIP3    H1 7208   2.999   4.105   5.145
 2421TIP3    H2 7209   2.931   4.032   5.259
 2422TIP3   OH2 7210   1.391   6.753   2.066
 2422TIP3    H1 7211   1.372   6.735   1.974
 2422TIP3    H2 7212   1.477   6.794   2.065
 2423TIP3   OH2 7213   4.102   0.290   5.640
 2423TIP3    H1 7214   4.021   0.239   5.640
 2423TIP3    H2 7215   4.172   0.224   5.636
 2424TIP3   OH2 7216   5.357   7.543   1.127
 2424TIP3    H1 7217   5.319   7.527   1.040
 2424TIP3    H2 7218   5.291   7.513   1.188
 2425TIP3   OH2 7219   4.919   3.163   6.113
 2425TIP3    H1 7220   4.950   3.097   6.051
 2425TIP3    H2 7221   4.983   3.161   6.184
 2426TIP3   OH2 7222   6.486   5.042   3.368
 2426TIP3    H1 7223   6.469   5.037   3.462
 2426TIP3    H2 7224   6.462   5.131   3.344
 2427TIP3   OH2 7225   6.833   5.299   0.351
 2427TIP3    H1 7226   6.848   5.204   0.359
 2427TIP3    H2 7227   6.826   5.330   0.441
 2428TIP3   OH2 7228   4.524   6.277   0.459
 2428TIP3    H1 7229   4.573   6.280   0.541
 2428TIP3    H2 7230   4.551   6.356   0.412
 2429TIP3   OH2 7231   4.293   4.171   6.671
 2429TIP3    H1 7232   4.249   4.136   6.593
 2429TIP3    H2 7233   4.228   4.227   6.712
 2430TIP3   OH2 7234   4.606   3.668   5.884
 2430TIP3    H1 7235   4.564   3.584   5.869
 2430TIP3    H2 7236   4.535   3.728   5.906
 2431TIP3   OH2 7237   0.559   0.411   4.275
 2431TIP3    H1 7238   0.578   0.338   4.216
 2431TIP3    H2 7239   0.617   0.398   4.350
 2432TIP3   OH2 7240   4.424   6.198   6.601
 2432TIP3    H1 7241   4.512   6.234   6.609
 2432TIP3    H2 7242   4.433   6.107   6.630
 2433TIP3   OH2 7243   5.480   2.409   1.822
 2433TIP3    H1 7244   5.408   2.384   1.880
 2433TIP3    H2 7245   5.459   2.499   1.795
 2434TIP3   OH2 7246   7.637   5.821   2.848
 2434TIP3    H1 7247   7.576   5.759   2.888
 2434TIP3    H2 7248   7.643   5.893   2.911
 2435TIP3   OH2 7249   3.084   4.972   0.792
 2435TIP3    H1 7250   3.088   4.882   0.821
 2435TIP3    H2 7251   3.011   5.010   0.841
 2436TIP3   OH2 7252   6.604   2.126   4.361
 2436TIP3    H1 7253   6.637   2.091   4.278
 2436TIP3    H2 7254   6.533   2.185   4.335
 2437TIP3   OH2 7255   0.654   0.215   5.433
 2437TIP3    H1 7256   0.694   0.168   5.506
 2437TIP3    H2 7257   0.682   0.167   5.355
 2438TIP3   OH2 7258   6.693   5.638   2.367
 2438TIP3    H1 7259   6.659   5.692   2.439
 2438TIP3    H2 7260   6.619   5.630   2.307
 2439TIP3   OH2 7261   7.873   3.187   5.976
 2439TIP3    H1 7262   7.863   3.277   6.006
 2439TIP3    H2 7263   7.955   3.157   6.015
 2440TIP3   OH2 7264   6.772   2.058   6.209
 2440TIP3    H1 7265   6.841   2.122   6.195
 2440TIP3    H2 7266   6.818   1.978   6.234
 2441TIP3   OH2 7267   3.764   1.070   2.982
 2441TIP3    H1 7268   3.675   1.056   3.014
 2441TIP3    H2 7269   3.755   1.077   2.887
 2442TIP3   OH2 7270   0.673   0.547   2.393
 2442TIP3    H1 7271   0.734   0.603   2.346
 2442TIP3    H2 7272   0.710   0.540   2.481
 2443TIP3   OH2 7273   1.752   2.848   4.796
 2443TIP3    H1 7274   1.816   2.807   4.854
 2443TIP3    H2 7275   1.768   2.810   4.710
 2444TIP3   OH2 7276   7.032   7.353   0.042
 2444TIP3    H1 7277   7.019   7.448   0.045
 2444TIP3    H2 7278   6.953   7.319   0.001
 2445TIP3   OH2 7279   0.270   6.165   2.313
 2445TIP3    H1 7280   0.245   6.172   2.405
 2445TIP3    H2 7281   0.268   6.071   2.294
 2446TIP3   OH2 7282   4.324   1.716   1.811
 2446TIP3    H1 7283   4.257   1.648   1.821
 2446TIP3    H2 7284   4.275   1.796   1.790
 2447TIP3   OH2 7285   2.236   7.786   0.358
 2447TIP3    H1 7286   2.325   7.787   0.392
 2447TIP3    H2 7287   2.233   7.859   0.296
 2448TIP3   OH2 7288   7.975   6.606   6.152
 2448TIP3    H1 7289   8.041   6.537   6.148
 2448TIP3    H2 7290   7.967   6.627   6.246
 2449TIP3   OH2 7291   3.675   7.620   1.492
 2449TIP3    H1 7292   3.692   7.547   1.551
 2449TIP3    H2 7293   3.619   7.679   1.542
 2450TIP3   OH2 7294   7.518   4.630   6.136
 2450TIP3    H1 7295   7.556   4.696   6.194
 2450TIP3    H2 7296   7.432   4.611   6.173
 2451TIP3   OH2 7297   6.340   2.999   3.113
 2451TIP3    H1 7298   6.343   3.042   3.199
 2451TIP3    H2 7299   6.322   3.069   3.052
 2452TIP3   OH2 7300   2.004   4.981   5.103
 2452TIP3    H1 7301   2.063   5.056   5.100
 2452TIP3    H2 7302   2.042   4.924   5.171
 2453TIP3   OH2 7303   6.918   6.255   0.203
 2453TIP3    H1 7304   6.856   6.324   0.225
 2453TIP3    H2 7305   6.994   6.272   0.260
 2454TIP3   OH2 7306   2.103   3.110   4.185
 2454TIP3    H1 7307   2.136   3.142   4.269
 2454TIP3    H2 7308   2.013   3.142   4.181
 2455TIP3   OH2 7309   2.075   1.475   1.059
 2455TIP3    H1 7310   2.099   1.430   1.140
 2455TIP3    H2 7311   2.140   1.546   1.051
 2456TIP3   OH2 7312   4.883   4.298   6.410
 2456TIP3    H1 7313   4.886   4.388   6.445
 2456TIP3    H2 7314   4.796   4.266   6.434
 2457TIP3   OH2 7315   4.146   2.181   3.205
 2457TIP3    H1 7316   4.233   2.221   3.200
 2457TIP3    H2 7317   4.142   2.123   3.129
 2458TIP3   OH2 7318   5.338   5.526   3.109
 2458TIP3    H1 7319   5.260   5.522   3.054
 2458TIP3    H2 7320   5.336   5.444   3.159
 2459TIP3   OH2 7321   8.114   5.174   2.385
 2459TIP3    H1 7322   8.148   5.180   2.474
 2459TIP3    H2 7323   8.066   5.256   2.372
 2460TIP3   OH2 7324   0.880   5.455   0.534
 2460TIP3    H1 7325   0.838   5.410   0.608
 2460TIP3    H2 7326   0.973   5.434   0.543
 2461TIP3   OH2 7327   3.359   3.534   2.760
 2461TIP3    H1 7328   3.294   3.600   2.736
 2461TIP3    H2 7329   3.306   3.461   2.794
 2462TIP3   OH2 7330   4.598   4.624   4.097
 2462TIP3    H1 7331   4.694   4.625   4.102
 2462TIP3    H2 7332   4.575   4.532   4.100
 2463TIP3   OH2 7333   4.431   2.791   1.210
 2463TIP3    H1 7334   4.425   2.884   1.233
 2463TIP3    H2 7335   4.433   2.746   1.294
 2464TIP3   OH2 7336   4.658   6.969   5.126
 2464TIP3    H1 7337   4.716   6.959   5.201
 2464TIP3    H2 7338   4.582   7.016   5.160
 2465TIP3   OH2 7339   6.892   7.216   1.935
 2465TIP3    H1 7340   6.956   7.268   1.985
 2465TIP3    H2 7341   6.945   7.151   1.889
 2466TIP3   OH2 7342   3.136   7.314   5.156
 2466TIP3    H1 7343   3.141   7.368   5.078
 2466TIP3    H2 7344   3.052   7.268   5.148
 2467TIP3   OH2 7345   5.076   3.363   5.781
 2467TIP3    H1 7346   5.102   3.272   5.795
 2467TIP3    H2 7347   4.989   3.358   5.741
 2468TIP3   OH2 7348   7.611   6.948   2.404
 2468TIP3    H1 7349   7.578   6.876   2.351
 2468TIP3    H2 7350   7.697   6.968   2.366
 2469TIP3   OH2 7351   0.024   7.238   6.732
 2469TIP3    H1 7352   0.062   7.176   6.794
 2469TIP3    H2 7353   0.015   7.189   6.651
 2470TIP3   OH2 7354   1.662   2.604   4.365
 2470TIP3    H1 7355   1.728   2.629   4.301
 2470TIP3    H2 7356   1.596   2.674   4.360
 2471TIP3   OH2 7357   3.562   1.191   4.705
 2471TIP3    H1 7358   3.642   1.178   4.655
 2471TIP3    H2 7359   3.557   1.115   4.763
 2472TIP3   OH2 7360   0.509   3.312   0.193
 2472TIP3    H1 7361   0.481   3.370   0.123
 2472TIP3    H2 7362   0.529   3.229   0.150
 2473TIP3   OH2 7363   0.751   0.863   1.969
 2473TIP3    H1 7364   0.741   0.858   1.873
 2473TIP3    H2 7365   0.805   0.941   1.983
 2474TIP3   OH2 7366   4.501   2.975   3.871
 2474TIP3    H1 7367   4.584   2.928   3.875
 2474TIP3    H2 7368   4.493   3.017   3.956
 2475TIP3   OH2 7369   6.383   4.574   0.813
 2475TIP3    H1 7370   6.347   4.650   0.767
 2475TIP3    H2 7371   6.342   4.577   0.900
 2476TIP3   OH2 7372   2.596   6.032   3.858
 2476TIP3    H1 7373   2.539   6.088   3.806
 2476TIP3    H2 7374   2.583   5.944   3.822
 2477TIP3   OH2 7375   0.517   4.106   1.846
 2477TIP3    H1 7376   0.571   4.033   1.875
 2477TIP3    H2 7377   0.505   4.160   1.924
 2478TIP3   OH2 7378   1.751   4.556   0.765
 2478TIP3    H1 7379   1.803   4.506   0.827
 2478TIP3    H2 7380   1.791   4.643   0.764
 2479TIP3   OH2 7381   4.595   7.651   4.260
 2479TIP3    H1 7382   4.635   7.670   4.175
 2479TIP3    H2 7383   4.573   7.558   4.256
 2480TIP3   OH2 7384   0.076   1.201   4.242
 2480TIP3    H1 7385  -0.014   1.193   4.272
 2480TIP3    H2 7386   0.085   1.137   4.171
 2481TIP3   OH2 7387   2.690   2.836   2.910
 2481TIP3    H1 7388   2.729   2.891   2.842
 2481TIP3    H2 7389   2.630   2.895   2.956
 2482TIP3   OH2 7390   0.515   5.586   1.783
 2482TIP3    H1 7391   0.471   5.576   1.698
 2482TIP3    H2 7392   0.602   5.547   1.770
 2483TIP3   OH2 7393   4.872   2.077   2.083
 2483TIP3    H1 7394   4.825   2.076   2.000
 2483TIP3    H2 7395   4.803   2.084   2.149
 2484TIP3   OH2 7396   5.870   5.281   0.100
 2484TIP3    H1 7397   5.949   5.281   0.046
 2484TIP3    H2 7398   5.804   5.238   0.046
 2485TIP3   OH2 7399   7.044   0.620   0.749
 2485TIP3    H1 7400   7.045   0.616   0.845
 2485TIP3    H2 7401   7.119   0.567   0.722
 2486TIP3   OH2 7402   0.685   6.513   6.149
 2486TIP3    H1 7403   0.650   6.443   6.205
 2486TIP3    H2 7404   0.769   6.536   6.189
 2487TIP3   OH2 7405   5.294   2.580   2.583
 2487TIP3    H1 7406   5.361   2.634   2.625
 2487TIP3    H2 7407   5.334   2.494   2.576
 2488TIP3   OH2 7408   0.533   6.182   3.995
 2488TIP3    H1 7409   0.459   6.152   3.942
 2488TIP3    H2 7410   0.503   6.172   4.086
 2489TIP3   OH2 7411   4.914   2.536   5.907
 2489TIP3    H1 7412   4.949   2.481   5.838
 2489TIP3    H2 7413   4.875   2.611   5.861
 2490TIP3   OH2 7414   4.763   6.518   2.003
 2490TIP3    H1 7415   4.750   6.554   2.091
 2490TIP3    H2 7416   4.825   6.447   2.015
 2491TIP3   OH2 7417   0.445   0.362   5.962
 2491TIP3    H1 7418   0.504   0.293   5.932
 2491TIP3    H2 7419   0.371   0.315   6.001
 2492TIP3   OH2 7420   8.121   2.086   0.472
 2492TIP3    H1 7421   8.155   2.000   0.446
 2492TIP3    H2 7422   8.064   2.068   0.547
 2493TIP3   OH2 7423   1.553   4.145   3.724
 2493TIP3    H1 7424   1.601   4.215   3.680
 2493TIP3    H2 7425   1.594   4.064   3.692
 2494TIP3   OH2 7426   4.213   1.473   5.383
 2494TIP3    H1 7427   4.205   1.424   5.301
 2494TIP3    H2 7428   4.257   1.412   5.442
 2495TIP3   OH2 7429   3.760   7.279   3.839
 2495TIP3    H1 7430   3.801   7.288   3.753
 2495TIP3    H2 7431   3.804   7.344   3.893
 2496TIP3   OH2 7432   2.611   4.019   1.227
 2496TIP3    H1 7433   2.629   3.944   1.284
 2496TIP3    H2 7434   2.521   4.045   1.250
 2497TIP3   OH2 7435   7.098   6.442   1.055
 2497TIP3    H1 7436   7.182   6.396   1.053
 2497TIP3    H2 7437   7.043   6.391   0.994
 2498TIP3   OH2 7438   7.240   6.371   5.147
 2498TIP3    H1 7439   7.314   6.430   5.159
 2498TIP3    H2 7440   7.191   6.408   5.074
 2499TIP3   OH2 7441   1.650   1.023   5.914
 2499TIP3    H1 7442   1.570   1.064   5.882
 2499TIP3    H2 7443   1.621   0.948   5.965
 2500TIP3   OH2 7444   4.450   6.148   2.676
 2500TIP3    H1 7445   4.451   6.190   2.762
 2500TIP3    H2 7446   4.497   6.066   2.689
 2501TIP3   OH2 7447   7.092   6.566   5.828
 2501TIP3    H1 7448   6.997   6.555   5.832
 2501TIP3    H2 7449   7.112   6.566   5.734
 2502TIP3   OH2 7450   4.359   1.289   5.537
 2502TIP3    H1 7451   4.414   1.351   5.583
 2502TIP3    H2 7452   4.416   1.213   5.521
 2503TIP3   OH2 7453   8.068   2.709   3.691
 2503TIP3    H1 7454   8.116   2.783   3.729
 2503TIP3    H2 7455   8.127   2.634   3.703
 2504TIP3   OH2 7456   1.736   6.155   6.586
 2504TIP3    H1 7457   1.646   6.189   6.577
 2504TIP3    H2 7458   1.777   6.176   6.502
 2505TIP3   OH2 7459   0.130   5.988   5.005
 2505TIP3    H1 7460   0.038   5.995   4.982
 2505TIP3    H2 7461   0.177   6.006   4.923
 2506TIP3   OH2 7462   1.713   3.827   6.292
 2506TIP3    H1 7463   1.644   3.865   6.237
 2506TIP3    H2 7464   1.673   3.819   6.378
 2507TIP3   OH2 7465   3.081   2.408   3.673
 2507TIP3    H1 7466   3.128   2.489   3.690
 2507TIP3    H2 7467   3.001   2.416   3.724
 2508TIP3   OH2 7468   0.636   6.736   0.139
 2508TIP3    H1 7469   0.646   6.808   0.202
 2508TIP3    H2 7470   0.581   6.773   0.070
 2509TIP3   OH2 7471   2.711   1.911   4.520
 2509TIP3    H1 7472   2.785   1.971   4.528
 2509TIP3    H2 7473   2.647   1.944   4.584
 2510TIP3   OH2 7474   2.526   6.559   6.218
 2510TIP3    H1 7475   2.535   6.566   6.123
 2510TIP3    H2 7476   2.466   6.630   6.242
 2511TIP3   OH2 7477   3.346   3.059   6.373
 2511TIP3    H1 7478   3.269   3.116   6.375
 2511TIP3    H2 7479   3.414   3.111   6.331
 2512TIP3   OH2 7480   4.859   5.279   0.577
 2512TIP3    H1 7481   4.885   5.209   0.637
 2512TIP3    H2 7482   4.776   5.248   0.540
 2513TIP3   OH2 7483   7.286   3.515   3.238
 2513TIP3    H1 7484   7.206   3.562   3.261
 2513TIP3    H2 7485   7.353   3.583   3.234
 2514TIP3   OH2 7486   5.681   3.468   4.004
 2514TIP3    H1 7487   5.731   3.547   4.026
 2514TIP3    H2 7488   5.747   3.400   3.997
 2515TIP3   OH2 7489   4.983   3.300   4.108
 2515TIP3    H1 7490   4.983   3.361   4.182
 2515TIP3    H2 7491   5.059   3.325   4.056
 2516TIP3   OH2 7492   6.413   1.991   6.639
 2516TIP3    H1 7493   6.324   2.015   6.614
 2516TIP3    H2 7494   6.468   2.023   6.567
 2517TIP3   OH2 7495   2.488   6.411   2.294
 2517TIP3    H1 7496   2.461   6.428   2.384
 2517TIP3    H2 7497   2.509   6.497   2.258
 2518TIP3   OH2 7498   2.374   5.496   0.290
 2518TIP3    H1 7499   2.465   5.526   0.296
 2518TIP3    H2 7500   2.379   5.401   0.302
 2519TIP3   OH2 7501   7.988   4.764   4.694
 2519TIP3    H1 7502   7.934   4.843   4.694
 2519TIP3    H2 7503   7.998   4.742   4.601
 2520TIP3   OH2 7504   5.508   4.908   2.851
 2520TIP3    H1 7505   5.568   4.836   2.873
 2520TIP3    H2 7506   5.542   4.983   2.900
 2521TIP3   OH2 7507   3.973   0.311   6.219
 2521TIP3    H1 7508   3.886   0.298   6.181
 2521TIP3    H2 7509   4.027   0.345   6.146
 2522TIP3   OH2 7510   4.201   7.583   2.839
 2522TIP3    H1 7511   4.153   7.666   2.846
 2522TIP3    H2 7512   4.229   7.580   2.748
 2523TIP3   OH2 7513   0.609   6.312   6.326
 2523TIP3    H1 7514   0.593   6.217   6.325
 2523TIP3    H2 7515   0.641   6.329   6.415
 2524TIP3   OH2 7516   7.457   7.665   6.379
 2524TIP3    H1 7517   7.467   7.750   6.336
 2524TIP3    H2 7518   7.363   7.653   6.388
 2525TIP3   OH2 7519   3.897   6.444   2.374
 2525TIP3    H1 7520   3.913   6.435   2.280
 2525TIP3    H2 7521   3.802   6.443   2.382
 2526TIP3   OH2 7522   3.401   4.297   2.059
 2526TIP3    H1 7523   3.459   4.371   2.041
 2526TIP3    H2 7524   3.421   4.234   1.990
 2527TIP3   OH2 7525   8.040   1.751   3.237
 2527TIP3    H1 7526   8.108   1.690   3.208
 2527TIP3    H2 7527   7.972   1.695   3.274
 2528TIP3   OH2 7528   3.986   6.351   3.270
 2528TIP3    H1 7529   3.992   6.288   3.341
 2528TIP3    H2 7530   3.895   6.348   3.241
 2529TIP3   OH2 7531   4.933   0.237   1.055
 2529TIP3    H1 7532   4.997   0.182   1.100
 2529TIP3    H2 7533   4.855   0.232   1.110
 2530TIP3   OH2 7534   1.128   7.242   1.564
 2530TIP3    H1 7535   1.219   7.270   1.567
 2530TIP3    H2 7536   1.079   7.312   1.608
 2531TIP3   OH2 7537   7.939   4.768   6.174
 2531TIP3    H1 7538   7.987   4.687   6.160
 2531TIP3    H2 7539   7.884   4.778   6.095
 2532TIP3   OH2 7540   4.078   7.132   0.709
 2532TIP3    H1 7541   4.114   7.187   0.639
 2532TIP3    H2 7542   4.115   7.169   0.790
 2533TIP3   OH2 7543   5.733   4.978   0.687
 2533TIP3    H1 7544   5.731   4.910   0.755
 2533TIP3    H2 7545   5.665   5.039   0.712
 2534TIP3   OH2 7546   6.922   3.090   5.803
 2534TIP3    H1 7547   7.003   3.128   5.837
 2534TIP3    H2 7548   6.950   3.029   5.735
 2535TIP3   OH2 7549   8.182   4.564   1.040
 2535TIP3    H1 7550   8.167   4.597   0.951
 2535TIP3    H2 7551   8.113   4.604   1.093
 2536TIP3   OH2 7552   2.505   2.665   5.716
 2536TIP3    H1 7553   2.469   2.585   5.678
 2536TIP3    H2 7554   2.479   2.735   5.656
 2537TIP3   OH2 7555   6.519   4.126   2.568
 2537TIP3    H1 7556   6.467   4.091   2.496
 2537TIP3    H2 7557   6.458   4.134   2.641
 2538TIP3   OH2 7558   0.935   4.405   2.895
 2538TIP3    H1 7559   0.958   4.320   2.858
 2538TIP3    H2 7560   0.840   4.405   2.898
 2539TIP3   OH2 7561   1.889   5.810   0.296
 2539TIP3    H1 7562   1.880   5.725   0.254
 2539TIP3    H2 7563   1.981   5.833   0.286
 2540TIP3   OH2 7564   5.872   3.140   1.446
 2540TIP3    H1 7565   5.840   3.079   1.380
 2540TIP3    H2 7566   5.794   3.186   1.476
 2541TIP3   OH2 7567   2.389   7.084   2.065
 2541TIP3    H1 7568   2.374   7.080   1.971
 2541TIP3    H2 7569   2.392   7.177   2.085
 2542TIP3   OH2 7570   7.656   0.286   4.001
 2542TIP3    H1 7571   7.694   0.348   3.938
 2542TIP3    H2 7572   7.602   0.340   4.058
 2543TIP3   OH2 7573   5.014   0.361   2.761
 2543TIP3    H1 7574   4.976   0.317   2.684
 2543TIP3    H2 7575   4.941   0.371   2.822
 2544TIP3   OH2 7576   1.868   6.898   3.231
 2544TIP3    H1 7577   1.912   6.884   3.147
 2544TIP3    H2 7578   1.840   6.811   3.258
 2545TIP3   OH2 7579   2.476   7.825   2.533
 2545TIP3    H1 7580   2.448   7.763   2.465
 2545TIP3    H2 7581   2.514   7.769   2.601
 2546TIP3   OH2 7582   6.453   0.963   0.100
 2546TIP3    H1 7583   6.421   1.047   0.130
 2546TIP3    H2 7584   6.549   0.971   0.102
 2547TIP3   OH2 7585   5.291   3.165   1.359
 2547TIP3    H1 7586   5.205   3.208   1.352
 2547TIP3    H2 7587   5.311   3.166   1.453
 2548TIP3   OH2 7588   2.008   2.383   0.463
 2548TIP3    H1 7589   1.954   2.338   0.398
 2548TIP3    H2 7590   1.953   2.388   0.541
 2549TIP3   OH2 7591   4.322   4.914   2.221
 2549TIP3    H1 7592   4.286   5.003   2.218
 2549TIP3    H2 7593   4.308   4.885   2.311
 2550TIP3   OH2 7594   7.699   1.200   4.906
 2550TIP3    H1 7595   7.686   1.201   5.001
 2550TIP3    H2 7596   7.705   1.292   4.882
 2551TIP3   OH2 7597   4.477   5.376   4.000
 2551TIP3    H1 7598   4.450   5.466   3.984
 2551TIP3    H2 7599   4.458   5.361   4.093
 2552TIP3   OH2 7600   3.541   7.550   2.246
 2552TIP3    H1 7601   3.624   7.505   2.258
 2552TIP3    H2 7602   3.511   7.570   2.335
 2553TIP3   OH2 7603   6.788   1.966   4.745
 2553TIP3    H1 7604   6.711   2.016   4.716
 2553TIP3    H2 7605   6.822   1.926   4.665
 2554TIP3   OH2 7606   0.195   7.315   3.336
 2554TIP3    H1 7607   0.236   7.344   3.417
 2554TIP3    H2 7608   0.178   7.396   3.288
 2555TIP3   OH2 7609   2.409   7.670   4.646
 2555TIP3    H1 7610   2.397   7.658   4.740
 2555TIP3    H2 7611   2.321   7.686   4.613
 2556TIP3   OH2 7612   0.514   4.753   0.062
 2556TIP3    H1 7613   0.559   4.711   0.135
 2556TIP3    H2 7614   0.581   4.809   0.022
 2557TIP3   OH2 7615   3.492   1.826   1.989
 2557TIP3    H1 7616   3.510   1.799   1.898
 2557TIP3    H2 7617   3.553   1.773   2.041
 2558TIP3   OH2 7618   8.265   1.855   5.791
 2558TIP3    H1 7619   8.200   1.898   5.735
 2558TIP3    H2 7620   8.347   1.861   5.742
 2559TIP3   OH2 7621   7.068   1.655   4.130
 2559TIP3    H1 7622   7.088   1.625   4.219
 2559TIP3    H2 7623   7.153   1.655   4.086
 2560TIP3   OH2 7624   7.486   3.659   6.394
 2560TIP3    H1 7625   7.453   3.738   6.352
 2560TIP3    H2 7626   7.432   3.649   6.472
 2561TIP3   OH2 7627   3.875   4.919   4.385
 2561TIP3    H1 7628   3.805   4.884   4.330
 2561TIP3    H2 7629   3.956   4.887   4.345
 2562TIP3   OH2 7630   8.119   4.039   5.279
 2562TIP3    H1 7631   8.111   4.134   5.275
 2562TIP3    H2 7632   8.107   4.018   5.372
 2563TIP3   OH2 7633   0.472   3.380   4.930
 2563TIP3    H1 7634   0.385   3.384   4.968
 2563TIP3    H2 7635   0.457   3.355   4.839
 2564TIP3   OH2 7636   5.239   4.697   6.313
 2564TIP3    H1 7637   5.253   4.783   6.272
 2564TIP3    H2 7638   5.161   4.710   6.368
 2565TIP3   OH2 7639   4.571   4.303   0.180
 2565TIP3    H1 7640   4.651   4.322   0.131
 2565TIP3    H2 7641   4.564   4.374   0.244
 2566TIP3   OH2 7642   2.116   2.250   0.994
 2566TIP3    H1 7643   2.194   2.197   0.979
 2566TIP3    H2 7644   2.060   2.196   1.049
 2567TIP3   OH2 7645   6.810   6.121   1.725
 2567TIP3    H1 7646   6.779   6.205   1.691
 2567TIP3    H2 7647   6.839   6.073   1.647
 2568TIP3   OH2 7648   4.757   3.145   1.808
 2568TIP3    H1 7649   4.823   3.154   1.877
 2568TIP3    H2 7650   4.776   3.215   1.746
 2569TIP3   OH2 7651   7.143   3.064   1.155
 2569TIP3    H1 7652   7.082   3.133   1.179
 2569TIP3    H2 7653   7.211   3.068   1.221
 2570TIP3   OH2 7654   6.407   0.636   5.455
 2570TIP3    H1 7655   6.404   0.702   5.524
 2570TIP3    H2 7656   6.316   0.609   5.443
 2571TIP3   OH2 7657   7.954   4.673   4.432
 2571TIP3    H1 7658   7.952   4.586   4.472
 2571TIP3    H2 7659   7.882   4.671   4.369
 2572TIP3   OH2 7660   8.084   4.745   5.877
 2572TIP3    H1 7661   8.045   4.818   5.829
 2572TIP3    H2 7662   8.017   4.677   5.875
 2573TIP3   OH2 7663   1.582   4.335   0.810
 2573TIP3    H1 7664   1.518   4.373   0.871
 2573TIP3    H2 7665   1.638   4.408   0.785
 2574TIP3   OH2 7666   6.126   6.597   0.169
 2574TIP3    H1 7667   6.205   6.584   0.116
 2574TIP3    H2 7668   6.076   6.664   0.122
 2575TIP3   OH2 7669   1.735   7.310   4.969
 2575TIP3    H1 7670   1.710   7.244   4.906
 2575TIP3    H2 7671   1.666   7.309   5.035
 2576TIP3   OH2 7672   1.278   5.466   1.095
 2576TIP3    H1 7673   1.331   5.404   1.047
 2576TIP3    H2 7674   1.258   5.535   1.032
 2577TIP3   OH2 7675   1.960   3.996   3.734
 2577TIP3    H1 7676   1.978   3.945   3.654
 2577TIP3    H2 7677   1.924   3.932   3.795
 2578TIP3   OH2 7678   5.334   4.569   3.783
 2578TIP3    H1 7679   5.409   4.512   3.802
 2578TIP3    H2 7680   5.300   4.593   3.869
 2579TIP3   OH2 7681   0.237   2.031   0.591
 2579TIP3    H1 7682   0.157   2.016   0.641
 2579TIP3    H2 7683   0.206   2.056   0.504
 2580TIP3   OH2 7684   2.628   2.666   0.404
 2580TIP3    H1 7685   2.552   2.655   0.346
 2580TIP3    H2 7686   2.667   2.749   0.377
 2581TIP3   OH2 7687   5.021   3.501   3.801
 2581TIP3    H1 7688   5.051   3.484   3.712
 2581TIP3    H2 7689   5.067   3.437   3.855
 2582TIP3   OH2 7690   1.067   7.105   1.861
 2582TIP3    H1 7691   1.071   7.190   1.905
 2582TIP3    H2 7692   1.005   7.054   1.913
 2583TIP3   OH2 7693   3.258  -0.032   6.395
 2583TIP3    H1 7694   3.267  -0.045   6.490
 2583TIP3    H2 7695   3.274   0.061   6.382
 2584TIP3   OH2 7696   3.383   3.160   3.858
 2584TIP3    H1 7697   3.410   3.194   3.943
 2584TIP3    H2 7698   3.365   3.238   3.805
 2585TIP3   OH2 7699   2.393   5.436   1.036
 2585TIP3    H1 7700   2.386   5.480   0.951
 2585TIP3    H2 7701   2.480   5.395   1.034
 2586TIP3   OH2 7702   3.316   1.562   1.257
 2586TIP3    H1 7703   3.270   1.642   1.279
 2586TIP3    H2 7704   3.394   1.562   1.313
 2587TIP3   OH2 7705   6.806   2.443   1.245
 2587TIP3    H1 7706   6.780   2.511   1.307
 2587TIP3    H2 7707   6.884   2.404   1.285
 2588TIP3   OH2 7708   0.986   2.042   5.376
 2588TIP3    H1 7709   1.082   2.040   5.383
 2588TIP3    H2 7710   0.960   2.118   5.428
 2589TIP3   OH2 7711   7.462   7.003   6.626
 2589TIP3    H1 7712   7.407   6.926   6.614
 2589TIP3    H2 7713   7.401   7.073   6.648
 2590TIP3   OH2 7714   2.094   6.385   2.933
 2590TIP3    H1 7715   2.004   6.355   2.928
 2590TIP3    H2 7716   2.110   6.428   2.849
 2591TIP3   OH2 7717   3.154   3.552   0.734
 2591TIP3    H1 7718   3.187   3.628   0.782
 2591TIP3    H2 7719   3.143   3.584   0.644
 2592TIP3   OH2 7720   3.439   4.973   2.761
 2592TIP3    H1 7721   3.379   4.899   2.764
 2592TIP3    H2 7722   3.387   5.049   2.787
 2593TIP3   OH2 7723   3.379   2.758   3.561
 2593TIP3    H1 7724   3.400   2.843   3.598
 2593TIP3    H2 7725   3.287   2.744   3.585
 2594TIP3   OH2 7726   8.041   2.675   1.611
 2594TIP3    H1 7727   7.947   2.664   1.594
 2594TIP3    H2 7728   8.048   2.667   1.706
 2595TIP3   OH2 7729   0.998   5.962   6.019
 2595TIP3    H1 7730   0.928   5.904   6.047
 2595TIP3    H2 7731   1.035   5.920   5.941
 2596TIP3   OH2 7732   5.807   2.414   6.572
 2596TIP3    H1 7733   5.831   2.445   6.660
 2596TIP3    H2 7734   5.759   2.487   6.534
 2597TIP3   OH2 7735   5.487   6.698   1.486
 2597TIP3    H1 7736   5.526   6.753   1.554
 2597TIP3    H2 7737   5.499   6.609   1.518
 2598TIP3   OH2 7738   8.068   3.913   3.080
 2598TIP3    H1 7739   8.016   3.842   3.118
 2598TIP3    H2 7740   8.127   3.940   3.151
 2599TIP3   OH2 7741   4.976   7.067   5.189
 2599TIP3    H1 7742   5.051   7.056   5.247
 2599TIP3    H2 7743   4.906   7.017   5.231
 2600TIP3   OH2 7744   7.209   6.886   5.567
 2600TIP3    H1 7745   7.117   6.895   5.592
 2600TIP3    H2 7746   7.258   6.910   5.646
 2601TIP3   OH2 7747   3.836   1.097   5.358
 2601TIP3    H1 7748   3.870   1.109   5.269
 2601TIP3    H2 7749   3.792   1.180   5.378
 2602TIP3   OH2 7750   5.469   2.634   4.096
 2602TIP3    H1 7751   5.424   2.643   4.012
 2602TIP3    H2 7752   5.481   2.724   4.127
 2603TIP3   OH2 7753   4.703   5.025   3.763
 2603TIP3    H1 7754   4.624   4.993   3.807
 2603TIP3    H2 7755   4.726   5.105   3.810
 2604TIP3   OH2 7756   6.321   1.555   2.375
 2604TIP3    H1 7757   6.330   1.620   2.306
 2604TIP3    H2 7758   6.232   1.567   2.409
 2605TIP3   OH2 7759   6.971   6.041   4.852
 2605TIP3    H1 7760   6.920   6.121   4.853
 2605TIP3    H2 7761   6.923   5.982   4.794
 2606TIP3   OH2 7762   1.855   6.801   4.609
 2606TIP3    H1 7763   1.843   6.721   4.661
 2606TIP3    H2 7764   1.944   6.794   4.574
 2607TIP3   OH2 7765   0.383   3.207   2.924
 2607TIP3    H1 7766   0.469   3.237   2.956
 2607TIP3    H2 7767   0.399   3.117   2.896
 2608TIP3   OH2 7768   4.251   1.288   6.507
 2608TIP3    H1 7769   4.319   1.315   6.446
 2608TIP3    H2 7770   4.210   1.213   6.465
 2609TIP3   OH2 7771   2.633   2.867   6.748
 2609TIP3    H1 7772   2.720   2.828   6.757
 2609TIP3    H2 7773   2.585   2.807   6.690
 2610TIP3   OH2 7774   2.502   1.999   6.107
 2610TIP3    H1 7775   2.518   2.062   6.177
 2610TIP3    H2 7776   2.445   1.933   6.147
 2611TIP3   OH2 7777   5.016   0.227   0.049
 2611TIP3    H1 7778   5.013   0.301  -0.011
 2611TIP3    H2 7779   4.984   0.262   0.132
 2612TIP3   OH2 7780   2.769   1.425   3.543
 2612TIP3    H1 7781   2.831   1.472   3.599
 2612TIP3    H2 7782   2.689   1.420   3.595
 2613TIP3   OH2 7783   1.756   7.383   3.495
 2613TIP3    H1 7784   1.821   7.433   3.544
 2613TIP3    H2 7785   1.806   7.335   3.430
 2614TIP3   OH2 7786   4.856   1.773   4.170
 2614TIP3    H1 7787   4.826   1.850   4.219
 2614TIP3    H2 7788   4.783   1.712   4.174
 2615TIP3   OH2 7789   1.772   7.549   4.820
 2615TIP3    H1 7790   1.786   7.484   4.889
 2615TIP3    H2 7791   1.677   7.557   4.813
 2616TIP3   OH2 7792   8.075   0.312   0.233
 2616TIP3    H1 7793   8.070   0.217   0.244
 2616TIP3    H2 7794   8.169   0.330   0.226
 2617TIP3   OH2 7795   3.135   4.852   1.957
 2617TIP3    H1 7796   3.108   4.780   1.900
 2617TIP3    H2 7797   3.152   4.924   1.897
 2618TIP3   OH2 7798   7.525   0.262   0.900
 2618TIP3    H1 7799   7.440   0.233   0.865
 2618TIP3    H2 7800   7.586   0.251   0.827
 2619TIP3   OH2 7801   7.430   6.551   1.385
 2619TIP3    H1 7802   7.351   6.602   1.368
 2619TIP3    H2 7803   7.484   6.565   1.307
 2620TIP3   OH2 7804   5.012   2.846   6.730
 2620TIP3    H1 7805   5.040   2.756   6.741
 2620TIP3    H2 7806   4.933   2.841   6.676
 2621TIP3   OH2 7807   7.348   5.102   4.695
 2621TIP3    H1 7808   7.433   5.075   4.661
 2621TIP3    H2 7809   7.287   5.035   4.664
 2622TIP3   OH2 7810   7.088   1.310   6.427
 2622TIP3    H1 7811   7.145   1.385   6.444
 2622TIP3    H2 7812   7.114   1.279   6.340
 2623TIP3   OH2 7813   7.384   2.447   4.724
 2623TIP3    H1 7814   7.311   2.493   4.765
 2623TIP3    H2 7815   7.385   2.361   4.765
 2624TIP3   OH2 7816   5.251   0.687   1.372
 2624TIP3    H1 7817   5.188   0.760   1.374
 2624TIP3    H2 7818   5.328   0.723   1.329
 2625TIP3   OH2 7819   2.101   5.349   4.177
 2625TIP3    H1 7820   2.196   5.348   4.166
 2625TIP3    H2 7821   2.086   5.416   4.244
 2626TIP3   OH2 7822   0.258   3.134   2.459
 2626TIP3    H1 7823   0.193   3.158   2.525
 2626TIP3    H2 7824   0.311   3.066   2.501
 2627TIP3   OH2 7825   3.304   7.524   0.840
 2627TIP3    H1 7826   3.393   7.513   0.807
 2627TIP3    H2 7827   3.282   7.439   0.878
 2628TIP3   OH2 7828   6.263   3.218   2.901
 2628TIP3    H1 7829   6.182   3.266   2.918
 2628TIP3    H2 7830   6.330   3.264   2.952
 2629TIP3   OH2 7831   7.455  -0.006   1.277
 2629TIP3    H1 7832   7.379  -0.035   1.227
 2629TIP3    H2 7833   7.499   0.057   1.221
 2630TIP3   OH2 7834   4.004   4.735   5.595
 2630TIP3    H1 7835   3.987   4.640   5.598
 2630TIP3    H2 7836   3.932   4.770   5.543
 2631TIP3   OH2 7837   1.023   3.567   1.242
 2631TIP3    H1 7838   0.956   3.578   1.174
 2631TIP3    H2 7839   1.093   3.628   1.216
 2632TIP3   OH2 7840   7.166   2.862   6.404
 2632TIP3    H1 7841   7.173   2.940   6.349
 2632TIP3    H2 7842   7.173   2.895   6.494
 2633TIP3   OH2 7843   6.302   6.614   4.949
 2633TIP3    H1 7844   6.367   6.581   4.888
 2633TIP3    H2 7845   6.243   6.668   4.895
 2634TIP3   OH2 7846   5.038   3.795   4.540
 2634TIP3    H1 7847   5.061   3.797   4.446
 2634TIP3    H2 7848   4.958   3.743   4.544
 2635TIP3   OH2 7849   3.497   6.520   3.150
 2635TIP3    H1 7850   3.475   6.428   3.166
 2635TIP3    H2 7851   3.413   6.563   3.135
 2636TIP3   OH2 7852   6.175   5.959   5.524
 2636TIP3    H1 7853   6.109   5.990   5.586
 2636TIP3    H2 7854   6.250   5.933   5.579
 2637TIP3   OH2 7855   2.663   1.427   1.403
 2637TIP3    H1 7856   2.576   1.460   1.380
 2637TIP3    H2 7857   2.696   1.388   1.322
 2638TIP3   OH2 7858   1.710   7.370   4.173
 2638TIP3    H1 7859   1.646   7.300   4.181
 2638TIP3    H2 7860   1.758   7.369   4.255
 2639TIP3   OH2 7861   3.638   3.099   6.536
 2639TIP3    H1 7862   3.602   3.182   6.568
 2639TIP3    H2 7863   3.636   3.107   6.440
 2640TIP3   OH2 7864   2.549   7.324   1.183
 2640TIP3    H1 7865   2.571   7.266   1.256
 2640TIP3    H2 7866   2.513   7.402   1.224
 2641TIP3   OH2 7867   6.292   1.901   4.627
 2641TIP3    H1 7868   6.224   1.855   4.577
 2641TIP3    H2 7869   6.254   1.986   4.647
 2642TIP3   OH2 7870   7.122   4.461   1.600
 2642TIP3    H1 7871   7.171   4.534   1.562
 2642TIP3    H2 7872   7.153   4.384   1.551
 2643TIP3   OH2 7873   2.018   6.256   2.029
 2643TIP3    H1 7874   1.993   6.165   2.042
 2643TIP3    H2 7875   2.004   6.297   2.114
 2644TIP3   OH2 7876   1.808   7.649   5.563
 2644TIP3    H1 7877   1.859   7.724   5.532
 2644TIP3    H2 7878   1.854   7.573   5.528
 2645TIP3   OH2 7879   3.437   3.023   3.568
 2645TIP3    H1 7880   3.434   3.085   3.495
 2645TIP3    H2 7881   3.447   3.078   3.645
 2646TIP3   OH2 7882   2.628   4.731   3.038
 2646TIP3    H1 7883   2.667   4.643   3.042
 2646TIP3    H2 7884   2.544   4.718   2.994
 2647TIP3   OH2 7885   1.525   7.309   3.971
 2647TIP3    H1 7886   1.546   7.401   3.986
 2647TIP3    H2 7887   1.507   7.304   3.877
 2648TIP3   OH2 7888   0.995   5.252   5.672
 2648TIP3    H1 7889   0.901   5.270   5.672
 2648TIP3    H2 7890   1.033   5.323   5.619
 2649TIP3   OH2 7891   0.365   7.142   5.862
 2649TIP3    H1 7892   0.282   7.187   5.875
 2649TIP3    H2 7893   0.421   7.208   5.819
 2650TIP3   OH2 7894   3.455   6.477   4.155
 2650TIP3    H1 7895   3.490   6.563   4.130
 2650TIP3    H2 7896   3.441   6.483   4.249
 2651TIP3   OH2 7897   2.496   1.668   2.007
 2651TIP3    H1 7898   2.569   1.707   1.959
 2651TIP3    H2 7899   2.459   1.741   2.057
 2652TIP3   OH2 7900   7.486   4.710   0.834
 2652TIP3    H1 7901   7.422   4.711   0.763
 2652TIP3    H2 7902   7.540   4.788   0.818
 2653TIP3   OH2 7903   2.084   4.966   6.709
 2653TIP3    H1 7904   2.085   5.059   6.730
 2653TIP3    H2 7905   2.177   4.942   6.702
 2654TIP3   OH2 7906   4.008   2.429   6.716
 2654TIP3    H1 7907   3.954   2.371   6.663
 2654TIP3    H2 7908   4.079   2.373   6.748
 2655TIP3   OH2 7909   8.041   1.981   4.144
 2655TIP3    H1 7910   8.055   1.996   4.237
 2655TIP3    H2 7911   8.112   1.922   4.118
 2656TIP3   OH2 7912   7.348   7.388   5.429
 2656TIP3    H1 7913   7.386   7.392   5.341
 2656TIP3    H2 7914   7.293   7.310   5.428
 2657TIP3   OH2 7915   3.509   6.694   2.251
 2657TIP3    H1 7916   3.528   6.784   2.224
 2657TIP3    H2 7917   3.546   6.687   2.339
 2658TIP3   OH2 7918   0.578   6.635   4.330
 2658TIP3    H1 7919   0.631   6.697   4.279
 2658TIP3    H2 7920   0.583   6.668   4.420
 2659TIP3   OH2 7921   5.547   7.180   0.252
 2659TIP3    H1 7922   5.496   7.253   0.215
 2659TIP3    H2 7923   5.491   7.104   0.243
 2660TIP3   OH2 7924   7.842   7.138   2.393
 2660TIP3    H1 7925   7.884   7.054   2.411
 2660TIP3    H2 7926   7.886   7.200   2.451
 2661TIP3   OH2 7927   3.302   3.371   6.105
 2661TIP3    H1 7928   3.351   3.450   6.127
 2661TIP3    H2 7929   3.258   3.346   6.186
 2662TIP3   OH2 7930   3.655   3.059   4.841
 2662TIP3    H1 7931   3.708   3.100   4.910
 2662TIP3    H2 7932   3.641   2.969   4.872
 2663TIP3   OH2 7933   1.104   3.821   2.653
 2663TIP3    H1 7934   1.097   3.732   2.620
 2663TIP3    H2 7935   1.069   3.876   2.583
 2664TIP3   OH2 7936   8.265   0.578   5.591
 2664TIP3    H1 7937   8.303   0.520   5.657
 2664TIP3    H2 7938   8.333   0.643   5.574
 2665TIP3   OH2 7939   4.975   1.785   6.591
 2665TIP3    H1 7940   4.949   1.728   6.663
 2665TIP3    H2 7941   5.055   1.746   6.557
 2666TIP3   OH2 7942   4.456   2.434   2.122
 2666TIP3    H1 7943   4.397   2.418   2.195
 2666TIP3    H2 7944   4.419   2.384   2.049
 2667TIP3   OH2 7945   5.783   4.448   0.112
 2667TIP3    H1 7946   5.797   4.435   0.206
 2667TIP3    H2 7947   5.728   4.374   0.085
 2668TIP3   OH2 7948   4.051   2.047   4.511
 2668TIP3    H1 7949   3.982   1.983   4.502
 2668TIP3    H2 7950   4.043   2.104   4.434
 2669TIP3   OH2 7951   5.582   1.706   3.843
 2669TIP3    H1 7952   5.627   1.764   3.904
 2669TIP3    H2 7953   5.637   1.705   3.765
 2670TIP3   OH2 7954   0.394   1.034   1.394
 2670TIP3    H1 7955   0.413   1.007   1.484
 2670TIP3    H2 7956   0.475   1.075   1.364
 2671TIP3   OH2 7957   1.422   7.279   1.538
 2671TIP3    H1 7958   1.517   7.291   1.541
 2671TIP3    H2 7959   1.399   7.288   1.446
 2672TIP3   OH2 7960   6.526   1.611   2.006
 2672TIP3    H1 7961   6.472   1.615   1.927
 2672TIP3    H2 7962   6.508   1.694   2.051
 2673TIP3   OH2 7963   7.804   1.743   4.786
 2673TIP3    H1 7964   7.884   1.793   4.766
 2673TIP3    H2 7965   7.806   1.670   4.724
 2674TIP3   OH2 7966   0.973   7.722   1.926
 2674TIP3    H1 7967   0.901   7.783   1.907
 2674TIP3    H2 7968   1.012   7.757   2.006
 2675TIP3   OH2 7969   4.669   1.880   4.763
 2675TIP3    H1 7970   4.654   1.785   4.758
 2675TIP3    H2 7971   4.750   1.894   4.714
 2676TIP3   OH2 7972   4.681   7.524   1.031
 2676TIP3    H1 7973   4.642   7.588   0.971
 2676TIP3    H2 7974   4.687   7.443   0.979
 2677TIP3   OH2 7975   4.202   5.385   1.154
 2677TIP3    H1 7976   4.218   5.349   1.241
 2677TIP3    H2 7977   4.265   5.456   1.146
 2678TIP3   OH2 7978   5.107   3.268   1.086
 2678TIP3    H1 7979   5.041   3.248   1.020
 2678TIP3    H2 7980   5.058   3.277   1.168
 2679TIP3   OH2 7981   7.885   7.531   1.246
 2679TIP3    H1 7982   7.822   7.601   1.228
 2679TIP3    H2 7983   7.952   7.572   1.301
 2680TIP3   OH2 7984   0.590   4.516   0.583
 2680TIP3    H1 7985   0.681   4.533   0.607
 2680TIP3    H2 7986   0.581   4.555   0.495
 2681TIP3   OH2 7987   5.120   5.435   0.137
 2681TIP3    H1 7988   5.145   5.513   0.186
 2681TIP3    H2 7989   5.072   5.382   0.201
 2682TIP3   OH2 7990   3.332   5.194   0.075
 2682TIP3    H1 7991   3.302   5.208  -0.015
 2682TIP3    H2 7992   3.391   5.267   0.092
 2683TIP3   OH2 7993   5.970   4.751   5.055
 2683TIP3    H1 7994   5.976   4.836   5.098
 2683TIP3    H2 7995   5.883   4.719   5.079
 2684TIP3   OH2 7996   7.755   4.881   3.106
 2684TIP3    H1 7997   7.681   4.928   3.145
 2684TIP3    H2 7998   7.722   4.792   3.093
 2685TIP3   OH2 7999   6.068   4.011   4.005
 2685TIP3    H1 8000   6.132   3.941   3.996
 2685TIP3    H2 8001   6.015   3.985   4.081
 2686TIP3   OH2 8002   2.528   6.738   1.447
 2686TIP3    H1 8003   2.506   6.801   1.378
 2686TIP3    H2 8004   2.480   6.659   1.425
 2687TIP3   OH2 8005   1.354   4.412   4.019
 2687TIP3    H1 8006   1.281   4.351   4.035
 2687TIP3    H2 8007   1.394   4.424   4.105
 2688TIP3   OH2 8008   1.307   6.357   3.551
 2688TIP3    H1 8009   1.270   6.293   3.610
 2688TIP3    H2 8010   1.330   6.307   3.472
 2689TIP3   OH2 8011   1.952   4.212   4.117
 2689TIP3    H1 8012   2.024   4.174   4.067
 2689TIP3    H2 8013   1.890   4.242   4.051
 2690TIP3   OH2 8014   7.067   0.330   0.463
 2690TIP3    H1 8015   7.138   0.336   0.399
 2690TIP3    H2 8016   7.094   0.390   0.533
 2691TIP3   OH2 8017   5.964   1.559   3.874
 2691TIP3    H1 8018   5.969   1.494   3.804
 2691TIP3    H2 8019   6.010   1.635   3.838
 2692TIP3   OH2 8020   1.934   7.253   5.176
 2692TIP3    H1 8021   1.896   7.268   5.090
 2692TIP3    H2 8022   1.882   7.182   5.213
 2693TIP3   OH2 8023   0.577   7.525   4.885
 2693TIP3    H1 8024   0.597   7.614   4.855
 2693TIP3    H2 8025   0.583   7.472   4.806
 2694TIP3   OH2 8026   1.692   2.757   1.590
 2694TIP3    H1 8027   1.690   2.738   1.496
 2694TIP3    H2 8028   1.785   2.756   1.613
 2695TIP3   OH2 8029   6.040   0.923   5.579
 2695TIP3    H1 8030   6.085   0.925   5.495
 2695TIP3    H2 8031   5.947   0.912   5.558
 2696TIP3   OH2 8032   5.370   2.667   4.705
 2696TIP3    H1 8033   5.333   2.654   4.618
 2696TIP3    H2 8034   5.307   2.627   4.765
 2697TIP3   OH2 8035   3.709   6.899   1.986
 2697TIP3    H1 8036   3.796   6.862   2.003
 2697TIP3    H2 8037   3.681   6.933   2.070
 2698TIP3   OH2 8038   3.367   0.124   6.644
 2698TIP3    H1 8039   3.405   0.053   6.696
 2698TIP3    H2 8040   3.439   0.152   6.587
 2699TIP3   OH2 8041   1.659   4.405   5.466
 2699TIP3    H1 8042   1.721   4.477   5.456
 2699TIP3    H2 8043   1.619   4.395   5.380
 2700TIP3   OH2 8044   5.831   6.920   6.421
 2700TIP3    H1 8045   5.798   6.904   6.333
 2700TIP3    H2 8046   5.899   6.854   6.433
 2701TIP3   OH2 8047   3.103   2.893   6.359
 2701TIP3    H1 8048   3.138   2.906   6.271
 2701TIP3    H2 8049   3.170   2.931   6.416
 2702TIP3   OH2 8050   2.459   5.241   0.364
 2702TIP3    H1 8051   2.425   5.184   0.295
 2702TIP3    H2 8052   2.552   5.220   0.368
 2703TIP3   OH2 8053   2.076   2.925   2.198
 2703TIP3    H1 8054   1.995   2.925   2.147
 2703TIP3    H2 8055   2.138   2.875   2.145
 2704TIP3   OH2 8056   8.019   7.504   4.427
 2704TIP3    H1 8057   8.070   7.434   4.467
 2704TIP3    H2 8058   8.077   7.541   4.360
 2705TIP3   OH2 8059   8.196   5.997   5.856
 2705TIP3    H1 8060   8.109   5.980   5.891
 2705TIP3    H2 8061   8.186   5.987   5.761
 2706TIP3   OH2 8062   7.468   3.260   3.692
 2706TIP3    H1 8063   7.437   3.170   3.679
 2706TIP3    H2 8064   7.458   3.301   3.606
 2707TIP3   OH2 8065   6.074   2.444   6.448
 2707TIP3    H1 8066   6.139   2.470   6.513
 2707TIP3    H2 8067   5.990   2.456   6.493
 2708TIP3   OH2 8068   5.089   0.307   4.321
 2708TIP3    H1 8069   5.144   0.378   4.352
 2708TIP3    H2 8070   5.012   0.309   4.379
 2709TIP3   OH2 8071   7.683   3.998   3.391
 2709TIP3    H1 8072   7.685   4.078   3.338
 2709TIP3    H2 8073   7.649   4.027   3.476
 2710TIP3   OH2 8074   6.945   2.740   3.388
 2710TIP3    H1 8075   6.937   2.815   3.446
 2710TIP3    H2 8076   6.895   2.764   3.310
 2711TIP3   OH2 8077   0.673   6.824   2.559
 2711TIP3    H1 8078   0.724   6.844   2.637
 2711TIP3    H2 8079   0.731   6.769   2.506
 2712TIP3   OH2 8080   4.221   3.274   5.449
 2712TIP3    H1 8081   4.264   3.257   5.533
 2712TIP3    H2 8082   4.292   3.268   5.385
 2713TIP3   OH2 8083   6.058   4.786   2.394
 2713TIP3    H1 8084   6.068   4.701   2.436
 2713TIP3    H2 8085   5.987   4.773   2.331
 2714TIP3   OH2 8086   0.980   3.825   2.988
 2714TIP3    H1 8087   0.988   3.730   2.987
 2714TIP3    H2 8088   1.053   3.856   2.934
 2715TIP3   OH2 8089   4.664   7.448   5.740
 2715TIP3    H1 8090   4.578   7.448   5.699
 2715TIP3    H2 8091   4.654   7.389   5.815
 2716TIP3   OH2 8092   1.220   6.206   2.515
 2716TIP3    H1 8093   1.140   6.177   2.558
 2716TIP3    H2 8094   1.276   6.128   2.512
 2717TIP3   OH2 8095   1.479   6.862   0.071
 2717TIP3    H1 8096   1.504   6.821   0.154
 2717TIP3    H2 8097   1.391   6.829   0.053
 2718TIP3   OH2 8098   0.350   0.690   1.557
 2718TIP3    H1 8099   0.389   0.659   1.639
 2718TIP3    H2 8100   0.424   0.699   1.497
 2719TIP3   OH2 8101   2.955   2.816   3.149
 2719TIP3    H1 8102   2.930   2.886   3.209
 2719TIP3    H2 8103   2.893   2.745   3.168
 2720TIP3   OH2 8104   0.680   6.348   4.285
 2720TIP3    H1 8105   0.601   6.395   4.259
 2720TIP3    H2 8106   0.723   6.326   4.203
 2721TIP3   OH2 8107   1.045   6.428   3.835
 2721TIP3    H1 8108   1.125   6.476   3.813
 2721TIP3    H2 8109   1.028   6.374   3.757
 2722TIP3   OH2 8110   1.153   1.671   1.013
 2722TIP3    H1 8111   1.175   1.746   0.958
 2722TIP3    H2 8112   1.089   1.704   1.075
 2723TIP3   OH2 8113   7.174   3.606   0.656
 2723TIP3    H1 8114   7.234   3.567   0.594
 2723TIP3    H2 8115   7.157   3.694   0.622
 2724TIP3   OH2 8116   6.894   3.663   0.099
 2724TIP3    H1 8117   6.929   3.700   0.180
 2724TIP3    H2 8118   6.892   3.569   0.115
 2725TIP3   OH2 8119   1.267   7.128   3.452
 2725TIP3    H1 8120   1.185   7.177   3.457
 2725TIP3    H2 8121   1.333   7.194   3.432
 2726TIP3   OH2 8122   3.366   5.040   1.385
 2726TIP3    H1 8123   3.333   4.958   1.420
 2726TIP3    H2 8124   3.422   5.014   1.311
 2727TIP3   OH2 8125   1.452   4.888   5.664
 2727TIP3    H1 8126   1.510   4.835   5.609
 2727TIP3    H2 8127   1.438   4.968   5.614
 2728TIP3   OH2 8128   1.738   3.740   1.154
 2728TIP3    H1 8129   1.706   3.745   1.064
 2728TIP3    H2 8130   1.786   3.822   1.166
 2729TIP3   OH2 8131   3.678   2.402   6.744
 2729TIP3    H1 8132   3.609   2.336   6.741
 2729TIP3    H2 8133   3.731   2.385   6.666
 2730TIP3   OH2 8134   6.790   4.279   1.974
 2730TIP3    H1 8135   6.779   4.189   1.942
 2730TIP3    H2 8136   6.839   4.323   1.904
 2731TIP3   OH2 8137   1.318   4.134   0.408
 2731TIP3    H1 8138   1.307   4.191   0.484
 2731TIP3    H2 8139   1.245   4.072   0.414
 2732TIP3   OH2 8140   4.016   2.038   5.575
 2732TIP3    H1 8141   4.033   2.064   5.665
 2732TIP3    H2 8142   4.079   2.088   5.522
 2733TIP3   OH2 8143   2.530   7.052   3.868
 2733TIP3    H1 8144   2.568   7.063   3.781
 2733TIP3    H2 8145   2.492   6.963   3.866
 2734TIP3   OH2 8146   5.316   0.972   2.023
 2734TIP3    H1 8147   5.345   0.882   2.006
 2734TIP3    H2 8148   5.333   1.018   1.940
 2735TIP3   OH2 8149   4.501   1.145   1.356
 2735TIP3    H1 8150   4.410   1.135   1.330
 2735TIP3    H2 8151   4.499   1.206   1.430
 2736TIP3   OH2 8152   3.002   5.786   4.906
 2736TIP3    H1 8153   3.044   5.730   4.971
 2736TIP3    H2 8154   3.072   5.807   4.844
 2737TIP3   OH2 8155   3.548   4.862   6.120
 2737TIP3    H1 8156   3.579   4.814   6.197
 2737TIP3    H2 8157   3.543   4.795   6.051
 2738TIP3   OH2 8158   5.590   2.433   4.541
 2738TIP3    H1 8159   5.509   2.397   4.577
 2738TIP3    H2 8160   5.562   2.495   4.474
 2739TIP3   OH2 8161   2.043   6.349   4.685
 2739TIP3    H1 8162   2.014   6.258   4.682
 2739TIP3    H2 8163   2.129   6.346   4.727
 2740TIP3   OH2 8164   1.916   0.482   4.754
 2740TIP3    H1 8165   1.988   0.420   4.765
 2740TIP3    H2 8166   1.943   0.560   4.804
 2741TIP3   OH2 8167   1.204   6.670   5.449
 2741TIP3    H1 8168   1.193   6.681   5.544
 2741TIP3    H2 8169   1.235   6.755   5.419
 2742TIP3   OH2 8170   2.151   1.423   6.072
 2742TIP3    H1 8171   2.121   1.351   6.128
 2742TIP3    H2 8172   2.087   1.493   6.086
 2743TIP3   OH2 8173   0.220   4.555   4.498
 2743TIP3    H1 8174   0.141   4.569   4.550
 2743TIP3    H2 8175   0.264   4.482   4.540
 2744TIP3   OH2 8176   2.977   2.561   3.344
 2744TIP3    H1 8177   2.949   2.487   3.398
 2744TIP3    H2 8178   2.899   2.585   3.295
 2745TIP3   OH2 8179   3.989   0.224   3.739
 2745TIP3    H1 8180   4.027   0.295   3.791
 2745TIP3    H2 8181   3.910   0.199   3.786
 2746TIP3   OH2 8182   5.197   7.623   3.767
 2746TIP3    H1 8183   5.230   7.700   3.720
 2746TIP3    H2 8184   5.265   7.605   3.832
 2747TIP3   OH2 8185   2.003   6.036   6.453
 2747TIP3    H1 8186   2.001   5.996   6.540
 2747TIP3    H2 8187   1.983   6.128   6.469
 2748TIP3   OH2 8188   1.362   1.732   0.531
 2748TIP3    H1 8189   1.412   1.806   0.497
 2748TIP3    H2 8190   1.425   1.660   0.537
 2749TIP3   OH2 8191   1.439   5.416   2.381
 2749TIP3    H1 8192   1.405   5.363   2.310
 2749TIP3    H2 8193   1.507   5.362   2.422
 2750TIP3   OH2 8194   0.175   4.266   5.581
 2750TIP3    H1 8195   0.260   4.281   5.622
 2750TIP3    H2 8196   0.190   4.283   5.488
 2751TIP3   OH2 8197   0.614   0.541   1.189
 2751TIP3    H1 8198   0.670   0.557   1.114
 2751TIP3    H2 8199   0.633   0.450   1.214
 2752TIP3   OH2 8200   5.494   0.277   0.564
 2752TIP3    H1 8201   5.434   0.282   0.638
 2752TIP3    H2 8202   5.580   0.264   0.604
 2753TIP3   OH2 8203   2.085   2.811   3.394
 2753TIP3    H1 8204   2.097   2.874   3.465
 2753TIP3    H2 8205   2.080   2.726   3.438
 2754TIP3   OH2 8206   0.807   4.797   0.783
 2754TIP3    H1 8207   0.831   4.844   0.863
 2754TIP3    H2 8208   0.711   4.805   0.779
 2755TIP3   OH2 8209   5.557   6.521   5.525
 2755TIP3    H1 8210   5.557   6.520   5.621
 2755TIP3    H2 8211   5.617   6.450   5.501
 2756TIP3   OH2 8212   1.159   4.688   3.983
 2756TIP3    H1 8213   1.099   4.614   3.971
 2756TIP3    H2 8214   1.246   4.650   3.973
 2757TIP3   OH2 8215   3.889   0.053   0.777
 2757TIP3    H1 8216   3.964   0.071   0.834
 2757TIP3    H2 8217   3.919  -0.019   0.721
 2758TIP3   OH2 8218   6.900   3.541   0.556
 2758TIP3    H1 8219   6.976   3.490   0.528
 2758TIP3    H2 8220   6.844   3.545   0.478
 2759TIP3   OH2 8221   2.294   4.512   6.257
 2759TIP3    H1 8222   2.299   4.482   6.167
 2759TIP3    H2 8223   2.277   4.606   6.251
 2760TIP3   OH2 8224   5.190   5.000   2.411
 2760TIP3    H1 8225   5.224   4.911   2.407
 2760TIP3    H2 8226   5.236   5.040   2.485
 2761TIP3   OH2 8227   3.268   5.335   3.831
 2761TIP3    H1 8228   3.218   5.415   3.817
 2761TIP3    H2 8229   3.201   5.268   3.848
 2762TIP3   OH2 8230   2.302   4.391   6.491
 2762TIP3    H1 8231   2.390   4.373   6.523
 2762TIP3    H2 8232   2.314   4.452   6.418
 2763TIP3   OH2 8233   5.774   2.746   1.149
 2763TIP3    H1 8234   5.700   2.790   1.190
 2763TIP3    H2 8235   5.851   2.788   1.188
 2764TIP3   OH2 8236   1.339   4.894   2.985
 2764TIP3    H1 8237   1.334   4.806   2.947
 2764TIP3    H2 8238   1.309   4.882   3.076
 2765TIP3   OH2 8239   7.883   2.403   5.618
 2765TIP3    H1 8240   7.906   2.439   5.704
 2765TIP3    H2 8241   7.856   2.479   5.567
 2766TIP3   OH2 8242   2.913   0.684   0.513
 2766TIP3    H1 8243   2.860   0.604   0.513
 2766TIP3    H2 8244   2.946   0.691   0.424
 2767TIP3   OH2 8245   4.907   2.291   1.143
 2767TIP3    H1 8246   4.955   2.224   1.193
 2767TIP3    H2 8247   4.852   2.241   1.084
 2768TIP3   OH2 8248   1.475   0.526   4.610
 2768TIP3    H1 8249   1.426   0.572   4.542
 2768TIP3    H2 8250   1.490   0.593   4.677
 2769TIP3   OH2 8251   1.031   7.739   4.060
 2769TIP3    H1 8252   0.959   7.757   4.120
 2769TIP3    H2 8253   1.110   7.754   4.111
 2770TIP3   OH2 8254   4.656   6.297   0.718
 2770TIP3    H1 8255   4.688   6.350   0.791
 2770TIP3    H2 8256   4.725   6.304   0.652
 2771TIP3   OH2 8257   4.366   0.484   6.417
 2771TIP3    H1 8258   4.392   0.545   6.348
 2771TIP3    H2 8259   4.405   0.521   6.496
 2772TIP3   OH2 8260   0.666   7.742   5.445
 2772TIP3    H1 8261   0.624   7.803   5.506
 2772TIP3    H2 8262   0.636   7.656   5.473
 2773TIP3   OH2 8263   5.854   4.988   4.691
 2773TIP3    H1 8264   5.790   4.942   4.745
 2773TIP3    H2 8265   5.939   4.955   4.720
 2774TIP3   OH2 8266   0.221   6.391   5.320
 2774TIP3    H1 8267   0.280   6.338   5.267
 2774TIP3    H2 8268   0.235   6.360   5.410
 2775TIP3   OH2 8269   4.857   6.798   1.487
 2775TIP3    H1 8270   4.769   6.762   1.497
 2775TIP3    H2 8271   4.906   6.763   1.562
 2776TIP3   OH2 8272   0.109   1.235   0.749
 2776TIP3    H1 8273   0.046   1.208   0.816
 2776TIP3    H2 8274   0.126   1.327   0.768
 2777TIP3   OH2 8275   3.419   5.280   6.401
 2777TIP3    H1 8276   3.342   5.230   6.429
 2777TIP3    H2 8277   3.418   5.359   6.455
 2778TIP3   OH2 8278   2.306   6.776   5.906
 2778TIP3    H1 8279   2.261   6.860   5.908
 2778TIP3    H2 8280   2.357   6.778   5.825
 2779TIP3   OH2 8281   0.836   5.818   2.629
 2779TIP3    H1 8282   0.824   5.898   2.681
 2779TIP3    H2 8283   0.828   5.747   2.693
 2780TIP3   OH2 8284   1.399   0.614   3.738
 2780TIP3    H1 8285   1.404   0.548   3.668
 2780TIP3    H2 8286   1.308   0.643   3.736
 2781TIP3   OH2 8287   3.965   2.351   5.320
 2781TIP3    H1 8288   3.919   2.377   5.240
 2781TIP3    H2 8289   3.897   2.351   5.388
 2782TIP3   OH2 8290   3.792   2.382   4.852
 2782TIP3    H1 8291   3.719   2.346   4.800
 2782TIP3    H2 8292   3.826   2.453   4.799
 2783TIP3   OH2 8293   1.941   7.249   1.265
 2783TIP3    H1 8294   1.890   7.330   1.271
 2783TIP3    H2 8295   2.023   7.268   1.310
 2784TIP3   OH2 8296   6.856   4.617   6.545
 2784TIP3    H1 8297   6.889   4.527   6.546
 2784TIP3    H2 8298   6.806   4.623   6.463
 2785TIP3   OH2 8299   3.100   7.693   2.515
 2785TIP3    H1 8300   3.134   7.779   2.489
 2785TIP3    H2 8301   3.176   7.635   2.511
 2786TIP3   OH2 8302   5.755   0.192   5.810
 2786TIP3    H1 8303   5.681   0.229   5.763
 2786TIP3    H2 8304   5.737   0.099   5.815
 2787TIP3   OH2 8305   6.878   4.654   3.245
 2787TIP3    H1 8306   6.901   4.564   3.267
 2787TIP3    H2 8307   6.830   4.686   3.321
 2788TIP3   OH2 8308   0.686   2.249   4.719
 2788TIP3    H1 8309   0.699   2.227   4.811
 2788TIP3    H2 8310   0.593   2.268   4.712
 2789TIP3   OH2 8311   2.424   4.701   5.973
 2789TIP3    H1 8312   2.390   4.612   5.976
 2789TIP3    H2 8313   2.519   4.691   5.968
 2790TIP3   OH2 8314   5.120   7.213   0.264
 2790TIP3    H1 8315   5.201   7.265   0.263
 2790TIP3    H2 8316   5.084   7.222   0.176
 2791TIP3   OH2 8317   3.640   2.244   4.335
 2791TIP3    H1 8318   3.614   2.275   4.249
 2791TIP3    H2 8319   3.630   2.320   4.392
 2792TIP3   OH2 8320   0.784   1.056   2.637
 2792TIP3    H1 8321   0.726   1.089   2.705
 2792TIP3    H2 8322   0.754   1.099   2.557
 2793TIP3   OH2 8323   5.248   1.243   5.344
 2793TIP3    H1 8324   5.263   1.314   5.282
 2793TIP3    H2 8325   5.162   1.208   5.320
 2794TIP3   OH2 8326   7.120   1.092   2.573
 2794TIP3    H1 8327   7.146   1.119   2.661
 2794TIP3    H2 8328   7.026   1.104   2.571
 2795TIP3   OH2 8329   4.958   5.410   1.924
 2795TIP3    H1 8330   4.979   5.319   1.946
 2795TIP3    H2 8331   4.877   5.404   1.874
 2796TIP3   OH2 8332   5.909   0.076   0.076
 2796TIP3    H1 8333   5.953   0.143   0.024
 2796TIP3    H2 8334   5.975   0.048   0.140
 2797TIP3   OH2 8335   1.988   4.422   3.661
 2797TIP3    H1 8336   2.074   4.450   3.631
 2797TIP3    H2 8337   1.943   4.503   3.685
 2798TIP3   OH2 8338   3.903   7.052   1.275
 2798TIP3    H1 8339   3.962   6.997   1.223
 2798TIP3    H2 8340   3.864   6.991   1.338
 2799TIP3   OH2 8341   0.493   7.520   6.353
 2799TIP3    H1 8342   0.397   7.520   6.358
 2799TIP3    H2 8343   0.518   7.611   6.366
 2800TIP3   OH2 8344   7.764   6.527   3.880
 2800TIP3    H1 8345   7.817   6.547   3.803
 2800TIP3    H2 8346   7.674   6.524   3.847
 2801TIP3   OH2 8347   4.284   4.409   0.548
 2801TIP3    H1 8348   4.253   4.387   0.460
 2801TIP3    H2 8349   4.295   4.504   0.547
 2802TIP3   OH2 8350   2.505   3.709   2.677
 2802TIP3    H1 8351   2.520   3.778   2.742
 2802TIP3    H2 8352   2.442   3.651   2.719
 2803TIP3   OH2 8353   6.166   7.359   4.201
 2803TIP3    H1 8354   6.134   7.269   4.210
 2803TIP3    H2 8355   6.086   7.412   4.191
 2804TIP3   OH2 8356   5.182   2.671   4.910
 2804TIP3    H1 8357   5.193   2.765   4.922
 2804TIP3    H2 8358   5.149   2.640   4.994
 2805TIP3   OH2 8359   6.370   0.525   6.286
 2805TIP3    H1 8360   6.463   0.521   6.268
 2805TIP3    H2 8361   6.354   0.617   6.308
 2806TIP3   OH2 8362   7.790   2.966   4.941
 2806TIP3    H1 8363   7.795   2.872   4.960
 2806TIP3    H2 8364   7.722   2.973   4.873
 2807TIP3   OH2 8365   1.502   3.169   5.650
 2807TIP3    H1 8366   1.586   3.129   5.629
 2807TIP3    H2 8367   1.475   3.213   5.570
 2808TIP3   OH2 8368   7.673   2.725   5.792
 2808TIP3    H1 8369   7.646   2.768   5.711
 2808TIP3    H2 8370   7.732   2.787   5.834
 2809TIP3   OH2 8371   5.968   6.850   1.934
 2809TIP3    H1 8372   6.035   6.918   1.924
 2809TIP3    H2 8373   5.924   6.872   2.016
 2810TIP3   OH2 8374   5.049   2.594   6.715
 2810TIP3    H1 8375   4.996   2.549   6.650
 2810TIP3    H2 8376   5.128   2.540   6.724
 2811TIP3   OH2 8377   4.208   1.999   3.028
 2811TIP3    H1 8378   4.204   1.959   3.115
 2811TIP3    H2 8379   4.263   1.939   2.977
 2812TIP3   OH2 8380   0.496   2.941   2.869
 2812TIP3    H1 8381   0.479   2.851   2.841
 2812TIP3    H2 8382   0.591   2.951   2.859
 2813TIP3   OH2 8383   2.899   7.413   4.053
 2813TIP3    H1 8384   2.842   7.419   3.976
 2813TIP3    H2 8385   2.939   7.326   4.046
 2814TIP3   OH2 8386   5.055   0.648   3.080
 2814TIP3    H1 8387   4.987   0.592   3.117
 2814TIP3    H2 8388   5.137   0.603   3.098
 2815TIP3   OH2 8389   3.542   0.435   6.045
 2815TIP3    H1 8390   3.529   0.522   6.082
 2815TIP3    H2 8391   3.459   0.416   6.001
 2816TIP3   OH2 8392   0.627   7.492   4.067
 2816TIP3    H1 8393   0.567   7.472   4.140
 2816TIP3    H2 8394   0.699   7.430   4.079
 2817TIP3   OH2 8395   1.963   7.070   6.258
 2817TIP3    H1 8396   1.916   7.097   6.179
 2817TIP3    H2 8397   1.948   6.976   6.265
 2818TIP3   OH2 8398   3.792   3.316   1.583
 2818TIP3    H1 8399   3.772   3.401   1.621
 2818TIP3    H2 8400   3.776   3.253   1.653
 2819TIP3   OH2 8401   6.985   6.022   1.940
 2819TIP3    H1 8402   6.947   6.063   2.018
 2819TIP3    H2 8403   6.942   6.066   1.867
 2820TIP3   OH2 8404   7.655   0.165   0.658
 2820TIP3    H1 8405   7.590   0.127   0.599
 2820TIP3    H2 8406   7.719   0.206   0.599
 2821TIP3   OH2 8407   0.672   1.452   0.747
 2821TIP3    H1 8408   0.624   1.531   0.720
 2821TIP3    H2 8409   0.736   1.484   0.811
 2822TIP3   OH2 8410   0.379   1.486   0.628
 2822TIP3    H1 8411   0.398   1.580   0.621
 2822TIP3    H2 8412   0.287   1.482   0.654
 2823TIP3   OH2 8413   0.250   5.972   0.090
 2823TIP3    H1 8414   0.174   5.922   0.121
 2823TIP3    H2 8415   0.323   5.910   0.092
 2824TIP3   OH2 8416   4.361   5.640   1.906
 2824TIP3    H1 8417   4.304   5.575   1.947
 2824TIP3    H2 8418   4.331   5.643   1.815
 2825TIP3   OH2 8419   7.624   6.229   5.176
 2825TIP3    H1 8420   7.559   6.167   5.144
 2825TIP3    H2 8421   7.685   6.176   5.227
 2826TIP3   OH2 8422   5.835   6.121   0.174
 2826TIP3    H1 8423   5.887   6.199   0.192
 2826TIP3    H2 8424   5.843   6.068   0.253
 2827TIP3   OH2 8425   0.874   7.080   5.269
 2827TIP3    H1 8426   0.865   6.990   5.239
 2827TIP3    H2 8427   0.931   7.073   5.346
 2828TIP3   OH2 8428   5.968   6.267   5.330
 2828TIP3    H1 8429   5.950   6.225   5.246
 2828TIP3    H2 8430   6.056   6.236   5.354
 2829TIP3   OH2 8431   4.080   2.711   5.571
 2829TIP3    H1 8432   4.065   2.802   5.595
 2829TIP3    H2 8433   4.008   2.663   5.611
 2830TIP3   OH2 8434   1.611   1.947   4.466
 2830TIP3    H1 8435   1.625   1.870   4.521
 2830TIP3    H2 8436   1.697   1.966   4.429
 2831TIP3   OH2 8437   4.971   2.291   4.564
 2831TIP3    H1 8438   4.882   2.275   4.593
 2831TIP3    H2 8439   5.011   2.204   4.561
 2832TIP3   OH2 8440   7.224   6.932   0.236
 2832TIP3    H1 8441   7.190   6.882   0.311
 2832TIP3    H2 8442   7.148   6.981   0.203
 2833TIP3   OH2 8443   4.296   2.143   1.409
 2833TIP3    H1 8444   4.265   2.228   1.378
 2833TIP3    H2 8445   4.257   2.080   1.347
 2834TIP3   OH2 8446   7.179   7.439   6.338
 2834TIP3    H1 8447   7.167   7.345   6.344
 2834TIP3    H2 8448   7.184   7.469   6.429
 2835TIP3   OH2 8449   1.489   2.453   6.283
 2835TIP3    H1 8450   1.498   2.474   6.190
 2835TIP3    H2 8451   1.556   2.506   6.325
 2836TIP3   OH2 8452   7.079   4.935   0.027
 2836TIP3    H1 8453   7.120   4.873   0.087
 2836TIP3    H2 8454   7.052   4.883  -0.048
 2837TIP3   OH2 8455   1.954   2.228   2.457
 2837TIP3    H1 8456   1.955   2.146   2.507
 2837TIP3    H2 8457   2.037   2.271   2.480
 2838TIP3   OH2 8458   2.781   4.434   1.226
 2838TIP3    H1 8459   2.756   4.522   1.252
 2838TIP3    H2 8460   2.842   4.446   1.153
 2839TIP3   OH2 8461   7.248   7.042   2.515
 2839TIP3    H1 8462   7.255   6.962   2.569
 2839TIP3    H2 8463   7.165   7.031   2.468
 2840TIP3   OH2 8464   7.432   1.603   4.893
 2840TIP3    H1 8465   7.372   1.620   4.966
 2840TIP3    H2 8466   7.387   1.638   4.816
 2841TIP3   OH2 8467   3.391   0.755   4.916
 2841TIP3    H1 8468   3.471   0.712   4.946
 2841TIP3    H2 8469   3.324   0.687   4.923
 2842TIP3   OH2 8470   1.657   4.900   4.912
 2842TIP3    H1 8471   1.567   4.883   4.941
 2842TIP3    H2 8472   1.654   4.989   4.877
 2843TIP3   OH2 8473   2.285   4.892   1.979
 2843TIP3    H1 8474   2.334   4.894   1.897
 2843TIP3    H2 8475   2.340   4.939   2.041
 2844TIP3   OH2 8476   3.735   5.327   5.637
 2844TIP3    H1 8477   3.746   5.345   5.730
 2844TIP3    H2 8478   3.822   5.341   5.599
 2845TIP3   OH2 8479   0.272   5.578   6.680
 2845TIP3    H1 8480   0.252   5.668   6.707
 2845TIP3    H2 8481   0.280   5.584   6.584
 2846TIP3   OH2 8482   4.659   6.606   2.604
 2846TIP3    H1 8483   4.587   6.602   2.542
 2846TIP3    H2 8484   4.616   6.612   2.690
 2847TIP3   OH2 8485   5.944   5.547   4.738
 2847TIP3    H1 8486   5.938   5.558   4.643
 2847TIP3    H2 8487   5.928   5.454   4.753
 2848TIP3   OH2 8488   4.895   2.079   2.421
 2848TIP3    H1 8489   4.960   2.107   2.357
 2848TIP3    H2 8490   4.814   2.070   2.371
 2849TIP3   OH2 8491   3.690   1.413   6.549
 2849TIP3    H1 8492   3.663   1.328   6.515
 2849TIP3    H2 8493   3.774   1.430   6.506
 2850TIP3   OH2 8494   6.613   1.005   6.401
 2850TIP3    H1 8495   6.606   1.036   6.311
 2850TIP3    H2 8496   6.693   1.045   6.434
 2851TIP3   OH2 8497   5.669   3.992   4.806
 2851TIP3    H1 8498   5.756   3.978   4.767
 2851TIP3    H2 8499   5.677   3.959   4.895
 2852TIP3   OH2 8500   6.230   2.062   5.064
 2852TIP3    H1 8501   6.283   2.139   5.043
 2852TIP3    H2 8502   6.163   2.095   5.124
 2853TIP3   OH2 8503   3.961   4.410   3.338
 2853TIP3    H1 8504   3.897   4.342   3.319
 2853TIP3    H2 8505   3.931   4.449   3.420
 2854TIP3   OH2 8506   6.096   2.901   3.315
 2854TIP3    H1 8507   6.045   2.880   3.237
 2854TIP3    H2 8508   6.122   2.992   3.303
 2855TIP3   OH2 8509   6.339   7.013   0.941
 2855TIP3    H1 8510   6.254   7.029   0.981
 2855TIP3    H2 8511   6.394   7.086   0.971
 2856TIP3   OH2 8512   3.368   0.176   0.558
 2856TIP3    H1 8513   3.382   0.269   0.577
 2856TIP3    H2 8514   3.346   0.173   0.465
 2857TIP3   OH2 8515   1.735   3.651   2.752
 2857TIP3    H1 8516   1.780   3.567   2.763
 2857TIP3    H2 8517   1.795   3.703   2.698
 2858TIP3   OH2 8518   2.025   0.583   6.300
 2858TIP3    H1 8519   2.033   0.629   6.383
 2858TIP3    H2 8520   1.952   0.522   6.312
 2859TIP3   OH2 8521   2.100   3.352   4.028
 2859TIP3    H1 8522   2.058   3.320   3.948
 2859TIP3    H2 8523   2.129   3.273   4.073
 2860TIP3   OH2 8524   5.149   2.230   4.907
 2860TIP3    H1 8525   5.152   2.315   4.864
 2860TIP3    H2 8526   5.119   2.170   4.839
 2861TIP3   OH2 8527   1.441   0.680   4.831
 2861TIP3    H1 8528   1.472   0.630   4.907
 2861TIP3    H2 8529   1.421   0.767   4.866
 2862TIP3   OH2 8530   7.458   4.287   0.478
 2862TIP3    H1 8531   7.441   4.320   0.390
 2862TIP3    H2 8532   7.513   4.354   0.519
 2863TIP3   OH2 8533   1.682   6.504   6.438
 2863TIP3    H1 8534   1.723   6.591   6.442
 2863TIP3    H2 8535   1.622   6.510   6.364
 2864TIP3   OH2 8536   1.766   3.312   5.502
 2864TIP3    H1 8537   1.840   3.366   5.474
 2864TIP3    H2 8538   1.772   3.310   5.598
 2865TIP3   OH2 8539   7.322   2.048   2.506
 2865TIP3    H1 8540   7.396   2.043   2.565
 2865TIP3    H2 8541   7.302   2.141   2.499
 2866TIP3   OH2 8542   5.630   5.226   0.714
 2866TIP3    H1 8543   5.569   5.268   0.776
 2866TIP3    H2 8544   5.626   5.281   0.636
 2867TIP3   OH2 8545   4.415   5.119   3.900
 2867TIP3    H1 8546   4.443   5.206   3.927
 2867TIP3    H2 8547   4.406   5.125   3.805
 2868TIP3   OH2 8548   7.888   5.879   3.223
 2868TIP3    H1 8549   7.796   5.864   3.200
 2868TIP3    H2 8550   7.933   5.882   3.139
 2869TIP3   OH2 8551   5.476   6.429   1.537
 2869TIP3    H1 8552   5.396   6.423   1.484
 2869TIP3    H2 8553   5.500   6.338   1.555
 2870TIP3   OH2 8554   2.420   2.253   3.726
 2870TIP3    H1 8555   2.324   2.262   3.723
 2870TIP3    H2 8556   2.434   2.159   3.739
 2871TIP3   OH2 8557   2.491   4.849   0.676
 2871TIP3    H1 8558   2.512   4.859   0.583
 2871TIP3    H2 8559   2.396   4.860   0.681
 2872TIP3   OH2 8560   0.513   1.257   0.511
 2872TIP3    H1 8561   0.487   1.192   0.576
 2872TIP3    H2 8562   0.494   1.341   0.552
 2873TIP3   OH2 8563   7.255   7.443   0.545
 2873TIP3    H1 8564   7.336   7.396   0.528
 2873TIP3    H2 8565   7.186   7.378   0.535
 2874TIP3   OH2 8566   1.544   6.801   5.418
 2874TIP3    H1 8567   1.451   6.803   5.440
 2874TIP3    H2 8568   1.547   6.814   5.323
 2875TIP3   OH2 8569   5.250   5.882   2.435
 2875TIP3    H1 8570   5.332   5.874   2.386
 2875TIP3    H2 8571   5.197   5.944   2.384
 2876TIP3   OH2 8572   7.574   5.317   0.761
 2876TIP3    H1 8573   7.533   5.358   0.837
 2876TIP3    H2 8574   7.567   5.383   0.691
 2877TIP3   OH2 8575   4.122   3.552   4.540
 2877TIP3    H1 8576   4.065   3.506   4.478
 2877TIP3    H2 8577   4.088   3.641   4.542
 2878TIP3   OH2 8578   0.842   0.623   5.805
 2878TIP3    H1 8579   0.795   0.689   5.752
 2878TIP3    H2 8580   0.816   0.643   5.895
 2879TIP3   OH2 8581   1.346   3.467   0.982
 2879TIP3    H1 8582   1.370   3.546   0.935
 2879TIP3    H2 8583   1.311   3.499   1.066
 2880TIP3   OH2 8584   1.708   1.266   3.402
 2880TIP3    H1 8585   1.668   1.216   3.331
 2880TIP3    H2 8586   1.795   1.289   3.370
 2881TIP3   OH2 8587   6.334   2.267   1.499
 2881TIP3    H1 8588   6.407   2.212   1.526
 2881TIP3    H2 8589   6.284   2.213   1.438
 2882TIP3   OH2 8590   0.896   5.173   3.429
 2882TIP3    H1 8591   0.930   5.093   3.389
 2882TIP3    H2 8592   0.809   5.149   3.462
 2883TIP3   OH2 8593   6.321   1.642   3.254
 2883TIP3    H1 8594   6.404   1.624   3.209
 2883TIP3    H2 8595   6.338   1.617   3.345
 2884TIP3   OH2 8596   3.589   4.101   2.602
 2884TIP3    H1 8597   3.676   4.086   2.638
 2884TIP3    H2 8598   3.605   4.134   2.514
 2885TIP3   OH2 8599   1.758   2.589   5.930
 2885TIP3    H1 8600   1.711   2.541   5.861
 2885TIP3    H2 8601   1.824   2.640   5.883
 2886TIP3   OH2 8602   2.698   3.812   3.682
 2886TIP3    H1 8603   2.701   3.907   3.692
 2886TIP3    H2 8604   2.618   3.786   3.727
 2887TIP3   OH2 8605   7.933   1.333   0.562
 2887TIP3    H1 8606   7.958   1.325   0.470
 2887TIP3    H2 8607   7.863   1.398   0.563
 2888TIP3   OH2 8608   0.535   0.580   3.402
 2888TIP3    H1 8609   0.559   0.633   3.326
 2888TIP3    H2 8610   0.465   0.523   3.370
 2889TIP3   OH2 8611   1.872   2.192   1.643
 2889TIP3    H1 8612   1.860   2.287   1.641
 2889TIP3    H2 8613   1.854   2.167   1.733
 2890TIP3   OH2 8614   0.363   4.403   1.196
 2890TIP3    H1 8615   0.334   4.397   1.105
 2890TIP3    H2 8616   0.386   4.496   1.208
 2891TIP3   OH2 8617   6.762   6.518   1.011
 2891TIP3    H1 8618   6.667   6.529   1.003
 2891TIP3    H2 8619   6.794   6.604   1.038
 2892TIP3   OH2 8620   4.010   2.026   1.465
 2892TIP3    H1 8621   3.953   2.027   1.542
 2892TIP3    H2 8622   4.048   2.114   1.463
 2893TIP3   OH2 8623   2.229   4.072   3.494
 2893TIP3    H1 8624   2.263   4.064   3.583
 2893TIP3    H2 8625   2.306   4.093   3.441
 2894TIP3   OH2 8626   3.760   4.673   0.725
 2894TIP3    H1 8627   3.673   4.711   0.725
 2894TIP3    H2 8628   3.798   4.700   0.809
 2895TIP3   OH2 8629   5.498   2.343   0.921
 2895TIP3    H1 8630   5.416   2.387   0.942
 2895TIP3    H2 8631   5.481   2.301   0.836
 2896TIP3   OH2 8632   2.309   0.324   5.260
 2896TIP3    H1 8633   2.295   0.237   5.222
 2896TIP3    H2 8634   2.245   0.329   5.331
 2897TIP3   OH2 8635   1.052   0.288   5.019
 2897TIP3    H1 8636   1.092   0.279   4.932
 2897TIP3    H2 8637   1.124   0.268   5.080
 2898TIP3   OH2 8638   4.996   1.751   1.123
 2898TIP3    H1 8639   5.025   1.685   1.185
 2898TIP3    H2 8640   5.011   1.712   1.037
 2899TIP3   OH2 8641   1.863   0.016   1.720
 2899TIP3    H1 8642   1.916   0.021   1.640
 2899TIP3    H2 8643   1.914   0.065   1.785
 2900TIP3   OH2 8644   4.480   7.537   4.953
 2900TIP3    H1 8645   4.541   7.510   5.021
 2900TIP3    H2 8646   4.402   7.567   5.000
 2901TIP3   OH2 8647   0.567   4.061   6.660
 2901TIP3    H1 8648   0.638   4.119   6.689
 2901TIP3    H2 8649   0.497   4.121   6.633
 2902TIP3   OH2 8650   3.034   6.713   1.743
 2902TIP3    H1 8651   2.955   6.694   1.794
 2902TIP3    H2 8652   3.025   6.804   1.718
 2903TIP3   OH2 8653   1.518   1.534   0.071
 2903TIP3    H1 8654   1.469   1.474   0.127
 2903TIP3    H2 8655   1.610   1.516   0.092
 2904TIP3   OH2 8656   3.929   1.924   3.156
 2904TIP3    H1 8657   3.864   1.995   3.155
 2904TIP3    H2 8658   3.909   1.876   3.237
 2905TIP3   OH2 8659   0.446   3.226   4.243
 2905TIP3    H1 8660   0.520   3.230   4.182
 2905TIP3    H2 8661   0.384   3.291   4.210
 2906TIP3   OH2 8662   4.781   6.073   0.987
 2906TIP3    H1 8663   4.702   6.048   1.034
 2906TIP3    H2 8664   4.773   6.030   0.901
 2907TIP3   OH2 8665   8.176   5.068   2.680
 2907TIP3    H1 8666   8.252   5.045   2.626
 2907TIP3    H2 8667   8.199   5.153   2.718
 2908TIP3   OH2 8668   4.997   4.853   1.834
 2908TIP3    H1 8669   5.063   4.785   1.824
 2908TIP3    H2 8670   4.913   4.807   1.832
 2909TIP3   OH2 8671   2.467   1.558   6.471
 2909TIP3    H1 8672   2.407   1.538   6.542
 2909TIP3    H2 8673   2.476   1.475   6.424
 2910TIP3   OH2 8674   3.411   4.630   5.978
 2910TIP3    H1 8675   3.341   4.687   6.009
 2910TIP3    H2 8676   3.380   4.598   5.893
 2911TIP3   OH2 8677   6.720   3.568   2.368
 2911TIP3    H1 8678   6.785   3.588   2.301
 2911TIP3    H2 8679   6.640   3.548   2.319
 2912TIP3   OH2 8680   1.758   6.897   5.576
 2912TIP3    H1 8681   1.682   6.866   5.527
 2912TIP3    H2 8682   1.825   6.831   5.561
 2913TIP3   OH2 8683   1.362   6.596   2.536
 2913TIP3    H1 8684   1.357   6.621   2.628
 2913TIP3    H2 8685   1.415   6.517   2.536
 2914TIP3   OH2 8686   2.777   0.810   1.868
 2914TIP3    H1 8687   2.747   0.897   1.894
 2914TIP3    H2 8688   2.872   0.819   1.861
 2915TIP3   OH2 8689   0.115   3.536   1.770
 2915TIP3    H1 8690   0.123   3.631   1.763
 2915TIP3    H2 8691   0.061   3.511   1.695
 2916TIP3   OH2 8692   7.834   6.504   1.088
 2916TIP3    H1 8693   7.810   6.415   1.114
 2916TIP3    H2 8694   7.887   6.536   1.161
 2917TIP3   OH2 8695   5.807   4.421   5.146
 2917TIP3    H1 8696   5.747   4.485   5.185
 2917TIP3    H2 8697   5.752   4.346   5.126
 2918TIP3   OH2 8698   1.978   4.543   6.219
 2918TIP3    H1 8699   2.010   4.624   6.180
 2918TIP3    H2 8700   1.990   4.477   6.152
 2919TIP3   OH2 8701   1.697   1.083   6.332
 2919TIP3    H1 8702   1.753   1.042   6.265
 2919TIP3    H2 8703   1.747   1.075   6.413
 2920TIP3   OH2 8704   7.411   2.234   1.809
 2920TIP3    H1 8705   7.360   2.312   1.785
 2920TIP3    H2 8706   7.372   2.164   1.757
 2921TIP3   OH2 8707   1.929   3.044   4.513
 2921TIP3    H1 8708   1.930   2.970   4.452
 2921TIP3    H2 8709   1.987   3.109   4.474
 2922TIP3   OH2 8710   2.060   6.798   0.691
 2922TIP3    H1 8711   2.089   6.883   0.725
 2922TIP3    H2 8712   2.091   6.796   0.601
 2923TIP3   OH2 8713   7.853   0.404   6.754
 2923TIP3    H1 8714   7.922   0.407   6.821
 2923TIP3    H2 8715   7.884   0.337   6.692
 2924TIP3   OH2 8716   5.879   1.471   0.277
 2924TIP3    H1 8717   5.871   1.566   0.285
 2924TIP3    H2 8718   5.872   1.437   0.366
 2925TIP3   OH2 8719   3.830   5.402   5.891
 2925TIP3    H1 8720   3.781   5.439   5.964
 2925TIP3    H2 8721   3.868   5.478   5.847
 2926TIP3   OH2 8722   2.265   0.032   3.658
 2926TIP3    H1 8723   2.202  -0.017   3.711
 2926TIP3    H2 8724   2.233   0.024   3.568
 2927TIP3   OH2 8725   3.437   7.762   3.879
 2927TIP3    H1 8726   3.482   7.846   3.885
 2927TIP3    H2 8727   3.348   7.783   3.853
 2928TIP3   OH2 8728   3.454   6.337   3.861
 2928TIP3    H1 8729   3.470   6.414   3.915
 2928TIP3    H2 8730   3.470   6.263   3.920
 2929TIP3   OH2 8731   1.316   1.896   3.510
 2929TIP3    H1 8732   1.220   1.889   3.511
 2929TIP3    H2 8733   1.344   1.823   3.455
 2930TIP3   OH2 8734   4.690   1.930   0.605
 2930TIP3    H1 8735   4.674   1.921   0.511
 2930TIP3    H2 8736   4.614   1.978   0.637
 2931TIP3   OH2 8737   7.698   3.470   1.670
 2931TIP3    H1 8738   7.754   3.412   1.620
 2931TIP3    H2 8739   7.754   3.499   1.743
 2932TIP3   OH2 8740   7.535   1.587   1.768
 2932TIP3    H1 8741   7.467   1.580   1.700
 2932TIP3    H2 8742   7.514   1.669   1.813
 2933TIP3   OH2 8743   0.146   3.662   1.409
 2933TIP3    H1 8744   0.132   3.733   1.473
 2933TIP3    H2 8745   0.079   3.597   1.429
 2934TIP3   OH2 8746   6.505   3.313   2.469
 2934TIP3    H1 8747   6.591   3.308   2.509
 2934TIP3    H2 8748   6.519   3.284   2.379
 2935TIP3   OH2 8749   5.683   3.132   0.103
 2935TIP3    H1 8750   5.702   3.146   0.196
 2935TIP3    H2 8751   5.635   3.049   0.101
 2936TIP3   OH2 8752   8.230   0.380   4.453
 2936TIP3    H1 8753   8.283   0.423   4.520
 2936TIP3    H2 8754   8.277   0.299   4.433
 2937TIP3   OH2 8755   0.110   6.869   5.019
 2937TIP3    H1 8756   0.026   6.822   5.024
 2937TIP3    H2 8757   0.085   6.961   5.021
 2938TIP3   OH2 8758   1.152   3.426   3.444
 2938TIP3    H1 8759   1.211   3.433   3.369
 2938TIP3    H2 8760   1.182   3.493   3.505
 2939TIP3   OH2 8761   1.355   3.272   6.263
 2939TIP3    H1 8762   1.293   3.230   6.322
 2939TIP3    H2 8763   1.313   3.355   6.239
 2940TIP3   OH2 8764   3.747   5.849   0.123
 2940TIP3    H1 8765   3.841   5.856   0.108
 2940TIP3    H2 8766   3.734   5.758   0.149
 2941TIP3   OH2 8767   0.746   4.387   2.012
 2941TIP3    H1 8768   0.835   4.416   2.028
 2941TIP3    H2 8769   0.743   4.367   1.918
 2942TIP3   OH2 8770   6.338   5.131   2.091
 2942TIP3    H1 8771   6.419   5.176   2.068
 2942TIP3    H2 8772   6.349   5.043   2.054
 2943TIP3   OH2 8773   3.950   5.590   0.303
 2943TIP3    H1 8774   3.989   5.503   0.303
 2943TIP3    H2 8775   3.959   5.621   0.394
 2944TIP3   OH2 8776   1.738   4.970   5.350
 2944TIP3    H1 8777   1.747   4.936   5.261
 2944TIP3    H2 8778   1.800   5.043   5.354
 2945TIP3   OH2 8779   7.435   6.625   6.366
 2945TIP3    H1 8780   7.503   6.580   6.415
 2945TIP3    H2 8781   7.435   6.582   6.280
 2946TIP3   OH2 8782   3.264   1.968   4.867
 2946TIP3    H1 8783   3.286   2.005   4.781
 2946TIP3    H2 8784   3.194   1.905   4.849
 2947TIP3   OH2 8785   0.297   3.547   4.363
 2947TIP3    H1 8786   0.345   3.526   4.443
 2947TIP3    H2 8787   0.232   3.611   4.390
 2948TIP3   OH2 8788   4.879   3.418   2.325
 2948TIP3    H1 8789   4.930   3.462   2.258
 2948TIP3    H2 8790   4.788   3.431   2.299
 2949TIP3   OH2 8791   4.536   5.327   2.166
 2949TIP3    H1 8792   4.449   5.365   2.163
 2949TIP3    H2 8793   4.558   5.327   2.259
 2950TIP3   OH2 8794   2.687   5.115   3.977
 2950TIP3    H1 8795   2.730   5.188   4.020
 2950TIP3    H2 8796   2.716   5.119   3.886
 2951TIP3   OH2 8797   1.740   0.895   6.683
 2951TIP3    H1 8798   1.668   0.935   6.633
 2951TIP3    H2 8799   1.697   0.855   6.758
 2952TIP3   OH2 8800   3.644   7.270   5.461
 2952TIP3    H1 8801   3.716   7.207   5.460
 2952TIP3    H2 8802   3.665   7.332   5.391
 2953TIP3   OH2 8803   2.143   6.667   4.239
 2953TIP3    H1 8804   2.135   6.576   4.270
 2953TIP3    H2 8805   2.053   6.699   4.234
 2954TIP3   OH2 8806   2.921   1.394   4.298
 2954TIP3    H1 8807   3.011   1.364   4.282
 2954TIP3    H2 8808   2.867   1.331   4.250
 2955TIP3   OH2 8809   6.247   1.925   0.524
 2955TIP3    H1 8810   6.251   1.997   0.587
 2955TIP3    H2 8811   6.296   1.854   0.565
 2956TIP3   OH2 8812   8.205   1.164   3.198
 2956TIP3    H1 8813   8.182   1.200   3.284
 2956TIP3    H2 8814   8.256   1.085   3.217
 2957TIP3   OH2 8815   3.204   7.470   6.237
 2957TIP3    H1 8816   3.285   7.486   6.187
 2957TIP3    H2 8817   3.171   7.387   6.202
 2958TIP3   OH2 8818   0.312   2.995   1.074
 2958TIP3    H1 8819   0.291   3.085   1.099
 2958TIP3    H2 8820   0.277   2.986   0.986
 2959TIP3   OH2 8821   3.100   7.333   4.580
 2959TIP3    H1 8822   3.101   7.242   4.547
 2959TIP3    H2 8823   3.041   7.330   4.655
 2960TIP3   OH2 8824   5.225   5.217   0.720
 2960TIP3    H1 8825   5.174   5.184   0.794
 2960TIP3    H2 8826   5.292   5.273   0.759
 2961TIP3   OH2 8827   1.524   6.086   2.792
 2961TIP3    H1 8828   1.540   6.019   2.726
 2961TIP3    H2 8829   1.505   6.037   2.872
 2962TIP3   OH2 8830   7.000   2.793   1.465
 2962TIP3    H1 8831   7.063   2.838   1.521
 2962TIP3    H2 8832   7.054   2.743   1.403
 2963TIP3   OH2 8833   6.636   3.442   3.090
 2963TIP3    H1 8834   6.662   3.493   3.167
 2963TIP3    H2 8835   6.619   3.354   3.123
 2964TIP3   OH2 8836   4.213   6.422   3.782
 2964TIP3    H1 8837   4.146   6.353   3.781
 2964TIP3    H2 8838   4.237   6.434   3.691
 2965TIP3   OH2 8839   0.703   5.373   5.298
 2965TIP3    H1 8840   0.782   5.401   5.252
 2965TIP3    H2 8841   0.734   5.308   5.361
 2966TIP3   OH2 8842   1.765   1.768   5.878
 2966TIP3    H1 8843   1.778   1.743   5.787
 2966TIP3    H2 8844   1.808   1.854   5.886
 2967TIP3   OH2 8845   0.631   7.192   2.541
 2967TIP3    H1 8846   0.602   7.132   2.473
 2967TIP3    H2 8847   0.694   7.250   2.498
 2968TIP3   OH2 8848   3.542   2.982   0.922
 2968TIP3    H1 8849   3.562   2.970   1.015
 2968TIP3    H2 8850   3.589   2.912   0.878
 2969TIP3   OH2 8851   8.173   1.099   0.412
 2969TIP3    H1 8852   8.080   1.082   0.398
 2969TIP3    H2 8853   8.216   1.020   0.380
 2970TIP3   OH2 8854   1.403   1.238   0.501
 2970TIP3    H1 8855   1.447   1.153   0.497
 2970TIP3    H2 8856   1.433   1.285   0.424
 2971TIP3   OH2 8857   1.488   7.498   1.990
 2971TIP3    H1 8858   1.467   7.435   1.921
 2971TIP3    H2 8859   1.441   7.578   1.964
 2972TIP3   OH2 8860   7.010   3.920   3.182
 2972TIP3    H1 8861   6.939   3.930   3.246
 2972TIP3    H2 8862   6.989   3.982   3.113
 2973TIP3   OH2 8863   6.599   4.075   2.141
 2973TIP3    H1 8864   6.563   4.162   2.127
 2973TIP3    H2 8865   6.668   4.087   2.206
 2974TIP3   OH2 8866   6.705   1.442   1.429
 2974TIP3    H1 8867   6.748   1.463   1.511
 2974TIP3    H2 8868   6.618   1.482   1.437
 2975TIP3   OH2 8869   8.050   7.197   2.181
 2975TIP3    H1 8870   7.973   7.155   2.218
 2975TIP3    H2 8871   8.122   7.137   2.198
 2976TIP3   OH2 8872   4.793   5.185   5.851
 2976TIP3    H1 8873   4.882   5.215   5.867
 2976TIP3    H2 8874   4.803   5.104   5.801
 2977TIP3   OH2 8875   7.730   7.518   4.204
 2977TIP3    H1 8876   7.693   7.533   4.291
 2977TIP3    H2 8877   7.805   7.460   4.220
 2978TIP3   OH2 8878   1.406   0.322   4.150
 2978TIP3    H1 8879   1.426   0.249   4.092
 2978TIP3    H2 8880   1.417   0.400   4.096
 2979TIP3   OH2 8881   5.197   5.821   1.222
 2979TIP3    H1 8882   5.231   5.742   1.180
 2979TIP3    H2 8883   5.121   5.792   1.271
 2980TIP3   OH2 8884   7.270   3.572   3.577
 2980TIP3    H1 8885   7.324   3.649   3.596
 2980TIP3    H2 8886   7.322   3.522   3.514
 2981TIP3   OH2 8887   7.774   3.195   6.405
 2981TIP3    H1 8888   7.867   3.176   6.394
 2981TIP3    H2 8889   7.772   3.277   6.455
 2982TIP3   OH2 8890   4.688   0.481   1.533
 2982TIP3    H1 8891   4.778   0.459   1.506
 2982TIP3    H2 8892   4.694   0.571   1.565
 2983TIP3   OH2 8893   5.302   3.919   4.381
 2983TIP3    H1 8894   5.320   4.012   4.393
 2983TIP3    H2 8895   5.308   3.881   4.468
 2984TIP3   OH2 8896   7.875   6.589   5.661
 2984TIP3    H1 8897   7.949   6.533   5.684
 2984TIP3    H2 8898   7.891   6.671   5.707
 2985TIP3   OH2 8899   7.529   2.468   4.116
 2985TIP3    H1 8900   7.483   2.546   4.086
 2985TIP3    H2 8901   7.541   2.415   4.037
 2986TIP3   OH2 8902   8.105   5.231   5.230
 2986TIP3    H1 8903   8.109   5.324   5.209
 2986TIP3    H2 8904   8.043   5.194   5.166
 2987TIP3   OH2 8905   3.275   3.760   4.671
 2987TIP3    H1 8906   3.307   3.839   4.714
 2987TIP3    H2 8907   3.248   3.703   4.743
 2988TIP3   OH2 8908   1.472   6.190   6.553
 2988TIP3    H1 8909   1.411   6.222   6.620
 2988TIP3    H2 8910   1.423   6.199   6.471
 2989TIP3   OH2 8911   5.177   5.241   1.146
 2989TIP3    H1 8912   5.084   5.248   1.166
 2989TIP3    H2 8913   5.200   5.325   1.106
 2990TIP3   OH2 8914   4.584   1.713   0.888
 2990TIP3    H1 8915   4.623   1.780   0.945
 2990TIP3    H2 8916   4.633   1.634   0.908
 2991TIP3   OH2 8917   0.388   0.946   5.298
 2991TIP3    H1 8918   0.311   0.901   5.332
 2991TIP3    H2 8919   0.385   0.931   5.204
 2992TIP3   OH2 8920   0.970   3.392   1.878
 2992TIP3    H1 8921   1.005   3.405   1.966
 2992TIP3    H2 8922   0.878   3.368   1.891
 2993TIP3   OH2 8923   4.975   1.381   1.133
 2993TIP3    H1 8924   5.065   1.407   1.151
 2993TIP3    H2 8925   4.945   1.341   1.215
 2994TIP3   OH2 8926   1.257   0.282   1.022
 2994TIP3    H1 8927   1.296   0.356   1.067
 2994TIP3    H2 8928   1.171   0.313   0.993
 2995TIP3   OH2 8929   0.607   2.732   2.403
 2995TIP3    H1 8930   0.630   2.653   2.452
 2995TIP3    H2 8931   0.684   2.751   2.350
 2996TIP3   OH2 8932   5.550   5.338   4.296
 2996TIP3    H1 8933   5.496   5.281   4.241
 2996TIP3    H2 8934   5.490   5.407   4.325
 2997TIP3   OH2 8935   3.937   0.843   5.796
 2997TIP3    H1 8936   3.961   0.863   5.887
 2997TIP3    H2 8937   4.003   0.889   5.744
 2998TIP3   OH2 8938   0.030   2.169   3.422
 2998TIP3    H1 8939  -0.051   2.219   3.435
 2998TIP3    H2 8940   0.040   2.118   3.503
 2999TIP3   OH2 8941   7.729   6.823   4.266
 2999TIP3    H1 8942   7.798   6.859   4.210
 2999TIP3    H2 8943   7.771   6.750   4.311
 3000TIP3   OH2 8944   1.259   3.061   1.551
 3000TIP3    H1 8945   1.312   3.135   1.579
 3000TIP3    H2 8946   1.173   3.098   1.530
 3001TIP3   OH2 8947   2.238   5.440   3.807
 3001TIP3    H1 8948   2.257   5.380   3.879
 3001TIP3    H2 8949   2.208   5.520   3.851
 3002TIP3   OH2 8950   7.480   2.400   5.528
 3002TIP3    H1 8951   7.502   2.321   5.479
 3002TIP3    H2 8952   7.543   2.466   5.498
 3003TIP3   OH2 8953   6.444   7.479   2.686
 3003TIP3    H1 8954   6.452   7.564   2.642
 3003TIP3    H2 8955   6.368   7.488   2.744
 3004TIP3   OH2 8956   0.024   0.623   0.226
 3004TIP3    H1 8957   0.029   0.574   0.145
 3004TIP3    H2 8958   0.115   0.631   0.255
 3005TIP3   OH2 8959   3.618   0.936   0.801
 3005TIP3    H1 8960   3.581   0.994   0.735
 3005TIP3    H2 8961   3.617   0.849   0.760
 3006TIP3   OH2 8962   5.191   6.576   4.357
 3006TIP3    H1 8963   5.210   6.554   4.448
 3006TIP3    H2 8964   5.128   6.510   4.329
 3007TIP3   OH2 8965   5.318   7.343   2.252
 3007TIP3    H1 8966   5.402   7.344   2.208
 3007TIP3    H2 8967   5.309   7.431   2.289
 3008TIP3   OH2 8968   2.462   2.445   2.440
 3008TIP3    H1 8969   2.549   2.457   2.478
 3008TIP3    H2 8970   2.429   2.534   2.426
 3009TIP3   OH2 8971   4.767   5.819   6.037
 3009TIP3    H1 8972   4.792   5.755   5.971
 3009TIP3    H2 8973   4.674   5.801   6.055
 3010TIP3   OH2 8974   6.968   2.326   4.512
 3010TIP3    H1 8975   6.945   2.409   4.468
 3010TIP3    H2 8976   7.063   2.326   4.514
 3011TIP3   OH2 8977   1.193   2.320   4.609
 3011TIP3    H1 8978   1.174   2.372   4.687
 3011TIP3    H2 8979   1.252   2.375   4.557
 3012TIP3   OH2 8980   5.969   5.628   4.477
 3012TIP3    H1 8981   5.912   5.569   4.426
 3012TIP3    H2 8982   6.019   5.676   4.411
 3013TIP3   OH2 8983   2.124   3.631   1.519
 3013TIP3    H1 8984   2.057   3.636   1.451
 3013TIP3    H2 8985   2.152   3.722   1.531
 3014TIP3   OH2 8986   0.954   0.070   4.032
 3014TIP3    H1 8987   0.982   0.034   4.116
 3014TIP3    H2 8988   0.993   0.012   3.966
 3015TIP3   OH2 8989   4.665   3.076   2.351
 3015TIP3    H1 8990   4.596   3.094   2.287
 3015TIP3    H2 8991   4.658   2.983   2.370
 3016TIP3   OH2 8992   0.498   5.227   0.433
 3016TIP3    H1 8993   0.461   5.310   0.404
 3016TIP3    H2 8994   0.425   5.164   0.424
 3017TIP3   OH2 8995   1.999   4.308   4.702
 3017TIP3    H1 8996   1.974   4.216   4.712
 3017TIP3    H2 8997   1.928   4.357   4.742
 3018TIP3   OH2 8998   6.185   3.167   1.774
 3018TIP3    H1 8999   6.123   3.237   1.754
 3018TIP3    H2 9000   6.243   3.164   1.698
 3019TIP3   OH2 9001   4.429   1.695   5.354
 3019TIP3    H1 9002   4.352   1.638   5.350
 3019TIP3    H2 9003   4.394   1.783   5.357
 3020TIP3   OH2 9004   2.366   3.651   2.187
 3020TIP3    H1 9005   2.402   3.691   2.108
 3020TIP3    H2 9006   2.443   3.624   2.237
 3021TIP3   OH2 9007   6.738   6.417   3.225
 3021TIP3    H1 9008   6.801   6.363   3.273
 3021TIP3    H2 9009   6.653   6.387   3.257
 3022TIP3   OH2 9010   6.376   6.522   2.478
 3022TIP3    H1 9011   6.466   6.501   2.504
 3022TIP3    H2 9012   6.383   6.545   2.386
 3023TIP3   OH2 9013   5.300   6.125   0.545
 3023TIP3    H1 9014   5.236   6.072   0.497
 3023TIP3    H2 9015   5.380   6.073   0.542
 3024TIP3   OH2 9016   7.312   7.626   3.641
 3024TIP3    H1 9017   7.399   7.637   3.602
 3024TIP3    H2 9018   7.323   7.553   3.702
 3025TIP3   OH2 9019   6.530   6.940   0.138
 3025TIP3    H1 9020   6.588   6.868   0.113
 3025TIP3    H2 9021   6.582   7.019   0.124
 3026TIP3   OH2 9022   6.944   2.324   1.519
 3026TIP3    H1 9023   7.011   2.325   1.450
 3026TIP3    H2 9024   6.957   2.408   1.564
 3027TIP3   OH2 9025   1.042   1.067   1.120
 3027TIP3    H1 9026   1.109   1.115   1.168
 3027TIP3    H2 9027   1.005   1.130   1.059
 3028TIP3   OH2 9028   1.355   1.368   0.226
 3028TIP3    H1 9029   1.305   1.433   0.275
 3028TIP3    H2 9030   1.295   1.340   0.157
 3029TIP3   OH2 9031   6.142   3.084   6.378
 3029TIP3    H1 9032   6.082   3.009   6.373
 3029TIP3    H2 9033   6.217   3.058   6.324
 3030TIP3   OH2 9034   3.691   4.130   1.922
 3030TIP3    H1 9035   3.724   4.209   1.966
 3030TIP3    H2 9036   3.741   4.127   1.840
 3031TIP3   OH2 9037   4.705   2.501   2.189
 3031TIP3    H1 9038   4.661   2.565   2.132
 3031TIP3    H2 9039   4.652   2.422   2.180
 3032TIP3   OH2 9040   0.398   4.511   4.927
 3032TIP3    H1 9041   0.317   4.527   4.880
 3032TIP3    H2 9042   0.372   4.462   5.005
 3033TIP3   OH2 9043   4.914   4.181   5.739
 3033TIP3    H1 9044   4.874   4.098   5.716
 3033TIP3    H2 9045   4.948   4.215   5.656
 3034TIP3   OH2 9046   1.915   7.603   5.093
 3034TIP3    H1 9047   2.004   7.612   5.127
 3034TIP3    H2 9048   1.888   7.515   5.120
 3035TIP3   OH2 9049   5.137   1.670   5.279
 3035TIP3    H1 9050   5.148   1.731   5.207
 3035TIP3    H2 9051   5.224   1.664   5.319
 3036TIP3   OH2 9052   4.959   1.575   2.966
 3036TIP3    H1 9053   4.958   1.605   3.057
 3036TIP3    H2 9054   4.869   1.545   2.950
 3037TIP3   OH2 9055   0.016   1.965   0.747
 3037TIP3    H1 9056  -0.060   2.019   0.766
 3037TIP3    H2 9057   0.028   1.913   0.826
 3038TIP3   OH2 9058   1.678   2.165   0.158
 3038TIP3    H1 9059   1.732   2.170   0.237
 3038TIP3    H2 9060   1.589   2.158   0.190
 3039TIP3   OH2 9061   2.088   0.989   2.657
 3039TIP3    H1 9062   2.009   1.015   2.704
 3039TIP3    H2 9063   2.071   0.899   2.630
 3040TIP3   OH2 9064   7.381   2.127   4.621
 3040TIP3    H1 9065   7.393   2.033   4.608
 3040TIP3    H2 9066   7.374   2.137   4.716
 3041TIP3   OH2 9067   4.307   4.793   0.795
 3041TIP3    H1 9068   4.376   4.738   0.831
 3041TIP3    H2 9069   4.321   4.879   0.836
 3042TIP3   OH2 9070   1.851   3.635   3.056
 3042TIP3    H1 9071   1.941   3.636   3.089
 3042TIP3    H2 9072   1.856   3.586   2.974
 3043TIP3   OH2 9073   5.772   4.151   2.524
 3043TIP3    H1 9074   5.721   4.229   2.503
 3043TIP3    H2 9075   5.764   4.095   2.446
 3044TIP3   OH2 9076   1.205   1.054   0.275
 3044TIP3    H1 9077   1.172   0.990   0.338
 3044TIP3    H2 9078   1.232   1.129   0.329
 3045TIP3   OH2 9079   1.502   6.389   1.094
 3045TIP3    H1 9080   1.451   6.346   1.162
 3045TIP3    H2 9081   1.494   6.333   1.017
 3046TIP3   OH2 9082   8.267   4.367   1.859
 3046TIP3    H1 9083   8.233   4.412   1.937
 3046TIP3    H2 9084   8.190   4.327   1.819
 3047TIP3   OH2 9085   6.191   1.698   2.777
 3047TIP3    H1 9086   6.119   1.638   2.797
 3047TIP3    H2 9087   6.163   1.782   2.813
 3048TIP3   OH2 9088   0.013   3.875   4.103
 3048TIP3    H1 9089   0.038   3.962   4.134
 3048TIP3    H2 9090   0.097   3.833   4.081
 3049TIP3   OH2 9091   4.798   1.919   5.549
 3049TIP3    H1 9092   4.746   1.841   5.569
 3049TIP3    H2 9093   4.786   1.933   5.456
 3050TIP3   OH2 9094   1.786   6.300   6.149
 3050TIP3    H1 9095   1.789   6.205   6.152
 3050TIP3    H2 9096   1.808   6.322   6.058
 3051TIP3   OH2 9097   2.237   4.474   3.493
 3051TIP3    H1 9098   2.219   4.475   3.399
 3051TIP3    H2 9099   2.264   4.564   3.513
 3052TIP3   OH2 9100   4.018   2.864   3.327
 3052TIP3    H1 9101   4.083   2.923   3.289
 3052TIP3    H2 9102   4.000   2.900   3.414
 3053TIP3   OH2 9103   3.588   1.871   6.729
 3053TIP3    H1 9104   3.652   1.885   6.659
 3053TIP3    H2 9105   3.532   1.801   6.695
 3054TIP3   OH2 9106   6.271   5.189   6.247
 3054TIP3    H1 9107   6.344   5.183   6.309
 3054TIP3    H2 9108   6.220   5.264   6.278
 3055TIP3   OH2 9109   3.098   1.503   5.349
 3055TIP3    H1 9110   3.020   1.455   5.376
 3055TIP3    H2 9111   3.133   1.452   5.275
 3056TIP3   OH2 9112   7.321   4.776   5.765
 3056TIP3    H1 9113   7.260   4.723   5.714
 3056TIP3    H2 9114   7.303   4.866   5.737
 3057TIP3   OH2 9115   5.151   4.992   3.511
 3057TIP3    H1 9116   5.180   4.902   3.519
 3057TIP3    H2 9117   5.061   4.992   3.544
 3058TIP3   OH2 9118   7.073   5.620   3.163
 3058TIP3    H1 9119   7.038   5.532   3.154
 3058TIP3    H2 9120   7.044   5.665   3.083
 3059TIP3   OH2 9121   3.668   3.791   5.912
 3059TIP3    H1 9122   3.573   3.793   5.898
 3059TIP3    H2 9123   3.692   3.882   5.930
 3060TIP3   OH2 9124   3.214   4.168   6.267
 3060TIP3    H1 9125   3.246   4.104   6.204
 3060TIP3    H2 9126   3.202   4.248   6.216
 3061TIP3   OH2 9127   1.381   2.979   6.529
 3061TIP3    H1 9128   1.286   2.980   6.543
 3061TIP3    H2 9129   1.407   2.889   6.545
 3062TIP3   OH2 9130   4.743   6.971   5.381
 3062TIP3    H1 9131   4.754   6.930   5.467
 3062TIP3    H2 9132   4.691   7.049   5.398
 3063TIP3   OH2 9133   7.554   2.969   4.804
 3063TIP3    H1 9134   7.468   2.946   4.841
 3063TIP3    H2 9135   7.542   3.057   4.769
 3064TIP3   OH2 9136   5.916   4.225   1.838
 3064TIP3    H1 9137   5.977   4.292   1.806
 3064TIP3    H2 9138   5.861   4.272   1.901
 3065TIP3   OH2 9139   3.594   4.370   6.126
 3065TIP3    H1 9140   3.557   4.442   6.075
 3065TIP3    H2 9141   3.677   4.405   6.159
 3066TIP3   OH2 9142   7.376   1.773   4.259
 3066TIP3    H1 9143   7.385   1.752   4.166
 3066TIP3    H2 9144   7.370   1.868   4.261
 3067TIP3   OH2 9145   4.182   2.880   0.857
 3067TIP3    H1 9146   4.217   2.949   0.914
 3067TIP3    H2 9147   4.194   2.799   0.907
 3068TIP3   OH2 9148   4.773   4.695   6.600
 3068TIP3    H1 9149   4.748   4.782   6.631
 3068TIP3    H2 9150   4.699   4.667   6.545
 3069TIP3   OH2 9151   5.928   0.934   1.532
 3069TIP3    H1 9152   5.961   1.002   1.591
 3069TIP3    H2 9153   5.937   0.853   1.582
 3070TIP3   OH2 9154   3.986   1.346   5.531
 3070TIP3    H1 9155   4.036   1.396   5.466
 3070TIP3    H2 9156   3.898   1.342   5.495
 3071TIP3   OH2 9157   0.540   1.674   3.292
 3071TIP3    H1 9158   0.493   1.631   3.221
 3071TIP3    H2 9159   0.496   1.645   3.371
 3072TIP3   OH2 9160   4.043   3.624   2.391
 3072TIP3    H1 9161   4.099   3.572   2.449
 3072TIP3    H2 9162   3.967   3.646   2.445
 3073TIP3   OH2 9163   0.449   1.993   1.290
 3073TIP3    H1 9164   0.366   1.966   1.330
 3073TIP3    H2 9165   0.513   1.932   1.327
 3074TIP3   OH2 9166   3.931   3.813   5.540
 3074TIP3    H1 9167   3.971   3.738   5.583
 3074TIP3    H2 9168   3.840   3.813   5.570
 3075TIP3   OH2 9169   2.552   5.320   6.485
 3075TIP3    H1 9170   2.612   5.249   6.508
 3075TIP3    H2 9171   2.608   5.397   6.474
 3076TIP3   OH2 9172   5.391   1.023   0.414
 3076TIP3    H1 9173   5.467   1.081   0.411
 3076TIP3    H2 9174   5.391   0.988   0.503
 3077TIP3   OH2 9175   7.707   1.345   1.787
 3077TIP3    H1 9176   7.720   1.300   1.871
 3077TIP3    H2 9177   7.628   1.397   1.800
 3078TIP3   OH2 9178   3.267   3.992   4.885
 3078TIP3    H1 9179   3.175   3.968   4.877
 3078TIP3    H2 9180   3.268   4.088   4.880
 3079TIP3   OH2 9181   5.713   7.010   3.032
 3079TIP3    H1 9182   5.787   7.071   3.031
 3079TIP3    H2 9183   5.712   6.972   2.945
 3080TIP3   OH2 9184   1.077   2.830   5.890
 3080TIP3    H1 9185   1.162   2.830   5.846
 3080TIP3    H2 9186   1.078   2.909   5.945
 3081TIP3   OH2 9187   6.051   6.545   6.447
 3081TIP3    H1 9188   6.042   6.621   6.389
 3081TIP3    H2 9189   6.077   6.474   6.389
 3082TIP3   OH2 9190   6.550   6.308   3.440
 3082TIP3    H1 9191   6.542   6.277   3.530
 3082TIP3    H2 9192   6.517   6.398   3.442
 3083TIP3   OH2 9193   6.263   0.154   2.833
 3083TIP3    H1 9194   6.248   0.150   2.928
 3083TIP3    H2 9195   6.345   0.106   2.821
 3084TIP3   OH2 9196   8.084   6.680   0.239
 3084TIP3    H1 9197   8.093   6.588   0.214
 3084TIP3    H2 9198   8.094   6.728   0.157
 3085TIP3   OH2 9199   7.367   1.617   3.274
 3085TIP3    H1 9200   7.289   1.670   3.257
 3085TIP3    H2 9201   7.435   1.658   3.221
 3086TIP3   OH2 9202   2.764   7.255   0.055
 3086TIP3    H1 9203   2.683   7.271   0.005
 3086TIP3    H2 9204   2.759   7.163   0.079
 3087TIP3   OH2 9205   3.533   7.505   5.259
 3087TIP3    H1 9206   3.495   7.582   5.302
 3087TIP3    H2 9207   3.460   7.442   5.255
 3088TIP3   OH2 9208   7.829   3.728   1.060
 3088TIP3    H1 9209   7.878   3.684   0.991
 3088TIP3    H2 9210   7.790   3.658   1.111
 3089TIP3   OH2 9211   0.280   7.417   0.363
 3089TIP3    H1 9212   0.359   7.403   0.311
 3089TIP3    H2 9213   0.307   7.402   0.453
 3090TIP3   OH2 9214   1.609   3.543   5.406
 3090TIP3    H1 9215   1.592   3.451   5.385
 3090TIP3    H2 9216   1.544   3.591   5.355
 3091TIP3   OH2 9217   1.955   5.894   5.031
 3091TIP3    H1 9218   2.024   5.899   5.097
 3091TIP3    H2 9219   1.874   5.915   5.078
 3092TIP3   OH2 9220   2.145   2.243   3.775
 3092TIP3    H1 9221   2.134   2.149   3.764
 3092TIP3    H2 9222   2.123   2.259   3.867
 3093TIP3   OH2 9223   5.622   0.824   1.877
 3093TIP3    H1 9224   5.595   0.823   1.785
 3093TIP3    H2 9225   5.543   0.801   1.925
 3094TIP3   OH2 9226   2.670   6.991   2.751
 3094TIP3    H1 9227   2.581   6.970   2.723
 3094TIP3    H2 9228   2.688   6.927   2.820
 3095TIP3   OH2 9229   4.162   0.722   3.802
 3095TIP3    H1 9230   4.100   0.752   3.869
 3095TIP3    H2 9231   4.241   0.700   3.850
 3096TIP3   OH2 9232   7.285   7.237   2.272
 3096TIP3    H1 9233   7.276   7.177   2.346
 3096TIP3    H2 9234   7.302   7.322   2.312
 3097TIP3   OH2 9235   0.699   3.038   4.526
 3097TIP3    H1 9236   0.703   3.070   4.616
 3097TIP3    H2 9237   0.606   3.029   4.508
 3098TIP3   OH2 9238   1.903   6.190   3.189
 3098TIP3    H1 9239   1.957   6.113   3.170
 3098TIP3    H2 9240   1.845   6.198   3.113
 3099TIP3   OH2 9241   6.713   1.747   5.694
 3099TIP3    H1 9242   6.741   1.805   5.766
 3099TIP3    H2 9243   6.675   1.807   5.629
 3100TIP3   OH2 9244   2.706   7.043   3.638
 3100TIP3    H1 9245   2.697   7.098   3.560
 3100TIP3    H2 9246   2.800   7.024   3.643
 3101TIP3   OH2 9247   4.996   2.716   1.745
 3101TIP3    H1 9248   4.955   2.682   1.665
 3101TIP3    H2 9249   5.090   2.721   1.724
 3102TIP3   OH2 9250   7.657   5.780   3.558
 3102TIP3    H1 9251   7.656   5.824   3.473
 3102TIP3    H2 9252   7.710   5.836   3.614
 3103TIP3   OH2 9253   5.995   5.235   2.452
 3103TIP3    H1 9254   5.944   5.245   2.371
 3103TIP3    H2 9255   6.011   5.324   2.482
 3104TIP3   OH2 9256   6.075   3.758   3.684
 3104TIP3    H1 9257   6.124   3.749   3.601
 3104TIP3    H2 9258   6.081   3.851   3.705
 3105TIP3   OH2 9259   0.310   4.911   6.441
 3105TIP3    H1 9260   0.330   4.971   6.513
 3105TIP3    H2 9261   0.267   4.966   6.375
 3106TIP3   OH2 9262   8.017   0.783   1.255
 3106TIP3    H1 9263   7.989   0.759   1.344
 3106TIP3    H2 9264   7.995   0.707   1.202
 3107TIP3   OH2 9265   7.089   1.589   1.683
 3107TIP3    H1 9266   7.026   1.519   1.668
 3107TIP3    H2 9267   7.171   1.555   1.648
 3108TIP3   OH2 9268   4.803   0.581   6.322
 3108TIP3    H1 9269   4.748   0.613   6.394
 3108TIP3    H2 9270   4.741   0.559   6.252
 3109TIP3   OH2 9271   6.711   7.353   3.060
 3109TIP3    H1 9272   6.790   7.315   3.023
 3109TIP3    H2 9273   6.639   7.310   3.014
 3110TIP3   OH2 9274   4.763   6.820   2.423
 3110TIP3    H1 9275   4.782   6.740   2.472
 3110TIP3    H2 9276   4.700   6.867   2.477
 3111TIP3   OH2 9277   4.396   0.354   4.057
 3111TIP3    H1 9278   4.400   0.262   4.085
 3111TIP3    H2 9279   4.325   0.356   3.992
 3112TIP3   OH2 9280   5.737   2.594   0.280
 3112TIP3    H1 9281   5.785   2.511   0.290
 3112TIP3    H2 9282   5.699   2.610   0.366
 3113TIP3   OH2 9283   3.894   5.632   3.494
 3113TIP3    H1 9284   3.906   5.656   3.586
 3113TIP3    H2 9285   3.968   5.673   3.449
 3114TIP3   OH2 9286   4.049   0.333   5.341
 3114TIP3    H1 9287   4.137   0.368   5.335
 3114TIP3    H2 9288   3.993   0.409   5.355
 3115TIP3   OH2 9289   8.004   4.798   1.004
 3115TIP3    H1 9290   8.010   4.893   1.011
 3115TIP3    H2 9291   7.939   4.783   0.936
 3116TIP3   OH2 9292   0.302   7.729   2.919
 3116TIP3    H1 9293   0.243   7.770   2.982
 3116TIP3    H2 9294   0.364   7.679   2.973
 3117TIP3   OH2 9295   1.669   2.054   6.406
 3117TIP3    H1 9296   1.731   2.083   6.473
 3117TIP3    H2 9297   1.666   2.126   6.343
 3118TIP3   OH2 9298   5.492   3.689   5.115
 3118TIP3    H1 9299   5.466   3.768   5.069
 3118TIP3    H2 9300   5.502   3.716   5.206
 3119TIP3   OH2 9301   5.344   5.972   3.445
 3119TIP3    H1 9302   5.374   5.956   3.535
 3119TIP3    H2 9303   5.409   5.930   3.390
 3120TIP3   OH2 9304   4.618   3.358   2.212
 3120TIP3    H1 9305   4.601   3.264   2.216
 3120TIP3    H2 9306   4.546   3.398   2.261
 3121TIP3   OH2 9307   5.571   4.141   3.326
 3121TIP3    H1 9308   5.638   4.203   3.354
 3121TIP3    H2 9309   5.536   4.105   3.407
 3122TIP3   OH2 9310   0.087   4.136   2.756
 3122TIP3    H1 9311   0.163   4.078   2.758
 3122TIP3    H2 9312   0.097   4.187   2.675
 3123TIP3   OH2 9313   7.681   2.939   6.496
 3123TIP3    H1 9314   7.598   2.982   6.475
 3123TIP3    H2 9315   7.746   3.009   6.493
 3124TIP3   OH2 9316   5.571   0.057   0.374
 3124TIP3    H1 9317   5.538   0.016   0.454
 3124TIP3    H2 9318   5.517   0.135   0.362
 3125TIP3   OH2 9319   3.041   5.977   2.390
 3125TIP3    H1 9320   3.117   5.957   2.445
 3125TIP3    H2 9321   2.967   5.942   2.439
 3126TIP3   OH2 9322   6.836   4.335   6.593
 3126TIP3    H1 9323   6.867   4.294   6.674
 3126TIP3    H2 9324   6.741   4.340   6.603
 3127TIP3   OH2 9325   6.466   6.148   3.693
 3127TIP3    H1 9326   6.387   6.198   3.712
 3127TIP3    H2 9327   6.521   6.160   3.771
 3128TIP3   OH2 9328   8.091   0.286   4.748
 3128TIP3    H1 9329   8.076   0.253   4.659
 3128TIP3    H2 9330   8.099   0.381   4.736
 3129TIP3   OH2 9331   6.768   5.620   3.830
 3129TIP3    H1 9332   6.815   5.680   3.887
 3129TIP3    H2 9333   6.681   5.613   3.869
 3130TIP3   OH2 9334   7.195   4.202   2.824
 3130TIP3    H1 9335   7.173   4.171   2.736
 3130TIP3    H2 9336   7.111   4.204   2.870
 3131TIP3   OH2 9337   0.715   6.873   0.838
 3131TIP3    H1 9338   0.728   6.782   0.868
 3131TIP3    H2 9339   0.743   6.926   0.913
 3132TIP3   OH2 9340   7.100   4.119   5.723
 3132TIP3    H1 9341   7.085   4.107   5.817
 3132TIP3    H2 9342   7.192   4.096   5.711
 3133TIP3   OH2 9343   1.228   3.738   0.266
 3133TIP3    H1 9344   1.194   3.667   0.320
 3133TIP3    H2 9345   1.323   3.726   0.267
 3134TIP3   OH2 9346   3.330   6.781   2.818
 3134TIP3    H1 9347   3.238   6.793   2.841
 3134TIP3    H2 9348   3.330   6.710   2.753
 3135TIP3   OH2 9349   2.070   6.950   5.100
 3135TIP3    H1 9350   2.024   6.901   5.167
 3135TIP3    H2 9351   2.001   6.980   5.040
 3136TIP3   OH2 9352   5.613   0.728   2.294
 3136TIP3    H1 9353   5.647   0.659   2.350
 3136TIP3    H2 9354   5.622   0.692   2.205
 3137TIP3   OH2 9355   3.014   4.706   5.206
 3137TIP3    H1 9356   3.021   4.792   5.165
 3137TIP3    H2 9357   3.030   4.643   5.135
 3138TIP3   OH2 9358   3.988   0.649   1.924
 3138TIP3    H1 9359   3.986   0.744   1.927
 3138TIP3    H2 9360   3.952   0.627   1.838
 3139TIP3   OH2 9361   7.160   3.071   2.822
 3139TIP3    H1 9362   7.090   3.138   2.823
 3139TIP3    H2 9363   7.115   2.990   2.844
 3140TIP3   OH2 9364   3.150   1.194   2.260
 3140TIP3    H1 9365   3.119   1.215   2.348
 3140TIP3    H2 9366   3.239   1.161   2.274
 3141TIP3   OH2 9367   7.978   5.914   3.514
 3141TIP3    H1 9368   7.936   5.999   3.521
 3141TIP3    H2 9369   7.935   5.871   3.440
 3142TIP3   OH2 9370   2.910   7.613   4.515
 3142TIP3    H1 9371   2.893   7.555   4.441
 3142TIP3    H2 9372   2.917   7.700   4.477
 3143TIP3   OH2 9373   7.338   7.074   1.792
 3143TIP3    H1 9374   7.385   7.102   1.871
 3143TIP3    H2 9375   7.359   6.981   1.784
 3144TIP3   OH2 9376   4.445   1.276   0.758
 3144TIP3    H1 9377   4.402   1.349   0.802
 3144TIP3    H2 9378   4.445   1.206   0.823
 3145TIP3   OH2 9379   5.693   3.159   1.756
 3145TIP3    H1 9380   5.614   3.187   1.802
 3145TIP3    H2 9381   5.717   3.234   1.702
 3146TIP3   OH2 9382   2.279   1.239   0.717
 3146TIP3    H1 9383   2.199   1.225   0.767
 3146TIP3    H2 9384   2.300   1.153   0.681
 3147TIP3   OH2 9385   2.255   3.548   3.909
 3147TIP3    H1 9386   2.200   3.625   3.916
 3147TIP3    H2 9387   2.214   3.483   3.966
 3148TIP3   OH2 9388   6.035   3.630   0.804
 3148TIP3    H1 9389   6.128   3.607   0.797
 3148TIP3    H2 9390   5.991   3.577   0.738
 3149TIP3   OH2 9391   7.842   5.080   0.453
 3149TIP3    H1 9392   7.796   4.996   0.457
 3149TIP3    H2 9393   7.861   5.101   0.545
 3150TIP3   OH2 9394   4.202   6.578   1.455
 3150TIP3    H1 9395   4.260   6.516   1.410
 3150TIP3    H2 9396   4.222   6.663   1.415
 3151TIP3   OH2 9397   6.112   5.709   1.920
 3151TIP3    H1 9398   6.121   5.719   1.825
 3151TIP3    H2 9399   6.196   5.737   1.955
 3152TIP3   OH2 9400   2.720   4.509   5.011
 3152TIP3    H1 9401   2.672   4.524   4.930
 3152TIP3    H2 9402   2.660   4.539   5.080
 3153TIP3   OH2 9403   5.857   6.097   6.135
 3153TIP3    H1 9404   5.797   6.158   6.091
 3153TIP3    H2 9405   5.819   6.085   6.222
 3154TIP3   OH2 9406   4.333   2.548   3.216
 3154TIP3    H1 9407   4.325   2.537   3.311
 3154TIP3    H2 9408   4.425   2.569   3.201
 3155TIP3   OH2 9409   5.298   1.903   0.180
 3155TIP3    H1 9410   5.375   1.933   0.226
 3155TIP3    H2 9411   5.273   1.976   0.124
 3156TIP3   OH2 9412   1.298   1.163   5.540
 3156TIP3    H1 9413   1.249   1.103   5.485
 3156TIP3    H2 9414   1.232   1.205   5.596
 3157TIP3   OH2 9415   8.011   2.710   2.675
 3157TIP3    H1 9416   8.013   2.769   2.600
 3157TIP3    H2 9417   8.104   2.689   2.691
 3158TIP3   OH2 9418   2.066   0.850   5.130
 3158TIP3    H1 9419   2.093   0.941   5.147
 3158TIP3    H2 9420   2.132   0.796   5.173
 3159TIP3   OH2 9421   2.804   6.464   3.441
 3159TIP3    H1 9422   2.744   6.462   3.367
 3159TIP3    H2 9423   2.748   6.452   3.518
 3160TIP3   OH2 9424   5.745   7.428   6.765
 3160TIP3    H1 9425   5.661   7.420   6.718
 3160TIP3    H2 9426   5.792   7.347   6.745
 3161TIP3   OH2 9427   3.550   6.609   6.213
 3161TIP3    H1 9428   3.490   6.541   6.184
 3161TIP3    H2 9429   3.505   6.651   6.286
 3162TIP3   OH2 9430   1.693   2.154   1.309
 3162TIP3    H1 9431   1.649   2.071   1.292
 3162TIP3    H2 9432   1.787   2.132   1.310
 3163TIP3   OH2 9433   7.514   6.994   3.668
 3163TIP3    H1 9434   7.529   6.994   3.763
 3163TIP3    H2 9435   7.510   7.087   3.645
 3164TIP3   OH2 9436   2.889   6.024   0.665
 3164TIP3    H1 9437   2.859   5.994   0.579
 3164TIP3    H2 9438   2.852   5.961   0.727
 3165TIP3   OH2 9439   4.716   1.553   4.239
 3165TIP3    H1 9440   4.665   1.590   4.311
 3165TIP3    H2 9441   4.802   1.535   4.278
 3166TIP3   OH2 9442   5.050   4.317   1.806
 3166TIP3    H1 9443   4.966   4.289   1.771
 3166TIP3    H2 9444   5.028   4.362   1.888
 3167TIP3   OH2 9445   4.205   0.841   5.666
 3167TIP3    H1 9446   4.183   0.921   5.620
 3167TIP3    H2 9447   4.300   0.847   5.680
 3168TIP3   OH2 9448   1.972   6.115   2.805
 3168TIP3    H1 9449   1.891   6.111   2.755
 3168TIP3    H2 9450   1.945   6.106   2.896
 3169TIP3   OH2 9451   6.194   4.723   4.188
 3169TIP3    H1 9452   6.230   4.665   4.255
 3169TIP3    H2 9453   6.270   4.747   4.134
 3170TIP3   OH2 9454   3.676   1.607   0.809
 3170TIP3    H1 9455   3.597   1.602   0.755
 3170TIP3    H2 9456   3.737   1.660   0.757
 3171TIP3   OH2 9457   1.881   2.885   3.187
 3171TIP3    H1 9458   1.813   2.820   3.203
 3171TIP3    H2 9459   1.956   2.855   3.239
 3172TIP3   OH2 9460   7.396   5.480   5.812
 3172TIP3    H1 9461   7.439   5.546   5.866
 3172TIP3    H2 9462   7.326   5.527   5.766
 3173TIP3   OH2 9463   0.965   0.336   0.514
 3173TIP3    H1 9464   0.954   0.429   0.536
 3173TIP3    H2 9465   1.059   0.321   0.524
 3174TIP3   OH2 9466   2.678   5.566   6.590
 3174TIP3    H1 9467   2.610   5.555   6.657
 3174TIP3    H2 9468   2.753   5.601   6.639
 3175TIP3   OH2 9469   0.026   2.589   6.206
 3175TIP3    H1 9470   0.078   2.513   6.232
 3175TIP3    H2 9471   0.011   2.637   6.288
 3176TIP3   OH2 9472   1.103   1.488   4.160
 3176TIP3    H1 9473   1.015   1.505   4.128
 3176TIP3    H2 9474   1.160   1.515   4.087
 3177TIP3   OH2 9475   0.463   2.428   5.931
 3177TIP3    H1 9476   0.478   2.485   6.006
 3177TIP3    H2 9477   0.381   2.459   5.893
 3178TIP3   OH2 9478   3.804   5.129   1.321
 3178TIP3    H1 9479   3.865   5.057   1.339
 3178TIP3    H2 9480   3.717   5.089   1.323
 3179TIP3   OH2 9481   6.965   0.543   3.455
 3179TIP3    H1 9482   6.893   0.595   3.491
 3179TIP3    H2 9483   7.016   0.516   3.531
 3180TIP3   OH2 9484   0.044   4.399   3.213
 3180TIP3    H1 9485   0.092   4.418   3.132
 3180TIP3    H2 9486   0.104   4.346   3.265
 3181TIP3   OH2 9487   3.428   7.539   4.379
 3181TIP3    H1 9488   3.400   7.481   4.450
 3181TIP3    H2 9489   3.352   7.592   4.359
 3182TIP3   OH2 9490   7.694   6.221   5.979
 3182TIP3    H1 9491   7.611   6.264   5.959
 3182TIP3    H2 9492   7.757   6.262   5.920
 3183TIP3   OH2 9493   0.387   1.767   4.423
 3183TIP3    H1 9494   0.464   1.710   4.428
 3183TIP3    H2 9495   0.327   1.720   4.365
 3184TIP3   OH2 9496   2.916   4.115   2.946
 3184TIP3    H1 9497   2.939   4.093   3.036
 3184TIP3    H2 9498   2.975   4.063   2.892
 3185TIP3   OH2 9499   8.036   3.563   6.229
 3185TIP3    H1 9500   8.119   3.564   6.182
 3185TIP3    H2 9501   8.035   3.479   6.275
 3186TIP3   OH2 9502   6.246   2.519   6.665
 3186TIP3    H1 9503   6.262   2.546   6.755
 3186TIP3    H2 9504   6.272   2.594   6.611
 3187TIP3   OH2 9505   1.706   5.329   1.501
 3187TIP3    H1 9506   1.715   5.323   1.596
 3187TIP3    H2 9507   1.615   5.302   1.484
 3188TIP3   OH2 9508   3.379   0.306   0.905
 3188TIP3    H1 9509   3.471   0.288   0.925
 3188TIP3    H2 9510   3.336   0.305   0.990
 3189TIP3   OH2 9511   3.252   2.439   2.951
 3189TIP3    H1 9512   3.299   2.452   2.868
 3189TIP3    H2 9513   3.303   2.489   3.015
 3190TIP3   OH2 9514   5.765   4.306   3.481
 3190TIP3    H1 9515   5.727   4.288   3.567
 3190TIP3    H2 9516   5.846   4.354   3.501
 3191TIP3   OH2 9517   4.917   3.411   2.887
 3191TIP3    H1 9518   4.863   3.487   2.911
 3191TIP3    H2 9519   4.855   3.342   2.867
 3192TIP3   OH2 9520   0.332   2.358   3.878
 3192TIP3    H1 9521   0.383   2.349   3.959
 3192TIP3    H2 9522   0.241   2.346   3.906
 3193TIP3   OH2 9523   4.454   3.652   0.101
 3193TIP3    H1 9524   4.393   3.713   0.144
 3193TIP3    H2 9525   4.466   3.582   0.165
 3194TIP3   OH2 9526   2.827   2.587   5.202
 3194TIP3    H1 9527   2.850   2.497   5.226
 3194TIP3    H2 9528   2.834   2.589   5.107
 3195TIP3   OH2 9529   1.071   3.784   6.370
 3195TIP3    H1 9530   1.117   3.866   6.386
 3195TIP3    H2 9531   0.989   3.810   6.328
 3196TIP3   OH2 9532   7.117   4.360   1.981
 3196TIP3    H1 9533   7.089   4.451   1.995
 3196TIP3    H2 9534   7.062   4.329   1.908
 3197TIP3   OH2 9535   6.239   3.619   2.241
 3197TIP3    H1 9536   6.229   3.577   2.155
 3197TIP3    H2 9537   6.312   3.679   2.230
 3198TIP3   OH2 9538   0.776   6.256   1.324
 3198TIP3    H1 9539   0.806   6.221   1.408
 3198TIP3    H2 9540   0.807   6.193   1.259
 3199TIP3   OH2 9541   6.681   1.153   5.921
 3199TIP3    H1 9542   6.600   1.176   5.877
 3199TIP3    H2 9543   6.736   1.115   5.853
 3200TIP3   OH2 9544   1.694   4.796   3.153
 3200TIP3    H1 9545   1.774   4.775   3.200
 3200TIP3    H2 9546   1.643   4.850   3.213
 3201TIP3   OH2 9547   1.228   7.163   4.126
 3201TIP3    H1 9548   1.304   7.213   4.098
 3201TIP3    H2 9549   1.248   7.073   4.103
 3202TIP3   OH2 9550   2.642   7.403   3.264
 3202TIP3    H1 9551   2.679   7.412   3.176
 3202TIP3    H2 9552   2.560   7.453   3.261
 3203TIP3   OH2 9553   6.455   1.044   1.537
 3203TIP3    H1 9554   6.543   1.074   1.511
 3203TIP3    H2 9555   6.419   1.004   1.458
 3204TIP3   OH2 9556   1.099   6.921   0.916
 3204TIP3    H1 9557   1.038   6.894   0.985
 3204TIP3    H2 9558   1.173   6.958   0.963
 3205TIP3   OH2 9559   6.795   2.447   4.042
 3205TIP3    H1 9560   6.703   2.418   4.045
 3205TIP3    H2 9561   6.817   2.444   3.948
 3206TIP3   OH2 9562   1.329   5.061   0.137
 3206TIP3    H1 9563   1.245   5.083   0.097
 3206TIP3    H2 9564   1.380   5.022   0.066
 3207TIP3   OH2 9565   5.088   6.921   0.733
 3207TIP3    H1 9566   5.119   6.991   0.790
 3207TIP3    H2 9567   5.042   6.860   0.791
 3208TIP3   OH2 9568   2.919   1.809   3.448
 3208TIP3    H1 9569   2.842   1.782   3.397
 3208TIP3    H2 9570   2.913   1.904   3.451
 3209TIP3   OH2 9571  -0.022   4.629   4.236
 3209TIP3    H1 9572   0.026   4.655   4.157
 3209TIP3    H2 9573   0.043   4.580   4.287
 3210TIP3   OH2 9574   3.549   6.018   6.115
 3210TIP3    H1 9575   3.524   6.048   6.028
 3210TIP3    H2 9576   3.637   5.982   6.105
 3211TIP3   OH2 9577   8.120   6.632   5.805
 3211TIP3    H1 9578   8.118   6.699   5.737
 3211TIP3    H2 9579   8.172   6.670   5.876
 3212TIP3   OH2 9580   4.891   0.426   3.333
 3212TIP3    H1 9581   4.937   0.365   3.275
 3212TIP3    H2 9582   4.842   0.369   3.393
 3213TIP3   OH2 9583   6.790   1.420   1.159
 3213TIP3    H1 9584   6.784   1.410   1.254
 3213TIP3    H2 9585   6.718   1.478   1.137
 3214TIP3   OH2 9586   3.522   5.285   3.766
 3214TIP3    H1 9587   3.544   5.195   3.789
 3214TIP3    H2 9588   3.433   5.298   3.801
 3215TIP3   OH2 9589   4.943   7.230   0.039
 3215TIP3    H1 9590   4.883   7.161   0.011
 3215TIP3    H2 9591   4.889   7.309   0.042
 3216TIP3   OH2 9592   3.003   3.495   4.632
 3216TIP3    H1 9593   2.985   3.582   4.597
 3216TIP3    H2 9594   2.943   3.486   4.706
 3217TIP3   OH2 9595   4.802   4.478   0.994
 3217TIP3    H1 9596   4.796   4.516   1.082
 3217TIP3    H2 9597   4.883   4.514   0.958
 3218TIP3   OH2 9598   0.758   3.248   0.428
 3218TIP3    H1 9599   0.728   3.268   0.340
 3218TIP3    H2 9600   0.804   3.164   0.419
 3219TIP3   OH2 9601   3.299   6.897   4.054
 3219TIP3    H1 9602   3.205   6.904   4.036
 3219TIP3    H2 9603   3.319   6.969   4.113
 3220TIP3   OH2 9604   4.104   7.166   4.442
 3220TIP3    H1 9605   4.176   7.119   4.483
 3220TIP3    H2 9606   4.025   7.125   4.477
 3221TIP3   OH2 9607   1.328   0.884   3.221
 3221TIP3    H1 9608   1.382   0.857   3.147
 3221TIP3    H2 9609   1.251   0.924   3.182
 3222TIP3   OH2 9610   0.103   7.086   4.573
 3222TIP3    H1 9611   0.118   7.177   4.600
 3222TIP3    H2 9612   0.137   7.034   4.646
 3223TIP3   OH2 9613   0.124   2.671   6.749
 3223TIP3    H1 9614   0.146   2.764   6.736
 3223TIP3    H2 9615   0.193   2.624   6.702
 3224TIP3   OH2 9616   2.729   3.185   2.770
 3224TIP3    H1 9617   2.675   3.141   2.835
 3224TIP3    H2 9618   2.794   3.120   2.744
 3225TIP3   OH2 9619   5.641   4.770   3.608
 3225TIP3    H1 9620   5.606   4.689   3.572
 3225TIP3    H2 9621   5.735   4.755   3.615
 3226TIP3   OH2 9622   2.894   6.073   3.897
 3226TIP3    H1 9623   2.878   6.153   3.946
 3226TIP3    H2 9624   2.807   6.039   3.877
 3227TIP3   OH2 9625   7.692   0.807   2.520
 3227TIP3    H1 9626   7.632   0.855   2.464
 3227TIP3    H2 9627   7.709   0.726   2.474
 3228TIP3   OH2 9628   0.270   4.326   0.946
 3228TIP3    H1 9629   0.300   4.272   0.873
 3228TIP3    H2 9630   0.230   4.264   1.007
 3229TIP3   OH2 9631   7.583   0.609   5.755
 3229TIP3    H1 9632   7.568   0.626   5.663
 3229TIP3    H2 9633   7.526   0.671   5.801
 3230TIP3   OH2 9634   7.395   0.854   2.628
 3230TIP3    H1 9635   7.360   0.787   2.569
 3230TIP3    H2 9636   7.439   0.804   2.697
 3231TIP3   OH2 9637   1.295   5.808   6.203
 3231TIP3    H1 9638   1.240   5.809   6.124
 3231TIP3    H2 9639   1.252   5.745   6.261
 3232TIP3   OH2 9640   2.781   0.557   0.063
 3232TIP3    H1 9641   2.723   0.619   0.106
 3232TIP3    H2 9642   2.835   0.521   0.133
 3233TIP3   OH2 9643   3.236   1.349   6.247
 3233TIP3    H1 9644   3.191   1.306   6.174
 3233TIP3    H2 9645   3.209   1.441   6.240
 3234TIP3   OH2 9646   1.723   6.628   6.713
 3234TIP3    H1 9647   1.726   6.670   6.627
 3234TIP3    H2 9648   1.635   6.591   6.718
 3235TIP3   OH2 9649   2.069   3.485   3.561
 3235TIP3    H1 9650   2.133   3.551   3.534
 3235TIP3    H2 9651   2.000   3.535   3.605
 3236TIP3   OH2 9652   1.544   1.959   2.426
 3236TIP3    H1 9653   1.618   1.945   2.368
 3236TIP3    H2 9654   1.496   2.031   2.387
 3237TIP3   OH2 9655   1.709   7.395   1.577
 3237TIP3    H1 9656   1.689   7.457   1.648
 3237TIP3    H2 9657   1.804   7.396   1.570
 3238TIP3   OH2 9658   5.189   6.955   4.445
 3238TIP3    H1 9659   5.159   6.876   4.490
 3238TIP3    H2 9660   5.109   6.998   4.416
 3239TIP3   OH2 9661   7.380   3.557   1.357
 3239TIP3    H1 9662   7.351   3.635   1.309
 3239TIP3    H2 9663   7.462   3.583   1.399
 3240TIP3   OH2 9664   4.790   3.956   5.649
 3240TIP3    H1 9665   4.804   3.937   5.556
 3240TIP3    H2 9666   4.695   3.954   5.660
 3241TIP3   OH2 9667   4.078   6.631   6.166
 3241TIP3    H1 9668   4.030   6.668   6.240
 3241TIP3    H2 9669   4.088   6.539   6.187
 3242TIP3   OH2 9670   1.909   3.573   2.232
 3242TIP3    H1 9671   1.832   3.562   2.176
 3242TIP3    H2 9672   1.982   3.541   2.178
 3243TIP3   OH2 9673   1.359   4.033   5.974
 3243TIP3    H1 9674   1.398   3.997   5.894
 3243TIP3    H2 9675   1.408   4.113   5.992
 3244TIP3   OH2 9676   4.263   0.978   2.970
 3244TIP3    H1 9677   4.327   1.044   2.997
 3244TIP3    H2 9678   4.314   0.916   2.918
 3245TIP3   OH2 9679   2.282   5.003   4.954
 3245TIP3    H1 9680   2.321   5.008   4.866
 3245TIP3    H2 9681   2.224   4.927   4.950
 3246TIP3   OH2 9682   7.271   7.525   3.339
 3246TIP3    H1 9683   7.300   7.545   3.429
 3246TIP3    H2 9684   7.344   7.478   3.300
 3247TIP3   OH2 9685   7.676   1.108   2.399
 3247TIP3    H1 9686   7.759   1.072   2.429
 3247TIP3    H2 9687   7.626   1.031   2.370
 3248TIP3   OH2 9688   0.724   6.780   2.846
 3248TIP3    H1 9689   0.675   6.793   2.927
 3248TIP3    H2 9690   0.763   6.693   2.855
 3249TIP3   OH2 9691   6.446   1.015   4.497
 3249TIP3    H1 9692   6.385   0.971   4.557
 3249TIP3    H2 9693   6.498   0.945   4.459
 3250TIP3   OH2 9694   5.702   1.104   4.034
 3250TIP3    H1 9695   5.726   1.189   4.070
 3250TIP3    H2 9696   5.689   1.047   4.110
 3251TIP3   OH2 9697   6.716   6.628   2.460
 3251TIP3    H1 9698   6.733   6.609   2.552
 3251TIP3    H2 9699   6.779   6.574   2.412
 3252TIP3   OH2 9700   4.879   0.986   1.104
 3252TIP3    H1 9701   4.865   0.910   1.047
 3252TIP3    H2 9702   4.922   1.050   1.048
 3253TIP3   OH2 9703   6.002   4.991   5.189
 3253TIP3    H1 9704   6.092   5.021   5.171
 3253TIP3    H2 9705   5.977   5.037   5.269
 3254TIP3   OH2 9706   3.728   3.708   3.066
 3254TIP3    H1 9707   3.807   3.743   3.025
 3254TIP3    H2 9708   3.657   3.735   3.009
 3255TIP3   OH2 9709   6.691   0.862   4.723
 3255TIP3    H1 9710   6.768   0.918   4.721
 3255TIP3    H2 9711   6.685   0.825   4.635
 3256TIP3   OH2 9712   5.569   7.056   0.515
 3256TIP3    H1 9713   5.477   7.027   0.520
 3256TIP3    H2 9714   5.575   7.098   0.429
 3257TIP3   OH2 9715   1.302   7.326   6.012
 3257TIP3    H1 9716   1.305   7.421   6.000
 3257TIP3    H2 9717   1.215   7.301   5.982
 3258TIP3   OH2 9718   4.831   4.279   6.764
 3258TIP3    H1 9719   4.882   4.359   6.759
 3258TIP3    H2 9720   4.845   4.248   6.854
 3259TIP3   OH2 9721   7.529   1.177   3.874
 3259TIP3    H1 9722   7.610   1.227   3.885
 3259TIP3    H2 9723   7.459   1.241   3.887
 3260TIP3   OH2 9724   2.215   2.246   2.125
 3260TIP3    H1 9725   2.222   2.161   2.081
 3260TIP3    H2 9726   2.121   2.260   2.136
 3261TIP3   OH2 9727   4.811   4.455   0.710
 3261TIP3    H1 9728   4.762   4.480   0.632
 3261TIP3    H2 9729   4.895   4.499   0.701
 3262TIP3   OH2 9730   2.669   3.644   5.677
 3262TIP3    H1 9731   2.694   3.641   5.770
 3262TIP3    H2 9732   2.596   3.706   5.674
 3263TIP3   OH2 9733   6.190   2.093   2.033
 3263TIP3    H1 9734   6.275   2.115   2.073
 3263TIP3    H2 9735   6.166   2.171   1.984
 3264TIP3   OH2 9736   3.677   3.153   1.274
 3264TIP3    H1 9737   3.766   3.129   1.300
 3264TIP3    H2 9738   3.686   3.187   1.185
 3265TIP3   OH2 9739   5.972   3.271   3.813
 3265TIP3    H1 9740   6.013   3.357   3.824
 3265TIP3    H2 9741   5.941   3.248   3.901
 3266TIP3   OH2 9742   0.382   5.616   2.266
 3266TIP3    H1 9743   0.298   5.579   2.239
 3266TIP3    H2 9744   0.439   5.605   2.190
 3267TIP3   OH2 9745   3.147   0.208   6.028
 3267TIP3    H1 9746   3.216   0.147   6.053
 3267TIP3    H2 9747   3.070   0.179   6.077
 3268TIP3   OH2 9748   5.865   2.929   5.887
 3268TIP3    H1 9749   5.930   2.884   5.941
 3268TIP3    H2 9750   5.885   3.022   5.898
 3269TIP3   OH2 9751   5.925   5.034   0.933
 3269TIP3    H1 9752   5.989   5.018   1.003
 3269TIP3    H2 9753   5.973   5.013   0.852
 3270TIP3   OH2 9754   3.677   5.929   3.320
 3270TIP3    H1 9755   3.708   5.912   3.231
 3270TIP3    H2 9756   3.582   5.928   3.314
 3271TIP3   OH2 9757   0.099   6.552   3.324
 3271TIP3    H1 9758   0.126   6.579   3.412
 3271TIP3    H2 9759   0.097   6.634   3.274
 3272TIP3   OH2 9760   1.357   3.435   6.005
 3272TIP3    H1 9761   1.427   3.387   5.961
 3272TIP3    H2 9762   1.277   3.391   5.976
 3273TIP3   OH2 9763   4.452   3.460   5.934
 3273TIP3    H1 9764   4.381   3.451   5.998
 3273TIP3    H2 9765   4.532   3.453   5.986
 3274TIP3   OH2 9766   0.201   0.835   5.899
 3274TIP3    H1 9767   0.153   0.839   5.982
 3274TIP3    H2 9768   0.289   0.808   5.924
 3275TIP3   OH2 9769   1.541   3.532   0.491
 3275TIP3    H1 9770   1.503   3.578   0.416
 3275TIP3    H2 9771   1.580   3.601   0.544
 3276TIP3   OH2 9772   3.382   3.750   5.884
 3276TIP3    H1 9773   3.342   3.831   5.854
 3276TIP3    H2 9774   3.308   3.694   5.909
 3277TIP3   OH2 9775   5.265   3.510   0.783
 3277TIP3    H1 9776   5.318   3.589   0.800
 3277TIP3    H2 9777   5.180   3.544   0.756
 3278TIP3   OH2 9778   3.201   7.139   6.369
 3278TIP3    H1 9779   3.258   7.110   6.297
 3278TIP3    H2 9780   3.139   7.199   6.329
 3279TIP3   OH2 9781   4.269   4.083   2.016
 3279TIP3    H1 9782   4.332   4.030   1.968
 3279TIP3    H2 9783   4.298   4.173   2.003
 3280TIP3   OH2 9784   1.883   7.048   3.944
 3280TIP3    H1 9785   1.788   7.039   3.944
 3280TIP3    H2 9786   1.916   6.959   3.959
 3281TIP3   OH2 9787   3.976   3.009   5.004
 3281TIP3    H1 9788   3.913   3.081   5.005
 3281TIP3    H2 9789   3.931   2.937   5.047
 3282TIP3   OH2 9790   4.322   0.189   0.105
 3282TIP3    H1 9791   4.242   0.181   0.053
 3282TIP3    H2 9792   4.335   0.283   0.116
 3283TIP3   OH2 9793   2.482   3.440   3.610
 3283TIP3    H1 9794   2.554   3.377   3.622
 3283TIP3    H2 9795   2.404   3.392   3.640
 3284TIP3   OH2 9796   0.337   0.291   2.342
 3284TIP3    H1 9797   0.374   0.376   2.368
 3284TIP3    H2 9798   0.363   0.281   2.250
 3285TIP3   OH2 9799   2.306   7.024   1.811
 3285TIP3    H1 9800   2.233   7.076   1.843
 3285TIP3    H2 9801   2.274   6.934   1.809
 3286TIP3   OH2 9802   3.197   6.168   5.862
 3286TIP3    H1 9803   3.145   6.248   5.864
 3286TIP3    H2 9804   3.236   6.162   5.949
 3287TIP3   OH2 9805   2.750   4.101   1.557
 3287TIP3    H1 9806   2.733   4.188   1.520
 3287TIP3    H2 9807   2.835   4.076   1.522
 3288TIP3   OH2 9808   5.836   3.411   5.844
 3288TIP3    H1 9809   5.892   3.400   5.767
 3288TIP3    H2 9810   5.847   3.503   5.869
 3289TIP3   OH2 9811   7.794   2.164   3.963
 3289TIP3    H1 9812   7.819   2.180   4.054
 3289TIP3    H2 9813   7.791   2.068   3.956
 3290TIP3   OH2 9814   2.108   6.755   1.532
 3290TIP3    H1 9815   2.148   6.742   1.618
 3290TIP3    H2 9816   2.088   6.666   1.502
 3291TIP3   OH2 9817   1.366   1.365   4.035
 3291TIP3    H1 9818   1.321   1.327   3.960
 3291TIP3    H2 9819   1.443   1.309   4.047
 3292TIP3   OH2 9820   4.597   2.358   1.685
 3292TIP3    H1 9821   4.630   2.365   1.775
 3292TIP3    H2 9822   4.507   2.329   1.694
 3293TIP3   OH2 9823   5.021   4.950   1.578
 3293TIP3    H1 9824   4.940   4.918   1.538
 3293TIP3    H2 9825   5.014   4.927   1.670
 3294TIP3   OH2 9826   7.654   1.061   3.156
 3294TIP3    H1 9827   7.695   1.071   3.070
 3294TIP3    H2 9828   7.616   1.147   3.174
 3295TIP3   OH2 9829   5.237   0.315   3.369
 3295TIP3    H1 9830   5.210   0.250   3.434
 3295TIP3    H2 9831   5.277   0.385   3.420
 3296TIP3   OH2 9832   5.734   6.619   5.131
 3296TIP3    H1 9833   5.828   6.634   5.144
 3296TIP3    H2 9834   5.716   6.536   5.175
 3297TIP3   OH2 9835   2.096   4.443   0.047
 3297TIP3    H1 9836   2.181   4.402   0.030
 3297TIP3    H2 9837   2.061   4.460  -0.041
 3298TIP3   OH2 9838   4.600   0.744   4.965
 3298TIP3    H1 9839   4.620   0.687   5.040
 3298TIP3    H2 9840   4.509   0.724   4.944
 3299TIP3   OH2 9841   0.153   3.687   2.530
 3299TIP3    H1 9842   0.125   3.596   2.537
 3299TIP3    H2 9843   0.075   3.738   2.553
 3300TIP3   OH2 9844   0.237   1.194   1.591
 3300TIP3    H1 9845   0.267   1.270   1.541
 3300TIP3    H2 9846   0.189   1.142   1.527
 3301TIP3   OH2 9847   1.784   6.582   1.598
 3301TIP3    H1 9848   1.871   6.543   1.595
 3301TIP3    H2 9849   1.726   6.514   1.564
 3302TIP3   OH2 9850   3.056   6.996   0.205
 3302TIP3    H1 9851   3.034   7.002   0.297
 3302TIP3    H2 9852   3.133   7.052   0.194
 3303TIP3   OH2 9853   2.857   5.753   6.100
 3303TIP3    H1 9854   2.947   5.730   6.079
 3303TIP3    H2 9855   2.864   5.835   6.149
 3304TIP3   OH2 9856   5.508   2.158   3.833
 3304TIP3    H1 9857   5.582   2.115   3.790
 3304TIP3    H2 9858   5.435   2.144   3.772
 3305TIP3   OH2 9859   4.899   5.637   5.631
 3305TIP3    H1 9860   4.896   5.655   5.537
 3305TIP3    H2 9861   4.963   5.699   5.666
 3306TIP3   OH2 9862   5.298   3.184   1.642
 3306TIP3    H1 9863   5.328   3.177   1.733
 3306TIP3    H2 9864   5.209   3.151   1.644
 3307TIP3   OH2 9865   3.577   3.670   1.523
 3307TIP3    H1 9866   3.556   3.584   1.560
 3307TIP3    H2 9867   3.540   3.733   1.586
 3308TIP3   OH2 9868   8.131   1.903   3.449
 3308TIP3    H1 9869   8.126   1.854   3.367
 3308TIP3    H2 9870   8.188   1.849   3.505
 3309TIP3   OH2 9871   3.817   3.245   3.583
 3309TIP3    H1 9872   3.845   3.168   3.634
 3309TIP3    H2 9873   3.893   3.303   3.584
 3310TIP3   OH2 9874   6.914   1.013   6.669
 3310TIP3    H1 9875   6.916   0.997   6.574
 3310TIP3    H2 9876   6.830   0.978   6.698
 3311TIP3   OH2 9877   1.021   3.064   5.481
 3311TIP3    H1 9878   1.075   3.115   5.421
 3311TIP3    H2 9879   0.942   3.043   5.431
 3312TIP3   OH2 9880   7.508   0.118   6.101
 3312TIP3    H1 9881   7.460   0.187   6.056
 3312TIP3    H2 9882   7.567   0.082   6.034
 3313TIP3   OH2 9883   3.185   2.575   6.346
 3313TIP3    H1 9884   3.269   2.546   6.311
 3313TIP3    H2 9885   3.197   2.574   6.441
 3314TIP3   OH2 9886   8.004   2.933   0.117
 3314TIP3    H1 9887   7.989   2.855   0.064
 3314TIP3    H2 9888   7.956   2.917   0.199
 3315TIP3   OH2 9889   4.800   1.326   2.566
 3315TIP3    H1 9890   4.874   1.356   2.620
 3315TIP3    H2 9891   4.747   1.273   2.626
 3316TIP3   OH2 9892   0.420   4.068   2.281
 3316TIP3    H1 9893   0.464   4.126   2.220
 3316TIP3    H2 9894   0.347   4.032   2.231
 3317TIP3   OH2 9895   1.152   2.615   4.664
 3317TIP3    H1 9896   1.068   2.651   4.637
 3317TIP3    H2 9897   1.139   2.587   4.755
 3318TIP3   OH2 9898   6.203   7.693   3.949
 3318TIP3    H1 9899   6.261   7.643   4.008
 3318TIP3    H2 9900   6.130   7.720   4.005
 3319TIP3   OH2 9901   5.917   0.268   5.482
 3319TIP3    H1 9902   5.962   0.252   5.400
 3319TIP3    H2 9903   5.922   0.185   5.530
 3320TIP3   OH2 9904   1.237   0.701   5.867
 3320TIP3    H1 9905   1.320   0.748   5.861
 3320TIP3    H2 9906   1.185   0.751   5.929
 3321TIP3   OH2 9907   0.405   0.382   0.702
 3321TIP3    H1 9908   0.448   0.463   0.675
 3321TIP3    H2 9909   0.457   0.350   0.775
 3322TIP3   OH2 9910   3.114   6.917   0.966
 3322TIP3    H1 9911   3.182   6.972   0.928
 3322TIP3    H2 9912   3.054   6.899   0.894
 3323TIP3   OH2 9913   5.476   3.354   3.523
 3323TIP3    H1 9914   5.538   3.371   3.594
 3323TIP3    H2 9915   5.396   3.327   3.567
 3324TIP3   OH2 9916   1.250   4.859   1.983
 3324TIP3    H1 9917   1.166   4.816   1.998
 3324TIP3    H2 9918   1.308   4.790   1.951
 3325TIP3   OH2 9919   7.887   1.976   6.260
 3325TIP3    H1 9920   7.951   2.043   6.284
 3325TIP3    H2 9921   7.883   1.980   6.164
 3326TIP3   OH2 9922   3.870   2.171   1.905
 3326TIP3    H1 9923   3.865   2.178   2.001
 3326TIP3    H2 9924   3.832   2.253   1.873
 3327TIP3   OH2 9925   7.815   3.716   3.449
 3327TIP3    H1 9926   7.768   3.796   3.425
 3327TIP3    H2 9927   7.811   3.713   3.544
 3328TIP3   OH2 9928   3.094   5.852   0.524
 3328TIP3    H1 9929   3.013   5.806   0.502
 3328TIP3    H2 9930   3.093   5.931   0.469
 3329TIP3   OH2 9931   3.311   2.084   0.333
 3329TIP3    H1 9932   3.332   2.149   0.266
 3329TIP3    H2 9933   3.215   2.084   0.337
 3330TIP3   OH2 9934   8.092   3.511   3.912
 3330TIP3    H1 9935   8.023   3.459   3.952
 3330TIP3    H2 9936   8.083   3.598   3.950
 3331TIP3   OH2 9937   3.844   3.896   2.740
 3331TIP3    H1 9938   3.894   3.972   2.714
 3331TIP3    H2 9939   3.877   3.874   2.827
 3332TIP3   OH2 9940   0.481   0.856   4.179
 3332TIP3    H1 9941   0.483   0.820   4.267
 3332TIP3    H2 9942   0.388   0.859   4.156
 3333TIP3   OH2 9943   1.993   4.101   0.355
 3333TIP3    H1 9944   2.080   4.093   0.394
 3333TIP3    H2 9945   2.010   4.130   0.265
 3334TIP3   OH2 9946   4.642   6.158   4.466
 3334TIP3    H1 9947   4.734   6.146   4.489
 3334TIP3    H2 9948   4.602   6.072   4.482
 3335TIP3   OH2 9949   2.379   7.421   0.160
 3335TIP3    H1 9950   2.453   7.469   0.124
 3335TIP3    H2 9951   2.415   7.376   0.237
 3336TIP3   OH2 9952   8.113   1.561   6.207
 3336TIP3    H1 9953   8.152   1.556   6.294
 3336TIP3    H2 9954   8.125   1.474   6.169
 3337TIP3   OH2 9955   5.423   1.649   5.328
 3337TIP3    H1 9956   5.518   1.654   5.321
 3337TIP3    H2 9957   5.403   1.688   5.413
 3338TIP3   OH2 9958   5.117   0.723   1.065
 3338TIP3    H1 9959   5.120   0.706   1.159
 3338TIP3    H2 9960   5.200   0.766   1.045
 3339TIP3   OH2 9961   6.186   1.280   6.174
 3339TIP3    H1 9962   6.197   1.314   6.085
 3339TIP3    H2 9963   6.271   1.296   6.216
 3340TIP3   OH2 9964   5.582   2.223   1.181
 3340TIP3    H1 9965   5.506   2.180   1.220
 3340TIP3    H2 9966   5.558   2.238   1.090
 3341TIP3   OH2 9967   3.262   1.654   5.732
 3341TIP3    H1 9968   3.234   1.736   5.774
 3341TIP3    H2 9969   3.336   1.625   5.786
 3342TIP3   OH2 9970   4.889   5.508   4.717
 3342TIP3    H1 9971   4.946   5.483   4.644
 3342TIP3    H2 9972   4.895   5.435   4.778
 3343TIP3   OH2 9973   3.307   3.958   2.257
 3343TIP3    H1 9974   3.342   3.958   2.346
 3343TIP3    H2 9975   3.367   3.901   2.207
 3344TIP3   OH2 9976  -0.039   6.716   1.854
 3344TIP3    H1 9977  -0.018   6.708   1.947
 3344TIP3    H2 9978   0.044   6.697   1.809
 3345TIP3   OH2 9979   6.986   2.381   0.263
 3345TIP3    H1 9980   6.895   2.397   0.290
 3345TIP3    H2 9981   7.014   2.463   0.223
 3346TIP3   OH2 9982   6.129   4.979   6.462
 3346TIP3    H1 9983   6.043   4.963   6.501
 3346TIP3    H2 9984   6.170   5.043   6.520
 3347TIP3   OH2 9985   7.396   4.707   6.569
 3347TIP3    H1 9986   7.437   4.663   6.644
 3347TIP3    H2 9987   7.417   4.799   6.581
 3348TIP3   OH2 9988   3.917   2.713   3.664
 3348TIP3    H1 9989   3.934   2.652   3.736
 3348TIP3    H2 9990   3.911   2.656   3.587
 3349TIP3   OH2 9991   2.585   3.197   6.400
 3349TIP3    H1 9992   2.550   3.213   6.487
 3349TIP3    H2 9993   2.511   3.214   6.341
 3350TIP3   OH2 9994   4.561   6.702   1.131
 3350TIP3    H1 9995   4.507   6.639   1.083
 3350TIP3    H2 9996   4.575   6.661   1.217
 3351TIP3   OH2 9997   2.211   4.934   0.934
 3351TIP3    H1 9998   2.184   5.023   0.911
 3351TIP3    H2 9999   2.182   4.922   1.025
 3352TIP3   OH210000   6.374   1.654   1.769
 3352TIP3    H110001   6.288   1.612   1.772
 3352TIP3    H210002   6.390   1.669   1.676
 3353TIP3   OH210003   7.719   5.441   3.990
 3353TIP3    H110004   7.777   5.468   4.061
 3353TIP3    H210005   7.752   5.486   3.913
 3354TIP3   OH210006   0.369   4.402   6.323
 3354TIP3    H110007   0.314   4.369   6.394
 3354TIP3    H210008   0.313   4.396   6.245
 3355TIP3   OH210009   0.507   6.046   4.658
 3355TIP3    H110010   0.524   5.953   4.644
 3355TIP3    H210011   0.470   6.076   4.574
 3356TIP3   OH210012   0.948   2.310   6.630
 3356TIP3    H110013   0.975   2.228   6.590
 3356TIP3    H210014   0.966   2.299   6.723
 3357TIP3   OH210015   5.087   3.755   1.563
 3357TIP3    H110016   5.032   3.731   1.488
 3357TIP3    H210017   5.114   3.671   1.599
 3358TIP3   OH210018   7.079   5.313   1.580
 3358TIP3    H110019   7.117   5.361   1.507
 3358TIP3    H210020   6.985   5.326   1.572
 3359TIP3   OH210021   0.095   1.690   1.218
 3359TIP3    H110022   0.013   1.737   1.208
 3359TIP3    H210023   0.074   1.618   1.277
 3360TIP3   OH210024   6.236   5.235   1.587
 3360TIP3    H110025   6.271   5.173   1.523
 3360TIP3    H210026   6.311   5.257   1.642
 3361TIP3   OH210027   7.550   7.169   1.353
 3361TIP3    H110028   7.620   7.196   1.294
 3361TIP3    H210029   7.472   7.215   1.322
 3362TIP3   OH210030   6.564   3.045   3.879
 3362TIP3    H110031   6.578   3.076   3.790
 3362TIP3    H210032   6.525   3.120   3.924
 3363TIP3   OH210033   3.874   3.346   0.282
 3363TIP3    H110034   3.896   3.253   0.270
 3363TIP3    H210035   3.816   3.347   0.358
 3364TIP3   OH210036   7.909   6.792   4.657
 3364TIP3    H110037   7.973   6.839   4.711
 3364TIP3    H210038   7.859   6.739   4.719
 3365TIP3   OH210039   4.752   3.339   0.504
 3365TIP3    H110040   4.758   3.251   0.467
 3365TIP3    H210041   4.786   3.396   0.435
 3366TIP3   OH210042   3.784   7.558   6.111
 3366TIP3    H110043   3.803   7.644   6.147
 3366TIP3    H210044   3.785   7.499   6.186
 3367TIP3   OH210045   0.428   7.002   1.528
 3367TIP3    H110046   0.345   7.034   1.495
 3367TIP3    H210047   0.460   7.073   1.585
 3368TIP3   OH210048   7.791   0.107   2.636
 3368TIP3    H110049   7.778   0.188   2.685
 3368TIP3    H210050   7.706   0.088   2.597
 3369TIP3   OH210051   6.155   5.059   2.859
 3369TIP3    H110052   6.141   5.072   2.953
 3369TIP3    H210053   6.225   4.994   2.855
 3370TIP3   OH210054   2.997   5.657   5.667
 3370TIP3    H110055   3.005   5.721   5.739
 3370TIP3    H210056   3.071   5.677   5.610
 3371TIP3   OH210057   3.672   1.519   3.679
 3371TIP3    H110058   3.664   1.605   3.721
 3371TIP3    H210059   3.602   1.517   3.614
 3372TIP3   OH210060   2.612   4.688   6.247
 3372TIP3    H110061   2.703   4.661   6.239
 3372TIP3    H210062   2.589   4.720   6.160
 3373TIP3   OH210063   5.077   4.312   0.845
 3373TIP3    H110064   5.005   4.249   0.851
 3373TIP3    H210065   5.113   4.299   0.757
 3374TIP3   OH210066   7.625   6.111   4.326
 3374TIP3    H110067   7.556   6.053   4.294
 3374TIP3    H210068   7.700   6.094   4.269
 3375TIP3   OH210069   8.130   3.142   4.197
 3375TIP3    H110070   8.066   3.098   4.252
 3375TIP3    H210071   8.080   3.209   4.150
 3376TIP3   OH210072   3.861   3.129   0.803
 3376TIP3    H110073   3.840   3.119   0.895
 3376TIP3    H210074   3.884   3.222   0.794
 3377TIP3   OH210075   3.826   0.495   2.881
 3377TIP3    H110076   3.759   0.481   2.814
 3377TIP3    H210077   3.844   0.407   2.914
 3378TIP3   OH210078   1.914   3.312   5.854
 3378TIP3    H110079   1.918   3.361   5.936
 3378TIP3    H210080   1.941   3.376   5.787
 3379TIP3   OH210081   2.044   1.008   6.674
 3379TIP3    H110082   2.002   0.934   6.719
 3379TIP3    H210083   2.097   1.050   6.741
 3380TIP3   OH210084   0.724   3.214   6.738
 3380TIP3    H110085   0.674   3.238   6.660
 3380TIP3    H210086   0.802   3.269   6.735
 3381TIP3   OH210087   1.932   4.751   3.281
 3381TIP3    H110088   1.877   4.809   3.334
 3381TIP3    H210089   1.914   4.664   3.316
 3382TIP3   OH210090   2.639   7.175   4.148
 3382TIP3    H110091   2.703   7.109   4.174
 3382TIP3    H210092   2.613   7.149   4.059
 3383TIP3   OH210093   7.923   4.498   0.527
 3383TIP3    H110094   7.837   4.518   0.489
 3383TIP3    H210095   7.961   4.435   0.467
 3384TIP3   OH210096   5.295   0.193   3.117
 3384TIP3    H110097   5.388   0.216   3.112
 3384TIP3    H210098   5.266   0.228   3.201
 3385TIP3   OH210099   8.015   0.900   5.831
 3385TIP3    H110100   8.026   0.965   5.761
 3385TIP3    H210101   7.920   0.899   5.848
 3386TIP3   OH210102   5.863   1.893   0.125
 3386TIP3    H110103   5.777   1.934   0.117
 3386TIP3    H210104   5.925   1.960   0.097
 3387TIP3   OH210105   7.121   5.483   2.430
 3387TIP3    H110106   7.158   5.395   2.443
 3387TIP3    H210107   7.118   5.520   2.518
 3388TIP3   OH210108   4.222   4.236   5.401
 3388TIP3    H110109   4.297   4.263   5.347
 3388TIP3    H210110   4.161   4.197   5.339
 3389TIP3   OH210111   0.646   3.124   4.793
 3389TIP3    H110112   0.692   3.208   4.794
 3389TIP3    H210113   0.554   3.147   4.797
 3390TIP3   OH210114   0.781   5.593   1.747
 3390TIP3    H110115   0.851   5.609   1.810
 3390TIP3    H210116   0.818   5.528   1.686
 3391TIP3   OH210117   3.377   4.600   4.677
 3391TIP3    H110118   3.373   4.532   4.611
 3391TIP3    H210119   3.286   4.616   4.701
 3392TIP3   OH210120   3.548   0.343   3.340
 3392TIP3    H110121   3.594   0.299   3.268
 3392TIP3    H210122   3.483   0.398   3.296
 3393TIP3   OH210123   2.647   2.734   4.944
 3393TIP3    H110124   2.723   2.676   4.937
 3393TIP3    H210125   2.583   2.683   4.994
 3394TIP3   OH210126   5.117   7.590   1.648
 3394TIP3    H110127   5.028   7.614   1.625
 3394TIP3    H210128   5.171   7.661   1.613
 3395TIP3   OH210129   7.412   3.869   5.972
 3395TIP3    H110130   7.417   3.962   5.948
 3395TIP3    H210131   7.481   3.858   6.038
 3396TIP3   OH210132   2.337   0.107   6.169
 3396TIP3    H110133   2.277   0.079   6.100
 3396TIP3    H210134   2.424   0.103   6.130
 3397TIP3   OH210135   0.946   7.516   0.679
 3397TIP3    H110136   0.870   7.470   0.714
 3397TIP3    H210137   0.953   7.595   0.732
 3398TIP3   OH210138   6.143   1.568   6.107
 3398TIP3    H110139   6.124   1.496   6.046
 3398TIP3    H210140   6.074   1.632   6.091
 3399TIP3   OH210141   2.923   6.822   4.715
 3399TIP3    H110142   2.870   6.764   4.659
 3399TIP3    H210143   2.998   6.845   4.661
 3400TIP3   OH210144   6.450   5.693   4.285
 3400TIP3    H110145   6.415   5.776   4.254
 3400TIP3    H210146   6.373   5.639   4.300
 3401TIP3   OH210147   0.321   0.529   5.706
 3401TIP3    H110148   0.354   0.616   5.729
 3401TIP3    H210149   0.400   0.478   5.688
 3402TIP3   OH210150   3.184   0.075   3.934
 3402TIP3    H110151   3.116   0.008   3.937
 3402TIP3    H210152   3.156   0.140   3.998
 3403TIP3   OH210153   0.760   2.356   6.439
 3403TIP3    H110154   0.802   2.331   6.521
 3403TIP3    H210155   0.768   2.451   6.436
 3404TIP3   OH210156   7.274   1.452   0.564
 3404TIP3    H110157   7.221   1.447   0.644
 3404TIP3    H210158   7.220   1.412   0.496
 3405TIP3   OH210159   5.231   4.740   2.385
 3405TIP3    H110160   5.218   4.690   2.305
 3405TIP3    H210161   5.231   4.675   2.455
 3406TIP3   OH210162   2.434   2.646   0.194
 3406TIP3    H110163   2.349   2.616   0.225
 3406TIP3    H210164   2.456   2.586   0.123
 3407TIP3   OH210165   2.768   5.066   4.803
 3407TIP3    H110166   2.735   5.110   4.724
 3407TIP3    H210167   2.697   5.075   4.866
 3408TIP3   OH210168   3.983   4.978   0.954
 3408TIP3    H110169   3.933   4.905   0.917
 3408TIP3    H210170   4.035   4.939   1.024
 3409TIP3   OH210171   7.759   4.287   2.171
 3409TIP3    H110172   7.669   4.254   2.165
 3409TIP3    H210173   7.755   4.351   2.242
 3410TIP3   OH210174   2.205   2.224   4.856
 3410TIP3    H110175   2.282   2.215   4.799
 3410TIP3    H210176   2.243   2.235   4.944
 3411TIP3   OH210177   3.607   5.241   6.796
 3411TIP3    H110178   3.564   5.177   6.739
 3411TIP3    H210179   3.659   5.295   6.737
 3412TIP3   OH210180   8.222   2.217   0.258
 3412TIP3    H110181   8.164   2.175   0.320
 3412TIP3    H210182   8.264   2.288   0.308
 3413TIP3   OH210183   8.250   0.869   1.137
 3413TIP3    H110184   8.166   0.872   1.182
 3413TIP3    H210185   8.315   0.882   1.205
 3414TIP3   OH210186   7.135   6.419   3.172
 3414TIP3    H110187   7.227   6.409   3.194
 3414TIP3    H210188   7.133   6.422   3.076
 3415TIP3   OH210189   5.677   4.649   1.685
 3415TIP3    H110190   5.627   4.658   1.767
 3415TIP3    H210191   5.751   4.592   1.708
 3416TIP3   OH210192   6.634   7.298   3.952
 3416TIP3    H110193   6.584   7.217   3.961
 3416TIP3    H210194   6.630   7.339   4.038
 3417TIP3   OH210195   3.742   3.839   6.714
 3417TIP3    H110196   3.648   3.853   6.727
 3417TIP3    H210197   3.766   3.899   6.644
 3418TIP3   OH210198   2.092   1.530   4.360
 3418TIP3    H110199   2.129   1.447   4.330
 3418TIP3    H210200   2.097   1.526   4.455
 3419TIP3   OH210201   3.137   4.172   1.942
 3419TIP3    H110202   3.232   4.182   1.928
 3419TIP3    H210203   3.121   4.217   2.025
 3420TIP3   OH210204   5.552   4.391   0.936
 3420TIP3    H110205   5.557   4.313   0.881
 3420TIP3    H210206   5.571   4.359   1.024
 3421TIP3   OH210207   6.562   0.800   1.675
 3421TIP3    H110208   6.487   0.847   1.638
 3421TIP3    H210209   6.567   0.720   1.624
 3422TIP3   OH210210   6.144   2.129   4.366
 3422TIP3    H110211   6.224   2.173   4.338
 3422TIP3    H210212   6.151   2.126   4.462
 3423TIP3   OH210213   4.475   2.651   4.201
 3423TIP3    H110214   4.463   2.699   4.120
 3423TIP3    H210215   4.522   2.711   4.258
 3424TIP3   OH210216   7.559   6.232   0.381
 3424TIP3    H110217   7.618   6.191   0.318
 3424TIP3    H210218   7.614   6.295   0.428
 3425TIP3   OH210219   0.162   3.612   2.195
 3425TIP3    H110220   0.157   3.663   2.276
 3425TIP3    H210221   0.221   3.663   2.139
 3426TIP3   OH210222   3.907   6.667   2.528
 3426TIP3    H110223   3.882   6.664   2.620
 3426TIP3    H210224   3.886   6.580   2.494
 3427TIP3   OH210225   5.468   0.301   4.183
 3427TIP3    H110226   5.449   0.291   4.090
 3427TIP3    H210227   5.537   0.367   4.187
 3428TIP3   OH210228   4.000   7.311   2.436
 3428TIP3    H110229   4.081   7.268   2.464
 3428TIP3    H210230   3.949   7.320   2.517
 3429TIP3   OH210231   4.455   0.111   3.922
 3429TIP3    H110232   4.395   0.073   3.987
 3429TIP3    H210233   4.512   0.038   3.897
 3430TIP3   OH210234   4.080   3.801   3.976
 3430TIP3    H110235   4.054   3.799   3.883
 3430TIP3    H210236   4.164   3.846   3.976
 3431TIP3   OH210237   4.267   2.425   2.658
 3431TIP3    H110238   4.303   2.431   2.746
 3431TIP3    H210239   4.262   2.516   2.628
 3432TIP3   OH210240   4.237   4.280   5.964
 3432TIP3    H110241   4.283   4.358   5.994
 3432TIP3    H210242   4.252   4.216   6.033
 3433TIP3   OH210243   6.070   6.549   2.828
 3433TIP3    H110244   6.066   6.581   2.918
 3433TIP3    H210245   6.163   6.528   2.815
 3434TIP3   OH210246   7.098   5.013   3.719
 3434TIP3    H110247   7.043   5.039   3.644
 3434TIP3    H210248   7.076   5.076   3.787
 3435TIP3   OH210249   6.250   4.250   4.065
 3435TIP3    H110250   6.315   4.183   4.044
 3435TIP3    H210251   6.195   4.208   4.132
 3436TIP3   OH210252   8.024   7.242   6.346
 3436TIP3    H110253   8.000   7.205   6.261
 3436TIP3    H210254   8.052   7.331   6.326
 3437TIP3   OH210255   3.149   4.687   2.880
 3437TIP3    H110256   3.103   4.768   2.905
 3437TIP3    H210257   3.140   4.684   2.784
 3438TIP3   OH210258   0.189   4.944   4.767
 3438TIP3    H110259   0.200   4.918   4.676
 3438TIP3    H210260   0.164   4.863   4.812
 3439TIP3   OH210261   3.945   6.757   6.397
 3439TIP3    H110262   3.870   6.810   6.370
 3439TIP3    H210263   3.912   6.705   6.470
 3440TIP3   OH210264   7.677   4.329   4.500
 3440TIP3    H110265   7.635   4.360   4.581
 3440TIP3    H210266   7.636   4.245   4.482
 3441TIP3   OH210267   4.754   6.269   1.197
 3441TIP3    H110268   4.726   6.192   1.149
 3441TIP3    H210269   4.832   6.240   1.245
 3442TIP3   OH210270   6.161   4.804   5.992
 3442TIP3    H110271   6.101   4.824   6.065
 3442TIP3    H210272   6.106   4.809   5.914
 3443TIP3   OH210273   5.271   5.367   5.892
 3443TIP3    H110274   5.288   5.460   5.911
 3443TIP3    H210275   5.357   5.326   5.896
 3444TIP3   OH210276   3.373   6.722   1.714
 3444TIP3    H110277   3.309   6.693   1.649
 3444TIP3    H210278   3.451   6.669   1.696
 3445TIP3   OH210279   7.096   5.868   4.089
 3445TIP3    H110280   7.127   5.853   4.179
 3445TIP3    H210281   7.078   5.962   4.086
 3446TIP3   OH210282   0.199   6.683   6.470
 3446TIP3    H110283   0.115   6.686   6.424
 3446TIP3    H210284   0.177   6.683   6.563
 3447TIP3   OH210285   3.121   3.995   1.020
 3447TIP3    H110286   3.043   3.943   1.040
 3447TIP3    H210287   3.142   4.039   1.102
 3448TIP3   OH210288   5.849   4.908   0.446
 3448TIP3    H110289   5.799   4.936   0.523
 3448TIP3    H210290   5.838   4.979   0.383
 3449TIP3   OH210291   7.943   0.422   0.782
 3449TIP3    H110292   8.031   0.446   0.813
 3449TIP3    H210293   7.938   0.457   0.693
 3450TIP3   OH210294   3.480   3.796   2.076
 3450TIP3    H110295   3.411   3.810   2.012
 3450TIP3    H210296   3.514   3.708   2.057
 3451TIP3   OH210297   4.623   1.205   4.909
 3451TIP3    H110298   4.599   1.125   4.861
 3451TIP3    H210299   4.659   1.263   4.842
 3452TIP3   OH210300   6.278   1.138   0.831
 3452TIP3    H110301   6.305   1.197   0.761
 3452TIP3    H210302   6.218   1.076   0.789
 3453TIP3   OH210303   0.288   0.446   6.586
 3453TIP3    H110304   0.264   0.397   6.508
 3453TIP3    H210305   0.275   0.538   6.562
 3454TIP3   OH210306   5.217   6.218   4.934
 3454TIP3    H110307   5.218   6.187   4.844
 3454TIP3    H210308   5.124   6.218   4.959
 3455TIP3   OH210309   5.564   6.839   1.701
 3455TIP3    H110310   5.493   6.811   1.759
 3455TIP3    H210311   5.554   6.934   1.693
 3456TIP3   OH210312   1.606   4.020   3.296
 3456TIP3    H110313   1.674   4.016   3.229
 3456TIP3    H210314   1.551   3.943   3.280
 3457TIP3   OH210315   7.985   7.458   3.442
 3457TIP3    H110316   7.891   7.470   3.443
 3457TIP3    H210317   8.006   7.435   3.351
 3458TIP3   OH210318   4.495   4.929   2.961
 3458TIP3    H110319   4.578   4.965   2.993
 3458TIP3    H210320   4.519   4.881   2.882
 3459TIP3   OH210321   5.051   4.469   5.945
 3459TIP3    H110322   5.132   4.514   5.920
 3459TIP3    H210323   5.081   4.390   5.991
 3460TIP3   OH210324   2.595   4.959   4.505
 3460TIP3    H110325   2.561   4.948   4.416
 3460TIP3    H210326   2.623   5.050   4.510
 3461TIP3   OH210327   1.047   6.320   0.641
 3461TIP3    H110328   1.118   6.273   0.685
 3461TIP3    H210329   1.091   6.389   0.591
 3462TIP3   OH210330   7.039   5.900   5.421
 3462TIP3    H110331   7.024   5.856   5.337
 3462TIP3    H210332   7.084   5.981   5.398
 3463TIP3   OH210333   1.333   4.877   0.337
 3463TIP3    H110334   1.373   4.958   0.306
 3463TIP3    H210335   1.281   4.845   0.263
 3464TIP3   OH210336   5.718   6.836   0.252
 3464TIP3    H110337   5.724   6.790   0.335
 3464TIP3    H210338   5.636   6.885   0.256
 3465TIP3   OH210339   0.182   6.361   5.956
 3465TIP3    H110340   0.226   6.420   5.896
 3465TIP3    H210341   0.145   6.293   5.900
 3466TIP3   OH210342   2.399   4.818   2.709
 3466TIP3    H110343   2.390   4.772   2.793
 3466TIP3    H210344   2.374   4.908   2.729
 3467TIP3   OH210345   7.429   1.685   0.532
 3467TIP3    H110346   7.415   1.592   0.549
 3467TIP3    H210347   7.364   1.729   0.586
 3468TIP3   OH210348   3.448   5.594   3.713
 3468TIP3    H110349   3.437   5.511   3.667
 3468TIP3    H210350   3.529   5.630   3.676
 3469TIP3   OH210351   0.163   0.872   1.320
 3469TIP3    H110352   0.241   0.919   1.351
 3469TIP3    H210353   0.173   0.784   1.356
 3470TIP3   OH210354   7.960   0.208   5.185
 3470TIP3    H110355   7.966   0.114   5.170
 3470TIP3    H210356   8.048   0.241   5.165
 3471TIP3   OH210357   3.367   5.293   5.736
 3471TIP3    H110358   3.441   5.233   5.734
 3471TIP3    H210359   3.326   5.283   5.650
 3472TIP3   OH210360   4.679   0.174   1.549
 3472TIP3    H110361   4.604   0.219   1.589
 3472TIP3    H210362   4.746   0.242   1.543
 3473TIP3   OH210363   4.908   0.898   0.014
 3473TIP3    H110364   4.967   0.823   0.015
 3473TIP3    H210365   4.946   0.959   0.078
 3474TIP3   OH210366   5.698   1.418   6.507
 3474TIP3    H110367   5.715   1.472   6.430
 3474TIP3    H210368   5.746   1.337   6.492
 3475TIP3   OH210369   4.451   0.122   3.286
 3475TIP3    H110370   4.453   0.193   3.351
 3475TIP3    H210371   4.369   0.135   3.239
 3476TIP3   OH210372   4.554   7.770   6.208
 3476TIP3    H110373   4.618   7.831   6.172
 3476TIP3    H210374   4.511   7.818   6.278
 3477TIP3   OH210375   3.769   1.949   2.766
 3477TIP3    H110376   3.824   1.876   2.792
 3477TIP3    H210377   3.772   1.949   2.670
 3478TIP3   OH210378   0.543   4.083   5.108
 3478TIP3    H110379   0.630   4.114   5.134
 3478TIP3    H210380   0.549   3.987   5.113
 3479TIP3   OH210381   1.132   4.553   1.218
 3479TIP3    H110382   1.109   4.561   1.126
 3479TIP3    H210383   1.172   4.466   1.226
 3480TIP3   OH210384   4.700   6.302   6.582
 3480TIP3    H110385   4.729   6.389   6.557
 3480TIP3    H210386   4.781   6.256   6.605
 3481TIP3   OH210387   8.108   2.120   2.140
 3481TIP3    H110388   8.132   2.212   2.133
 3481TIP3    H210389   8.017   2.121   2.167
 3482TIP3   OH210390   0.345   4.697   1.186
 3482TIP3    H110391   0.315   4.784   1.160
 3482TIP3    H210392   0.380   4.709   1.274
 3483TIP3   OH210393   0.539   5.601   1.301
 3483TIP3    H110394   0.604   5.644   1.357
 3483TIP3    H210395   0.566   5.626   1.212
 3484TIP3   OH210396   4.622   5.873   0.047
 3484TIP3    H110397   4.604   5.788   0.087
 3484TIP3    H210398   4.649   5.929   0.119
 3485TIP3   OH210399   7.423   1.856   4.605
 3485TIP3    H110400   7.479   1.853   4.682
 3485TIP3    H210401   7.411   1.765   4.580
 3486TIP3   OH210402   6.775   1.728   2.891
 3486TIP3    H110403   6.680   1.743   2.892
 3486TIP3    H210404   6.791   1.681   2.810
 3487TIP3   OH210405   3.460   1.946   6.035
 3487TIP3    H110406   3.513   1.912   6.107
 3487TIP3    H210407   3.379   1.975   6.076
 3488TIP3   OH210408   2.434   5.402   5.905
 3488TIP3    H110409   2.487   5.338   5.952
 3488TIP3    H210410   2.434   5.371   5.814
 3489TIP3   OH210411   2.944   5.178   5.055
 3489TIP3    H110412   2.905   5.203   5.138
 3489TIP3    H210413   2.928   5.253   4.997
 3490TIP3   OH210414   0.233   5.263   1.924
 3490TIP3    H110415   0.305   5.282   1.985
 3490TIP3    H210416   0.275   5.260   1.838
 3491TIP3   OH210417   6.954   3.766   5.292
 3491TIP3    H110418   7.040   3.729   5.309
 3491TIP3    H210419   6.969   3.861   5.285
 3492TIP3   OH210420   3.537   6.101   6.389
 3492TIP3    H110421   3.545   6.196   6.399
 3492TIP3    H210422   3.562   6.085   6.298
 3493TIP3   OH210423   3.148   5.198   6.283
 3493TIP3    H110424   3.056   5.218   6.263
 3493TIP3    H210425   3.194   5.214   6.201
 3494TIP3   OH210426   5.115   7.568   6.015
 3494TIP3    H110427   5.106   7.493   6.074
 3494TIP3    H210428   5.160   7.634   6.067
 3495TIP3   OH210429   7.176   5.320   4.050
 3495TIP3    H110430   7.206   5.404   4.084
 3495TIP3    H210431   7.115   5.342   3.980
 3496TIP3   OH210432   1.159   0.698   0.259
 3496TIP3    H110433   1.185   0.608   0.236
 3496TIP3    H210434   1.214   0.753   0.203
 3497TIP3   OH210435   7.498   2.936   2.735
 3497TIP3    H110436   7.540   2.959   2.653
 3497TIP3    H210437   7.539   2.993   2.800
 3498TIP3   OH210438   5.793   7.797   5.911
 3498TIP3    H110439   5.855   7.785   5.838
 3498TIP3    H210440   5.709   7.770   5.875
 3499TIP3   OH210441   4.456   2.438   1.247
 3499TIP3    H110442   4.453   2.471   1.157
 3499TIP3    H210443   4.508   2.357   1.241
 3500TIP3   OH210444   1.703   6.616   0.582
 3500TIP3    H110445   1.767   6.555   0.618
 3500TIP3    H210446   1.618   6.575   0.600
 3501TIP3   OH210447   4.582   2.627   3.093
 3501TIP3    H110448   4.673   2.657   3.096
 3501TIP3    H210449   4.576   2.578   3.011
 3502TIP3   OH210450   8.286   1.613   0.192
 3502TIP3    H110451   8.201   1.630   0.235
 3502TIP3    H210452   8.268   1.539   0.134
 3503TIP3   OH210453   5.245   1.566   3.171
 3503TIP3    H110454   5.172   1.522   3.216
 3503TIP3    H210455   5.320   1.552   3.229
 3504TIP3   OH210456   4.138   5.344   0.272
 3504TIP3    H110457   4.210   5.398   0.304
 3504TIP3    H210458   4.157   5.256   0.304
 3505TIP3   OH210459   5.159   5.529   2.898
 3505TIP3    H110460   5.073   5.498   2.927
 3505TIP3    H210461   5.139   5.596   2.832
 3506TIP3   OH210462   3.802   1.096   6.744
 3506TIP3    H110463   3.819   1.013   6.788
 3506TIP3    H210464   3.889   1.129   6.720
 3507TIP3   OH210465   5.107   0.139   5.923
 3507TIP3    H110466   5.132   0.165   5.834
 3507TIP3    H210467   5.038   0.073   5.910
 3508TIP3   OH210468   4.470   1.244   3.972
 3508TIP3    H110469   4.512   1.196   4.043
 3508TIP3    H210470   4.526   1.321   3.959
 3509TIP3   OH210471   2.890   7.709   5.377
 3509TIP3    H110472   2.880   7.623   5.336
 3509TIP3    H210473   2.967   7.747   5.333
 3510TIP3   OH210474   4.061   2.007   0.472
 3510TIP3    H110475   3.989   2.070   0.474
 3510TIP3    H210476   4.139   2.059   0.459
 3511TIP3   OH210477   7.469   7.274   0.608
 3511TIP3    H110478   7.519   7.197   0.577
 3511TIP3    H210479   7.394   7.236   0.653
 3512TIP3   OH210480   0.582   5.759   4.736
 3512TIP3    H110481   0.588   5.678   4.787
 3512TIP3    H210482   0.545   5.732   4.652
 3513TIP3   OH210483   1.168   0.567   4.820
 3513TIP3    H110484   1.259   0.592   4.805
 3513TIP3    H210485   1.118   0.629   4.767
 3514TIP3   OH210486   2.740   0.038   3.483
 3514TIP3    H110487   2.659   0.088   3.472
 3514TIP3    H210488   2.781   0.038   3.397
 3515TIP3   OH210489   2.318   1.996   0.566
 3515TIP3    H110490   2.261   2.042   0.504
 3515TIP3    H210491   2.400   1.982   0.519
 3516TIP3   OH210492   3.520   4.389   1.237
 3516TIP3    H110493   3.595   4.330   1.247
 3516TIP3    H210494   3.539   4.439   1.158
 3517TIP3   OH210495   2.552   4.332   1.060
 3517TIP3    H110496   2.614   4.367   1.125
 3517TIP3    H210497   2.554   4.396   0.989
 3518TIP3   OH210498   5.971   1.366   3.259
 3518TIP3    H110499   5.961   1.314   3.179
 3518TIP3    H210500   5.939   1.309   3.329
 3519TIP3   OH210501   0.762   2.071   6.462
 3519TIP3    H110502   0.741   2.155   6.422
 3519TIP3    H210503   0.857   2.070   6.469
 3520TIP3   OH210504   6.900   0.129   3.538
 3520TIP3    H110505   6.904   0.097   3.448
 3520TIP3    H210506   6.861   0.057   3.588
 3521TIP3   OH210507   6.281   0.694   2.431
 3521TIP3    H110508   6.301   0.764   2.369
 3521TIP3    H210509   6.344   0.706   2.502
 3522TIP3   OH210510   1.675   1.773   5.563
 3522TIP3    H110511   1.647   1.847   5.617
 3522TIP3    H210512   1.630   1.698   5.601
 3523TIP3   OH210513   4.286   0.163   5.938
 3523TIP3    H110514   4.308   0.163   6.032
 3523TIP3    H210515   4.218   0.229   5.929
 3524TIP3   OH210516   4.615   4.055   4.018
 3524TIP3    H110517   4.594   3.961   4.010
 3524TIP3    H210518   4.581   4.080   4.103
 3525TIP3   OH210519   7.711   1.796   0.218
 3525TIP3    H110520   7.724   1.736   0.144
 3525TIP3    H210521   7.618   1.790   0.237
 3526TIP3   OH210522   4.055   0.215   2.556
 3526TIP3    H110523   4.007   0.133   2.554
 3526TIP3    H210524   4.070   0.231   2.650
 3527TIP3   OH210525   4.697   1.405   3.973
 3527TIP3    H110526   4.686   1.472   3.905
 3527TIP3    H210527   4.718   1.454   4.052
 3528TIP3   OH210528   2.532   1.784   2.363
 3528TIP3    H110529   2.608   1.732   2.391
 3528TIP3    H210530   2.569   1.853   2.309
 3529TIP3   OH210531   5.313   7.519   5.065
 3529TIP3    H110532   5.331   7.482   4.979
 3529TIP3    H210533   5.303   7.442   5.122
 3530TIP3   OH210534   3.615   5.532   5.492
 3530TIP3    H110535   3.647   5.474   5.562
 3530TIP3    H210536   3.638   5.620   5.522
 3531TIP3   OH210537   4.382   4.222   4.967
 3531TIP3    H110538   4.457   4.256   5.016
 3531TIP3    H210539   4.391   4.127   4.972
 3532TIP3   OH210540   3.726   1.533   0.347
 3532TIP3    H110541   3.796   1.533   0.413
 3532TIP3    H210542   3.756   1.472   0.279
 3533TIP3   OH210543   5.477   6.069   0.221
 3533TIP3    H110544   5.537   6.140   0.199
 3533TIP3    H210545   5.525   6.015   0.283
 3534TIP3   OH210546   4.296   1.478   0.422
 3534TIP3    H110547   4.221   1.463   0.480
 3534TIP3    H210548   4.334   1.391   0.409
 3535TIP3   OH210549   6.125   4.184   4.832
 3535TIP3    H110550   6.106   4.215   4.920
 3535TIP3    H210551   6.178   4.253   4.793
 3536TIP3   OH210552   3.512   3.708   2.535
 3536TIP3    H110553   3.487   3.634   2.479
 3536TIP3    H210554   3.444   3.774   2.518
 3537TIP3   OH210555   1.860   2.846   2.403
 3537TIP3    H110556   1.949   2.864   2.374
 3537TIP3    H210557   1.804   2.879   2.333
 3538TIP3   OH210558   3.382   6.905   4.966
 3538TIP3    H110559   3.437   6.983   4.963
 3538TIP3    H210560   3.438   6.838   5.005
 3539TIP3   OH210561   4.699   5.234   2.610
 3539TIP3    H110562   4.788   5.237   2.574
 3539TIP3    H210563   4.650   5.298   2.558
 3540TIP3   OH210564   5.270   5.268   3.168
 3540TIP3    H110565   5.216   5.196   3.135
 3540TIP3    H210566   5.359   5.230   3.171
 3541TIP3   OH210567   2.268   6.347   5.281
 3541TIP3    H110568   2.213   6.343   5.360
 3541TIP3    H210569   2.341   6.288   5.300
 3542TIP3   OH210570   0.312   5.006   1.215
 3542TIP3    H110571   0.360   5.022   1.134
 3542TIP3    H210572   0.378   5.009   1.284
 3543TIP3   OH210573   4.469   1.017   6.397
 3543TIP3    H110574   4.535   1.034   6.331
 3543TIP3    H210575   4.475   1.091   6.458
 3544TIP3   OH210576   0.189   4.799   3.111
 3544TIP3    H110577   0.228   4.881   3.141
 3544TIP3    H210578   0.097   4.806   3.136
 3545TIP3   OH210579   0.502   2.888   4.217
 3545TIP3    H110580   0.573   2.932   4.171
 3545TIP3    H210581   0.504   2.924   4.306
 3546TIP3   OH210582   4.262   7.576   0.970
 3546TIP3    H110583   4.199   7.583   0.899
 3546TIP3    H210584   4.296   7.487   0.964
 3547TIP3   OH210585   3.929   4.622   1.786
 3547TIP3    H110586   3.942   4.623   1.691
 3547TIP3    H210587   3.838   4.652   1.798
 3548TIP3   OH210588   2.090   0.380   3.342
 3548TIP3    H110589   2.131   0.324   3.408
 3548TIP3    H210590   2.016   0.329   3.310
 3549TIP3   OH210591   5.036   5.777   4.503
 3549TIP3    H110592   5.111   5.803   4.450
 3549TIP3    H210593   5.049   5.684   4.521
 3550TIP3   OH210594   0.209   0.905   0.566
 3550TIP3    H110595   0.247   0.843   0.628
 3550TIP3    H210596   0.116   0.906   0.588
 3551TIP3   OH210597   4.892   5.137   4.189
 3551TIP3    H110598   4.954   5.207   4.168
 3551TIP3    H210599   4.838   5.129   4.110
 3552TIP3   OH210600   4.060   0.694   0.877
 3552TIP3    H110601   4.039   0.634   0.948
 3552TIP3    H210602   4.123   0.755   0.915
 3553TIP3   OH210603   4.630   5.248   1.889
 3553TIP3    H110604   4.572   5.321   1.911
 3553TIP3    H210605   4.650   5.208   1.973
 3554TIP3   OH210606   6.158   7.289   6.406
 3554TIP3    H110607   6.201   7.308   6.322
 3554TIP3    H210608   6.106   7.367   6.425
 3555TIP3   OH210609   7.776   4.801   5.956
 3555TIP3    H110610   7.825   4.858   5.897
 3555TIP3    H210611   7.689   4.841   5.961
 3556TIP3   OH210612   7.833   0.728   3.895
 3556TIP3    H110613   7.772   0.801   3.893
 3556TIP3    H210614   7.916   0.766   3.924
 3557TIP3   OH210615   1.785   6.154   4.026
 3557TIP3    H110616   1.723   6.131   4.096
 3557TIP3    H210617   1.751   6.235   3.990
 3558TIP3   OH210618   0.907   7.186   3.661
 3558TIP3    H110619   0.913   7.212   3.569
 3558TIP3    H210620   0.869   7.261   3.705
 3559TIP3   OH210621   6.038   6.526   5.311
 3559TIP3    H110622   6.072   6.551   5.397
 3559TIP3    H210623   6.041   6.430   5.311
 3560TIP3   OH210624   6.672   7.404   4.193
 3560TIP3    H110625   6.602   7.435   4.250
 3560TIP3    H210626   6.742   7.379   4.253
 3561TIP3   OH210627   7.249   0.869   0.693
 3561TIP3    H110628   7.248   0.813   0.770
 3561TIP3    H210629   7.342   0.886   0.677
 3562TIP3   OH210630   7.496   5.167   6.777
 3562TIP3    H110631   7.511   5.237   6.713
 3562TIP3    H210632   7.584   5.146   6.811
 3563TIP3   OH210633   3.562   5.004   3.833
 3563TIP3    H110634   3.486   4.967   3.879
 3563TIP3    H210635   3.637   4.977   3.886
 3564TIP3   OH210636   4.996   5.534   0.876
 3564TIP3    H110637   5.071   5.513   0.931
 3564TIP3    H210638   5.012   5.623   0.846
 3565TIP3   OH210639   3.041   6.259   3.088
 3565TIP3    H110640   3.085   6.263   3.003
 3565TIP3    H210641   2.948   6.267   3.066
 3566TIP3   OH210642   0.725   3.933   1.920
 3566TIP3    H110643   0.768   3.919   1.835
 3566TIP3    H210644   0.775   4.003   1.961
 3567TIP3   OH210645   1.434   0.185   5.460
 3567TIP3    H110646   1.389   0.101   5.451
 3567TIP3    H210647   1.443   0.197   5.555
 3568TIP3   OH210648   7.948   7.210   1.417
 3568TIP3    H110649   7.875   7.268   1.394
 3568TIP3    H210650   7.913   7.154   1.486
 3569TIP3   OH210651   2.505   5.866   5.068
 3569TIP3    H110652   2.588   5.912   5.060
 3569TIP3    H210653   2.523   5.778   5.036
 3570TIP3   OH210654   1.054   1.404   3.859
 3570TIP3    H110655   1.114   1.330   3.858
 3570TIP3    H210656   0.974   1.371   3.817
 3571TIP3   OH210657   0.396   6.425   3.274
 3571TIP3    H110658   0.341   6.405   3.198
 3571TIP3    H210659   0.355   6.502   3.314
 3572TIP3   OH210660   0.344   6.937   0.854
 3572TIP3    H110661   0.401   6.860   0.847
 3572TIP3    H210662   0.292   6.936   0.774
 3573TIP3   OH210663   4.895   0.456   5.562
 3573TIP3    H110664   4.899   0.400   5.639
 3573TIP3    H210665   4.983   0.494   5.555
 3574TIP3   OH210666   2.263   2.661   3.589
 3574TIP3    H110667   2.181   2.623   3.620
 3574TIP3    H210668   2.329   2.630   3.651
 3575TIP3   OH210669   4.032   5.945   5.357
 3575TIP3    H110670   3.984   5.865   5.377
 3575TIP3    H210671   4.101   5.916   5.296
 3576TIP3   OH210672   2.176   3.103   6.123
 3576TIP3    H110673   2.233   3.119   6.199
 3576TIP3    H210674   2.225   3.140   6.049
 3577TIP3   OH210675   0.263   3.712   5.287
 3577TIP3    H110676   0.299   3.700   5.375
 3577TIP3    H210677   0.214   3.632   5.270
 3578TIP3   OH210678   5.835   0.287   2.954
 3578TIP3    H110679   5.895   0.214   2.942
 3578TIP3    H210680   5.875   0.341   3.022
 3579TIP3   OH210681   7.146   4.596   5.594
 3579TIP3    H110682   7.124   4.597   5.501
 3579TIP3    H210683   7.128   4.507   5.623
 3580TIP3   OH210684   3.255   7.115   1.310
 3580TIP3    H110685   3.279   7.050   1.244
 3580TIP3    H210686   3.325   7.110   1.375
 3581TIP3   OH210687   5.348   4.676   2.856
 3581TIP3    H110688   5.411   4.745   2.875
 3581TIP3    H210689   5.357   4.614   2.928
 3582TIP3   OH210690   7.614   2.369   3.266
 3582TIP3    H110691   7.677   2.351   3.336
 3582TIP3    H210692   7.534   2.397   3.312
 3583TIP3   OH210693   0.053   1.455   1.368
 3583TIP3    H110694  -0.035   1.479   1.398
 3583TIP3    H210695   0.054   1.359   1.373
 3584TIP3   OH210696   2.862   6.252   5.507
 3584TIP3    H110697   2.942   6.302   5.525
 3584TIP3    H210698   2.894   6.166   5.479
 3585TIP3   OH210699   2.613   4.304   5.327
 3585TIP3    H110700   2.550   4.265   5.267
 3585TIP3    H210701   2.696   4.302   5.279
 3586TIP3   OH210702   1.265   0.585   2.800
 3586TIP3    H110703   1.262   0.679   2.820
 3586TIP3    H210704   1.209   0.545   2.866
 3587TIP3   OH210705   1.887   5.820   4.536
 3587TIP3    H110706   1.962   5.801   4.592
 3587TIP3    H210707   1.815   5.839   4.597
 3588TIP3   OH210708   3.757   3.560   4.561
 3588TIP3    H110709   3.774   3.647   4.598
 3588TIP3    H210710   3.736   3.506   4.637
 3589TIP3   OH210711   6.960   7.588   1.476
 3589TIP3    H110712   6.930   7.517   1.533
 3589TIP3    H210713   7.055   7.579   1.476
 3590TIP3   OH210714   4.213   1.091   4.643
 3590TIP3    H110715   4.201   1.179   4.678
 3590TIP3    H210716   4.250   1.104   4.556
 3591TIP3   OH210717   5.278   6.534   1.879
 3591TIP3    H110718   5.344   6.465   1.882
 3591TIP3    H210719   5.203   6.494   1.837
 3592TIP3   OH210720   4.553   2.684   3.513
 3592TIP3    H110721   4.519   2.755   3.458
 3592TIP3    H210722   4.632   2.654   3.468
 3593TIP3   OH210723   0.372   3.193   4.718
 3593TIP3    H110724   0.368   3.275   4.669
 3593TIP3    H210725   0.281   3.162   4.720
 3594TIP3   OH210726   6.281   6.605   3.842
 3594TIP3    H110727   6.369   6.627   3.812
 3594TIP3    H210728   6.224   6.638   3.773
 3595TIP3   OH210729   1.133   6.695   2.400
 3595TIP3    H110730   1.098   6.626   2.344
 3595TIP3    H210731   1.220   6.664   2.425
 3596TIP3   OH210732   0.240   4.201   0.395
 3596TIP3    H110733   0.242   4.142   0.470
 3596TIP3    H210734   0.314   4.261   0.410
 3597TIP3   OH210735   7.063   3.842   1.953
 3597TIP3    H110736   7.102   3.902   1.889
 3597TIP3    H210737   7.011   3.781   1.901
 3598TIP3   OH210738   3.552   4.214   4.714
 3598TIP3    H110739   3.564   4.269   4.637
 3598TIP3    H210740   3.467   4.241   4.750
 3599TIP3   OH210741   7.571   6.231   2.536
 3599TIP3    H110742   7.588   6.204   2.446
 3599TIP3    H210743   7.612   6.317   2.543
 3600TIP3   OH210744   7.059   2.924   5.630
 3600TIP3    H110745   7.131   2.885   5.679
 3600TIP3    H210746   7.102   2.976   5.562
 3601TIP3   OH210747   5.946   7.020   0.673
 3601TIP3    H110748   5.995   6.945   0.707
 3601TIP3    H210749   5.932   6.999   0.581
 3602TIP3   OH210750   5.326   6.234   6.439
 3602TIP3    H110751   5.330   6.307   6.377
 3602TIP3    H210752   5.233   6.226   6.460
 3603TIP3   OH210753   4.903   0.703   4.805
 3603TIP3    H110754   4.879   0.784   4.849
 3603TIP3    H210755   4.919   0.641   4.876
 3604TIP3   OH210756   3.404   7.839   3.104
 3604TIP3    H110757   3.389   7.792   3.186
 3604TIP3    H210758   3.498   7.835   3.090
 3605TIP3   OH210759   5.080   6.734   4.577
 3605TIP3    H110760   5.089   6.655   4.523
 3605TIP3    H210761   4.996   6.724   4.620
 3606TIP3   OH210762   6.428   5.784   6.098
 3606TIP3    H110763   6.368   5.775   6.172
 3606TIP3    H210764   6.425   5.699   6.055
 3607TIP3   OH210765   0.614   2.466   3.777
 3607TIP3    H110766   0.578   2.469   3.866
 3607TIP3    H210767   0.634   2.557   3.756
 3608TIP3   OH210768   0.579   1.381   0.064
 3608TIP3    H110769   0.674   1.374   0.074
 3608TIP3    H210770   0.545   1.378   0.154
 3609TIP3   OH210771   0.617   5.405   1.471
 3609TIP3    H110772   0.591   5.474   1.410
 3609TIP3    H210773   0.713   5.408   1.472
 3610TIP3   OH210774   7.147   7.240   1.093
 3610TIP3    H110775   7.096   7.159   1.095
 3610TIP3    H210776   7.194   7.237   1.010
 3611TIP3   OH210777   7.909   3.171  -0.022
 3611TIP3    H110778   7.913   3.097   0.038
 3611TIP3    H210779   7.903   3.248   0.035
 3612TIP3   OH210780   4.817   4.928   5.336
 3612TIP3    H110781   4.854   5.015   5.319
 3612TIP3    H210782   4.724   4.945   5.353
 3613TIP3   OH210783   1.216   6.107   3.602
 3613TIP3    H110784   1.245   6.094   3.693
 3613TIP3    H210785   1.270   6.045   3.552
 3614TIP3   OH210786   2.216   0.562   1.513
 3614TIP3    H110787   2.255   0.546   1.427
 3614TIP3    H210788   2.282   0.532   1.575
 3615TIP3   OH210789   6.168   1.842   1.921
 3615TIP3    H110790   6.249   1.841   1.870
 3615TIP3    H210791   6.172   1.924   1.970
 3616TIP3   OH210792   1.918   5.943   5.508
 3616TIP3    H110793   1.919   6.011   5.576
 3616TIP3    H210794   1.837   5.960   5.459
 3617TIP3   OH210795   0.807   4.630   0.335
 3617TIP3    H110796   0.827   4.625   0.429
 3617TIP3    H210797   0.824   4.542   0.303
 3618TIP3   OH210798   4.253   3.601   4.104
 3618TIP3    H110799   4.199   3.605   4.025
 3618TIP3    H210800   4.229   3.679   4.154
 3619TIP3   OH210801   6.892   3.316   5.500
 3619TIP3    H110802   6.969   3.262   5.482
 3619TIP3    H210803   6.822   3.253   5.514
 3620TIP3   OH210804   4.158   4.161   1.058
 3620TIP3    H110805   4.184   4.241   1.012
 3620TIP3    H210806   4.128   4.192   1.144
 3621TIP3   OH210807   3.605   4.919   3.270
 3621TIP3    H110808   3.511   4.918   3.253
 3621TIP3    H210809   3.618   4.994   3.328
 3622TIP3   OH210810   6.520   4.757   6.527
 3622TIP3    H110811   6.432   4.743   6.491
 3622TIP3    H210812   6.573   4.688   6.487
 3623TIP3   OH210813   3.646   4.297   0.032
 3623TIP3    H110814   3.562   4.318   0.072
 3623TIP3    H210815   3.635   4.318  -0.061
 3624TIP3   OH210816   2.338   2.513   4.465
 3624TIP3    H110817   2.394   2.488   4.538
 3624TIP3    H210818   2.299   2.430   4.435
 3625TIP3   OH210819   1.617   5.041   2.580
 3625TIP3    H110820   1.671   5.032   2.659
 3625TIP3    H210821   1.663   4.991   2.514
 3626TIP3   OH210822   0.850   5.525   6.283
 3626TIP3    H110823   0.822   5.481   6.364
 3626TIP3    H210824   0.788   5.495   6.217
 3627TIP3   OH210825   4.159   6.776   2.951
 3627TIP3    H110826   4.066   6.756   2.945
 3627TIP3    H210827   4.191   6.764   2.862
 3628TIP3   OH210828   5.597   3.179   1.330
 3628TIP3    H110829   5.502   3.173   1.343
 3628TIP3    H210830   5.623   3.094   1.297
 3629TIP3   OH210831   1.897   5.746   5.848
 3629TIP3    H110832   1.887   5.703   5.933
 3629TIP3    H210833   1.951   5.686   5.797
 3630TIP3   OH210834   7.541   5.691   5.991
 3630TIP3    H110835   7.619   5.696   6.045
 3630TIP3    H210836   7.468   5.703   6.052
 3631TIP3   OH210837   5.512   4.065   4.573
 3631TIP3    H110838   5.580   4.051   4.639
 3631TIP3    H210839   5.466   4.143   4.602
 3632TIP3   OH210840   5.040   5.502   0.577
 3632TIP3    H110841   4.960   5.449   0.572
 3632TIP3    H210842   5.065   5.498   0.669
 3633TIP3   OH210843   2.872   3.422   2.719
 3633TIP3    H110844   2.857   3.433   2.626
 3633TIP3    H210845   2.827   3.340   2.741
 3634TIP3   OH210846   4.880   7.641   1.529
 3634TIP3    H110847   4.819   7.715   1.525
 3634TIP3    H210848   4.930   7.648   1.448
 3635TIP3   OH210849   1.623   6.862   5.154
 3635TIP3    H110850   1.560   6.895   5.090
 3635TIP3    H210851   1.673   6.796   5.106
 3636TIP3   OH210852   1.600   0.783   4.072
 3636TIP3    H110853   1.547   0.861   4.055
 3636TIP3    H210854   1.671   0.814   4.128
 3637TIP3   OH210855   1.936   5.700   0.680
 3637TIP3    H110856   1.906   5.655   0.602
 3637TIP3    H210857   1.916   5.640   0.752
 3638TIP3   OH210858   5.995   1.754   4.547
 3638TIP3    H110859   6.033   1.697   4.480
 3638TIP3    H210860   5.952   1.824   4.497
 3639TIP3   OH210861   7.373   2.886   4.341
 3639TIP3    H110862   7.456   2.845   4.366
 3639TIP3    H210863   7.319   2.882   4.420
 3640TIP3   OH210864   7.123   4.133   4.820
 3640TIP3    H110865   7.046   4.106   4.870
 3640TIP3    H210866   7.105   4.103   4.731
 3641TIP3   OH210867   5.587   6.799   6.524
 3641TIP3    H110868   5.657   6.750   6.479
 3641TIP3    H210869   5.536   6.839   6.453
 3642TIP3   OH210870   4.434   0.291   0.951
 3642TIP3    H110871   4.439   0.231   0.876
 3642TIP3    H210872   4.420   0.377   0.912
 3643TIP3   OH210873   1.271   6.532   4.053
 3643TIP3    H110874   1.258   6.580   3.972
 3643TIP3    H210875   1.190   6.543   4.102
 3644TIP3   OH210876   1.941   3.449   2.876
 3644TIP3    H110877   2.025   3.404   2.871
 3644TIP3    H210878   1.877   3.387   2.840
 3645TIP3   OH210879   6.938   6.608   3.241
 3645TIP3    H110880   6.865   6.546   3.250
 3645TIP3    H210881   7.005   6.558   3.194
 3646TIP3   OH210882   6.860   7.438   5.339
 3646TIP3    H110883   6.832   7.517   5.294
 3646TIP3    H210884   6.786   7.378   5.332
 3647TIP3   OH210885   6.788   5.045   2.496
 3647TIP3    H110886   6.707   5.045   2.548
 3647TIP3    H210887   6.761   5.075   2.409
 3648TIP3   OH210888   1.380   0.135   4.355
 3648TIP3    H110889   1.404   0.203   4.291
 3648TIP3    H210890   1.419   0.055   4.320
 3649TIP3   OH210891   0.324   2.028   6.527
 3649TIP3    H110892   0.294   2.034   6.436
 3649TIP3    H210893   0.414   1.995   6.520
 3650TIP3   OH210894   2.742   1.549   1.047
 3650TIP3    H110895   2.739   1.544   0.952
 3650TIP3    H210896   2.722   1.460   1.077
 3651TIP3   OH210897   1.289   7.084   0.296
 3651TIP3    H110898   1.361   7.084   0.359
 3651TIP3    H210899   1.290   6.996   0.258
 3652TIP3   OH210900   6.249   6.546   6.108
 3652TIP3    H110901   6.218   6.634   6.130
 3652TIP3    H210902   6.169   6.495   6.095
 3653TIP3   OH210903   0.309   4.028   1.678
 3653TIP3    H110904   0.388   4.047   1.729
 3653TIP3    H210905   0.253   4.104   1.692
 3654TIP3   OH210906   2.494   2.208   0.225
 3654TIP3    H110907   2.462   2.121   0.202
 3654TIP3    H210908   2.419   2.251   0.267
 3655TIP3   OH210909   8.208   3.610   2.008
 3655TIP3    H110910   8.200   3.515   2.005
 3655TIP3    H210911   8.182   3.640   1.921
 3656TIP3   OH210912   6.881   0.437   0.928
 3656TIP3    H110913   6.807   0.496   0.916
 3656TIP3    H210914   6.849   0.351   0.901
 3657TIP3   OH210915   1.866   1.040   3.919
 3657TIP3    H110916   1.902   0.952   3.909
 3657TIP3    H210917   1.774   1.032   3.893
 3658TIP3   OH210918   0.525   2.853   1.142
 3658TIP3    H110919   0.587   2.924   1.126
 3658TIP3    H210920   0.439   2.892   1.124
 3659TIP3   OH210921   1.118   6.520   0.134
 3659TIP3    H110922   1.199   6.501   0.087
 3659TIP3    H210923   1.073   6.584   0.079
 3660TIP3   OH210924   0.801   5.327   2.999
 3660TIP3    H110925   0.809   5.255   3.062
 3660TIP3    H210926   0.860   5.303   2.928
 3661TIP3   OH210927   7.552   1.983   5.110
 3661TIP3    H110928   7.569   1.939   5.027
 3661TIP3    H210929   7.593   1.927   5.176
 3662TIP3   OH210930   4.640   0.360   2.174
 3662TIP3    H110931   4.606   0.403   2.252
 3662TIP3    H210932   4.601   0.408   2.101
 3663TIP3   OH210933   2.404   4.143   2.942
 3663TIP3    H110934   2.406   4.207   3.013
 3663TIP3    H210935   2.435   4.191   2.865
 3664TIP3   OH210936   3.427   4.747   3.661
 3664TIP3    H110937   3.490   4.710   3.598
 3664TIP3    H210938   3.402   4.831   3.623
 3665TIP3   OH210939   5.962   0.577   5.025
 3665TIP3    H110940   5.952   0.667   4.993
 3665TIP3    H210941   6.052   0.573   5.057
 3666TIP3   OH210942   5.834   6.615   5.541
 3666TIP3    H110943   5.801   6.688   5.488
 3666TIP3    H210944   5.795   6.537   5.501
 3667TIP3   OH210945   3.804   3.365   6.731
 3667TIP3    H110946   3.788   3.447   6.777
 3667TIP3    H210947   3.731   3.358   6.669
 3668TIP3   OH210948   7.914   4.948   2.138
 3668TIP3    H110949   7.831   4.964   2.183
 3668TIP3    H210950   7.898   4.869   2.087
 3669TIP3   OH210951   5.387   6.864   4.240
 3669TIP3    H110952   5.429   6.936   4.194
 3669TIP3    H210953   5.325   6.906   4.300
 3670TIP3   OH210954   6.791   0.990   2.561
 3670TIP3    H110955   6.773   0.924   2.629
 3670TIP3    H210956   6.727   0.970   2.492
 3671TIP3   OH210957   2.734   6.369   5.906
 3671TIP3    H110958   2.756   6.277   5.918
 3671TIP3    H210959   2.812   6.416   5.935
 3672TIP3   OH210960   2.579   0.144   2.776
 3672TIP3    H110961   2.548   0.228   2.742
 3672TIP3    H210962   2.580   0.087   2.699
 3673TIP3   OH210963   4.334   5.596   4.948
 3673TIP3    H110964   4.304   5.506   4.963
 3673TIP3    H210965   4.355   5.599   4.855
 3674TIP3   OH210966   4.027   7.687   4.715
 3674TIP3    H110967   3.985   7.613   4.757
 3674TIP3    H210968   3.955   7.743   4.685
 3675TIP3   OH210969   2.579   1.634   5.125
 3675TIP3    H110970   2.490   1.635   5.162
 3675TIP3    H210971   2.622   1.561   5.169
 3676TIP3   OH210972   2.222   3.949   6.738
 3676TIP3    H110973   2.167   4.006   6.685
 3676TIP3    H210974   2.238   3.872   6.684
 3677TIP3   OH210975   3.069   5.314   2.373
 3677TIP3    H110976   2.984   5.273   2.393
 3677TIP3    H210977   3.056   5.407   2.392
 3678TIP3   OH210978   4.841   4.919   1.330
 3678TIP3    H110979   4.806   4.988   1.273
 3678TIP3    H210980   4.924   4.895   1.290
 3679TIP3   OH210981   4.130   7.205   1.598
 3679TIP3    H110982   4.118   7.213   1.503
 3679TIP3    H210983   4.217   7.242   1.614
 3680TIP3   OH210984   0.021   2.443   4.526
 3680TIP3    H110985   0.071   2.364   4.508
 3680TIP3    H210986   0.088   2.512   4.534
 3681TIP3   OH210987   3.637   3.565   3.992
 3681TIP3    H110988   3.546   3.588   3.974
 3681TIP3    H210989   3.688   3.634   3.949
 3682TIP3   OH210990   6.428   3.982   5.927
 3682TIP3    H110991   6.462   4.069   5.950
 3682TIP3    H210992   6.499   3.922   5.946
 3683TIP3   OH210993   7.134   5.903   0.248
 3683TIP3    H110994   7.055   5.903   0.302
 3683TIP3    H210995   7.102   5.910   0.158
 3684TIP3   OH210996   7.415   2.186   5.224
 3684TIP3    H110997   7.464   2.187   5.306
 3684TIP3    H210998   7.439   2.103   5.183
 3685TIP3   OH210999   1.858   0.516   2.641
 3685TIP3    H111000   1.920   0.472   2.700
 3685TIP3    H211001   1.878   0.482   2.555
 3686TIP3   OH211002   7.095   1.768   3.407
 3686TIP3    H111003   7.007   1.732   3.395
 3686TIP3    H211004   7.092   1.853   3.364
 3687TIP3   OH211005   2.854   5.538   1.593
 3687TIP3    H111006   2.801   5.473   1.639
 3687TIP3    H211007   2.837   5.523   1.500
 3688TIP3   OH211008   4.014   6.373   2.654
 3688TIP3    H111009   3.976   6.390   2.568
 3688TIP3    H211010   4.042   6.281   2.650
 3689TIP3   OH211011   4.930   7.015   4.397
 3689TIP3    H111012   4.848   6.975   4.427
 3689TIP3    H211013   4.930   6.999   4.302
 3690TIP3   OH211014   5.817   5.818   2.148
 3690TIP3    H111015   5.875   5.822   2.072
 3690TIP3    H211016   5.845   5.739   2.195
 3691TIP3   OH211017   3.172   1.309   1.334
 3691TIP3    H111018   3.261   1.323   1.300
 3691TIP3    H211019   3.115   1.329   1.260
 3692TIP3   OH211020   2.790   2.873   0.245
 3692TIP3    H111021   2.800   2.957   0.200
 3692TIP3    H211022   2.850   2.814   0.200
 3693TIP3   OH211023   6.504   7.500   5.436
 3693TIP3    H111024   6.444   7.431   5.465
 3693TIP3    H211025   6.539   7.467   5.353
 3694TIP3   OH211026   0.473   1.269   3.814
 3694TIP3    H111027   0.480   1.241   3.723
 3694TIP3    H211028   0.388   1.313   3.819
 3695TIP3   OH211029   3.767   2.364   5.122
 3695TIP3    H111030   3.793   2.382   5.031
 3695TIP3    H211031   3.714   2.285   5.116
 3696TIP3   OH211032   4.689   1.372   5.430
 3696TIP3    H111033   4.769   1.387   5.381
 3696TIP3    H211034   4.691   1.437   5.500
 3697TIP3   OH211035   1.390   6.856   0.849
 3697TIP3    H111036   1.460   6.791   0.847
 3697TIP3    H211037   1.311   6.805   0.868
 3698TIP3   OH211038   1.254   7.232   2.250
 3698TIP3    H111039   1.284   7.141   2.260
 3698TIP3    H211040   1.229   7.239   2.158
 3699TIP3   OH211041   7.519   3.680   3.132
 3699TIP3    H111042   7.536   3.593   3.098
 3699TIP3    H211043   7.462   3.721   3.067
 3700TIP3   OH211044   0.102   0.662   3.918
 3700TIP3    H111045   0.153   0.585   3.893
 3700TIP3    H211046   0.015   0.628   3.940
 3701TIP3   OH211047   6.000   5.031   5.876
 3701TIP3    H111048   6.087   5.055   5.909
 3701TIP3    H211049   5.940   5.087   5.926
 3702TIP3   OH211050   5.993   7.236   1.355
 3702TIP3    H111051   5.945   7.167   1.309
 3702TIP3    H211052   5.972   7.222   1.447
 3703TIP3   OH211053   0.097   0.848   5.643
 3703TIP3    H111054   0.153   0.907   5.594
 3703TIP3    H211055   0.137   0.842   5.729
 3704TIP3   OH211056   2.538   0.001   4.265
 3704TIP3    H111057   2.557   0.062   4.195
 3704TIP3    H211058   2.526   0.056   4.342
 3705TIP3   OH211059   4.901   4.296   3.393
 3705TIP3    H111060   4.968   4.340   3.446
 3705TIP3    H211061   4.849   4.368   3.357
 3706TIP3   OH211062   1.591   5.562   2.066
 3706TIP3    H111063   1.639   5.496   2.116
 3706TIP3    H211064   1.508   5.572   2.114
 3707TIP3   OH211065   7.623   4.236   4.135
 3707TIP3    H111066   7.536   4.276   4.138
 3707TIP3    H211067   7.626   4.181   4.214
 3708TIP3   OH211068   3.282   4.589   0.224
 3708TIP3    H111069   3.198   4.602   0.181
 3708TIP3    H211070   3.328   4.673   0.211
 3709TIP3   OH211071   6.687   7.672   1.257
 3709TIP3    H111072   6.597   7.677   1.226
 3709TIP3    H211073   6.681   7.682   1.352
 3710TIP3   OH211074   7.790   6.075   2.144
 3710TIP3    H111075   7.869   6.034   2.179
 3710TIP3    H211076   7.729   6.078   2.217
 3711TIP3   OH211077   1.697   1.913   3.499
 3711TIP3    H111078   1.722   1.823   3.520
 3711TIP3    H211079   1.771   1.947   3.448
 3712TIP3   OH211080   3.545   2.726   1.644
 3712TIP3    H111081   3.577   2.801   1.593
 3712TIP3    H211082   3.468   2.696   1.597
 3713TIP3   OH211083   4.180   1.574   6.402
 3713TIP3    H111084   4.165   1.524   6.322
 3713TIP3    H211085   4.111   1.544   6.461
 3714TIP3   OH211086   4.421   7.843   4.445
 3714TIP3    H111087   4.417   7.811   4.535
 3714TIP3    H211088   4.489   7.789   4.404
 3715TIP3   OH211089   0.335   0.231   3.102
 3715TIP3    H111090   0.244   0.202   3.110
 3715TIP3    H211091   0.355   0.223   3.009
 3716TIP3   OH211092   3.071   3.540   6.188
 3716TIP3    H111093   3.105   3.485   6.258
 3716TIP3    H211094   3.012   3.601   6.232
 3717TIP3   OH211095   2.050   0.416   2.851
 3717TIP3    H111096   1.969   0.447   2.890
 3717TIP3    H211097   2.119   0.455   2.904
 3718TIP3   OH211098   5.426   1.269   6.015
 3718TIP3    H111099   5.434   1.197   5.953
 3718TIP3    H211100   5.356   1.324   5.980
 3719TIP3   OH211101   5.269   3.878   5.232
 3719TIP3    H111102   5.184   3.871   5.190
 3719TIP3    H211103   5.279   3.971   5.252
 3720TIP3   OH211104   7.988   3.932   2.215
 3720TIP3    H111105   7.998   3.888   2.299
 3720TIP3    H211106   7.894   3.937   2.201
 3721TIP3   OH211107   5.843   2.311   0.775
 3721TIP3    H111108   5.920   2.367   0.777
 3721TIP3    H211109   5.798   2.333   0.693
 3722TIP3   OH211110   5.876   2.925   0.407
 3722TIP3    H111111   5.915   2.893   0.326
 3722TIP3    H211112   5.950   2.936   0.467
 3723TIP3   OH211113   1.644   5.714   0.530
 3723TIP3    H111114   1.562   5.691   0.486
 3723TIP3    H211115   1.689   5.771   0.468
 3724TIP3   OH211116   6.659   6.936   5.636
 3724TIP3    H111117   6.611   6.929   5.718
 3724TIP3    H211118   6.710   6.855   5.630
 3725TIP3   OH211119   7.038   3.906   2.447
 3725TIP3    H111120   6.978   3.886   2.375
 3725TIP3    H211121   7.125   3.891   2.409
 3726TIP3   OH211122   7.731   6.222   3.901
 3726TIP3    H111123   7.771   6.181   3.824
 3726TIP3    H211124   7.739   6.316   3.884
 3727TIP3   OH211125   5.574   5.688   6.154
 3727TIP3    H111126   5.638   5.730   6.212
 3727TIP3    H211127   5.621   5.613   6.118
 3728TIP3   OH211128   5.314   7.369   1.523
 3728TIP3    H111129   5.381   7.305   1.498
 3728TIP3    H211130   5.361   7.452   1.526
 3729TIP3   OH211131   8.186   1.308   6.116
 3729TIP3    H111132   8.270   1.293   6.158
 3729TIP3    H211133   8.178   1.237   6.052
 3730TIP3   OH211134   2.495   0.507   6.448
 3730TIP3    H111135   2.568   0.499   6.509
 3730TIP3    H211136   2.455   0.591   6.470
 3731TIP3   OH211137   6.478   0.197   2.063
 3731TIP3    H111138   6.399   0.185   2.117
 3731TIP3    H211139   6.537   0.127   2.092
 3732TIP3   OH211140   6.664   3.461   4.954
 3732TIP3    H111141   6.656   3.544   5.000
 3732TIP3    H211142   6.746   3.423   4.986
 3733TIP3   OH211143   7.668   0.949   0.875
 3733TIP3    H111144   7.737   0.928   0.937
 3733TIP3    H211145   7.707   1.013   0.815
 3734TIP3   OH211146   7.885   3.613   4.711
 3734TIP3    H111147   7.912   3.656   4.792
 3734TIP3    H211148   7.791   3.626   4.707
 3735TIP3   OH211149   0.397   1.669   1.519
 3735TIP3    H111150   0.382   1.695   1.610
 3735TIP3    H211151   0.492   1.655   1.513
 3736TIP3   OH211152   6.608   1.007   4.023
 3736TIP3    H111153   6.614   1.013   4.119
 3736TIP3    H211154   6.568   0.921   4.007
 3737TIP3   OH211155   5.981   1.662   5.292
 3737TIP3    H111156   6.025   1.662   5.376
 3737TIP3    H211157   5.991   1.751   5.259
 3738TIP3   OH211158   2.692   0.443   6.646
 3738TIP3    H111159   2.621   0.451   6.710
 3738TIP3    H211160   2.745   0.371   6.678
 3739TIP3   OH211161   5.138   3.779   6.659
 3739TIP3    H111162   5.111   3.702   6.610
 3739TIP3    H211163   5.122   3.756   6.751
 3740TIP3   OH211164   3.720   0.058   2.700
 3740TIP3    H111165   3.781   0.033   2.769
 3740TIP3    H211166   3.661  -0.017   2.691
 3741TIP3   OH211167   2.119   0.048   3.391
 3741TIP3    H111168   2.053   0.117   3.402
 3741TIP3    H211169   2.180   0.084   3.326
 3742TIP3   OH211170   3.396   6.337   5.532
 3742TIP3    H111171   3.429   6.250   5.555
 3742TIP3    H211172   3.459   6.398   5.570
 3743TIP3   OH211173   0.534   4.050   0.630
 3743TIP3    H111174   0.485   4.121   0.590
 3743TIP3    H211175   0.467   3.995   0.671
 3744TIP3   OH211176   3.736   6.520   1.282
 3744TIP3    H111177   3.668   6.571   1.327
 3744TIP3    H211178   3.707   6.518   1.191
 3745TIP3   OH211179   0.519   7.413   2.897
 3745TIP3    H111180   0.519   7.322   2.869
 3745TIP3    H211181   0.539   7.463   2.817
 3746TIP3   OH211182   7.599   3.787   4.446
 3746TIP3    H111183   7.601   3.804   4.540
 3746TIP3    H211184   7.571   3.695   4.440
 3747TIP3   OH211185   3.696   0.485   5.579
 3747TIP3    H111186   3.684   0.497   5.485
 3747TIP3    H211187   3.770   0.542   5.601
 3748TIP3   OH211188   2.044   7.449   6.657
 3748TIP3    H111189   2.088   7.397   6.590
 3748TIP3    H211190   2.002   7.385   6.714
 3749TIP3   OH211191   0.601   5.057   2.558
 3749TIP3    H111192   0.680   5.070   2.611
 3749TIP3    H211193   0.629   4.997   2.488
 3750TIP3   OH211194   0.960   5.493   5.974
 3750TIP3    H111195   0.871   5.499   6.009
 3750TIP3    H211196   0.953   5.432   5.901
 3751TIP3   OH211197   5.878   2.228   5.637
 3751TIP3    H111198   5.851   2.140   5.612
 3751TIP3    H211199   5.799   2.269   5.672
 3752TIP3   OH211200   2.072   3.757   5.087
 3752TIP3    H111201   2.043   3.672   5.054
 3752TIP3    H211202   2.134   3.736   5.157
 3753TIP3   OH211203   2.251   5.457   0.054
 3753TIP3    H111204   2.294   5.494   0.131
 3753TIP3    H211205   2.190   5.392   0.089
 3754TIP3   OH211206   1.128   2.599   6.019
 3754TIP3    H111207   1.104   2.685   5.983
 3754TIP3    H211208   1.046   2.550   6.021
 3755TIP3   OH211209   2.883   7.716   0.075
 3755TIP3    H111210   2.891   7.627   0.110
 3755TIP3    H211211   2.970   7.754   0.085
 3756TIP3   OH211212   8.185   5.929   4.396
 3756TIP3    H111213   8.220   5.959   4.312
 3756TIP3    H211214   8.251   5.866   4.428
 3757TIP3   OH211215   7.140   0.706   6.076
 3757TIP3    H111216   7.135   0.709   6.172
 3757TIP3    H211217   7.103   0.621   6.053
 3758TIP3   OH211218   2.436   5.516   1.301
 3758TIP3    H111219   2.518   5.564   1.292
 3758TIP3    H211220   2.418   5.483   1.212
 3759TIP3   OH211221   4.169   1.459   4.181
 3759TIP3    H111222   4.187   1.401   4.106
 3759TIP3    H211223   4.080   1.435   4.209
 3760TIP3   OH211224   4.292   0.997   4.174
 3760TIP3    H111225   4.373   0.962   4.134
 3760TIP3    H211226   4.229   0.925   4.167
 3761TIP3   OH211227   2.012   0.724   2.545
 3761TIP3    H111228   1.937   0.698   2.598
 3761TIP3    H211229   2.046   0.642   2.509
 3762TIP3   OH211230   3.712   7.171   4.539
 3762TIP3    H111231   3.789   7.117   4.556
 3762TIP3    H211232   3.676   7.191   4.625
 3763TIP3   OH211233   0.403   3.753   2.588
 3763TIP3    H111234   0.309   3.732   2.583
 3763TIP3    H211235   0.446   3.683   2.539
 3764TIP3   OH211236   7.495   1.987   4.094
 3764TIP3    H111237   7.538   1.966   4.011
 3764TIP3    H211238   7.552   1.950   4.161
 3765TIP3   OH211239   4.317   3.544   2.069
 3765TIP3    H111240   4.224   3.547   2.091
 3765TIP3    H211241   4.362   3.530   2.152
 3766TIP3   OH211242   8.226   6.825   0.912
 3766TIP3    H111243   8.213   6.904   0.963
 3766TIP3    H211244   8.247   6.857   0.824
 3767TIP3   OH211245   5.829   6.202   1.339
 3767TIP3    H111246   5.787   6.278   1.298
 3767TIP3    H211247   5.790   6.199   1.427
 3768TIP3   OH211248   4.547   7.701   4.711
 3768TIP3    H111249   4.557   7.684   4.805
 3768TIP3    H211250   4.462   7.663   4.689
 3769TIP3   OH211251   6.165   0.472   5.434
 3769TIP3    H111252   6.125   0.396   5.391
 3769TIP3    H211253   6.137   0.465   5.525
 3770TIP3   OH211254   0.500   3.594   5.791
 3770TIP3    H111255   0.502   3.596   5.887
 3770TIP3    H211256   0.582   3.635   5.765
 3771TIP3   OH211257   0.862   2.806   1.476
 3771TIP3    H111258   0.910   2.857   1.411
 3771TIP3    H211259   0.774   2.796   1.440
 3772TIP3   OH211260   5.383   0.184   4.738
 3772TIP3    H111261   5.356   0.166   4.648
 3772TIP3    H211262   5.410   0.099   4.773
 3773TIP3   OH211263   7.904   1.470   6.564
 3773TIP3    H111264   7.854   1.427   6.494
 3773TIP3    H211265   7.853   1.454   6.643
 3774TIP3   OH211266   7.659   0.560   1.845
 3774TIP3    H111267   7.658   0.501   1.770
 3774TIP3    H211268   7.571   0.598   1.848
 3775TIP3   OH211269   4.358   3.304   0.119
 3775TIP3    H111270   4.292   3.365   0.086
 3775TIP3    H211271   4.340   3.298   0.213
 3776TIP3   OH211272   3.384   2.331   6.390
 3776TIP3    H111273   3.472   2.367   6.382
 3776TIP3    H211274   3.394   2.238   6.373
 3777TIP3   OH211275   0.405   4.646   3.230
 3777TIP3    H111276   0.335   4.694   3.185
 3777TIP3    H211277   0.481   4.655   3.173
 3778TIP3   OH211278   3.646   7.542   0.415
 3778TIP3    H111279   3.638   7.448   0.398
 3778TIP3    H211280   3.740   7.558   0.413
 3779TIP3   OH211281   7.224   4.028   0.775
 3779TIP3    H111282   7.158   4.071   0.830
 3779TIP3    H211283   7.296   4.090   0.771
 3780TIP3   OH211284   6.351   3.387   5.866
 3780TIP3    H111285   6.361   3.455   5.799
 3780TIP3    H211286   6.336   3.307   5.817
 3781TIP3   OH211287   2.929   0.812   3.547
 3781TIP3    H111288   2.986   0.849   3.615
 3781TIP3    H211289   2.978   0.737   3.513
 3782TIP3   OH211290   3.040   4.453   5.661
 3782TIP3    H111291   2.980   4.457   5.586
 3782TIP3    H211292   3.089   4.372   5.648
 3783TIP3   OH211293   5.496   3.874   6.287
 3783TIP3    H111294   5.552   3.932   6.235
 3783TIP3    H211295   5.407   3.897   6.262
 3784TIP3   OH211296   1.379   5.064   3.578
 3784TIP3    H111297   1.289   5.091   3.598
 3784TIP3    H211298   1.384   4.974   3.609
 3785TIP3   OH211299   5.657   3.841   5.887
 3785TIP3    H111300   5.731   3.788   5.914
 3785TIP3    H211301   5.580   3.789   5.911
 3786TIP3   OH211302   5.397   2.653   3.456
 3786TIP3    H111303   5.399   2.566   3.416
 3786TIP3    H211304   5.309   2.659   3.494
 3787TIP3   OH211305   1.945   1.722   1.853
 3787TIP3    H111306   1.872   1.663   1.833
 3787TIP3    H211307   1.997   1.675   1.917
 3788TIP3   OH211308   3.971   2.296   1.510
 3788TIP3    H111309   3.888   2.300   1.464
 3788TIP3    H211310   4.018   2.374   1.482
 3789TIP3   OH211311   3.490   6.709   6.481
 3789TIP3    H111312   3.477   6.798   6.514
 3789TIP3    H211313   3.578   6.685   6.511
 3790TIP3   OH211314   3.195   6.421   3.864
 3790TIP3    H111315   3.241   6.441   3.783
 3790TIP3    H211316   3.228   6.335   3.890
 3791TIP3   OH211317   2.001   5.368   1.177
 3791TIP3    H111318   1.983   5.445   1.232
 3791TIP3    H211319   2.076   5.326   1.220
 3792TIP3   OH211320   5.779   5.972   0.814
 3792TIP3    H111321   5.842   5.910   0.850
 3792TIP3    H211322   5.833   6.033   0.763
 3793TIP3   OH211323   0.308   5.885   5.547
 3793TIP3    H111324   0.316   5.791   5.564
 3793TIP3    H211325   0.343   5.897   5.459
 3794TIP3   OH211326   5.349   6.065   2.069
 3794TIP3    H111327   5.443   6.059   2.051
 3794TIP3    H211328   5.343   6.083   2.163
 3795TIP3   OH211329   3.564   1.712   0.039
 3795TIP3    H111330   3.639   1.687  -0.014
 3795TIP3    H211331   3.527   1.629   0.068
 3796TIP3   OH211332   4.627   4.373   2.611
 3796TIP3    H111333   4.662   4.462   2.609
 3796TIP3    H211334   4.541   4.380   2.570
 3797TIP3   OH211335   0.044   0.336   0.203
 3797TIP3    H111336   0.047   0.345   0.108
 3797TIP3    H211337   0.123   0.285   0.224
 3798TIP3   OH211338   1.178   4.465   2.582
 3798TIP3    H111339   1.159   4.506   2.667
 3798TIP3    H211340   1.185   4.371   2.602
 3799TIP3   OH211341   7.824   3.743   6.207
 3799TIP3    H111342   7.887   3.672   6.216
 3799TIP3    H211343   7.787   3.753   6.295
 3800TIP3   OH211344   7.443   3.739   3.394
 3800TIP3    H111345   7.349   3.758   3.385
 3800TIP3    H211346   7.475   3.734   3.304
 3801TIP3   OH211347   5.197   0.394   3.999
 3801TIP3    H111348   5.283   0.363   3.973
 3801TIP3    H211349   5.212   0.446   4.078
 3802TIP3   OH211350   3.926   7.000   4.564
 3802TIP3    H111351   3.897   6.932   4.503
 3802TIP3    H211352   3.989   6.956   4.621
 3803TIP3   OH211353   0.556   4.636   4.051
 3803TIP3    H111354   0.633   4.693   4.056
 3803TIP3    H211355   0.484   4.691   4.082
 3804TIP3   OH211356   1.739   4.457   1.894
 3804TIP3    H111357   1.737   4.447   1.990
 3804TIP3    H211358   1.831   4.446   1.871
 3805TIP3   OH211359   0.062   7.385   2.674
 3805TIP3    H111360   0.054   7.427   2.760
 3805TIP3    H211361   0.156   7.384   2.656
 3806TIP3   OH211362   0.095   4.236   2.245
 3806TIP3    H111363   0.133   4.206   2.163
 3806TIP3    H211364   0.077   4.329   2.231
 3807TIP3   OH211365   3.854   7.022   1.707
 3807TIP3    H111366   3.937   7.054   1.742
 3807TIP3    H211367   3.821   7.094   1.653
 3808TIP3   OH211368   1.571   7.753   0.833
 3808TIP3    H111369   1.556   7.687   0.765
 3808TIP3    H211370   1.615   7.825   0.788
 3809TIP3   OH211371   1.370   6.426   5.631
 3809TIP3    H111372   1.276   6.422   5.649
 3809TIP3    H211373   1.410   6.444   5.716
 3810TIP3   OH211374   2.974   5.266   0.800
 3810TIP3    H111375   3.010   5.219   0.725
 3810TIP3    H211376   2.936   5.346   0.763
 3811TIP3   OH211377   3.419   0.866   5.353
 3811TIP3    H111378   3.345   0.923   5.335
 3811TIP3    H211379   3.432   0.873   5.448
 3812TIP3   OH211380   7.121   4.635   0.448
 3812TIP3    H111381   7.205   4.627   0.402
 3812TIP3    H211382   7.121   4.725   0.482
 3813TIP3   OH211383   3.063   2.732   5.127
 3813TIP3    H111384   3.113   2.659   5.163
 3813TIP3    H211385   2.972   2.710   5.147
 3814TIP3   OH211386   0.922   1.749   2.239
 3814TIP3    H111387   0.874   1.699   2.305
 3814TIP3    H211388   0.877   1.728   2.156
 3815TIP3   OH211389   4.822   4.549   2.816
 3815TIP3    H111390   4.823   4.467   2.866
 3815TIP3    H211391   4.911   4.583   2.823
 3816TIP3   OH211392   4.086   2.202   4.753
 3816TIP3    H111393   4.081   2.124   4.808
 3816TIP3    H211394   4.078   2.169   4.664
 3817TIP3   OH211395   7.443   5.942   3.685
 3817TIP3    H111396   7.496   5.908   3.756
 3817TIP3    H211397   7.506   5.969   3.618
 3818TIP3   OH211398   6.981   4.362   5.662
 3818TIP3    H111399   6.924   4.324   5.596
 3818TIP3    H211400   7.014   4.287   5.712
 3819TIP3   OH211401   3.939   1.064   0.281
 3819TIP3    H111402   3.980   1.150   0.271
 3819TIP3    H211403   3.981   1.010   0.214
 3820TIP3   OH211404   0.546   2.666   1.671
 3820TIP3    H111405   0.514   2.578   1.651
 3820TIP3    H211406   0.587   2.696   1.590
 3821TIP3   OH211407   3.206   2.547   1.321
 3821TIP3    H111408   3.218   2.631   1.365
 3821TIP3    H211409   3.277   2.544   1.257
 3822TIP3   OH211410   4.550   0.361   1.331
 3822TIP3    H111411   4.607   0.392   1.401
 3822TIP3    H211412   4.591   0.280   1.301
 3823TIP3   OH211413   1.921   2.725   0.681
 3823TIP3    H111414   1.855   2.788   0.711
 3823TIP3    H211415   2.000   2.747   0.731
 3824TIP3   OH211416   2.462   6.159   3.634
 3824TIP3    H111417   2.469   6.160   3.538
 3824TIP3    H211418   2.368   6.157   3.651
 3825TIP3   OH211419   6.595   1.827   4.591
 3825TIP3    H111420   6.586   1.922   4.579
 3825TIP3    H211421   6.688   1.814   4.608
 3826TIP3   OH211422   2.931   3.498   0.887
 3826TIP3    H111423   2.853   3.550   0.867
 3826TIP3    H211424   2.997   3.531   0.826
 3827TIP3   OH211425   1.267   0.550   0.498
 3827TIP3    H111426   1.346   0.589   0.461
 3827TIP3    H211427   1.287   0.456   0.501
 3828TIP3   OH211428   5.294   1.353   6.245
 3828TIP3    H111429   5.334   1.382   6.327
 3828TIP3    H211430   5.362   1.303   6.201
 3829TIP3   OH211431   4.952   2.059   1.424
 3829TIP3    H111432   4.996   2.059   1.510
 3829TIP3    H211433   4.864   2.092   1.443
 3830TIP3   OH211434   1.221   6.004   3.235
 3830TIP3    H111435   1.239   5.927   3.180
 3830TIP3    H211436   1.269   5.988   3.316
 3831TIP3   OH211437   7.063   2.651   6.060
 3831TIP3    H111438   7.157   2.632   6.060
 3831TIP3    H211439   7.027   2.596   6.130
 3832TIP3   OH211440   6.744   5.407   3.665
 3832TIP3    H111441   6.751   5.479   3.727
 3832TIP3    H211442   6.805   5.429   3.594
 3833TIP3   OH211443   7.447   0.910   5.600
 3833TIP3    H111444   7.353   0.921   5.586
 3833TIP3    H211445   7.483   0.998   5.591
 3834TIP3   OH211446   6.385   5.270   0.489
 3834TIP3    H111447   6.396   5.358   0.526
 3834TIP3    H211448   6.370   5.285   0.396
 3835TIP3   OH211449   1.969   1.953   6.414
 3835TIP3    H111450   1.960   1.861   6.393
 3835TIP3    H211451   1.924   1.999   6.344
 3836TIP3   OH211452   5.576   2.505   4.854
 3836TIP3    H111453   5.496   2.529   4.807
 3836TIP3    H211454   5.627   2.454   4.790
 3837TIP3   OH211455   6.671   3.004   5.252
 3837TIP3    H111456   6.654   2.921   5.208
 3837TIP3    H211457   6.610   3.066   5.211
 3838TIP3   OH211458   0.574   2.772   5.906
 3838TIP3    H111459   0.519   2.736   5.837
 3838TIP3    H211460   0.582   2.865   5.886
 3839TIP3   OH211461   5.855   0.921   6.234
 3839TIP3    H111462   5.881   0.840   6.191
 3839TIP3    H211463   5.935   0.951   6.279
 3840TIP3   OH211464   3.503   0.313   2.770
 3840TIP3    H111465   3.436   0.247   2.754
 3840TIP3    H211466   3.572   0.293   2.706
 3841TIP3   OH211467   7.135   6.790   1.494
 3841TIP3    H111468   7.190   6.765   1.420
 3841TIP3    H211469   7.048   6.757   1.472
 3842TIP3   OH211470   0.683   2.844   1.864
 3842TIP3    H111471   0.749   2.914   1.862
 3842TIP3    H211472   0.638   2.852   1.780
 3843TIP3   OH211473   8.041   4.225   0.451
 3843TIP3    H111474   8.112   4.250   0.509
 3843TIP3    H211475   8.076   4.235   0.363
 3844TIP3   OH211476   4.816   5.864   4.352
 3844TIP3    H111477   4.850   5.941   4.396
 3844TIP3    H211478   4.846   5.790   4.405
 3845TIP3   OH211479   5.734   4.878   6.170
 3845TIP3    H111480   5.701   4.897   6.258
 3845TIP3    H211481   5.785   4.956   6.147
 3846TIP3   OH211482   2.342   2.859   1.057
 3846TIP3    H111483   2.299   2.944   1.065
 3846TIP3    H211484   2.271   2.798   1.034
 3847TIP3   OH211485   3.113   3.819   5.363
 3847TIP3    H111486   3.103   3.898   5.310
 3847TIP3    H211487   3.037   3.765   5.341
 3848TIP3   OH211488   4.228   5.643   6.236
 3848TIP3    H111489   4.207   5.634   6.143
 3848TIP3    H211490   4.261   5.557   6.262
 3849TIP3   OH211491   4.306   6.855   3.183
 3849TIP3    H111492   4.249   6.827   3.111
 3849TIP3    H211493   4.259   6.827   3.262
 3850TIP3   OH211494   5.625   2.653   3.740
 3850TIP3    H111495   5.539   2.661   3.782
 3850TIP3    H211496   5.625   2.721   3.673
 3851TIP3   OH211497   0.550   5.134   0.672
 3851TIP3    H111498   0.632   5.163   0.712
 3851TIP3    H211499   0.568   5.131   0.578
 3852TIP3   OH211500   4.167   5.763   2.527
 3852TIP3    H111501   4.106   5.754   2.454
 3852TIP3    H211502   4.112   5.786   2.602
 3853TIP3   OH211503   4.199   1.284   1.812
 3853TIP3    H111504   4.228   1.198   1.781
 3853TIP3    H211505   4.195   1.338   1.732
 3854TIP3   OH211506   8.282   0.715   3.504
 3854TIP3    H111507   8.294   0.810   3.513
 3854TIP3    H211508   8.235   0.705   3.421
 3855TIP3   OH211509   3.878   1.099   2.406
 3855TIP3    H111510   3.893   1.129   2.495
 3855TIP3    H211511   3.930   1.159   2.352
 3856TIP3   OH211512   5.464   7.694   6.758
 3856TIP3    H111513   5.438   7.690   6.666
 3856TIP3    H211514   5.417   7.622   6.799
 3857TIP3   OH211515   2.409   7.203   1.542
 3857TIP3    H111516   2.485   7.243   1.583
 3857TIP3    H211517   2.361   7.163   1.615
 3858TIP3   OH211518   1.434   2.704   6.545
 3858TIP3    H111519   1.376   2.685   6.471
 3858TIP3    H211520   1.522   2.704   6.507
 3859TIP3   OH211521   7.095   3.943   5.975
 3859TIP3    H111522   7.153   3.869   5.996
 3859TIP3    H211523   7.126   4.014   6.033
 3860TIP3   OH211524   0.568   0.765   4.738
 3860TIP3    H111525   0.659   0.759   4.710
 3860TIP3    H211526   0.546   0.858   4.727
 3861TIP3   OH211527   1.644   5.698   3.954
 3861TIP3    H111528   1.714   5.642   3.988
 3861TIP3    H211529   1.649   5.778   4.005
 3862TIP3   OH211530   7.703   1.220   0.773
 3862TIP3    H111531   7.795   1.246   0.763
 3862TIP3    H211532   7.679   1.250   0.861
 3863TIP3   OH211533   7.548   7.186   2.845
 3863TIP3    H111534   7.482   7.138   2.895
 3863TIP3    H211535   7.538   7.154   2.755
 3864TIP3   OH211536   7.090   5.089   3.278
 3864TIP3    H111537   7.137   5.119   3.201
 3864TIP3    H211538   7.085   4.994   3.268
 3865TIP3   OH211539   1.016   4.833   3.813
 3865TIP3    H111540   1.081   4.774   3.850
 3865TIP3    H211541   1.027   4.824   3.718
 3866TIP3   OH211542   6.594   6.652   3.294
 3866TIP3    H111543   6.583   6.742   3.262
 3866TIP3    H211544   6.662   6.615   3.239
 3867TIP3   OH211545   3.013   3.836   1.333
 3867TIP3    H111546   2.938   3.809   1.385
 3867TIP3    H211547   3.008   3.783   1.254
 3868TIP3   OH211548   5.324   7.213   5.543
 3868TIP3    H111549   5.341   7.308   5.540
 3868TIP3    H211550   5.380   7.182   5.614
 3869TIP3   OH211551   7.163   0.004   3.325
 3869TIP3    H111552   7.204   0.004   3.412
 3869TIP3    H211553   7.108   0.082   3.324
 3870TIP3   OH211554   4.544   7.000   3.912
 3870TIP3    H111555   4.468   6.946   3.933
 3870TIP3    H211556   4.592   7.006   3.995
 3871TIP3   OH211557   1.373   3.119   3.153
 3871TIP3    H111558   1.383   3.040   3.206
 3871TIP3    H211559   1.351   3.187   3.217
 3872TIP3   OH211560   5.875   3.083   2.988
 3872TIP3    H111561   5.843   3.035   3.065
 3872TIP3    H211562   5.942   3.143   3.024
 3873TIP3   OH211563   0.217   7.273   1.581
 3873TIP3    H111564   0.271   7.235   1.650
 3873TIP3    H211565   0.137   7.301   1.625
 3874TIP3   OH211566   7.287   4.911   2.166
 3874TIP3    H111567   7.367   4.872   2.201
 3874TIP3    H211568   7.235   4.837   2.135
 3875TIP3   OH211569   3.825   6.890   2.879
 3875TIP3    H111570   3.751   6.938   2.916
 3875TIP3    H211571   3.803   6.798   2.891
 3876TIP3   OH211572   1.656   1.881   5.323
 3876TIP3    H111573   1.687   1.844   5.406
 3876TIP3    H211574   1.568   1.914   5.343
 3877TIP3   OH211575   4.220   0.111   4.066
 3877TIP3    H111576   4.147   0.169   4.088
 3877TIP3    H211577   4.205   0.086   3.975
 3878TIP3   OH211578   5.010   2.129   0.823
 3878TIP3    H111579   4.986   2.036   0.825
 3878TIP3    H211580   5.042   2.143   0.734
 3879TIP3   OH211581   2.951   2.272   1.402
 3879TIP3    H111582   2.989   2.350   1.360
 3879TIP3    H211583   2.882   2.245   1.342
 3880TIP3   OH211584   5.456   3.546   0.084
 3880TIP3    H111585   5.426   3.512   0.168
 3880TIP3    H211586   5.479   3.468   0.034
 3881TIP3   OH211587   3.039   3.510   3.141
 3881TIP3    H111588   3.003   3.421   3.131
 3881TIP3    H211589   3.058   3.538   3.051
 3882TIP3   OH211590   0.380   0.939   0.088
 3882TIP3    H111591   0.375   0.881   0.164
 3882TIP3    H211592   0.395   1.026   0.125
 3883TIP3   OH211593   4.072   7.831   5.855
 3883TIP3    H111594   4.146   7.853   5.911
 3883TIP3    H211595   4.014   7.778   5.911
 3884TIP3   OH211596   8.062   5.399   3.897
 3884TIP3    H111597   8.071   5.494   3.892
 3884TIP3    H211598   8.071   5.379   3.990
 3885TIP3   OH211599   5.428   1.597   0.169
 3885TIP3    H111600   5.506   1.551   0.140
 3885TIP3    H211601   5.357   1.562   0.115
 3886TIP3   OH211602   2.464   6.840   0.421
 3886TIP3    H111603   2.459   6.765   0.480
 3886TIP3    H211604   2.420   6.810   0.341
 3887TIP3   OH211605   3.440   3.172   2.794
 3887TIP3    H111606   3.451   3.188   2.888
 3887TIP3    H211607   3.346   3.184   2.778
 3888TIP3   OH211608   7.415   1.812   0.232
 3888TIP3    H111609   7.350   1.855   0.177
 3888TIP3    H211610   7.388   1.831   0.321
 3889TIP3   OH211611   6.959   3.535   4.084
 3889TIP3    H111612   6.976   3.624   4.054
 3889TIP3    H211613   7.045   3.493   4.086
 3890TIP3   OH211614   7.948   7.202   0.074
 3890TIP3    H111615   7.944   7.118   0.028
 3890TIP3    H211616   8.030   7.242   0.044
 3891TIP3   OH211617   2.570   0.391   5.340
 3891TIP3    H111618   2.587   0.430   5.254
 3891TIP3    H211619   2.475   0.393   5.349
 3892TIP3   OH211620   5.205   6.729   1.475
 3892TIP3    H111621   5.153   6.684   1.408
 3892TIP3    H211622   5.288   6.681   1.478
 3893TIP3   OH211623   5.643   0.876   0.801
 3893TIP3    H111624   5.594   0.813   0.748
 3893TIP3    H211625   5.682   0.823   0.871
 3894TIP3   OH211626   3.050   2.697   6.079
 3894TIP3    H111627   3.101   2.664   6.153
 3894TIP3    H211628   3.049   2.792   6.092
 3895TIP3   OH211629   5.631   5.137   6.645
 3895TIP3    H111630   5.579   5.183   6.579
 3895TIP3    H211631   5.567   5.113   6.712
 3896TIP3   OH211632   4.568   3.100   1.477
 3896TIP3    H111633   4.633   3.044   1.519
 3896TIP3    H211634   4.526   3.145   1.550
 3897TIP3   OH211635   6.566   5.002   5.992
 3897TIP3    H111636   6.506   5.030   6.062
 3897TIP3    H211637   6.594   4.914   6.018
 3898TIP3   OH211638   6.548   5.308   2.024
 3898TIP3    H111639   6.548   5.402   2.042
 3898TIP3    H211640   6.640   5.282   2.033
 3899TIP3   OH211641   6.000   3.365   6.477
 3899TIP3    H111642   6.084   3.331   6.444
 3899TIP3    H211643   5.945   3.288   6.485
 3900TIP3   OH211644   1.235   2.166   5.514
 3900TIP3    H111645   1.237   2.146   5.608
 3900TIP3    H211646   1.189   2.250   5.509
 3901TIP3   OH211647   6.215   1.217   3.394
 3901TIP3    H111648   6.121   1.213   3.413
 3901TIP3    H211649   6.225   1.292   3.337
 3902TIP3   OH211650   2.522   0.091   5.324
 3902TIP3    H111651   2.493   0.176   5.291
 3902TIP3    H211652   2.457   0.067   5.390
 3903TIP3   OH211653   3.962   2.384   1.102
 3903TIP3    H111654   3.937   2.295   1.128
 3903TIP3    H211655   3.972   2.379   1.007
 3904TIP3   OH211656   6.022   0.138   3.702
 3904TIP3    H111657   6.069   0.115   3.622
 3904TIP3    H211658   6.072   0.210   3.740
 3905TIP3   OH211659   2.133   4.779   2.893
 3905TIP3    H111660   2.091   4.828   2.963
 3905TIP3    H211661   2.073   4.706   2.874
 3906TIP3   OH211662   0.683   6.935   0.294
 3906TIP3    H111663   0.694   6.896   0.380
 3906TIP3    H211664   0.684   7.030   0.311
 3907TIP3   OH211665   5.752   7.202   5.715
 3907TIP3    H111666   5.796   7.233   5.636
 3907TIP3    H211667   5.749   7.279   5.772
 3908TIP3   OH211668   7.882   7.279   1.764
 3908TIP3    H111669   7.801   7.252   1.721
 3908TIP3    H211670   7.928   7.197   1.783
 3909TIP3   OH211671   8.084   0.810   3.944
 3909TIP3    H111672   8.110   0.724   3.976
 3909TIP3    H211673   8.141   0.826   3.868
 3910TIP3   OH211674   2.258   6.145   3.005
 3910TIP3    H111675   2.221   6.233   3.009
 3910TIP3    H211676   2.214   6.097   3.075
 3911TIP3   OH211677   7.209   2.685   4.746
 3911TIP3    H111678   7.177   2.660   4.659
 3911TIP3    H211679   7.154   2.635   4.806
 3912TIP3   OH211680   1.911   5.736   2.821
 3912TIP3    H111681   2.005   5.749   2.813
 3912TIP3    H211682   1.877   5.747   2.732
 3913TIP3   OH211683   2.469   4.936   1.775
 3913TIP3    H111684   2.451   5.029   1.759
 3913TIP3    H211685   2.563   4.931   1.788
 3914TIP3   OH211686   8.031   7.043   4.413
 3914TIP3    H111687   7.970   6.995   4.469
 3914TIP3    H211688   8.074   6.976   4.361
 3915TIP3   OH211689   4.800   0.948   2.004
 3915TIP3    H111690   4.745   0.892   2.059
 3915TIP3    H211691   4.889   0.928   2.031
 3916TIP3   OH211692   7.695   1.820   0.861
 3916TIP3    H111693   7.757   1.844   0.930
 3916TIP3    H211694   7.658   1.736   0.889
 3917TIP3   OH211695   5.203   6.396   6.736
 3917TIP3    H111696   5.164   6.336   6.673
 3917TIP3    H211697   5.297   6.380   6.730
 3918TIP3   OH211698   3.529   1.969   2.986
 3918TIP3    H111699   3.503   2.061   2.976
 3918TIP3    H211700   3.575   1.949   2.905
 3919TIP3   OH211701   7.138   4.945   2.421
 3919TIP3    H111702   7.151   4.959   2.327
 3919TIP3    H211703   7.161   5.029   2.461
 3920TIP3   OH211704   2.788   2.990   5.893
 3920TIP3    H111705   2.852   2.964   5.827
 3920TIP3    H211706   2.729   2.915   5.900
 3921TIP3   OH211707   1.329   1.134   0.810
 3921TIP3    H111708   1.279   1.208   0.776
 3921TIP3    H211709   1.378   1.172   0.884
 3922TIP3   OH211710   7.450   5.352   4.754
 3922TIP3    H111711   7.426   5.260   4.765
 3922TIP3    H211712   7.537   5.349   4.714
 3923TIP3   OH211713   4.994   3.878   6.087
 3923TIP3    H111714   4.959   3.791   6.074
 3923TIP3    H211715   4.925   3.926   6.133
 3924TIP3   OH211716   5.008   0.086   2.659
 3924TIP3    H111717   5.094   0.062   2.625
 3924TIP3    H211718   5.025   0.116   2.749
 3925TIP3   OH211719   6.109   3.934   3.094
 3925TIP3    H111720   6.175   3.886   3.145
 3925TIP3    H211721   6.041   3.869   3.076
 3926TIP3   OH211722   8.066   3.089   1.908
 3926TIP3    H111723   8.144   3.039   1.929
 3926TIP3    H211724   8.084   3.177   1.941
 3927TIP3   OH211725   1.429   2.004   0.671
 3927TIP3    H111726   1.407   2.095   0.691
 3927TIP3    H211727   1.492   2.009   0.599
 3928TIP3   OH211728   1.800   5.055   0.882
 3928TIP3    H111729   1.824   5.145   0.905
 3928TIP3    H211730   1.761   5.062   0.795
 3929TIP3   OH211731   7.333   0.326   2.225
 3929TIP3    H111732   7.368   0.415   2.234
 3929TIP3    H211733   7.239   0.336   2.244
 3930TIP3   OH211734   5.681   6.354   6.730
 3930TIP3    H111735   5.613   6.297   6.767
 3930TIP3    H211736   5.705   6.411   6.803
 3931TIP3   OH211737   1.944   2.398   2.861
 3931TIP3    H111738   1.979   2.487   2.861
 3931TIP3    H211739   1.912   2.384   2.950
 3932TIP3   OH211740   3.171   2.070   2.982
 3932TIP3    H111741   3.111   2.143   2.996
 3932TIP3    H211742   3.199   2.078   2.891
 3933TIP3   OH211743   0.139   1.537   6.658
 3933TIP3    H111744   0.225   1.545   6.699
 3933TIP3    H211745   0.078   1.529   6.731
 3934TIP3   OH211746   3.012   2.880   4.868
 3934TIP3    H111747   3.058   2.826   4.803
 3934TIP3    H211748   3.008   2.825   4.946
 3935TIP3   OH211749   2.257   0.233   1.361
 3935TIP3    H111750   2.262   0.230   1.265
 3935TIP3    H211751   2.312   0.307   1.386
 3936TIP3   OH211752   0.034   7.498   0.247
 3936TIP3    H111753   0.080   7.537   0.173
 3936TIP3    H211754   0.103   7.457   0.299
 3937TIP3   OH211755   0.202   5.188   0.452
 3937TIP3    H111756   0.129   5.137   0.489
 3937TIP3    H211757   0.160   5.266   0.415
 3938TIP3   OH211758   1.394   7.520   1.014
 3938TIP3    H111759   1.453   7.596   1.024
 3938TIP3    H211760   1.314   7.557   0.977
 3939TIP3   OH211761   3.962   0.552   5.637
 3939TIP3    H111762   3.953   0.619   5.704
 3939TIP3    H211763   4.029   0.493   5.671
 3940TIP3   OH211764   4.523   7.040   6.224
 3940TIP3    H111765   4.468   6.965   6.245
 3940TIP3    H211766   4.564   7.018   6.141
 3941TIP3   OH211767   6.420   1.648   1.490
 3941TIP3    H111768   6.404   1.674   1.399
 3941TIP3    H211769   6.387   1.558   1.495
 3942TIP3   OH211770   1.126   5.702   5.987
 3942TIP3    H111771   1.208   5.655   5.972
 3942TIP3    H211772   1.060   5.634   5.996
 3943TIP3   OH211773   2.323   0.935   5.739
 3943TIP3    H111774   2.246   0.879   5.748
 3943TIP3    H211775   2.378   0.890   5.675
 3944TIP3   OH211776   8.078   6.435   0.121
 3944TIP3    H111777   8.029   6.361   0.086
 3944TIP3    H211778   8.169   6.414   0.105
 3945TIP3   OH211779   7.345   2.184   6.331
 3945TIP3    H111780   7.440   2.184   6.318
 3945TIP3    H211781   7.318   2.094   6.309
 3946TIP3   OH211782   3.168   7.267   0.959
 3946TIP3    H111783   3.222   7.201   1.002
 3946TIP3    H211784   3.106   7.218   0.905
 3947TIP3   OH211785   5.293   1.312   0.862
 3947TIP3    H111786   5.303   1.391   0.914
 3947TIP3    H211787   5.244   1.340   0.784
 3948TIP3   OH211788   1.295   0.886   0.924
 3948TIP3    H111789   1.299   0.967   0.873
 3948TIP3    H211790   1.207   0.852   0.907
 3949TIP3   OH211791   7.338   1.717   5.277
 3949TIP3    H111792   7.322   1.709   5.182
 3949TIP3    H211793   7.309   1.633   5.313
 3950TIP3   OH211794   1.243   0.565   0.791
 3950TIP3    H111795   1.338   0.560   0.783
 3950TIP3    H211796   1.210   0.529   0.709
 3951TIP3   OH211797   7.491   5.633   4.806
 3951TIP3    H111798   7.492   5.538   4.795
 3951TIP3    H211799   7.553   5.650   4.877
 3952TIP3   OH211800   0.612   5.447   2.784
 3952TIP3    H111801   0.566   5.364   2.797
 3952TIP3    H211802   0.636   5.447   2.691
 3953TIP3   OH211803   2.832   0.801   5.054
 3953TIP3    H111804   2.761   0.740   5.072
 3953TIP3    H211805   2.911   0.751   5.070
 3954TIP3   OH211806   2.636   6.781   0.894
 3954TIP3    H111807   2.622   6.869   0.860
 3954TIP3    H211808   2.549   6.743   0.902
 3955TIP3   OH211809   6.334   4.217   3.248
 3955TIP3    H111810   6.423   4.252   3.244
 3955TIP3    H211811   6.295   4.257   3.326
 3956TIP3   OH211812   0.168   1.114   5.379
 3956TIP3    H111813   0.140   1.037   5.329
 3956TIP3    H211814   0.256   1.092   5.410
 3957TIP3   OH211815   8.201   7.164   2.605
 3957TIP3    H111816   8.115   7.205   2.606
 3957TIP3    H211817   8.260   7.230   2.642
 3958TIP3   OH211818   3.247   5.269   5.488
 3958TIP3    H111819   3.159   5.301   5.504
 3958TIP3    H211820   3.263   5.285   5.395
 3959TIP3   OH211821   7.927   5.454   4.187
 3959TIP3    H111822   7.999   5.397   4.215
 3959TIP3    H211823   7.969   5.539   4.172
 3960TIP3   OH211824   4.896   2.628   4.298
 3960TIP3    H111825   4.836   2.582   4.240
 3960TIP3    H211826   4.968   2.565   4.312
 3961TIP3   OH211827   4.922   7.494   0.694
 3961TIP3    H111828   4.837   7.526   0.665
 3961TIP3    H211829   4.945   7.425   0.631
 3962TIP3   OH211830   4.565   4.171   3.786
 3962TIP3    H111831   4.574   4.152   3.879
 3962TIP3    H211832   4.647   4.215   3.762
 3963TIP3   OH211833   7.248   0.547   0.080
 3963TIP3    H111834   7.293   0.520   0.000
 3963TIP3    H211835   7.315   0.591   0.132
 3964TIP3   OH211836   7.716   6.465   1.881
 3964TIP3    H111837   7.781   6.411   1.925
 3964TIP3    H211838   7.767   6.530   1.833
 3965TIP3   OH211839   2.222   0.424   6.621
 3965TIP3    H111840   2.138   0.458   6.591
 3965TIP3    H211841   2.285   0.452   6.555
 3966TIP3   OH211842   4.187   4.196   3.452
 3966TIP3    H111843   4.212   4.105   3.467
 3966TIP3    H211844   4.091   4.194   3.448
 3967TIP3   OH211845   6.781   5.731   3.088
 3967TIP3    H111846   6.859   5.759   3.040
 3967TIP3    H211847   6.717   5.800   3.073
 3968TIP3   OH211848   3.971   4.173   2.441
 3968TIP3    H111849   3.935   4.118   2.371
 3968TIP3    H211850   4.043   4.220   2.399
 3969TIP3   OH211851   3.891   4.181   5.447
 3969TIP3    H111852   3.919   4.268   5.474
 3969TIP3    H211853   3.946   4.161   5.371
 3970TIP3   OH211854   7.373   6.457   4.011
 3970TIP3    H111855   7.443   6.422   3.956
 3970TIP3    H211856   7.409   6.538   4.047
 3971TIP3   OH211857   1.187   6.977   2.062
 3971TIP3    H111858   1.178   7.006   1.971
 3971TIP3    H211859   1.281   6.966   2.074
 3972TIP3   OH211860   4.739   6.597   6.638
 3972TIP3    H111861   4.705   6.644   6.562
 3972TIP3    H211862   4.830   6.624   6.646
 3973TIP3   OH211863   1.858   7.220   3.314
 3973TIP3    H111864   1.893   7.144   3.361
 3973TIP3    H211865   1.932   7.254   3.264
 3974TIP3   OH211866   3.470   1.444   2.861
 3974TIP3    H111867   3.505   1.366   2.818
 3974TIP3    H211868   3.420   1.410   2.935
 3975TIP3   OH211869   0.894   2.816   2.995
 3975TIP3    H111870   0.865   2.878   2.928
 3975TIP3    H211871   0.983   2.844   3.016
 3976TIP3   OH211872   1.474   4.952   3.909
 3976TIP3    H111873   1.382   4.975   3.900
 3976TIP3    H211874   1.518   5.035   3.927
 3977TIP3   OH211875   4.093   6.066   4.232
 3977TIP3    H111876   4.167   6.010   4.211
 3977TIP3    H211877   4.106   6.144   4.178
 3978TIP3   OH211878   5.143   2.313   0.964
 3978TIP3    H111879   5.107   2.250   0.902
 3978TIP3    H211880   5.078   2.320   1.033
 3979TIP3   OH211881   7.185   0.037   5.160
 3979TIP3    H111882   7.125   0.110   5.147
 3979TIP3    H211883   7.150  -0.011   5.234
 3980TIP3   OH211884   6.710   3.462   5.338
 3980TIP3    H111885   6.770   3.411   5.391
 3980TIP3    H211886   6.738   3.446   5.248
 3981TIP3   OH211887   0.689   4.255   5.773
 3981TIP3    H111888   0.693   4.176   5.827
 3981TIP3    H211889   0.698   4.327   5.835
 3982TIP3   OH211890   4.894   1.357   3.526
 3982TIP3    H111891   4.881   1.262   3.524
 3982TIP3    H211892   4.919   1.376   3.617
 3983TIP3   OH211893   4.100   6.311   5.917
 3983TIP3    H111894   4.059   6.392   5.887
 3983TIP3    H211895   4.192   6.335   5.931
 3984TIP3   OH211896   2.286   3.072   5.604
 3984TIP3    H111897   2.243   3.089   5.688
 3984TIP3    H211898   2.242   2.994   5.570
 3985TIP3   OH211899   3.685   5.588   5.048
 3985TIP3    H111900   3.653   5.519   5.106
 3985TIP3    H211901   3.736   5.542   4.981
 3986TIP3   OH211902   6.835   4.779   6.241
 3986TIP3    H111903   6.795   4.710   6.189
 3986TIP3    H211904   6.762   4.835   6.267
 3987TIP3   OH211905   5.485   5.390   1.208
 3987TIP3    H111906   5.555   5.447   1.174
 3987TIP3    H211907   5.409   5.412   1.154
 3988TIP3   OH211908   2.326   4.879   5.191
 3988TIP3    H111909   2.317   4.934   5.112
 3988TIP3    H211910   2.356   4.940   5.259
 3989TIP3   OH211911   4.076   1.884   2.178
 3989TIP3    H111912   3.985   1.903   2.198
 3989TIP3    H211913   4.093   1.800   2.220
 3990TIP3   OH211914   7.206   0.004   1.998
 3990TIP3    H111915   7.213   0.092   1.961
 3990TIP3    H211916   7.288  -0.039   1.973
 3991TIP3   OH211917   1.389   5.006   6.660
 3991TIP3    H111918   1.315   5.067   6.670
 3991TIP3    H211919   1.350   4.920   6.673
 3992TIP3   OH211920   6.038   7.755   2.438
 3992TIP3    H111921   6.057   7.735   2.346
 3992TIP3    H211922   6.030   7.668   2.479
 3993TIP3   OH211923   6.180   2.401   6.191
 3993TIP3    H111924   6.208   2.310   6.179
 3993TIP3    H211925   6.133   2.401   6.274
 3994TIP3   OH211926   0.763   3.008   4.262
 3994TIP3    H111927   0.771   3.009   4.358
 3994TIP3    H211928   0.784   3.098   4.235
 3995TIP3   OH211929   2.488   2.261   0.689
 3995TIP3    H111930   2.445   2.347   0.692
 3995TIP3    H211931   2.417   2.200   0.666
 3996TIP3   OH211932   5.980   1.861   0.943
 3996TIP3    H111933   5.918   1.872   0.871
 3996TIP3    H211934   6.026   1.944   0.948
 3997TIP3   OH211935   6.653   1.222   3.858
 3997TIP3    H111936   6.703   1.175   3.791
 3997TIP3    H211937   6.654   1.164   3.934
 3998TIP3   OH211938   0.009   2.925   1.373
 3998TIP3    H111939   0.085   2.869   1.391
 3998TIP3    H211940  -0.013   2.906   1.282
 3999TIP3   OH211941   0.632   6.063   3.529
 3999TIP3    H111942   0.567   6.119   3.487
 3999TIP3    H211943   0.654   5.997   3.464
 4000TIP3   OH211944   7.895   7.569   2.260
 4000TIP3    H111945   7.800   7.575   2.277
 4000TIP3    H211946   7.915   7.648   2.210
 4001TIP3   OH211947   2.753   6.785   6.350
 4001TIP3    H111948   2.807   6.864   6.353
 4001TIP3    H211949   2.669   6.812   6.389
 4002TIP3   OH211950   5.974   0.059   2.919
 4002TIP3    H111951   6.043   0.044   2.983
 4002TIP3    H211952   6.015   0.042   2.834
 4003TIP3   OH211953   3.736   3.734   1.306
 4003TIP3    H111954   3.737   3.827   1.284
 4003TIP3    H211955   3.672   3.726   1.377
 4004TIP3   OH211956   8.050   4.216   4.343
 4004TIP3    H111957   8.055   4.272   4.266
 4004TIP3    H211958   8.141   4.212   4.375
 4005TIP3   OH211959   1.992   3.204   1.922
 4005TIP3    H111960   1.976   3.288   1.879
 4005TIP3    H211961   2.042   3.153   1.858
 4006TIP3   OH211962   4.257   4.728   2.732
 4006TIP3    H111963   4.163   4.715   2.745
 4006TIP3    H211964   4.296   4.703   2.816
 4007TIP3   OH211965   1.216   7.320   2.010
 4007TIP3    H111966   1.242   7.400   2.057
 4007TIP3    H211967   1.275   7.316   1.935
 4008TIP3   OH211968   5.216   7.747   6.212
 4008TIP3    H111969   5.177   7.831   6.187
 4008TIP3    H211970   5.308   7.755   6.188
 4009TIP3   OH211971   8.031   7.356   3.146
 4009TIP3    H111972   8.081   7.312   3.077
 4009TIP3    H211973   7.990   7.431   3.101
 4010TIP3   OH211974   4.018   3.171   6.781
 4010TIP3    H111975   3.961   3.227   6.728
 4010TIP3    H211976   4.086   3.141   6.720
 4011TIP3   OH211977   6.603   5.179   1.234
 4011TIP3    H111978   6.668   5.124   1.278
 4011TIP3    H211979   6.643   5.202   1.150
 4012TIP3   OH211980   3.726   2.632   1.930
 4012TIP3    H111981   3.639   2.667   1.952
 4012TIP3    H211982   3.743   2.566   1.997
 4013TIP3   OH211983   8.201   5.589   0.631
 4013TIP3    H111984   8.198   5.521   0.563
 4013TIP3    H211985   8.129   5.567   0.690
 4014TIP3   OH211986   6.097   4.298   5.096
 4014TIP3    H111987   6.003   4.319   5.090
 4014TIP3    H211988   6.131   4.359   5.161
 4015TIP3   OH211989   7.098   7.130   5.156
 4015TIP3    H111990   7.091   7.035   5.167
 4015TIP3    H211991   7.016   7.155   5.113
 4016TIP3   OH211992   6.547   3.879   5.052
 4016TIP3    H111993   6.551   3.974   5.055
 4016TIP3    H211994   6.637   3.850   5.067
 4017TIP3   OH211995   8.033   6.761   2.015
 4017TIP3    H111996   8.065   6.778   1.926
 4017TIP3    H211997   8.113   6.747   2.066
 4018TIP3   OH211998   6.706   5.576   4.600
 4018TIP3    H111999   6.613   5.561   4.616
 4018TIP3    H212000   6.749   5.499   4.637
 4019TIP3   OH212001   5.768   0.179   6.304
 4019TIP3    H112002   5.850   0.191   6.257
 4019TIP3    H212003   5.701   0.213   6.245
 4020TIP3   OH212004   5.231   4.427   1.633
 4020TIP3    H112005   5.188   4.363   1.690
 4020TIP3    H212006   5.160   4.469   1.586
 4021TIP3   OH212007   8.167   0.375   2.433
 4021TIP3    H112008   8.213   0.446   2.389
 4021TIP3    H212009   8.178   0.299   2.377
 4022TIP3   OH212010   1.586   0.577   5.084
 4022TIP3    H112011   1.560   0.636   5.154
 4022TIP3    H212012   1.553   0.491   5.112
 4023TIP3   OH212013   7.405   7.106   3.238
 4023TIP3    H112014   7.373   7.020   3.264
 4023TIP3    H212015   7.475   7.126   3.300
 4024TIP3   OH212016   3.884   1.150   3.226
 4024TIP3    H112017   3.807   1.182   3.273
 4024TIP3    H212018   3.851   1.125   3.140
 4025TIP3   OH212019   6.598   7.253   1.305
 4025TIP3    H112020   6.690   7.276   1.314
 4025TIP3    H212021   6.579   7.199   1.381
 4026TIP3   OH212022   7.101   7.362   1.338
 4026TIP3    H112023   7.135   7.312   1.263
 4026TIP3    H212024   7.008   7.374   1.319
 4027TIP3   OH212025   1.898   4.535   5.885
 4027TIP3    H112026   1.939   4.601   5.942
 4027TIP3    H212027   1.905   4.453   5.935
 4028TIP3   OH212028   2.515   7.107   3.183
 4028TIP3    H112029   2.596   7.085   3.136
 4028TIP3    H212030   2.497   7.198   3.158
 4029TIP3   OH212031   3.860   7.391   0.207
 4029TIP3    H112032   3.809   7.328   0.258
 4029TIP3    H212033   3.901   7.448   0.272
 4030TIP3   OH212034   6.928   2.690   3.925
 4030TIP3    H112035   6.883   2.704   4.008
 4030TIP3    H212036   6.982   2.768   3.914
 4031TIP3   OH212037   0.333   1.750   4.137
 4031TIP3    H112038   0.275   1.769   4.063
 4031TIP3    H212039   0.314   1.818   4.201
 4032TIP3   OH212040   0.164   3.572   4.750
 4032TIP3    H112041   0.104   3.517   4.699
 4032TIP3    H212042   0.113   3.652   4.768
 4033TIP3   OH212043   0.908   7.348   5.572
 4033TIP3    H112044   0.827   7.378   5.613
 4033TIP3    H212045   0.957   7.429   5.554
 4034TIP3   OH212046   6.066   1.183   5.320
 4034TIP3    H112047   6.007   1.108   5.321
 4034TIP3    H212048   6.151   1.146   5.297
 4035TIP3   OH212049   0.520   1.563   2.163
 4035TIP3    H112050   0.609   1.541   2.136
 4035TIP3    H212051   0.519   1.659   2.166
 4036TIP3   OH212052   1.574   3.720   2.197
 4036TIP3    H112053   1.505   3.759   2.143
 4036TIP3    H212054   1.610   3.650   2.143
 4037TIP3   OH212055   2.311   4.757   3.598
 4037TIP3    H112056   2.264   4.833   3.630
 4037TIP3    H212057   2.383   4.793   3.546
 4038TIP3   OH212058   7.791   6.913   6.425
 4038TIP3    H112059   7.810   6.843   6.487
 4038TIP3    H212060   7.734   6.872   6.359
 4039TIP3   OH212061   6.784   5.961   2.769
 4039TIP3    H112062   6.819   6.050   2.779
 4039TIP3    H212063   6.700   5.963   2.813
 4040TIP3   OH212064   0.689   0.506   0.252
 4040TIP3    H112065   0.711   0.520   0.160
 4040TIP3    H212066   0.760   0.451   0.285
 4041TIP3   OH212067   5.620   7.328   1.500
 4041TIP3    H112068   5.685   7.394   1.525
 4041TIP3    H212069   5.588   7.357   1.414
 4042TIP3   OH212070   5.002   6.431   2.858
 4042TIP3    H112071   4.921   6.476   2.832
 4042TIP3    H212072   5.064   6.502   2.874
 4043TIP3   OH212073   5.661   3.943   3.179
 4043TIP3    H112074   5.616   4.018   3.218
 4043TIP3    H212075   5.602   3.869   3.196
 4044TIP3   OH212076   2.363   4.953   3.964
 4044TIP3    H112077   2.439   4.956   3.906
 4044TIP3    H212078   2.393   4.999   4.044
 4045TIP3   OH212079   3.318   4.272   2.696
 4045TIP3    H112080   3.231   4.310   2.708
 4045TIP3    H212081   3.331   4.216   2.773
 4046TIP3   OH212082   7.768   6.865   0.820
 4046TIP3    H112083   7.810   6.933   0.766
 4046TIP3    H212084   7.841   6.815   0.856
 4047TIP3   OH212085   8.298   4.602   5.579
 4047TIP3    H112086   8.226   4.545   5.551
 4047TIP3    H212087   8.268   4.639   5.662
 4048TIP3   OH212088   3.620   0.247   2.106
 4048TIP3    H112089   3.703   0.244   2.153
 4048TIP3    H212090   3.562   0.298   2.163
 4049TIP3   OH212091   3.602   6.713   4.311
 4049TIP3    H112092   3.527   6.678   4.359
 4049TIP3    H212093   3.573   6.713   4.220
 4050TIP3   OH212094   3.274   4.304   5.208
 4050TIP3    H112095   3.290   4.323   5.116
 4050TIP3    H212096   3.179   4.299   5.215
 4051TIP3   OH212097   6.042   3.957   1.527
 4051TIP3    H112098   6.058   3.871   1.565
 4051TIP3    H212099   5.950   3.976   1.548
 4052TIP3   OH212100   0.931   4.019   3.305
 4052TIP3    H112101   0.879   3.966   3.244
 4052TIP3    H212102   0.890   4.006   3.390
 4053TIP3   OH212103   5.146   3.227   0.233
 4053TIP3    H112104   5.111   3.193   0.315
 4053TIP3    H212105   5.215   3.288   0.259
 4054TIP3   OH212106   0.146   0.060   2.328
 4054TIP3    H112107   0.191   0.124   2.383
 4054TIP3    H212108   0.076   0.110   2.285
 4055TIP3   OH212109   4.940   5.227   1.253
 4055TIP3    H112110   4.892   5.304   1.283
 4055TIP3    H212111   4.994   5.202   1.328
 4056TIP3   OH212112   3.825   6.721   5.566
 4056TIP3    H112113   3.868   6.641   5.596
 4056TIP3    H212114   3.790   6.699   5.480
 4057TIP3   OH212115   0.784   6.888   6.447
 4057TIP3    H112116   0.872   6.884   6.486
 4057TIP3    H212117   0.770   6.800   6.412
 4058TIP3   OH212118   4.556   5.228   4.825
 4058TIP3    H112119   4.558   5.222   4.729
 4058TIP3    H212120   4.481   5.173   4.850
 4059TIP3   OH212121   2.966   0.762   2.889
 4059TIP3    H112122   2.934   0.781   2.977
 4059TIP3    H212123   2.891   0.782   2.832
 4060TIP3   OH212124   2.573   1.342   3.737
 4060TIP3    H112125   2.631   1.387   3.799
 4060TIP3    H212126   2.488   1.341   3.780
 4061TIP3   OH212127   5.407   5.760   0.945
 4061TIP3    H112128   5.343   5.692   0.966
 4061TIP3    H212129   5.459   5.770   1.024
 4062TIP3   OH212130   1.110   1.808   5.061
 4062TIP3    H112131   1.054   1.828   4.986
 4062TIP3    H212132   1.124   1.893   5.103
 4063TIP3   OH212133   3.719   6.192   1.278
 4063TIP3    H112134   3.711   6.287   1.291
 4063TIP3    H212135   3.702   6.154   1.364
 4064TIP3   OH212136   3.604   3.018   5.347
 4064TIP3    H112137   3.688   3.002   5.304
 4064TIP3    H212138   3.584   3.109   5.328
 4065TIP3   OH212139   4.218   2.703   2.616
 4065TIP3    H112140   4.150   2.748   2.666
 4065TIP3    H212141   4.298   2.752   2.634
 4066TIP3   OH212142   1.646   0.291   4.537
 4066TIP3    H112143   1.620   0.253   4.453
 4066TIP3    H212144   1.612   0.381   4.534
 4067TIP3   OH212145   8.018   0.671   4.630
 4067TIP3    H112146   8.084   0.696   4.695
 4067TIP3    H212147   7.951   0.739   4.637
 4068TIP3   OH212148   3.982   3.187   4.620
 4068TIP3    H112149   3.907   3.210   4.565
 4068TIP3    H212150   4.058   3.204   4.565
 4069TIP3   OH212151   4.087   4.266   3.030
 4069TIP3    H112152   4.136   4.255   2.949
 4069TIP3    H212153   4.001   4.227   3.012
 4070TIP3   OH212154   5.536   1.893   5.143
 4070TIP3    H112155   5.450   1.910   5.180
 4070TIP3    H212156   5.587   1.858   5.217
 4071TIP3   OH212157   7.895   0.922   1.050
 4071TIP3    H112158   7.933   0.913   1.137
 4071TIP3    H212159   7.890   0.833   1.016
 4072TIP3   OH212160   8.193   6.975   4.085
 4072TIP3    H112161   8.156   6.901   4.132
 4072TIP3    H212162   8.277   6.942   4.051
 4073TIP3   OH212163   6.036   2.876   4.410
 4073TIP3    H112164   6.088   2.798   4.390
 4073TIP3    H212165   6.100   2.944   4.428
 4074TIP3   OH212166   6.130   7.078   4.149
 4074TIP3    H112167   6.079   7.114   4.077
 4074TIP3    H212168   6.150   6.988   4.122
 4075TIP3   OH212169   6.479   2.090   5.824
 4075TIP3    H112170   6.431   2.100   5.906
 4075TIP3    H212171   6.571   2.093   5.850
 4076TIP3   OH212172   3.729   6.315   3.245
 4076TIP3    H112173   3.702   6.397   3.286
 4076TIP3    H212174   3.667   6.250   3.279
 4077TIP3   OH212175   1.869   5.661   4.866
 4077TIP3    H112176   1.860   5.756   4.859
 4077TIP3    H212177   1.840   5.640   4.955
 4078TIP3   OH212178   3.116   2.000   5.589
 4078TIP3    H112179   3.200   1.992   5.632
 4078TIP3    H212180   3.097   1.911   5.557
 4079TIP3   OH212181   6.048   2.174   1.427
 4079TIP3    H112182   5.954   2.161   1.440
 4079TIP3    H212183   6.076   2.225   1.504
 4080TIP3   OH212184   1.013   6.251   5.928
 4080TIP3    H112185   0.967   6.168   5.940
 4080TIP3    H212186   1.070   6.259   6.005
 4081TIP3   OH212187   2.726   5.331   5.851
 4081TIP3    H112188   2.672   5.265   5.895
 4081TIP3    H212189   2.694   5.415   5.886
 4082TIP3   OH212190   1.570   6.587   0.917
 4082TIP3    H112191   1.546   6.550   1.001
 4082TIP3    H212192   1.630   6.659   0.939
 4083TIP3   OH212193   7.023   1.342   4.650
 4083TIP3    H112194   7.019   1.325   4.556
 4083TIP3    H212195   7.015   1.255   4.690
 4084TIP3   OH212196   2.980   4.094   4.188
 4084TIP3    H112197   3.041   4.039   4.237
 4084TIP3    H212198   2.992   4.182   4.224
 4085TIP3   OH212199   3.301   0.359   1.738
 4085TIP3    H112200   3.379   0.334   1.690
 4085TIP3    H212201   3.229   0.317   1.691
 4086TIP3   OH212202   1.010   3.810   4.076
 4086TIP3    H112203   1.001   3.902   4.054
 4086TIP3    H212204   1.103   3.798   4.093
 4087TIP3   OH212205   6.582   0.479   0.629
 4087TIP3    H112206   6.548   0.412   0.688
 4087TIP3    H212207   6.506   0.509   0.579
 4088TIP3   OH212208   2.601   3.611   2.425
 4088TIP3    H112209   2.663   3.683   2.429
 4088TIP3    H212210   2.545   3.622   2.502
 4089TIP3   OH212211   2.432   2.859   6.043
 4089TIP3    H112212   2.504   2.799   6.022
 4089TIP3    H212213   2.365   2.839   5.978
 4090TIP3   OH212214   3.741   2.825   5.555
 4090TIP3    H112215   3.680   2.830   5.481
 4090TIP3    H212216   3.782   2.911   5.558
 4091TIP3   OH212217   0.504   5.769   0.991
 4091TIP3    H112218   0.409   5.759   0.983
 4091TIP3    H212219   0.519   5.863   0.994
 4092TIP3   OH212220   6.877   2.422   3.264
 4092TIP3    H112221   6.785   2.399   3.279
 4092TIP3    H212222   6.905   2.463   3.346
 4093TIP3   OH212223   0.016   6.748   4.664
 4093TIP3    H112224   0.063   6.806   4.724
 4093TIP3    H212225   0.029   6.787   4.577
 4094TIP3   OH212226   0.966   6.473   3.415
 4094TIP3    H112227   1.006   6.444   3.334
 4094TIP3    H212228   0.986   6.566   3.420
 4095TIP3   OH212229   2.750   2.051   5.153
 4095TIP3    H112230   2.747   2.106   5.231
 4095TIP3    H212231   2.843   2.048   5.129
 4096TIP3   OH212232   2.334   7.794   1.587
 4096TIP3    H112233   2.425   7.793   1.617
 4096TIP3    H212234   2.286   7.744   1.654
 4097TIP3   OH212235   5.432   4.516   2.295
 4097TIP3    H112236   5.417   4.577   2.368
 4097TIP3    H212237   5.526   4.499   2.296
 4098TIP3   OH212238   5.901   3.320   1.134
 4098TIP3    H112239   5.831   3.359   1.186
 4098TIP3    H212240   5.858   3.292   1.053
 4099TIP3   OH212241   6.609   5.364   5.771
 4099TIP3    H112242   6.634   5.387   5.682
 4099TIP3    H212243   6.620   5.269   5.775
 4100TIP3   OH212244   4.225   7.709   3.968
 4100TIP3    H112245   4.156   7.658   3.927
 4100TIP3    H212246   4.187   7.797   3.978
 4101TIP3   OH212247   6.875   3.355   0.179
 4101TIP3    H112248   6.834   3.291   0.121
 4101TIP3    H212249   6.808   3.376   0.243
 4102TIP3   OH212250   0.713   6.175   0.612
 4102TIP3    H112251   0.709   6.116   0.537
 4102TIP3    H212252   0.759   6.126   0.680
 4103TIP3   OH212253   2.653   1.751   1.240
 4103TIP3    H112254   2.721   1.791   1.294
 4103TIP3    H212255   2.697   1.678   1.197
 4104TIP3   OH212256   6.422   4.556   4.578
 4104TIP3    H112257   6.517   4.570   4.574
 4104TIP3    H212258   6.385   4.643   4.593
 4105TIP3   OH212259   3.552   1.730   5.798
 4105TIP3    H112260   3.595   1.779   5.867
 4105TIP3    H212261   3.519   1.651   5.841
 4106TIP3   OH212262   7.951   5.772   4.234
 4106TIP3    H112263   7.937   5.866   4.224
 4106TIP3    H212264   7.886   5.744   4.298
 4107TIP3   OH212265   1.887   3.286   3.533
 4107TIP3    H112266   1.955   3.351   3.546
 4107TIP3    H212267   1.891   3.264   3.440
 4108TIP3   OH212268   2.583   7.182   4.996
 4108TIP3    H112269   2.610   7.109   4.939
 4108TIP3    H212270   2.530   7.238   4.939
 4109TIP3   OH212271   6.548   4.060   0.423
 4109TIP3    H112272   6.605   4.115   0.476
 4109TIP3    H212273   6.460   4.092   0.441
 4110TIP3   OH212274   5.559   1.041   5.323
 4110TIP3    H112275   5.621   1.100   5.366
 4110TIP3    H212276   5.563   1.065   5.230
 4111TIP3   OH212277   4.019   5.641   6.436
 4111TIP3    H112278   4.085   5.655   6.368
 4111TIP3    H212279   3.938   5.624   6.389
 4112TIP3   OH212280   7.698   2.637   1.727
 4112TIP3    H112281   7.709   2.731   1.717
 4112TIP3    H212282   7.720   2.601   1.641
 4113TIP3   OH212283   3.436   5.330   4.062
 4113TIP3    H112284   3.385   5.260   4.102
 4113TIP3    H212285   3.399   5.339   3.974
 4114TIP3   OH212286   6.664   2.991   5.828
 4114TIP3    H112287   6.662   2.959   5.918
 4114TIP3    H212288   6.742   3.045   5.823
 4115TIP3   OH212289   5.825   1.747   1.650
 4115TIP3    H112290   5.788   1.737   1.563
 4115TIP3    H212291   5.914   1.778   1.635
 4116TIP3   OH212292   8.304   0.417   3.554
 4116TIP3    H112293   8.219   0.379   3.576
 4116TIP3    H212294   8.288   0.512   3.553
 4117TIP3   OH212295   1.907   5.507   5.330
 4117TIP3    H112296   1.827   5.468   5.364
 4117TIP3    H212297   1.971   5.436   5.331
 4118TIP3   OH212298   2.184   3.014   0.009
 4118TIP3    H112299   2.223   3.071   0.075
 4118TIP3    H212300   2.106   2.978   0.050
 4119TIP3   OH212301   3.030   5.149   4.702
 4119TIP3    H112302   3.076   5.070   4.730
 4119TIP3    H212303   2.959   5.159   4.766
 4120TIP3   OH212304   6.754   2.747   4.897
 4120TIP3    H112305   6.824   2.795   4.940
 4120TIP3    H212306   6.785   2.732   4.808
 4121TIP3   OH212307   4.112   4.624   0.192
 4121TIP3    H112308   4.072   4.646   0.276
 4121TIP3    H212309   4.038   4.604   0.134
 4122TIP3   OH212310   3.479   6.176   3.402
 4122TIP3    H112311   3.567   6.153   3.433
 4122TIP3    H212312   3.433   6.203   3.481
 4123TIP3   OH212313   0.930   3.628   6.121
 4123TIP3    H112314   0.996   3.598   6.183
 4123TIP3    H212315   0.910   3.717   6.149
 4124TIP3   OH212316   3.446   1.408   2.508
 4124TIP3    H112317   3.397   1.473   2.458
 4124TIP3    H212318   3.382   1.339   2.526
 4125TIP3   OH212319   6.210   5.193   5.981
 4125TIP3    H112320   6.174   5.278   5.957
 4125TIP3    H212321   6.229   5.200   6.075
 4126TIP3   OH212322   8.264   6.478   2.265
 4126TIP3    H112323   8.308   6.397   2.240
 4126TIP3    H212324   8.174   6.468   2.232
 4127TIP3   OH212325   7.381   3.661   3.962
 4127TIP3    H112326   7.464   3.624   3.990
 4127TIP3    H212327   7.363   3.619   3.878
 4128TIP3   OH212328   2.584   6.116   1.227
 4128TIP3    H112329   2.491   6.094   1.231
 4128TIP3    H212330   2.606   6.109   1.134
 4129TIP3   OH212331   4.501   1.686   6.246
 4129TIP3    H112332   4.490   1.772   6.287
 4129TIP3    H212333   4.571   1.700   6.182
 4130TIP3   OH212334   6.832   7.199   2.540
 4130TIP3    H112335   6.850   7.256   2.466
 4130TIP3    H212336   6.909   7.208   2.596
 4131TIP3   OH212337   1.415   1.583   1.068
 4131TIP3    H112338   1.429   1.628   1.151
 4131TIP3    H212339   1.339   1.627   1.030
 4132TIP3   OH212340   5.811   7.242   0.280
 4132TIP3    H112341   5.870   7.205   0.214
 4132TIP3    H212342   5.724   7.215   0.252
 4133TIP3   OH212343   4.736   4.535   3.376
 4133TIP3    H112344   4.674   4.562   3.444
 4133TIP3    H212345   4.705   4.578   3.296
 4134TIP3   OH212346   4.713   7.676   0.221
 4134TIP3    H112347   4.747   7.647   0.306
 4134TIP3    H212348   4.626   7.637   0.215
 4135TIP3   OH212349   3.607   0.245   3.074
 4135TIP3    H112350   3.513   0.233   3.068
 4135TIP3    H212351   3.628   0.310   3.008
 4136TIP3   OH212352   3.065   3.948   2.451
 4136TIP3    H112353   3.034   4.012   2.387
 4136TIP3    H212354   3.156   3.930   2.426
 4137TIP3   OH212355   1.576   1.836   1.661
 4137TIP3    H112356   1.504   1.843   1.598
 4137TIP3    H212357   1.643   1.786   1.615
 4138TIP3   OH212358   1.051   6.939   6.547
 4138TIP3    H112359   1.091   6.853   6.560
 4138TIP3    H212360   1.124   6.997   6.528
 4139TIP3   OH212361   1.796   1.654   3.471
 4139TIP3    H112362   1.849   1.646   3.391
 4139TIP3    H212363   1.854   1.624   3.541
 4140TIP3   OH212364   5.183   5.329   1.664
 4140TIP3    H112365   5.223   5.269   1.727
 4140TIP3    H212366   5.243   5.404   1.661
 4141TIP3   OH212367   0.639   2.732   5.005
 4141TIP3    H112368   0.614   2.813   4.960
 4141TIP3    H212369   0.584   2.731   5.083
 4142TIP3   OH212370   0.708   1.314   4.216
 4142TIP3    H112371   0.777   1.248   4.223
 4142TIP3    H212372   0.740   1.374   4.148
 4143TIP3   OH212373   3.341   3.856   5.106
 4143TIP3    H112374   3.424   3.902   5.122
 4143TIP3    H212375   3.293   3.914   5.047
 4144TIP3   OH212376   4.470   0.452   4.529
 4144TIP3    H112377   4.469   0.375   4.587
 4144TIP3    H212378   4.491   0.416   4.443
 4145TIP3   OH212379   2.196   0.572   4.885
 4145TIP3    H112380   2.201   0.617   4.969
 4145TIP3    H212381   2.213   0.641   4.821
 4146TIP3   OH212382   3.249   2.817   2.306
 4146TIP3    H112383   3.310   2.822   2.380
 4146TIP3    H212384   3.286   2.876   2.241
 4147TIP3   OH212385   4.727   5.612   5.871
 4147TIP3    H112386   4.782   5.569   5.936
 4147TIP3    H212387   4.777   5.606   5.790
 4148TIP3   OH212388   4.311   7.114   3.381
 4148TIP3    H112389   4.234   7.118   3.324
 4148TIP3    H212390   4.278   7.139   3.468
 4149TIP3   OH212391   3.425   2.645   2.035
 4149TIP3    H112392   3.455   2.735   2.025
 4149TIP3    H212393   3.330   2.652   2.042
 4150TIP3   OH212394   8.073   3.032   2.600
 4150TIP3    H112395   7.985   3.064   2.620
 4150TIP3    H212396   8.122   3.044   2.682
 4151TIP3   OH212397   7.822   3.658   4.028
 4151TIP3    H112398   7.887   3.705   3.974
 4151TIP3    H212399   7.832   3.696   4.115
 4152TIP3   OH212400   3.814   0.808   1.260
 4152TIP3    H112401   3.786   0.866   1.189
 4152TIP3    H212402   3.905   0.788   1.239
 4153TIP3   OH212403   1.332   5.327   5.785
 4153TIP3    H112404   1.259   5.277   5.821
 4153TIP3    H212405   1.377   5.363   5.862
 4154TIP3   OH212406   7.152   0.684   4.820
 4154TIP3    H112407   7.153   0.671   4.915
 4154TIP3    H212408   7.221   0.628   4.787
 4155TIP3   OH212409   0.699   2.574   2.866
 4155TIP3    H112410   0.772   2.636   2.864
 4155TIP3    H212411   0.683   2.553   2.774
 4156TIP3   OH212412   5.574   2.647   6.598
 4156TIP3    H112413   5.528   2.563   6.606
 4156TIP3    H212414   5.612   2.645   6.510
 4157TIP3   OH212415   1.044   4.271   3.205
 4157TIP3    H112416   1.115   4.244   3.148
 4157TIP3    H212417   1.001   4.190   3.232
 4158TIP3   OH212418   5.956   7.221   0.053
 4158TIP3    H112419   5.895   7.176  -0.006
 4158TIP3    H212420   6.038   7.172   0.043
 4159TIP3   OH212421   2.995   6.594   3.604
 4159TIP3    H112422   2.977   6.577   3.512
 4159TIP3    H212423   2.926   6.546   3.651
 4160TIP3   OH212424   6.643   0.568   1.472
 4160TIP3    H112425   6.669   0.596   1.384
 4160TIP3    H212426   6.722   0.577   1.524
 4161TIP3   OH212427   7.405   2.382   2.108
 4161TIP3    H112428   7.363   2.313   2.056
 4161TIP3    H212429   7.454   2.334   2.175
 4162TIP3   OH212430   0.559   7.548   5.960
 4162TIP3    H112431   0.564   7.630   6.010
 4162TIP3    H212432   0.648   7.511   5.966
 4163TIP3   OH212433   7.718   5.108   4.337
 4163TIP3    H112434   7.697   5.201   4.330
 4163TIP3    H212435   7.761   5.086   4.254
 4164TIP3   OH212436   7.556   1.116   1.073
 4164TIP3    H112437   7.583   1.040   1.125
 4164TIP3    H212438   7.580   1.093   0.983
 4165TIP3   OH212439   1.403   2.529   3.659
 4165TIP3    H112440   1.456   2.498   3.586
 4165TIP3    H212441   1.456   2.509   3.737
 4166TIP3   OH212442   6.052   1.858   1.498
 4166TIP3    H112443   6.028   1.861   1.405
 4166TIP3    H212444   6.049   1.949   1.526
 4167TIP3   OH212445   3.481   6.118   2.563
 4167TIP3    H112446   3.430   6.177   2.507
 4167TIP3    H212447   3.513   6.051   2.503
 4168TIP3   OH212448   0.173   5.140   3.478
 4168TIP3    H112449   0.100   5.159   3.537
 4168TIP3    H212450   0.198   5.225   3.443
 4169TIP3   OH212451   5.886   4.323   5.567
 4169TIP3    H112452   5.891   4.358   5.656
 4169TIP3    H212453   5.870   4.399   5.512
 4170TIP3   OH212454   2.937   6.335   1.926
 4170TIP3    H112455   3.008   6.280   1.960
 4170TIP3    H212456   2.980   6.389   1.859
 4171TIP3   OH212457   6.424   4.452   6.232
 4171TIP3    H112458   6.340   4.411   6.254
 4171TIP3    H212459   6.470   4.386   6.179
 4172TIP3   OH212460   4.350   1.090   1.636
 4172TIP3    H112461   4.311   1.005   1.655
 4172TIP3    H212462   4.303   1.121   1.558
 4173TIP3   OH212463   1.275   6.610   4.695
 4173TIP3    H112464   1.236   6.557   4.625
 4173TIP3    H212465   1.259   6.559   4.775
 4174TIP3   OH212466   5.836   3.140   6.486
 4174TIP3    H112467   5.764   3.178   6.537
 4174TIP3    H212468   5.816   3.047   6.482
 4175TIP3   OH212469   5.848   1.250   0.115
 4175TIP3    H112470   5.861   1.337   0.154
 4175TIP3    H212471   5.915   1.196   0.157
 4176TIP3   OH212472   0.904   1.099   4.470
 4176TIP3    H112473   0.996   1.119   4.451
 4176TIP3    H212474   0.885   1.148   4.550
 4177TIP3   OH212475   6.636   1.906   5.259
 4177TIP3    H112476   6.692   1.974   5.299
 4177TIP3    H212477   6.547   1.935   5.277
 4178TIP3   OH212478   2.414   5.606   2.107
 4178TIP3    H112479   2.393   5.687   2.155
 4178TIP3    H212480   2.490   5.629   2.054
 4179TIP3   OH212481   6.222   3.728   3.440
 4179TIP3    H112482   6.311   3.692   3.449
 4179TIP3    H212483   6.230   3.794   3.371
 4180TIP3   OH212484   5.079   6.014   3.745
 4180TIP3    H112485   5.154   6.069   3.770
 4180TIP3    H212486   5.011   6.036   3.808
 4181TIP3   OH212487   3.641   5.639   0.889
 4181TIP3    H112488   3.709   5.578   0.862
 4181TIP3    H212489   3.623   5.616   0.980
 4182TIP3   OH212490   3.022   4.335   5.354
 4182TIP3    H112491   2.946   4.330   5.297
 4182TIP3    H212492   3.017   4.422   5.394
 4183TIP3   OH212493   1.521   5.409   2.876
 4183TIP3    H112494   1.494   5.319   2.859
 4183TIP3    H212495   1.617   5.406   2.876
 4184TIP3   OH212496   0.268   2.714   0.805
 4184TIP3    H112497   0.261   2.667   0.888
 4184TIP3    H212498   0.330   2.663   0.754
 4185TIP3   OH212499   0.215   1.356   3.195
 4185TIP3    H112500   0.217   1.281   3.136
 4185TIP3    H212501   0.283   1.336   3.260
 4186TIP3   OH212502   7.396   5.199   1.198
 4186TIP3    H112503   7.448   5.153   1.264
 4186TIP3    H212504   7.373   5.132   1.134
 4187TIP3   OH212505   0.849   2.220   3.111
 4187TIP3    H112506   0.815   2.302   3.076
 4187TIP3    H212507   0.772   2.168   3.131
 4188TIP3   OH212508   3.763   5.689   6.059
 4188TIP3    H112509   3.780   5.778   6.090
 4188TIP3    H212510   3.849   5.649   6.053
 4189TIP3   OH212511   6.974   6.558   3.921
 4189TIP3    H112512   7.045   6.494   3.914
 4189TIP3    H212513   6.961   6.568   4.016
 4190TIP3   OH212514   6.369   6.669   5.355
 4190TIP3    H112515   6.323   6.610   5.295
 4190TIP3    H212516   6.346   6.638   5.442
 4191TIP3   OH212517   3.452   3.326   2.569
 4191TIP3    H112518   3.391   3.395   2.595
 4191TIP3    H212519   3.465   3.274   2.648
 4192TIP3   OH212520   3.280   6.001   3.042
 4192TIP3    H112521   3.221   5.993   2.968
 4192TIP3    H212522   3.363   6.029   3.004
 4193TIP3   OH212523   7.975   3.075   2.281
 4193TIP3    H112524   7.977   3.156   2.331
 4193TIP3    H212525   7.907   3.089   2.215
 4194TIP3   OH212526   3.366   6.455   1.123
 4194TIP3    H112527   3.314   6.490   1.195
 4194TIP3    H212528   3.340   6.506   1.047
 4195TIP3   OH212529   1.817   6.221   0.130
 4195TIP3    H112530   1.896   6.184   0.168
 4195TIP3    H212531   1.781   6.151   0.077
 4196TIP3   OH212532   5.478   3.280   2.377
 4196TIP3    H112533   5.552   3.243   2.330
 4196TIP3    H212534   5.421   3.205   2.396
 4197TIP3   OH212535   6.338   4.827   4.607
 4197TIP3    H112536   6.321   4.890   4.677
 4197TIP3    H212537   6.347   4.882   4.529
 4198TIP3   OH212538   2.750   0.059   3.752
 4198TIP3    H112539   2.727   0.033   3.662
 4198TIP3    H212540   2.703   0.141   3.766
 4199TIP3   OH212541   7.316   1.212   3.570
 4199TIP3    H112542   7.245   1.211   3.634
 4199TIP3    H212543   7.310   1.299   3.529
 4200TIP3   OH212544   4.302   2.050   0.323
 4200TIP3    H112545   4.312   1.956   0.340
 4200TIP3    H212546   4.364   2.068   0.252
 4201TIP3   OH212547   2.151   0.900   1.225
 4201TIP3    H112548   2.057   0.881   1.228
 4201TIP3    H212549   2.176   0.910   1.317
 4202TIP3   OH212550   4.082   4.710   2.355
 4202TIP3    H112551   4.078   4.625   2.400
 4202TIP3    H212552   4.152   4.758   2.399
 4203TIP3   OH212553   2.179   1.651   5.474
 4203TIP3    H112554   2.271   1.652   5.449
 4203TIP3    H212555   2.179   1.619   5.564
 4204TIP3   OH212556   3.572   1.972   1.531
 4204TIP3    H112557   3.652   1.958   1.582
 4204TIP3    H212558   3.501   1.964   1.595
 4205TIP3   OH212559   2.989   4.979   3.397
 4205TIP3    H112560   3.046   4.908   3.368
 4205TIP3    H212561   3.017   4.998   3.486
 4206TIP3   OH212562   0.063   3.803   6.225
 4206TIP3    H112563   0.087   3.881   6.174
 4206TIP3    H212564   0.016   3.838   6.301
 4207TIP3   OH212565   7.772   6.987   1.526
 4207TIP3    H112566   7.712   7.000   1.452
 4207TIP3    H212567   7.747   6.901   1.561
 4208TIP3   OH212568   5.676   7.399   6.419
 4208TIP3    H112569   5.717   7.327   6.371
 4208TIP3    H212570   5.610   7.433   6.359
 4209TIP3   OH212571   3.128   2.562   1.993
 4209TIP3    H112572   3.042   2.599   2.014
 4209TIP3    H212573   3.153   2.603   1.910
 4210TIP3   OH212574   3.648   4.725   2.517
 4210TIP3    H112575   3.660   4.645   2.569
 4210TIP3    H212576   3.661   4.697   2.427
 4211TIP3   OH212577   3.925   5.686   2.885
 4211TIP3    H112578   3.864   5.676   2.959
 4211TIP3    H212579   3.887   5.635   2.814
 4212TIP3   OH212580   2.055   3.854   3.486
 4212TIP3    H112581   2.082   3.945   3.501
 4212TIP3    H212582   2.025   3.852   3.395
 4213TIP3   OH212583   3.761   2.098   0.289
 4213TIP3    H112584   3.749   2.136   0.202
 4213TIP3    H212585   3.730   2.008   0.280
 4214TIP3   OH212586   3.837   2.944   5.264
 4214TIP3    H112587   3.858   2.851   5.259
 4214TIP3    H212588   3.914   2.983   5.306
 4215TIP3   OH212589   6.882   6.345   6.239
 4215TIP3    H112590   6.890   6.373   6.330
 4215TIP3    H212591   6.971   6.348   6.205
 4216TIP3   OH212592   0.641   5.659   5.253
 4216TIP3    H112593   0.656   5.565   5.253
 4216TIP3    H212594   0.722   5.696   5.286
 4217TIP3   OH212595   6.294   7.236   0.301
 4217TIP3    H112596   6.284   7.317   0.251
 4217TIP3    H212597   6.205   7.211   0.324
 4218TIP3   OH212598   6.529   7.093   1.661
 4218TIP3    H112599   6.564   7.008   1.632
 4218TIP3    H212600   6.578   7.114   1.740
 4219TIP3   OH212601   2.619   2.274   4.981
 4219TIP3    H112602   2.587   2.355   5.018
 4219TIP3    H212603   2.688   2.245   5.041
 4220TIP3   OH212604   7.245   5.689   5.716
 4220TIP3    H112605   7.337   5.704   5.697
 4220TIP3    H212606   7.201   5.770   5.692
 4221TIP3   OH212607   2.906   2.750   2.300
 4221TIP3    H112608   2.981   2.806   2.321
 4221TIP3    H212609   2.912   2.737   2.205
 4222TIP3   OH212610   5.471   7.249   5.933
 4222TIP3    H112611   5.457   7.155   5.931
 4222TIP3    H212612   5.566   7.260   5.925
 4223TIP3   OH212613   2.249   3.067   0.880
 4223TIP3    H112614   2.188   3.097   0.947
 4223TIP3    H212615   2.203   3.083   0.797
 4224TIP3   OH212616   0.818   6.529   5.729
 4224TIP3    H112617   0.764   6.453   5.750
 4224TIP3    H212618   0.778   6.601   5.779
 4225TIP3   OH212619   8.289   7.117   1.910
 4225TIP3    H112620   8.285   7.185   1.843
 4225TIP3    H212621   8.304   7.165   1.992
 4226TIP3   OH212622   5.300   4.228   4.379
 4226TIP3    H112623   5.321   4.321   4.379
 4226TIP3    H212624   5.221   4.220   4.433
 4227TIP3   OH212625   2.844   0.327   1.640
 4227TIP3    H112626   2.771   0.370   1.595
 4227TIP3    H212627   2.807   0.245   1.672
 4228TIP3   OH212628   6.547   4.576   4.915
 4228TIP3    H112629   6.483   4.647   4.908
 4228TIP3    H212630   6.586   4.571   4.828
 4229TIP3   OH212631   1.649   7.602   1.725
 4229TIP3    H112632   1.711   7.668   1.691
 4229TIP3    H212633   1.602   7.648   1.795
 4230TIP3   OH212634   3.345   4.893   3.954
 4230TIP3    H112635   3.260   4.849   3.946
 4230TIP3    H212636   3.386   4.853   4.031
 4231TIP3   OH212637   7.670   1.820   5.264
 4231TIP3    H112638   7.636   1.824   5.354
 4231TIP3    H212639   7.657   1.729   5.238
 4232TIP3   OH212640   0.299   3.267   1.170
 4232TIP3    H112641   0.356   3.333   1.130
 4232TIP3    H212642   0.216   3.313   1.183
 4233TIP3   OH212643   0.829   5.148   6.213
 4233TIP3    H112644   0.846   5.214   6.145
 4233TIP3    H212645   0.808   5.199   6.291
 4234TIP3   OH212646   8.035   5.410   6.745
 4234TIP3    H112647   8.124   5.398   6.712
 4234TIP3    H212648   7.991   5.327   6.728
 4235TIP3   OH212649   5.785   7.675   2.190
 4235TIP3    H112650   5.731   7.742   2.231
 4235TIP3    H212651   5.870   7.718   2.176
 4236TIP3   OH212652   1.524   2.739   3.495
 4236TIP3    H112653   1.512   2.681   3.570
 4236TIP3    H212654   1.597   2.796   3.520
 4237TIP3   OH212655   6.021   3.178   5.932
 4237TIP3    H112656   5.985   3.265   5.915
 4237TIP3    H212657   6.072   3.188   6.012
 4238TIP3   OH212658   5.101   6.937   6.464
 4238TIP3    H112659   5.049   7.009   6.499
 4238TIP3    H212660   5.143   6.899   6.541
 4239TIP3   OH212661   2.861   2.090   3.467
 4239TIP3    H112662   2.836   2.182   3.481
 4239TIP3    H212663   2.954   2.087   3.491
 4240TIP3   OH212664   7.007   2.939   3.625
 4240TIP3    H112665   6.993   2.885   3.703
 4240TIP3    H212666   7.037   3.023   3.659
 4241TIP3   OH212667   1.087   5.557   2.803
 4241TIP3    H112668   1.116   5.550   2.894
 4241TIP3    H212669   0.992   5.564   2.809
 4242TIP3   OH212670   5.899   4.696   1.915
 4242TIP3    H112671   5.810   4.732   1.918
 4242TIP3    H212672   5.949   4.751   1.975
 4243TIP3   OH212673   4.490   7.557   6.035
 4243TIP3    H112674   4.559   7.498   6.066
 4243TIP3    H212675   4.496   7.634   6.092
 4244TIP3   OH212676   3.527   6.993   5.328
 4244TIP3    H112677   3.554   7.051   5.400
 4244TIP3    H212678   3.606   6.980   5.276
 4245TIP3   OH212679   6.155   5.831   6.507
 4245TIP3    H112680   6.249   5.837   6.522
 4245TIP3    H212681   6.122   5.776   6.578
 4246TIP3   OH212682   1.643   2.178   5.663
 4246TIP3    H112683   1.630   2.147   5.574
 4246TIP3    H212684   1.584   2.125   5.716
 4247TIP3   OH212685   0.206   6.662   1.731
 4247TIP3    H112686   0.248   6.639   1.648
 4247TIP3    H212687   0.276   6.699   1.784
 4248TIP3   OH212688   8.233   6.341   0.414
 4248TIP3    H112689   8.248   6.256   0.372
 4248TIP3    H212690   8.153   6.327   0.465
 4249TIP3   OH212691   3.485   1.220   5.994
 4249TIP3    H112692   3.466   1.181   6.079
 4249TIP3    H212693   3.412   1.193   5.939
 4250TIP3   OH212694   2.438   3.777   3.823
 4250TIP3    H112695   2.398   3.707   3.874
 4250TIP3    H212696   2.367   3.839   3.806
 4251TIP3   OH212697   5.267   3.492   1.062
 4251TIP3    H112698   5.193   3.432   1.051
 4251TIP3    H212699   5.284   3.526   0.974
 4252TIP3   OH212700   7.673   3.946   0.898
 4252TIP3    H112701   7.681   3.879   0.965
 4252TIP3    H212702   7.579   3.958   0.885
 4253TIP3   OH212703   5.409   4.375   1.431
 4253TIP3    H112704   5.339   4.401   1.492
 4253TIP3    H212705   5.439   4.290   1.464
 4254TIP3   OH212706   7.771   1.945   5.502
 4254TIP3    H112707   7.793   1.896   5.423
 4254TIP3    H212708   7.821   2.026   5.495
 4255TIP3   OH212709   3.306   2.336   1.627
 4255TIP3    H112710   3.394   2.335   1.664
 4255TIP3    H212711   3.311   2.277   1.551
 4256TIP3   OH212712   7.239   0.509   5.757
 4256TIP3    H112713   7.283   0.585   5.796
 4256TIP3    H212714   7.245   0.524   5.663
 4257TIP3   OH212715   3.274   5.218   4.593
 4257TIP3    H112716   3.183   5.207   4.618
 4257TIP3    H212717   3.276   5.299   4.541
 4258TIP3   OH212718   6.006   3.826   6.738
 4258TIP3    H112719   5.996   3.741   6.693
 4258TIP3    H212720   6.018   3.803   6.830
 4259TIP3   OH212721   2.987   7.663   4.185
 4259TIP3    H112722   2.969   7.573   4.157
 4259TIP3    H212723   2.903   7.696   4.217
 4260TIP3   OH212724   4.413   7.213   0.608
 4260TIP3    H112725   4.420   7.134   0.662
 4260TIP3    H212726   4.442   7.184   0.521
 4261TIP3   OH212727   4.229   7.827   4.245
 4261TIP3    H112728   4.271   7.827   4.331
 4261TIP3    H212729   4.289   7.778   4.189
 4262TIP3   OH212730   6.947   4.850   2.631
 4262TIP3    H112731   6.915   4.813   2.714
 4262TIP3    H212732   6.879   4.913   2.606
 4263TIP3   OH212733   0.263   1.340   5.727
 4263TIP3    H112734   0.174   1.350   5.691
 4263TIP3    H212735   0.257   1.264   5.784
 4264TIP3   OH212736   5.439   1.275   1.278
 4264TIP3    H112737   5.362   1.224   1.304
 4264TIP3    H212738   5.432   1.282   1.183
 4265TIP3   OH212739   4.544   1.653   0.627
 4265TIP3    H112740   4.499   1.568   0.621
 4265TIP3    H212741   4.571   1.659   0.719
 4266TIP3   OH212742   7.138   0.347   0.965
 4266TIP3    H112743   7.052   0.389   0.973
 4266TIP3    H212744   7.124   0.258   0.996
 4267TIP3   OH212745   6.700   7.657   2.213
 4267TIP3    H112746   6.718   7.715   2.287
 4267TIP3    H212747   6.629   7.702   2.166
 4268TIP3   OH212748   3.347   2.459   4.233
 4268TIP3    H112749   3.299   2.493   4.157
 4268TIP3    H212750   3.434   2.437   4.199
 4269TIP3   OH212751   1.478   5.721   4.852
 4269TIP3    H112752   1.409   5.667   4.814
 4269TIP3    H212753   1.440   5.753   4.935
 4270TIP3   OH212754   0.025   2.023   6.467
 4270TIP3    H112755   0.016   2.084   6.541
 4270TIP3    H212756   0.095   1.964   6.494
 4271TIP3   OH212757   2.392   0.628   2.852
 4271TIP3    H112758   2.304   0.666   2.857
 4271TIP3    H212759   2.377   0.535   2.835
 4272TIP3   OH212760   3.352   3.374   0.815
 4272TIP3    H112761   3.374   3.413   0.900
 4272TIP3    H212762   3.299   3.440   0.771
 4273TIP3   OH212763   7.338   5.183   4.256
 4273TIP3    H112764   7.337   5.107   4.314
 4273TIP3    H212765   7.259   5.173   4.202
 4274TIP3   OH212766   2.835   4.347   2.732
 4274TIP3    H112767   2.854   4.337   2.638
 4274TIP3    H212768   2.743   4.322   2.740
 4275TIP3   OH212769   3.647   3.148   3.221
 4275TIP3    H112770   3.689   3.066   3.197
 4275TIP3    H212771   3.589   3.167   3.148
 4276TIP3   OH212772   2.379   4.678   0.196
 4276TIP3    H112773   2.298   4.660   0.243
 4276TIP3    H212774   2.356   4.747   0.133
 4277TIP3   OH212775   0.498   7.212   6.600
 4277TIP3    H112776   0.437   7.172   6.538
 4277TIP3    H212777   0.442   7.269   6.654
 4278TIP3   OH212778   6.671   0.123   4.799
 4278TIP3    H112779   6.751   0.142   4.847
 4278TIP3    H212780   6.608   0.096   4.866
 4279TIP3   OH212781   3.048   5.816   3.793
 4279TIP3    H112782   3.130   5.821   3.841
 4279TIP3    H212783   2.992   5.881   3.835
 4280TIP3   OH212784   1.885   4.481   3.334
 4280TIP3    H112785   1.801   4.452   3.370
 4280TIP3    H212786   1.948   4.417   3.368
 4281TIP3   OH212787   4.742   1.577   1.777
 4281TIP3    H112788   4.667   1.541   1.824
 4281TIP3    H212789   4.743   1.530   1.694
 4282TIP3   OH212790   7.069   6.273   4.633
 4282TIP3    H112791   7.157   6.300   4.604
 4282TIP3    H212792   7.035   6.349   4.680
 4283TIP3   OH212793   5.283   1.974   4.074
 4283TIP3    H112794   5.235   1.918   4.012
 4283TIP3    H212795   5.376   1.958   4.053
 4284TIP3   OH212796   8.069   1.759   1.586
 4284TIP3    H112797   8.004   1.691   1.604
 4284TIP3    H212798   8.073   1.762   1.490
 4285TIP3   OH212799   3.580   2.570   5.057
 4285TIP3    H112800   3.528   2.589   5.136
 4285TIP3    H212801   3.635   2.495   5.083
 4286TIP3   OH212802   5.497   1.163   4.852
 4286TIP3    H112803   5.578   1.121   4.822
 4286TIP3    H212804   5.524   1.251   4.877
 4287TIP3   OH212805   0.881   1.574   0.896
 4287TIP3    H112806   0.954   1.588   0.956
 4287TIP3    H212807   0.879   1.652   0.841
 4288TIP3   OH212808   0.217   4.836   4.522
 4288TIP3    H112809   0.212   4.870   4.432
 4288TIP3    H212810   0.209   4.741   4.511
 4289TIP3   OH212811   2.370   2.896   0.618
 4289TIP3    H112812   2.368   2.889   0.523
 4289TIP3    H212813   2.303   2.961   0.639
 4290TIP3   OH212814   1.294   0.870   0.090
 4290TIP3    H112815   1.360   0.911   0.034
 4290TIP3    H212816   1.272   0.937   0.154
 4291TIP3   OH212817   1.057   0.166   6.654
 4291TIP3    H112818   1.123   0.234   6.640
 4291TIP3    H212819   1.041   0.131   6.567
 4292TIP3   OH212820   6.095   7.498   5.494
 4292TIP3    H112821   6.133   7.425   5.444
 4292TIP3    H212822   6.042   7.546   5.430
 4293TIP3   OH212823   8.008   0.322   3.820
 4293TIP3    H112824   7.938   0.370   3.775
 4293TIP3    H212825   8.046   0.387   3.880
 4294TIP3   OH212826   5.869   7.060   4.719
 4294TIP3    H112827   5.829   7.140   4.683
 4294TIP3    H212828   5.800   6.994   4.712
 4295TIP3   OH212829   7.904   3.051   3.579
 4295TIP3    H112830   7.985   3.093   3.609
 4295TIP3    H212831   7.889   2.982   3.643
 4296TIP3   OH212832   1.011   1.312   2.693
 4296TIP3    H112833   1.002   1.392   2.744
 4296TIP3    H212834   0.965   1.330   2.612
 4297TIP3   OH212835   4.466   4.250   2.363
 4297TIP3    H112836   4.457   4.175   2.303
 4297TIP3    H212837   4.560   4.259   2.376
 4298TIP3   OH212838   6.554   7.719   3.644
 4298TIP3    H112839   6.582   7.750   3.558
 4298TIP3    H212840   6.461   7.742   3.649
 4299TIP3   OH212841   7.544   1.704   5.511
 4299TIP3    H112842   7.477   1.706   5.442
 4299TIP3    H212843   7.503   1.749   5.584
 4300TIP3   OH212844   5.353   7.706   4.402
 4300TIP3    H112845   5.388   7.669   4.483
 4300TIP3    H212846   5.402   7.787   4.389
 4301TIP3   OH212847   4.509   2.971   3.078
 4301TIP3    H112848   4.596   2.964   3.039
 4301TIP3    H212849   4.491   3.065   3.079
 4302TIP3   OH212850   2.736   4.549   2.415
 4302TIP3    H112851   2.667   4.580   2.473
 4302TIP3    H212852   2.694   4.542   2.329
 4303TIP3   OH212853   6.551   4.349   6.582
 4303TIP3    H112854   6.463   4.380   6.605
 4303TIP3    H212855   6.570   4.281   6.647
 4304TIP3   OH212856   4.455   0.641   6.626
 4304TIP3    H112857   4.382   0.703   6.625
 4304TIP3    H212858   4.514   0.674   6.558
 4305TIP3   OH212859   3.484   4.237   4.023
 4305TIP3    H112860   3.532   4.318   4.007
 4305TIP3    H212861   3.394   4.265   4.042
 4306TIP3   OH212862   2.653   6.017   0.083
 4306TIP3    H112863   2.564   6.023   0.117
 4306TIP3    H212864   2.683   5.930   0.110
 4307TIP3   OH212865   1.657   5.282   2.468
 4307TIP3    H112866   1.617   5.200   2.497
 4307TIP3    H212867   1.695   5.319   2.548
 4308TIP3   OH212868   4.375   6.550   0.999
 4308TIP3    H112869   4.315   6.491   1.045
 4308TIP3    H212870   4.407   6.499   0.925
 4309TIP3   OH212871   5.618   5.908   4.905
 4309TIP3    H112872   5.660   5.822   4.908
 4309TIP3    H212873   5.625   5.941   4.995
 4310TIP3   OH212874   1.778   4.239   5.870
 4310TIP3    H112875   1.749   4.321   5.831
 4310TIP3    H212876   1.728   4.172   5.823
 4311TIP3   OH212877   4.664   1.751   5.993
 4311TIP3    H112878   4.713   1.831   5.972
 4311TIP3    H212879   4.731   1.682   5.995
 4312TIP3   OH212880   6.223   3.959   4.367
 4312TIP3    H112881   6.267   3.974   4.284
 4312TIP3    H212882   6.290   3.977   4.433
 4313TIP3   OH212883   1.866   6.292   6.398
 4313TIP3    H112884   1.824   6.376   6.416
 4313TIP3    H212885   1.837   6.269   6.310
 4314TIP3   OH212886   1.628   3.282   4.560
 4314TIP3    H112887   1.670   3.233   4.631
 4314TIP3    H212888   1.701   3.324   4.514
 4315TIP3   OH212889   4.604   3.300   4.336
 4315TIP3    H112890   4.674   3.256   4.287
 4315TIP3    H212891   4.580   3.238   4.404
 4316TIP3   OH212892   5.809   6.148   3.867
 4316TIP3    H112893   5.780   6.196   3.789
 4316TIP3    H212894   5.797   6.211   3.938
 4317TIP3   OH212895   6.202   0.710   4.157
 4317TIP3    H112896   6.193   0.782   4.094
 4317TIP3    H212897   6.143   0.734   4.229
 4318TIP3   OH212898   0.799   7.414   3.811
 4318TIP3    H112899   0.816   7.508   3.812
 4318TIP3    H212900   0.790   7.390   3.903
 4319TIP3   OH212901   7.911   0.972   3.659
 4319TIP3    H112902   7.861   0.901   3.619
 4319TIP3    H212903   7.880   1.051   3.615
 4320TIP3   OH212904   3.684   5.378   2.906
 4320TIP3    H112905   3.739   5.324   2.849
 4320TIP3    H212906   3.598   5.336   2.903
 4321TIP3   OH212907   1.448   1.175   6.392
 4321TIP3    H112908   1.523   1.122   6.364
 4321TIP3    H212909   1.414   1.213   6.311
 4322TIP3   OH212910   2.482   0.658   3.810
 4322TIP3    H112911   2.548   0.633   3.745
 4322TIP3    H212912   2.447   0.741   3.777
 4323TIP3   OH212913   5.024   4.752   1.213
 4323TIP3    H112914   5.078   4.751   1.292
 4323TIP3    H212915   5.056   4.679   1.161
 4324TIP3   OH212916   3.776   0.417   6.389
 4324TIP3    H112917   3.760   0.503   6.351
 4324TIP3    H212918   3.842   0.378   6.332
 4325TIP3   OH212919   0.544   0.869   5.970
 4325TIP3    H112920   0.501   0.784   5.957
 4325TIP3    H212921   0.485   0.917   6.029
 4326TIP3   OH212922   0.189   4.032   6.138
 4326TIP3    H112923   0.178   4.006   6.046
 4326TIP3    H212924   0.159   4.123   6.141
 4327TIP3   OH212925   1.573   5.345   0.188
 4327TIP3    H112926   1.525   5.417   0.148
 4327TIP3    H212927   1.550   5.269   0.135
 4328TIP3   OH212928   1.021   1.742   0.053
 4328TIP3    H112929   0.975   1.755  -0.030
 4328TIP3    H212930   1.094   1.684   0.030
 4329TIP3   OH212931   2.445   4.831   4.268
 4329TIP3    H112932   2.437   4.791   4.355
 4329TIP3    H212933   2.361   4.813   4.226
 4330TIP3   OH212934   3.826   6.546   4.079
 4330TIP3    H112935   3.800   6.474   4.136
 4330TIP3    H212936   3.818   6.510   3.990
 4331TIP3   OH212937   7.340   4.981   1.019
 4331TIP3    H112938   7.368   4.892   1.041
 4331TIP3    H212939   7.263   4.968   0.963
 4332TIP3   OH212940   0.146   1.896   4.274
 4332TIP3    H112941   0.117   1.985   4.252
 4332TIP3    H212942   0.115   1.883   4.364
 4333TIP3   OH212943   3.646   4.116   6.028
 4333TIP3    H112944   3.582   4.122   5.957
 4333TIP3    H212945   3.633   4.196   6.079
 4334TIP3   OH212946   4.474   0.549   5.656
 4334TIP3    H112947   4.474   0.643   5.636
 4334TIP3    H212948   4.499   0.544   5.748
 4335TIP3   OH212949   1.659   3.304   1.277
 4335TIP3    H112950   1.616   3.389   1.268
 4335TIP3    H212951   1.694   3.305   1.366
 4336TIP3   OH212952   1.104   2.994   3.331
 4336TIP3    H112953   1.142   2.939   3.263
 4336TIP3    H212954   1.086   3.078   3.288
 4337TIP3   OH212955   0.097   5.397   0.734
 4337TIP3    H112956   0.033   5.341   0.690
 4337TIP3    H212957   0.153   5.429   0.663
 4338TIP3   OH212958   8.013   6.057   2.781
 4338TIP3    H112959   7.926   6.099   2.782
 4338TIP3    H212960   8.033   6.046   2.688
 4339TIP3   OH212961   3.594   2.982   2.694
 4339TIP3    H112962   3.544   3.049   2.741
 4339TIP3    H212963   3.646   3.032   2.630
 4340TIP3   OH212964   0.898   2.816   0.012
 4340TIP3    H112965   0.902   2.881  -0.058
 4340TIP3    H212966   0.804   2.802   0.026
 4341TIP3   OH212967   4.371   3.209   4.758
 4341TIP3    H112968   4.321   3.136   4.797
 4341TIP3    H212969   4.317   3.286   4.773
 4342TIP3   OH212970   4.386   0.495   3.694
 4342TIP3    H112971   4.439   0.416   3.699
 4342TIP3    H212972   4.404   0.542   3.775
 4343TIP3   OH212973   1.010   5.873   3.400
 4343TIP3    H112974   1.029   5.834   3.485
 4343TIP3    H212975   1.080   5.937   3.386
 4344TIP3   OH212976   5.364   1.368   4.643
 4344TIP3    H112977   5.377   1.402   4.731
 4344TIP3    H212978   5.417   1.288   4.640
 4345TIP3   OH212979   7.382   4.316   2.977
 4345TIP3    H112980   7.400   4.285   3.066
 4345TIP3    H212981   7.332   4.245   2.937
 4346TIP3   OH212982   7.401   6.258   2.234
 4346TIP3    H112983   7.412   6.231   2.143
 4346TIP3    H212984   7.417   6.352   2.234
 4347TIP3   OH212985   4.011   5.252   0.029
 4347TIP3    H112986   4.033   5.295   0.111
 4347TIP3    H212987   4.094   5.215  -0.002
 4348TIP3   OH212988   6.456   6.324   0.836
 4348TIP3    H112989   6.530   6.353   0.783
 4348TIP3    H212990   6.382   6.376   0.806
 4349TIP3   OH212991   3.324   3.653   6.432
 4349TIP3    H112992   3.240   3.651   6.478
 4349TIP3    H212993   3.302   3.684   6.344
 4350TIP3   OH212994   2.424   6.883   2.772
 4350TIP3    H112995   2.368   6.937   2.828
 4350TIP3    H212996   2.429   6.799   2.818
 4351TIP3   OH212997   4.780   0.910   5.077
 4351TIP3    H112998   4.713   0.880   5.016
 4351TIP3    H212999   4.771   0.854   5.154
 4352TIP3   OH213000   3.050   1.526   2.257
 4352TIP3    H113001   3.041   1.543   2.163
 4352TIP3    H213002   3.003   1.444   2.271
 4353TIP3   OH213003   7.646   6.632   5.321
 4353TIP3    H113004   7.648   6.708   5.379
 4353TIP3    H213005   7.736   6.624   5.288
 4354TIP3   OH213006   6.769   4.829   5.936
 4354TIP3    H113007   6.849   4.874   5.964
 4354TIP3    H213008   6.801   4.745   5.902
 4355TIP3   OH213009   2.355   4.244   1.668
 4355TIP3    H113010   2.369   4.337   1.684
 4355TIP3    H213011   2.442   4.211   1.642
 4356TIP3   OH213012   1.023   7.246   3.065
 4356TIP3    H113013   1.075   7.278   3.139
 4356TIP3    H213014   1.072   7.275   2.988
 4357TIP3   OH213015   2.248   6.591   0.763
 4357TIP3    H113016   2.284   6.580   0.675
 4357TIP3    H213017   2.190   6.667   0.755
 4358TIP3   OH213018   2.166   5.897   2.331
 4358TIP3    H113019   2.112   5.973   2.350
 4358TIP3    H213020   2.152   5.837   2.404
 4359TIP3   OH213021   2.194   2.382   6.698
 4359TIP3    H113022   2.266   2.439   6.671
 4359TIP3    H213023   2.115   2.426   6.666
 4360TIP3   OH213024   6.515   4.883   1.260
 4360TIP3    H113025   6.474   4.830   1.192
 4360TIP3    H213026   6.608   4.881   1.239
 4361TIP3   OH213027   4.643   0.211   6.242
 4361TIP3    H113028   4.661   0.191   6.334
 4361TIP3    H213029   4.547   0.210   6.236
 4362TIP3   OH213030   8.192   6.548   4.298
 4362TIP3    H113031   8.218   6.456   4.298
 4362TIP3    H213032   8.154   6.562   4.384
 4363TIP3   OH213033   3.797   5.047   1.910
 4363TIP3    H113034   3.818   5.067   2.001
 4363TIP3    H213035   3.872   4.997   1.878
 4364TIP3   OH213036   6.657   6.842   2.136
 4364TIP3    H113037   6.700   6.910   2.187
 4364TIP3    H213038   6.725   6.776   2.121
 4365TIP3   OH213039   4.804   0.154   0.608
 4365TIP3    H113040   4.894   0.160   0.642
 4365TIP3    H213041   4.761   0.232   0.644
 4366TIP3   OH213042   3.318   7.446   1.890
 4366TIP3    H113043   3.296   7.517   1.829
 4366TIP3    H213044   3.398   7.407   1.853
 4367TIP3   OH213045   7.191   5.687   1.789
 4367TIP3    H113046   7.106   5.730   1.779
 4367TIP3    H213047   7.180   5.629   1.864
 4368TIP3   OH213048   3.435   2.130   3.302
 4368TIP3    H113049   3.529   2.121   3.285
 4368TIP3    H213050   3.428   2.204   3.363
 4369TIP3   OH213051   2.280   1.124   5.987
 4369TIP3    H113052   2.295   1.049   5.929
 4369TIP3    H213053   2.286   1.088   6.075
 4370TIP3   OH213054   7.061   7.471   3.796
 4370TIP3    H113055   7.068   7.432   3.708
 4370TIP3    H213056   6.969   7.458   3.820
 4371TIP3   OH213057   7.606   2.202   5.784
 4371TIP3    H113058   7.663   2.125   5.790
 4371TIP3    H213059   7.553   2.199   5.864
 4372TIP3   OH213060   4.654   0.743   4.683
 4372TIP3    H113061   4.586   0.788   4.633
 4372TIP3    H213062   4.626   0.751   4.775
 4373TIP3   OH213063   0.036   5.172   4.990
 4373TIP3    H113064   0.078   5.195   4.907
 4373TIP3    H213065  -0.057   5.172   4.971
 4374TIP3   OH213066   3.482   1.240   2.275
 4374TIP3    H113067   3.520   1.254   2.362
 4374TIP3    H213068   3.539   1.176   2.234
 4375TIP3   OH213069   6.355   1.697   0.641
 4375TIP3    H113070   6.294   1.651   0.698
 4375TIP3    H213071   6.436   1.702   0.692
 4376TIP3   OH213072   1.735   3.056   5.401
 4376TIP3    H113073   1.733   3.151   5.412
 4376TIP3    H213074   1.813   3.028   5.448
 4377TIP3   OH213075   6.310   4.176   2.732
 4377TIP3    H113076   6.235   4.161   2.676
 4377TIP3    H213077   6.273   4.189   2.819
 4378TIP3   OH213078   1.593   5.973   1.885
 4378TIP3    H113079   1.594   6.053   1.938
 4378TIP3    H213080   1.667   5.983   1.826
 4379TIP3   OH213081   6.082   6.317   1.357
 4379TIP3    H113082   6.075   6.241   1.414
 4379TIP3    H213083   5.993   6.331   1.325
 4380TIP3   OH213084   5.660   5.301   2.128
 4380TIP3    H113085   5.675   5.251   2.208
 4380TIP3    H213086   5.744   5.299   2.083
 4381TIP3   OH213087   8.186   6.635   2.470
 4381TIP3    H113088   8.250   6.703   2.449
 4381TIP3    H213089   8.223   6.555   2.432
 4382TIP3   OH213090   0.571   1.705   2.828
 4382TIP3    H113091   0.619   1.773   2.781
 4382TIP3    H213092   0.480   1.714   2.798
 4383TIP3   OH213093   1.425   6.543   3.216
 4383TIP3    H113094   1.393   6.459   3.249
 4383TIP3    H213095   1.372   6.559   3.138
 4384TIP3   OH213096   7.554   1.795   6.050
 4384TIP3    H113097   7.622   1.761   5.992
 4384TIP3    H213098   7.591   1.789   6.138
 4385TIP3   OH213099   0.959   6.213   0.183
 4385TIP3    H113100   0.955   6.174   0.271
 4385TIP3    H213101   1.050   6.205   0.157
 4386TIP3   OH213102   7.222   3.411   0.172
 4386TIP3    H113103   7.292   3.377   0.115
 4386TIP3    H213104   7.222   3.505   0.156
 4387TIP3   OH213105   6.220   5.907   2.321
 4387TIP3    H113106   6.254   5.910   2.411
 4387TIP3    H213107   6.160   5.833   2.321
 4388TIP3   OH213108   5.355   2.304   4.609
 4388TIP3    H113109   5.285   2.359   4.644
 4388TIP3    H213110   5.321   2.215   4.613
 4389TIP3   OH213111   4.783   1.031   4.660
 4389TIP3    H113112   4.692   1.010   4.680
 4389TIP3    H213113   4.783   1.127   4.650
 4390TIP3   OH213114   6.709   3.346   4.144
 4390TIP3    H113115   6.802   3.365   4.140
 4390TIP3    H213116   6.691   3.328   4.236
 4391TIP3   OH213117   5.855   2.586   4.264
 4391TIP3    H113118   5.888   2.506   4.305
 4391TIP3    H213119   5.802   2.628   4.332
 4392TIP3   OH213120   5.511   2.194   1.565
 4392TIP3    H113121   5.497   2.200   1.470
 4392TIP3    H213122   5.526   2.284   1.592
 4393TIP3   OH213123   5.919   1.623   2.830
 4393TIP3    H113124   5.844   1.583   2.875
 4393TIP3    H213125   5.879   1.677   2.762
 4394TIP3   OH213126   7.941   2.267   2.811
 4394TIP3    H113127   7.961   2.215   2.888
 4394TIP3    H213128   7.915   2.203   2.744
 4395TIP3   OH213129   6.786   0.209   0.812
 4395TIP3    H113130   6.867   0.160   0.800
 4395TIP3    H213131   6.745   0.209   0.725
 4396TIP3   OH213132   6.467   7.228   4.604
 4396TIP3    H113133   6.379   7.264   4.614
 4396TIP3    H213134   6.526   7.300   4.626
 4397TIP3   OH213135   0.874   5.851   5.267
 4397TIP3    H113136   0.907   5.813   5.349
 4397TIP3    H213137   0.949   5.897   5.230
 4398TIP3   OH213138   5.981   7.063   4.972
 4398TIP3    H113139   5.933   7.140   5.002
 4398TIP3    H213140   5.943   7.042   4.887
 4399TIP3   OH213141   0.740   3.900   3.804
 4399TIP3    H113142   0.661   3.932   3.761
 4399TIP3    H213143   0.778   3.978   3.846
 4400TIP3   OH213144   3.638   1.030   1.411
 4400TIP3    H113145   3.669   0.955   1.361
 4400TIP3    H213146   3.706   1.096   1.399
 4401TIP3   OH213147   1.569   4.250   6.083
 4401TIP3    H113148   1.519   4.324   6.049
 4401TIP3    H213149   1.651   4.289   6.115
 4402TIP3   OH213150   5.253   6.194   3.888
 4402TIP3    H113151   5.192   6.267   3.875
 4402TIP3    H213152   5.339   6.229   3.863
 4403TIP3   OH213153   0.853   3.051   1.815
 4403TIP3    H113154   0.941   3.014   1.810
 4403TIP3    H213155   0.837   3.086   1.727
 4404TIP3   OH213156   4.771   6.072   3.052
 4404TIP3    H113157   4.768   6.012   2.977
 4404TIP3    H213158   4.717   6.146   3.025
 4405TIP3   OH213159   5.481   1.740   0.391
 4405TIP3    H113160   5.517   1.828   0.389
 4405TIP3    H213161   5.479   1.712   0.300
 4406TIP3   OH213162   2.997   7.326   3.483
 4406TIP3    H113163   3.030   7.300   3.569
 4406TIP3    H213164   2.982   7.420   3.491
 4407TIP3   OH213165   3.785   1.215   4.553
 4407TIP3    H113166   3.794   1.150   4.483
 4407TIP3    H213167   3.851   1.282   4.532
 4408TIP3   OH213168   5.326   4.355   6.182
 4408TIP3    H113169   5.378   4.311   6.250
 4408TIP3    H213170   5.237   4.325   6.198
 4409TIP3   OH213171   6.835   6.373   1.619
 4409TIP3    H113172   6.828   6.461   1.654
 4409TIP3    H213173   6.929   6.359   1.605
 4410TIP3   OH213174   1.425   2.307   5.025
 4410TIP3    H113175   1.457   2.323   5.114
 4410TIP3    H213176   1.435   2.212   5.014
 4411TIP3   OH213177   3.999   3.873   5.286
 4411TIP3    H113178   3.980   3.869   5.379
 4411TIP3    H213179   3.972   3.788   5.252
 4412TIP3   OH213180   1.156   0.427   6.267
 4412TIP3    H113181   1.132   0.455   6.179
 4412TIP3    H213182   1.084   0.456   6.322
 4413TIP3   OH213183   7.281   6.712   5.371
 4413TIP3    H113184   7.271   6.638   5.431
 4413TIP3    H213185   7.247   6.787   5.421
 4414TIP3   OH213186   0.053   4.685   0.661
 4414TIP3    H113187  -0.040   4.665   0.673
 4414TIP3    H213188   0.074   4.653   0.574
 4415TIP3   OH213189   4.788   4.617   1.220
 4415TIP3    H113190   4.855   4.685   1.217
 4415TIP3    H213191   4.707   4.666   1.237
 4416TIP3   OH213192   1.785   4.951   3.411
 4416TIP3    H113193   1.830   4.966   3.494
 4416TIP3    H213194   1.819   5.019   3.352
 4417TIP3   OH213195   0.603   7.150   4.146
 4417TIP3    H113196   0.639   7.134   4.234
 4417TIP3    H213197   0.660   7.216   4.108
 4418TIP3   OH213198   7.924   4.884   0.157
 4418TIP3    H113199   7.907   4.977   0.145
 4418TIP3    H213200   7.882   4.842   0.082
 4419TIP3   OH213201   3.727   1.042   4.339
 4419TIP3    H113202   3.758   1.042   4.248
 4419TIP3    H213203   3.632   1.032   4.332
 4420TIP3   OH213204   6.144   3.299   4.916
 4420TIP3    H113205   6.238   3.298   4.897
 4420TIP3    H213206   6.103   3.267   4.836
 4421TIP3   OH213207   3.603   3.766   2.809
 4421TIP3    H113208   3.684   3.813   2.789
 4421TIP3    H213209   3.569   3.740   2.723
 4422TIP3   OH213210   4.123   2.788   4.837
 4422TIP3    H113211   4.044   2.840   4.827
 4422TIP3    H213212   4.193   2.843   4.802
 4423TIP3   OH213213   0.310   5.225   6.485
 4423TIP3    H113214   0.264   5.250   6.405
 4423TIP3    H213215   0.358   5.304   6.510
 4424TIP3   OH213216   0.460   0.486   3.666
 4424TIP3    H113217   0.501   0.493   3.580
 4424TIP3    H213218   0.499   0.556   3.717
 4425TIP3   OH213219   0.763   1.229   2.253
 4425TIP3    H113220   0.730   1.183   2.175
 4425TIP3    H213221   0.716   1.189   2.326
 4426TIP3   OH213222   6.253   3.565   4.914
 4426TIP3    H113223   6.182   3.628   4.902
 4426TIP3    H213224   6.210   3.480   4.913
 4427TIP3   OH213225   3.951   0.341   0.401
 4427TIP3    H113226   3.946   0.420   0.455
 4427TIP3    H213227   3.870   0.294   0.421
 4428TIP3   OH213228   7.007   6.582   2.651
 4428TIP3    H113229   7.059   6.574   2.731
 4428TIP3    H213230   6.983   6.675   2.648
 4429TIP3   OH213231   1.748   7.133   0.480
 4429TIP3    H113232   1.751   7.228   0.470
 4429TIP3    H213233   1.837   7.109   0.505
 4430TIP3   OH213234   2.182   0.328   1.851
 4430TIP3    H113235   2.097   0.320   1.895
 4430TIP3    H213236   2.173   0.277   1.771
 4431TIP3   OH213237   0.722   2.597   1.112
 4431TIP3    H113238   0.708   2.684   1.148
 4431TIP3    H213239   0.790   2.609   1.045
 4432TIP3   OH213240   2.659   5.713   3.887
 4432TIP3    H113241   2.687   5.719   3.796
 4432TIP3    H213242   2.621   5.625   3.895
 4433TIP3   OH213243   2.426   5.000   6.205
 4433TIP3    H113244   2.475   4.956   6.274
 4433TIP3    H213245   2.408   5.087   6.240
 4434TIP3   OH213246   4.311   2.563   4.984
 4434TIP3    H113247   4.274   2.475   4.990
 4434TIP3    H213248   4.266   2.602   4.909
 4435TIP3   OH213249   2.177   6.197   1.035
 4435TIP3    H113250   2.246   6.204   0.970
 4435TIP3    H213251   2.106   6.150   0.990
 4436TIP3   OH213252   1.769   5.987   5.938
 4436TIP3    H113253   1.820   5.921   5.891
 4436TIP3    H213254   1.709   6.021   5.872
 4437TIP3   OH213255   5.752   0.386   3.640
 4437TIP3    H113256   5.727   0.296   3.664
 4437TIP3    H213257   5.848   0.387   3.649
 4438TIP3   OH213258   5.659   5.778   5.572
 4438TIP3    H113259   5.737   5.725   5.585
 4438TIP3    H213260   5.590   5.730   5.619
 4439TIP3   OH213261   3.884   7.057   2.671
 4439TIP3    H113262   3.978   7.073   2.660
 4439TIP3    H213263   3.879   6.995   2.744
 4440TIP3   OH213264   0.528   6.976   6.002
 4440TIP3    H113265   0.501   7.054   5.955
 4440TIP3    H213266   0.596   6.936   5.947
 4441TIP3   OH213267   6.204   2.418   4.049
 4441TIP3    H113268   6.281   2.408   3.993
 4441TIP3    H213269   6.238   2.409   4.138
 4442TIP3   OH213270   1.545   6.179   3.210
 4442TIP3    H113271   1.476   6.220   3.157
 4442TIP3    H213272   1.615   6.244   3.213
 4443TIP3   OH213273   5.057   1.840   3.597
 4443TIP3    H113274   5.053   1.936   3.591
 4443TIP3    H213275   5.107   1.813   3.520
 4444TIP3   OH213276   4.285   0.037   2.795
 4444TIP3    H113277   4.332  -0.023   2.854
 4444TIP3    H213278   4.238   0.096   2.854
 4445TIP3   OH213279   3.854   5.075   5.537
 4445TIP3    H113280   3.807   4.991   5.532
 4445TIP3    H213281   3.785   5.141   5.536
 4446TIP3   OH213282   7.965   6.635   6.429
 4446TIP3    H113283   8.014   6.556   6.449
 4446TIP3    H213284   7.928   6.663   6.513
 4447TIP3   OH213285   4.379   5.015   0.986
 4447TIP3    H113286   4.393   5.026   1.080
 4447TIP3    H213287   4.302   5.068   0.967
 4448TIP3   OH213288   4.064   6.555   5.820
 4448TIP3    H113289   4.153   6.577   5.793
 4448TIP3    H213290   4.035   6.631   5.870
 4449TIP3   OH213291   2.536   6.024   1.918
 4449TIP3    H113292   2.479   6.066   1.983
 4449TIP3    H213293   2.609   6.084   1.908
 4450TIP3   OH213294   4.555   1.389   1.929
 4450TIP3    H113295   4.541   1.295   1.941
 4450TIP3    H213296   4.498   1.411   1.855
 4451TIP3   OH213297   7.171   4.308   4.517
 4451TIP3    H113298   7.183   4.370   4.589
 4451TIP3    H213299   7.077   4.306   4.503
 4452TIP3   OH213300   2.090   3.869   2.039
 4452TIP3    H113301   2.109   3.955   2.002
 4452TIP3    H213302   2.170   3.819   2.027
 4453TIP3   OH213303   1.958   7.641   2.658
 4453TIP3    H113304   1.898   7.677   2.593
 4453TIP3    H213305   2.044   7.645   2.616
 4454TIP3   OH213306   6.103   7.278   4.463
 4454TIP3    H113307   6.157   7.346   4.424
 4454TIP3    H213308   6.124   7.281   4.557
 4455TIP3   OH213309   6.450   7.749   5.183
 4455TIP3    H113310   6.471   7.839   5.205
 4455TIP3    H213311   6.356   7.742   5.194
 4456TIP3   OH213312   5.247   7.182   2.007
 4456TIP3    H113313   5.290   7.193   2.092
 4456TIP3    H213314   5.200   7.264   1.993
 4457TIP3   OH213315   3.875   2.185   6.638
 4457TIP3    H113316   3.842   2.099   6.613
 4457TIP3    H213317   3.920   2.170   6.721
 4458TIP3   OH213318   4.876   2.889   4.363
 4458TIP3    H113319   4.879   2.796   4.342
 4458TIP3    H213320   4.960   2.907   4.406
 4459TIP3   OH213321   6.994   5.886   5.711
 4459TIP3    H113322   6.954   5.895   5.798
 4459TIP3    H213323   7.001   5.975   5.678
 4460TIP3   OH213324   7.207   0.619   5.434
 4460TIP3    H113325   7.127   0.606   5.382
 4460TIP3    H213326   7.278   0.618   5.369
 4461TIP3   OH213327   6.484   3.319   0.851
 4461TIP3    H113328   6.558   3.357   0.804
 4461TIP3    H213329   6.422   3.294   0.782
 4462TIP3   OH213330   0.748   2.395   5.241
 4462TIP3    H113331   0.738   2.355   5.327
 4462TIP3    H213332   0.794   2.477   5.258
 4463TIP3   OH213333   3.066   1.324   2.514
 4463TIP3    H113334   3.026   1.390   2.570
 4463TIP3    H213335   3.087   1.251   2.573
 4464TIP3   OH213336   7.822   4.108   1.325
 4464TIP3    H113337   7.910   4.146   1.319
 4464TIP3    H213338   7.763   4.182   1.310
 4465TIP3   OH213339   5.607   1.867   4.322
 4465TIP3    H113340   5.513   1.849   4.322
 4465TIP3    H213341   5.623   1.909   4.407
 4466TIP3   OH213342   5.366   5.774   3.862
 4466TIP3    H113343   5.395   5.865   3.854
 4466TIP3    H213344   5.372   5.738   3.774
 4467TIP3   OH213345   2.768   0.050   4.500
 4467TIP3    H113346   2.811   0.110   4.561
 4467TIP3    H213347   2.808   0.069   4.415
 4468TIP3   OH213348   3.892   2.228   0.524
 4468TIP3    H113349   3.860   2.313   0.555
 4468TIP3    H213350   3.836   2.208   0.449
 4469TIP3   OH213351   6.407   3.368   1.157
 4469TIP3    H113352   6.321   3.370   1.116
 4469TIP3    H213353   6.401   3.432   1.228
 4470TIP3   OH213354   7.405   7.445   3.795
 4470TIP3    H113355   7.341   7.376   3.811
 4470TIP3    H213356   7.470   7.434   3.864
 4471TIP3   OH213357   2.832   7.393   1.358
 4471TIP3    H113358   2.780   7.470   1.334
 4471TIP3    H213359   2.905   7.394   1.296
 4472TIP3   OH213360   4.290   2.687   1.021
 4472TIP3    H113361   4.353   2.731   1.079
 4472TIP3    H213362   4.205   2.705   1.060
 4473TIP3   OH213363   7.451   0.684   0.508
 4473TIP3    H113364   7.481   0.648   0.424
 4473TIP3    H213365   7.395   0.758   0.483
 4474TIP3   OH213366   5.841   2.672   2.264
 4474TIP3    H113367   5.875   2.761   2.254
 4474TIP3    H213368   5.870   2.626   2.185
 4475TIP3   OH213369   1.417   7.299   1.817
 4475TIP3    H113370   1.402   7.312   1.723
 4475TIP3    H213371   1.411   7.205   1.830
 4476TIP3   OH213372   1.645   4.276   6.535
 4476TIP3    H113373   1.677   4.213   6.599
 4476TIP3    H213374   1.688   4.358   6.558
 4477TIP3   OH213375   7.343   5.766   5.363
 4477TIP3    H113376   7.253   5.736   5.368
 4477TIP3    H213377   7.375   5.732   5.279
 4478TIP3   OH213378   0.174   3.026   3.893
 4478TIP3    H113379   0.169   3.100   3.833
 4478TIP3    H213380   0.151   3.063   3.978
 4479TIP3   OH213381   1.382   5.856   6.556
 4479TIP3    H113382   1.377   5.892   6.468
 4479TIP3    H213383   1.470   5.876   6.586
 4480TIP3   OH213384   6.172   1.480   1.940
 4480TIP3    H113385   6.183   1.562   1.989
 4480TIP3    H213386   6.078   1.462   1.946
 4481TIP3   OH213387  -0.032   5.339   1.853
 4481TIP3    H113388   0.020   5.419   1.850
 4481TIP3    H213389   0.022   5.277   1.902
 4482TIP3   OH213390   6.158   7.588   3.531
 4482TIP3    H113391   6.130   7.537   3.606
 4482TIP3    H213392   6.233   7.540   3.495
 4483TIP3   OH213393   7.217   6.698   4.615
 4483TIP3    H113394   7.158   6.707   4.690
 4483TIP3    H213395   7.167   6.733   4.541
 4484TIP3   OH213396   4.187   0.467   1.561
 4484TIP3    H113397   4.173   0.502   1.473
 4484TIP3    H213398   4.151   0.378   1.558
 4485TIP3   OH213399   5.628   7.106   2.665
 4485TIP3    H113400   5.653   7.018   2.694
 4485TIP3    H213401   5.668   7.115   2.579
 4486TIP3   OH213402   8.009   5.224   2.101
 4486TIP3    H113403   8.029   5.239   2.193
 4486TIP3    H213404   7.972   5.136   2.099
 4487TIP3   OH213405   2.869   0.478   6.101
 4487TIP3    H113406   2.808   0.410   6.073
 4487TIP3    H213407   2.836   0.506   6.186
 4488TIP3   OH213408   6.601   6.281   5.831
 4488TIP3    H113409   6.680   6.272   5.777
 4488TIP3    H213410   6.632   6.270   5.921
 4489TIP3   OH213411   1.812   1.129   1.634
 4489TIP3    H113412   1.744   1.111   1.569
 4489TIP3    H213413   1.821   1.046   1.682
 4490TIP3   OH213414   4.635   0.842   3.389
 4490TIP3    H113415   4.705   0.796   3.342
 4490TIP3    H213416   4.566   0.777   3.397
 4491TIP3   OH213417   6.473   7.202   1.077
 4491TIP3    H113418   6.526   7.247   1.011
 4491TIP3    H213419   6.524   7.209   1.157
 4492TIP3   OH213420   7.070   6.765   2.303
 4492TIP3    H113421   7.040   6.852   2.330
 4492TIP3    H213422   7.163   6.777   2.282
 4493TIP3   OH213423   5.320   1.566   0.524
 4493TIP3    H113424   5.373   1.486   0.528
 4493TIP3    H213425   5.364   1.620   0.458
 4494TIP3   OH213426   4.139   6.135   2.652
 4494TIP3    H113427   4.075   6.066   2.668
 4494TIP3    H213428   4.224   6.093   2.666
 4495TIP3   OH213429   2.697   6.687   0.223
 4495TIP3    H113430   2.765   6.694   0.289
 4495TIP3    H213431   2.735   6.631   0.155
 4496TIP3   OH213432   2.067   2.475   4.286
 4496TIP3    H113433   2.023   2.459   4.203
 4496TIP3    H213434   2.124   2.399   4.298
 4497TIP3   OH213435   5.527   3.997   1.288
 4497TIP3    H113436   5.474   4.023   1.363
 4497TIP3    H213437   5.550   3.906   1.306
 4498TIP3   OH213438   3.736   4.509   2.364
 4498TIP3    H113439   3.685   4.429   2.373
 4498TIP3    H213440   3.747   4.520   2.269
 4499TIP3   OH213441   1.566   3.853   4.467
 4499TIP3    H113442   1.608   3.913   4.404
 4499TIP3    H213443   1.494   3.904   4.503
 4500TIP3   OH213444   5.359   5.720   4.111
 4500TIP3    H113445   5.360   5.758   4.024
 4500TIP3    H213446   5.451   5.700   4.130
 4501TIP3   OH213447   5.540   1.535   2.194
 4501TIP3    H113448   5.504   1.619   2.166
 4501TIP3    H213449   5.518   1.528   2.286
 4502TIP3   OH213450   3.347   5.282   1.132
 4502TIP3    H113451   3.440   5.299   1.149
 4502TIP3    H213452   3.308   5.279   1.220
 4503TIP3   OH213453   1.326   5.479   4.680
 4503TIP3    H113454   1.243   5.509   4.715
 4503TIP3    H213455   1.358   5.415   4.744
 4504TIP3   OH213456   0.854   2.642   5.283
 4504TIP3    H113457   0.914   2.709   5.317
 4504TIP3    H213458   0.795   2.690   5.225
 4505TIP3   OH213459   2.954   6.422   6.624
 4505TIP3    H113460   2.890   6.399   6.557
 4505TIP3    H213461   2.989   6.506   6.597
 4506TIP3   OH213462   2.676   7.743   4.830
 4506TIP3    H113463   2.694   7.663   4.780
 4506TIP3    H213464   2.588   7.730   4.865
 4507TIP3   OH213465   4.975   0.862   5.364
 4507TIP3    H113466   4.888   0.849   5.327
 4507TIP3    H213467   4.960   0.874   5.458
 4508TIP3   OH213468   5.844   7.615   6.112
 4508TIP3    H113469   5.826   7.690   6.056
 4508TIP3    H213470   5.763   7.603   6.163
 4509TIP3   OH213471   1.084   0.601   1.027
 4509TIP3    H113472   1.133   0.592   0.945
 4509TIP3    H213473   1.055   0.512   1.048
 4510TIP3   OH213474   3.385   0.969   3.230
 4510TIP3    H113475   3.419   1.049   3.190
 4510TIP3    H213476   3.347   0.919   3.157
 4511TIP3   OH213477   5.166   5.266   5.675
 4511TIP3    H113478   5.075   5.291   5.690
 4511TIP3    H213479   5.216   5.309   5.744
 4512TIP3   OH213480   4.425   5.898   5.881
 4512TIP3    H113481   4.457   5.862   5.964
 4512TIP3    H213482   4.498   5.888   5.820
 4513TIP3   OH213483   0.470   1.256   5.548
 4513TIP3    H113484   0.553   1.302   5.540
 4513TIP3    H213485   0.425   1.301   5.620
 4514TIP3   OH213486   6.985   6.404   4.396
 4514TIP3    H113487   6.981   6.327   4.453
 4514TIP3    H213488   7.025   6.372   4.315
 4515TIP3   OH213489   3.290   4.258   4.790
 4515TIP3    H113490   3.266   4.349   4.810
 4515TIP3    H213491   3.217   4.225   4.738
 4516TIP3   OH213492   2.592   7.599   0.108
 4516TIP3    H113493   2.646   7.599   0.029
 4516TIP3    H213494   2.653   7.577   0.178
 4517TIP3   OH213495   4.120   0.174   0.548
 4517TIP3    H113496   4.044   0.212   0.504
 4517TIP3    H213497   4.138   0.232   0.622
 4518TIP3   OH213498   1.065   5.671   0.286
 4518TIP3    H113499   1.061   5.750   0.232
 4518TIP3    H213500   1.024   5.603   0.233
 4519TIP3   OH213501   4.677   5.385   5.128
 4519TIP3    H113502   4.693   5.440   5.051
 4519TIP3    H213503   4.703   5.297   5.100
 4520TIP3   OH213504   6.629   2.993   3.311
 4520TIP3    H113505   6.554   2.956   3.357
 4520TIP3    H213506   6.663   2.922   3.258
 4521TIP3   OH213507   0.827   3.380   5.539
 4521TIP3    H113508   0.868   3.387   5.453
 4521TIP3    H213509   0.833   3.468   5.576
 4522TIP3   OH213510   2.561   5.339   2.947
 4522TIP3    H113511   2.566   5.244   2.945
 4522TIP3    H213512   2.523   5.360   3.032
 4523TIP3   OH213513   3.593   6.028   4.202
 4523TIP3    H113514   3.507   6.062   4.177
 4523TIP3    H213515   3.592   5.937   4.173
 4524TIP3   OH213516   4.939   6.145   0.260
 4524TIP3    H113517   4.877   6.199   0.308
 4524TIP3    H213518   5.001   6.208   0.222
 4525TIP3   OH213519   0.070   5.300   4.766
 4525TIP3    H113520   0.106   5.273   4.681
 4525TIP3    H213521  -0.024   5.282   4.758
 4526TIP3   OH213522   5.170   0.163   3.661
 4526TIP3    H113523   5.132   0.239   3.704
 4526TIP3    H213524   5.095   0.106   3.642
 4527TIP3   OH213525   3.711   1.396   5.440
 4527TIP3    H113526   3.691   1.472   5.494
 4527TIP3    H213527   3.667   1.413   5.357
 4528TIP3   OH213528   0.885   4.149   5.605
 4528TIP3    H113529   0.936   4.216   5.559
 4528TIP3    H213530   0.821   4.199   5.655
 4529TIP3   OH213531   2.627   3.592   3.894
 4529TIP3    H113532   2.568   3.667   3.901
 4529TIP3    H213533   2.710   3.623   3.931
 4530TIP3   OH213534   6.247   1.419   5.442
 4530TIP3    H113535   6.177   1.485   5.445
 4530TIP3    H213536   6.324   1.464   5.475
 4531TIP3   OH213537   3.820   4.492   0.104
 4531TIP3    H113538   3.848   4.461   0.190
 4531TIP3    H213539   3.756   4.427   0.075
 4532TIP3   OH213540   2.198   2.302   1.816
 4532TIP3    H113541   2.106   2.285   1.837
 4532TIP3    H213542   2.246   2.233   1.862
 4533TIP3   OH213543   6.274   3.838  -0.009
 4533TIP3    H113544   6.231   3.790   0.062
 4533TIP3    H213545   6.354   3.872   0.031
 4534TIP3   OH213546   5.713   3.690   1.893
 4534TIP3    H113547   5.809   3.698   1.890
 4534TIP3    H213548   5.682   3.779   1.908
 4535TIP3   OH213549   2.996   6.875   5.201
 4535TIP3    H113550   2.993   6.864   5.296
 4535TIP3    H213551   3.053   6.951   5.187
 4536TIP3   OH213552   2.761   2.356   4.737
 4536TIP3    H113553   2.838   2.321   4.693
 4536TIP3    H213554   2.736   2.287   4.799
 4537TIP3   OH213555   3.644   2.122   1.302
 4537TIP3    H113556   3.643   2.204   1.352
 4537TIP3    H213557   3.638   2.053   1.368
 4538TIP3   OH213558   8.002   5.873   1.658
 4538TIP3    H113559   8.036   5.949   1.704
 4538TIP3    H213560   7.950   5.910   1.587
 4539TIP3   OH213561   5.331   5.191   4.215
 4539TIP3    H113562   5.291   5.268   4.175
 4539TIP3    H213563   5.268   5.163   4.282
 4540TIP3   OH213564   2.438   5.024   5.382
 4540TIP3    H113565   2.525   5.064   5.374
 4540TIP3    H213566   2.435   4.990   5.471
 4541TIP3   OH213567   0.996   2.896   5.107
 4541TIP3    H113568   0.911   2.936   5.122
 4541TIP3    H213569   1.030   2.878   5.195
 4542TIP3   OH213570   5.564   3.207   5.283
 4542TIP3    H113571   5.551   3.209   5.189
 4542TIP3    H213572   5.554   3.298   5.311
 4543TIP3   OH213573   7.048   2.097   4.044
 4543TIP3    H113574   7.044   2.075   3.951
 4543TIP3    H213575   6.956   2.106   4.070
 4544TIP3   OH213576   7.523   7.357   0.253
 4544TIP3    H113577   7.462   7.291   0.286
 4544TIP3    H213578   7.606   7.309   0.244
 4545TIP3   OH213579   1.131   2.654   4.966
 4545TIP3    H113580   1.184   2.734   4.966
 4545TIP3    H213581   1.066   2.668   5.034
 4546TIP3   OH213582   7.218   1.067   4.724
 4546TIP3    H113583   7.261   1.018   4.794
 4546TIP3    H213584   7.168   1.002   4.676
 4547TIP3   OH213585   5.157   6.943   2.986
 4547TIP3    H113586   5.084   7.005   2.993
 4547TIP3    H213587   5.213   6.963   3.061
 4548TIP3   OH213588   3.653   7.269   0.393
 4548TIP3    H113589   3.610   7.189   0.362
 4548TIP3    H213590   3.672   7.251   0.485
 4549TIP3   OH213591   7.596   6.039   1.631
 4549TIP3    H113592   7.608   6.032   1.726
 4549TIP3    H213593   7.664   6.101   1.603
 4550TIP3   OH213594   0.925   2.311   3.417
 4550TIP3    H113595   0.899   2.246   3.351
 4550TIP3    H213596   0.875   2.389   3.394
 4551TIP3   OH213597   0.235   6.198   4.846
 4551TIP3    H113598   0.218   6.158   4.761
 4551TIP3    H213599   0.328   6.222   4.843
 4552TIP3   OH213600   2.875   2.162   5.611
 4552TIP3    H113601   2.954   2.111   5.628
 4552TIP3    H213602   2.883   2.238   5.669
 4553TIP3   OH213603   4.318   0.628   4.195
 4553TIP3    H113604   4.259   0.672   4.257
 4553TIP3    H213605   4.265   0.558   4.157
 4554TIP3   OH213606   2.641   1.105   0.973
 4554TIP3    H113607   2.657   1.174   0.908
 4554TIP3    H213608   2.675   1.025   0.932
 4555TIP3   OH213609   6.604   2.895   6.567
 4555TIP3    H113610   6.631   2.807   6.539
 4555TIP3    H213611   6.639   2.953   6.500
 4556TIP3   OH213612   0.778   6.581   2.412
 4556TIP3    H113613   0.774   6.511   2.477
 4556TIP3    H213614   0.710   6.559   2.348
 4557TIP3   OH213615   3.549   5.169   5.521
 4557TIP3    H113616   3.479   5.234   5.517
 4557TIP3    H213617   3.608   5.201   5.589
 4558TIP3   OH213618   3.009   3.638   3.863
 4558TIP3    H113619   3.026   3.615   3.954
 4558TIP3    H213620   3.012   3.554   3.816
 4559TIP3   OH213621   7.272   6.067   5.921
 4559TIP3    H113622   7.182   6.054   5.952
 4559TIP3    H213623   7.326   6.050   5.998
 4560TIP3   OH213624   5.159   2.949   3.103
 4560TIP3    H113625   5.248   2.972   3.129
 4560TIP3    H213626   5.118   2.918   3.184
 4561TIP3   OH213627   3.975   5.526   1.168
 4561TIP3    H113628   4.049   5.470   1.143
 4561TIP3    H213629   3.937   5.483   1.245
 4562TIP3   OH213630   1.919   4.077   1.848
 4562TIP3    H113631   1.841   4.055   1.899
 4562TIP3    H213632   1.940   3.996   1.801
 4563TIP3   OH213633   6.837   6.794   3.985
 4563TIP3    H113634   6.884   6.716   3.958
 4563TIP3    H213635   6.823   6.843   3.904
 4564TIP3   OH213636   3.959   3.138   3.029
 4564TIP3    H113637   3.926   3.227   3.019
 4564TIP3    H213638   3.888   3.090   3.072
 4565TIP3   OH213639   4.415   4.398   5.724
 4565TIP3    H113640   4.496   4.438   5.693
 4565TIP3    H213641   4.403   4.433   5.812
 4566TIP3   OH213642   0.546   6.555   2.273
 4566TIP3    H113643   0.454   6.579   2.270
 4566TIP3    H213644   0.547   6.465   2.305
 4567TIP3   OH213645   2.241   7.212   4.897
 4567TIP3    H113646   2.307   7.271   4.862
 4567TIP3    H213647   2.221   7.247   4.984
 4568TIP3   OH213648   2.597   3.912   1.944
 4568TIP3    H113649   2.578   3.818   1.935
 4568TIP3    H213650   2.617   3.924   2.037
 4569TIP3   OH213651   4.574   5.268   5.730
 4569TIP3    H113652   4.493   5.235   5.768
 4569TIP3    H213653   4.642   5.244   5.793
 4570TIP3   OH213654   5.168   0.727   0.031
 4570TIP3    H113655   5.227   0.728  -0.045
 4570TIP3    H213656   5.215   0.676   0.097
 4571TIP3   OH213657   4.069   3.037   0.672
 4571TIP3    H113658   4.086   2.958   0.724
 4571TIP3    H213659   3.982   3.065   0.701
 4572TIP3   OH213660   3.119   4.431   0.746
 4572TIP3    H113661   3.086   4.466   0.663
 4572TIP3    H213662   3.208   4.401   0.727
 4573TIP3   OH213663   3.981   3.210   5.330
 4573TIP3    H113664   3.924   3.236   5.401
 4573TIP3    H213665   4.037   3.287   5.314
 4574TIP3   OH213666   4.941   4.546   1.959
 4574TIP3    H113667   4.886   4.548   1.880
 4574TIP3    H213668   4.912   4.622   2.010
 4575TIP3   OH213669   6.720   2.169   2.601
 4575TIP3    H113670   6.804   2.125   2.611
 4575TIP3    H213671   6.675   2.156   2.684
 4576TIP3   OH213672   3.180   3.949   4.281
 4576TIP3    H113673   3.217   3.869   4.319
 4576TIP3    H213674   3.254   4.010   4.277
 4577TIP3   OH213675   3.151   0.559   3.851
 4577TIP3    H113676   3.176   0.592   3.937
 4577TIP3    H213677   3.120   0.636   3.803
 4578TIP3   OH213678   2.013   0.664   0.146
 4578TIP3    H113679   1.955   0.729   0.185
 4578TIP3    H213680   2.022   0.596   0.213
 4579TIP3   OH213681   6.136   0.686   0.620
 4579TIP3    H113682   6.121   0.766   0.670
 4579TIP3    H213683   6.203   0.710   0.555
 4580TIP3   OH213684   3.326   2.691   5.731
 4580TIP3    H113685   3.351   2.641   5.809
 4580TIP3    H213686   3.233   2.710   5.744
 4581TIP3   OH213687   7.638   1.101   3.627
 4581TIP3    H113688   7.643   1.007   3.645
 4581TIP3    H213689   7.577   1.134   3.693
 4582TIP3   OH213690   1.123   0.301   2.030
 4582TIP3    H113691   1.067   0.352   2.088
 4582TIP3    H213692   1.197   0.275   2.084
 4583TIP3   OH213693   0.777   5.996   0.436
 4583TIP3    H113694   0.786   5.901   0.445
 4583TIP3    H213695   0.866   6.029   0.431
 4584TIP3   OH213696   0.725   3.111   0.679
 4584TIP3    H113697   0.800   3.087   0.733
 4584TIP3    H213698   0.759   3.177   0.619
 4585TIP3   OH213699   7.870   5.624   0.680
 4585TIP3    H113700   7.884   5.562   0.752
 4585TIP3    H213701   7.938   5.690   0.692
 4586TIP3   OH213702   8.106   4.225   0.138
 4586TIP3    H113703   8.024   4.185   0.108
 4586TIP3    H213704   8.122   4.296   0.075
 4587TIP3   OH213705   5.296   7.781   2.081
 4587TIP3    H113706   5.363   7.787   2.012
 4587TIP3    H213707   5.271   7.689   2.082
 4588TIP3   OH213708   0.609   3.319   4.067
 4588TIP3    H113709   0.573   3.379   4.002
 4588TIP3    H213710   0.686   3.364   4.102
 4589TIP3   OH213711   6.450   4.885   2.389
 4589TIP3    H113712   6.361   4.921   2.395
 4589TIP3    H213713   6.499   4.930   2.458
 4590TIP3   OH213714   5.424   3.239   1.909
 4590TIP3    H113715   5.460   3.326   1.923
 4590TIP3    H213716   5.356   3.230   1.977
 4591TIP3   OH213717   4.248   4.140   2.569
 4591TIP3    H113718   4.205   4.064   2.531
 4591TIP3    H213719   4.324   4.155   2.513
 4592TIP3   OH213720   0.694   5.742   1.490
 4592TIP3    H113721   0.702   5.704   1.578
 4592TIP3    H213722   0.652   5.827   1.505
 4593TIP3   OH213723   8.109   4.801   5.392
 4593TIP3    H113724   8.014   4.810   5.390
 4593TIP3    H213725   8.141   4.862   5.326
 4594TIP3   OH213726   1.747   4.385   2.156
 4594TIP3    H113727   1.696   4.432   2.222
 4594TIP3    H213728   1.716   4.295   2.160
 4595TIP3   OH213729   1.998   7.795   5.397
 4595TIP3    H113730   2.044   7.814   5.315
 4595TIP3    H213731   2.048   7.844   5.463
 4596TIP3   OH213732   2.185   4.544   1.165
 4596TIP3    H113733   2.229   4.604   1.225
 4596TIP3    H213734   2.099   4.528   1.204
 4597TIP3   OH213735   6.902   4.352   4.238
 4597TIP3    H113736   6.846   4.389   4.169
 4597TIP3    H213737   6.990   4.351   4.199
 4598TIP3   OH213738   1.059   7.455   1.757
 4598TIP3    H113739   1.123   7.503   1.705
 4598TIP3    H213740   1.077   7.481   1.848
 4599TIP3   OH213741   2.425   4.645   4.498
 4599TIP3    H113742   2.357   4.584   4.527
 4599TIP3    H213743   2.496   4.589   4.467
 4600TIP3   OH213744   0.457   1.389   1.197
 4600TIP3    H113745   0.514   1.463   1.177
 4600TIP3    H213746   0.386   1.395   1.133
 4601TIP3   OH213747   2.874   0.808   1.613
 4601TIP3    H113748   2.874   0.901   1.592
 4601TIP3    H213749   2.834   0.803   1.700
 4602TIP3   OH213750   5.356   1.455   1.736
 4602TIP3    H113751   5.278   1.457   1.790
 4602TIP3    H213752   5.427   1.436   1.797
 4603TIP3   OH213753   3.070   2.035   1.365
 4603TIP3    H113754   3.038   2.116   1.405
 4603TIP3    H213755   3.011   2.020   1.291
 4604TIP3   OH213756   7.588   1.375   0.381
 4604TIP3    H113757   7.647   1.310   0.341
 4604TIP3    H213758   7.539   1.326   0.447
 4605TIP3   OH213759   5.460   4.991   0.398
 4605TIP3    H113760   5.510   4.910   0.407
 4605TIP3    H213761   5.525   5.061   0.400
 4606TIP3   OH213762   6.743   4.762   1.128
 4606TIP3    H113763   6.769   4.679   1.168
 4606TIP3    H213764   6.824   4.812   1.121
 4607TIP3   OH213765   2.730   7.210   1.926
 4607TIP3    H113766   2.695   7.296   1.952
 4607TIP3    H213767   2.815   7.229   1.887
 4608TIP3   OH213768   6.118   3.262   1.408
 4608TIP3    H113769   6.127   3.307   1.324
 4608TIP3    H213770   6.032   3.220   1.403
 4609TIP3   OH213771   1.407   3.866   0.055
 4609TIP3    H113772   1.456   3.944   0.080
 4609TIP3    H213773   1.460   3.793   0.089
 4610TIP3   OH213774   3.249   3.567   1.875
 4610TIP3    H113775   3.227   3.637   1.936
 4610TIP3    H213776   3.243   3.487   1.927
 4611TIP3   OH213777   4.874   5.715   3.681
 4611TIP3    H113778   4.952   5.742   3.729
 4611TIP3    H213779   4.907   5.684   3.597
 4612TIP3   OH213780   1.173   0.762   3.410
 4612TIP3    H113781   1.228   0.720   3.476
 4612TIP3    H213782   1.233   0.779   3.337
 4613TIP3   OH213783   7.918   5.683   1.868
 4613TIP3    H113784   7.976   5.607   1.867
 4613TIP3    H213785   7.949   5.738   1.797
 4614TIP3   OH213786   1.076   5.192   1.456
 4614TIP3    H113787   1.046   5.139   1.530
 4614TIP3    H213788   1.149   5.143   1.419
 4615TIP3   OH213789   5.140   7.050   5.413
 4615TIP3    H113790   5.140   6.961   5.448
 4615TIP3    H213791   5.196   7.099   5.473
 4616TIP3   OH213792   4.026   3.739   0.647
 4616TIP3    H113793   4.054   3.712   0.560
 4616TIP3    H213794   3.932   3.758   0.637
 4617TIP3   OH213795   0.422   1.794   5.678
 4617TIP3    H113796   0.511   1.829   5.685
 4617TIP3    H213797   0.432   1.712   5.631
 4618TIP3   OH213798   5.296   2.970   0.227
 4618TIP3    H113799   5.264   2.998   0.141
 4618TIP3    H213800   5.217   2.944   0.275
 4619TIP3   OH213801   1.436   2.236   2.844
 4619TIP3    H113802   1.423   2.317   2.893
 4619TIP3    H213803   1.492   2.262   2.770
 4620TIP3   OH213804   7.565   7.290   6.455
 4620TIP3    H113805   7.526   7.222   6.400
 4620TIP3    H213806   7.641   7.249   6.495
 4621TIP3   OH213807   6.060   1.278   4.822
 4621TIP3    H113808   6.036   1.361   4.864
 4621TIP3    H213809   6.154   1.270   4.835
 4622TIP3   OH213810   0.454   6.597   1.021
 4622TIP3    H113811   0.521   6.548   1.068
 4622TIP3    H213812   0.491   6.611   0.933
 4623TIP3   OH213813   2.447   2.259   3.240
 4623TIP3    H113814   2.372   2.303   3.280
 4623TIP3    H213815   2.410   2.210   3.166
 4624TIP3   OH213816   4.740   0.137   6.486
 4624TIP3    H113817   4.706   0.049   6.502
 4624TIP3    H213818   4.834   0.125   6.478
 4625TIP3   OH213819   7.669   0.007   4.038
 4625TIP3    H113820   7.681   0.102   4.039
 4625TIP3    H213821   7.613  -0.008   3.962
 4626TIP3   OH213822   2.747   5.085   2.359
 4626TIP3    H113823   2.701   5.053   2.281
 4626TIP3    H213824   2.835   5.048   2.352
 4627TIP3   OH213825   1.608   7.032   3.988
 4627TIP3    H113826   1.626   7.062   4.077
 4627TIP3    H213827   1.622   7.110   3.934
 4628TIP3   OH213828   3.321   0.591   5.145
 4628TIP3    H113829   3.392   0.651   5.167
 4628TIP3    H213830   3.359   0.504   5.157
 4629TIP3   OH213831   2.984   5.387   0.438
 4629TIP3    H113832   2.934   5.308   0.456
 4629TIP3    H213833   3.073   5.367   0.468
 4630TIP3   OH213834   0.472   5.945   6.111
 4630TIP3    H113835   0.430   6.030   6.124
 4630TIP3    H213836   0.484   5.938   6.016
 4631TIP3   OH213837   6.298   0.484   5.750
 4631TIP3    H113838   6.235   0.427   5.794
 4631TIP3    H213839   6.246   0.558   5.719
 4632TIP3   OH213840   4.158   4.089   3.784
 4632TIP3    H113841   4.065   4.107   3.771
 4632TIP3    H213842   4.185   4.148   3.853
 4633TIP3   OH213843   0.146   3.625   0.972
 4633TIP3    H113844   0.095   3.704   0.956
 4633TIP3    H213845   0.162   3.626   1.066
 4634TIP3   OH213846   3.157   3.428   4.868
 4634TIP3    H113847   3.127   3.445   4.779
 4634TIP3    H213848   3.227   3.363   4.858
 4635TIP3   OH213849   3.591   3.457   5.814
 4635TIP3    H113850   3.652   3.514   5.767
 4635TIP3    H213851   3.588   3.377   5.761
 4636TIP3   OH213852   1.889   0.885   2.048
 4636TIP3    H113853   1.978   0.898   2.081
 4636TIP3    H213854   1.846   0.832   2.114
 4637TIP3   OH213855   0.309   1.788   3.133
 4637TIP3    H113856   0.239   1.844   3.098
 4637TIP3    H213857   0.365   1.849   3.181
 4638TIP3   OH213858   7.367   4.069   4.538
 4638TIP3    H113859   7.292   4.028   4.495
 4638TIP3    H213860   7.331   4.150   4.575
 4639TIP3   OH213861   0.922   4.159   1.468
 4639TIP3    H113862   0.835   4.123   1.485
 4639TIP3    H213863   0.982   4.096   1.506
 4640TIP3   OH213864   1.801   6.394   5.682
 4640TIP3    H113865   1.847   6.478   5.682
 4640TIP3    H213866   1.763   6.387   5.595
 4641TIP3   OH213867   7.835   2.205   5.420
 4641TIP3    H113868   7.856   2.273   5.484
 4641TIP3    H213869   7.898   2.220   5.349
 4642TIP3   OH213870   7.049   5.536   2.689
 4642TIP3    H113871   6.970   5.482   2.677
 4642TIP3    H213872   7.015   5.625   2.697
 4643TIP3   OH213873   6.111   0.320   6.445
 4643TIP3    H113874   6.142   0.246   6.392
 4643TIP3    H213875   6.075   0.382   6.382
 4644TIP3   OH213876   1.722   0.505   6.683
 4644TIP3    H113877   1.682   0.583   6.722
 4644TIP3    H213878   1.674   0.431   6.723
 4645TIP3   OH213879   5.250   6.994   1.493
 4645TIP3    H113880   5.235   6.900   1.492
 4645TIP3    H213881   5.181   7.029   1.549
 4646TIP3   OH213882   7.835   6.745   6.652
 4646TIP3    H113883   7.867   6.791   6.730
 4646TIP3    H213884   7.742   6.731   6.669
 4647TIP3   OH213885   3.655   0.320   1.051
 4647TIP3    H113886   3.675   0.273   1.131
 4647TIP3    H213887   3.657   0.413   1.076
 4648TIP3   OH213888   7.626   5.986   5.664
 4648TIP3    H113889   7.582   6.017   5.585
 4648TIP3    H213890   7.625   6.062   5.723
 4649TIP3   OH213891   6.518   0.166   1.780
 4649TIP3    H113892   6.512   0.073   1.760
 4649TIP3    H213893   6.534   0.170   1.874
 4650TIP3   OH213894   8.225   4.808   1.803
 4650TIP3    H113895   8.220   4.871   1.731
 4650TIP3    H213896   8.210   4.860   1.882
 4651TIP3   OH213897   1.137   2.043   0.921
 4651TIP3    H113898   1.084   2.096   0.981
 4651TIP3    H213899   1.225   2.044   0.960
 4652TIP3   OH213900   0.541   6.200   2.662
 4652TIP3    H113901   0.561   6.209   2.755
 4652TIP3    H213902   0.608   6.141   2.629
 4653TIP3   OH213903   6.504   5.669   5.555
 4653TIP3    H113904   6.499   5.642   5.647
 4653TIP3    H213905   6.497   5.765   5.559
 4654TIP3   OH213906   7.462   1.116   2.671
 4654TIP3    H113907   7.419   1.030   2.676
 4654TIP3    H213908   7.503   1.117   2.585
 4655TIP3   OH213909   3.423   0.881   6.423
 4655TIP3    H113910   3.509   0.919   6.444
 4655TIP3    H213911   3.391   0.847   6.506
 4656TIP3   OH213912   1.329   2.836   3.312
 4656TIP3    H113913   1.418   2.802   3.320
 4656TIP3    H213914   1.288   2.816   3.396
 4657TIP3   OH213915   3.697   2.691   5.835
 4657TIP3    H113916   3.775   2.635   5.846
 4657TIP3    H213917   3.695   2.711   5.741
 4658TIP3   OH213918   2.291   3.439   0.331
 4658TIP3    H113919   2.276   3.426   0.425
 4658TIP3    H213920   2.226   3.503   0.306
 4659TIP3   OH213921   4.154   5.725   4.062
 4659TIP3    H113922   4.220   5.790   4.085
 4659TIP3    H213923   4.197   5.667   4.000
 4660TIP3   OH213924   7.551   4.948   5.882
 4660TIP3    H113925   7.499   4.869   5.869
 4660TIP3    H213926   7.487   5.018   5.890
 4661TIP3   OH213927   5.612   1.595   4.859
 4661TIP3    H113928   5.649   1.590   4.771
 4661TIP3    H213929   5.676   1.648   4.908
 4662TIP3   OH213930   4.913   7.214   2.244
 4662TIP3    H113931   4.910   7.156   2.320
 4662TIP3    H213932   4.970   7.286   2.271
 4663TIP3   OH213933   2.669   3.764   1.295
 4663TIP3    H113934   2.591   3.716   1.319
 4663TIP3    H213935   2.703   3.718   1.218
 4664TIP3   OH213936   1.031   1.755   4.245
 4664TIP3    H113937   1.120   1.736   4.214
 4664TIP3    H213938   1.018   1.696   4.319
 4665TIP3   OH213939   6.841   5.742   4.089
 4665TIP3    H113940   6.933   5.770   4.087
 4665TIP3    H213941   6.835   5.687   4.167
 4666TIP3   OH213942   4.038   5.020   5.310
 4666TIP3    H113943   3.962   5.038   5.365
 4666TIP3    H213944   4.043   4.924   5.308
 4667TIP3   OH213945   2.586   2.535   0.877
 4667TIP3    H113946   2.498   2.502   0.896
 4667TIP3    H213947   2.571   2.622   0.841
 4668TIP3   OH213948   8.109   1.133   1.328
 4668TIP3    H113949   8.022   1.100   1.350
 4668TIP3    H213950   8.102   1.161   1.237
 4669TIP3   OH213951   6.179   5.298   5.007
 4669TIP3    H113952   6.197   5.317   4.914
 4669TIP3    H213953   6.112   5.362   5.032
 4670TIP3   OH213954   3.222   2.515   2.246
 4670TIP3    H113955   3.205   2.497   2.153
 4670TIP3    H213956   3.226   2.611   2.251
 4671TIP3   OH213957   6.123   3.598   5.285
 4671TIP3    H113958   6.099   3.646   5.364
 4671TIP3    H213959   6.210   3.631   5.262
 4672TIP3   OH213960   7.036   2.255   5.400
 4672TIP3    H113961   7.070   2.205   5.474
 4672TIP3    H213962   7.045   2.196   5.325
 4673TIP3   OH213963   1.380   5.414   1.378
 4673TIP3    H113964   1.460   5.467   1.370
 4673TIP3    H213965   1.334   5.428   1.295
 4674TIP3   OH213966   3.691   7.386   1.290
 4674TIP3    H113967   3.771   7.427   1.256
 4674TIP3    H213968   3.665   7.441   1.364
 4675TIP3   OH213969   2.415   6.164   2.133
 4675TIP3    H113970   2.453   6.234   2.187
 4675TIP3    H213971   2.322   6.184   2.130
 4676TIP3   OH213972   1.908   0.261   2.166
 4676TIP3    H113973   1.935   0.352   2.178
 4676TIP3    H213974   1.988   0.210   2.181
 4677TIP3   OH213975   4.756   3.690   2.316
 4677TIP3    H113976   4.708   3.671   2.235
 4677TIP3    H213977   4.710   3.764   2.355
 4678TIP3   OH213978   7.149   1.858   4.540
 4678TIP3    H113979   7.137   1.918   4.466
 4678TIP3    H213980   7.243   1.861   4.560
 4679TIP3   OH213981   2.970   3.084   3.865
 4679TIP3    H113982   2.897   3.144   3.879
 4679TIP3    H213983   3.015   3.080   3.950
 4680TIP3   OH213984   6.007   0.466   5.664
 4680TIP3    H113985   6.041   0.377   5.675
 4680TIP3    H213986   5.923   0.453   5.620
 4681TIP3   OH213987   2.316   6.843   2.161
 4681TIP3    H113988   2.334   6.933   2.133
 4681TIP3    H213989   2.222   6.832   2.148
 4682TIP3   OH213990   2.232   3.775   2.915
 4682TIP3    H113991   2.167   3.824   2.864
 4682TIP3    H213992   2.209   3.793   3.006
 4683TIP3   OH213993   0.084   0.235   3.344
 4683TIP3    H113994   0.024   0.245   3.270
 4683TIP3    H213995   0.051   0.296   3.410
 4684TIP3   OH213996   2.207   0.618   5.832
 4684TIP3    H113997   2.204   0.597   5.926
 4684TIP3    H213998   2.140   0.686   5.820
 4685TIP3   OH213999   1.649   6.068   0.516
 4685TIP3    H114000   1.616   6.026   0.596
 4685TIP3    H214001   1.740   6.090   0.537
 4686TIP3   OH214002   4.123   0.448   4.922
 4686TIP3    H114003   4.195   0.435   4.983
 4686TIP3    H214004   4.155   0.413   4.839
 4687TIP3   OH214005   8.035   5.478   6.133
 4687TIP3    H114006   8.116   5.509   6.092
 4687TIP3    H214007   8.034   5.384   6.117
 4688TIP3   OH214008   6.435   5.607   0.995
 4688TIP3    H114009   6.427   5.570   0.907
 4688TIP3    H214010   6.428   5.701   0.983
 4689TIP3   OH214011   1.106   2.299   2.517
 4689TIP3    H114012   1.154   2.363   2.570
 4689TIP3    H214013   1.050   2.353   2.461
 4690TIP3   OH214014   2.935   7.228   4.767
 4690TIP3    H114015   2.891   7.149   4.736
 4690TIP3    H214016   2.942   7.216   4.862
 4691TIP3   OH214017   3.286   1.379   3.063
 4691TIP3    H114018   3.211   1.329   3.097
 4691TIP3    H214019   3.268   1.469   3.088
 4692TIP3   OH214020   3.341   6.084   5.364
 4692TIP3    H114021   3.363   6.176   5.374
 4692TIP3    H214022   3.291   6.063   5.443
 4693TIP3   OH214023   8.001   7.244   4.773
 4693TIP3    H114024   7.911   7.273   4.761
 4693TIP3    H214025   8.054   7.318   4.743
 4694TIP3   OH214026   6.296   3.211   0.689
 4694TIP3    H114027   6.242   3.204   0.611
 4694TIP3    H214028   6.329   3.123   0.704
 4695TIP3   OH214029   3.873   2.251   3.639
 4695TIP3    H114030   3.910   2.293   3.562
 4695TIP3    H214031   3.932   2.177   3.657
 4696TIP3   OH214032   8.034   2.574   3.277
 4696TIP3    H114033   8.076   2.659   3.292
 4696TIP3    H214034   7.940   2.593   3.282
 4697TIP3   OH214035   5.867   3.611   2.536
 4697TIP3    H114036   5.841   3.630   2.446
 4697TIP3    H214037   5.813   3.669   2.589
 4698TIP3   OH214038   2.431   3.592   2.961
 4698TIP3    H114039   2.351   3.644   2.960
 4698TIP3    H214040   2.488   3.636   3.023
 4699TIP3   OH214041   5.963   7.796   4.254
 4699TIP3    H114042   6.002   7.869   4.205
 4699TIP3    H214043   5.944   7.832   4.340
 4700TIP3   OH214044   7.986   6.966   4.846
 4700TIP3    H114045   8.013   7.058   4.852
 4700TIP3    H214046   7.892   6.967   4.866
 4701TIP3   OH214047   3.198   3.677   4.940
 4701TIP3    H114048   3.245   3.720   5.012
 4701TIP3    H214049   3.212   3.583   4.955
 4702TIP3   OH214050   1.249   6.597   0.743
 4702TIP3    H114051   1.251   6.606   0.838
 4702TIP3    H214052   1.156   6.605   0.720
 4703TIP3   OH214053   2.473   3.348   3.904
 4703TIP3    H114054   2.521   3.431   3.900
 4703TIP3    H214055   2.389   3.367   3.861
 4704TIP3   OH214056   5.064   4.058   3.600
 4704TIP3    H114057   5.045   4.032   3.690
 4704TIP3    H214058   5.137   4.120   3.608
 4705TIP3   OH214059   3.436   1.521   5.920
 4705TIP3    H114060   3.464   1.465   5.847
 4705TIP3    H214061   3.390   1.462   5.979
 4706TIP3   OH214062   0.768   7.165   6.562
 4706TIP3    H114063   0.768   7.088   6.505
 4706TIP3    H214064   0.677   7.193   6.562
 4707TIP3   OH214065   1.818   0.424   3.000
 4707TIP3    H114066   1.746   0.363   2.979
 4707TIP3    H214067   1.774   0.506   3.022
 4708TIP3   OH214068   7.820   4.296   3.948
 4708TIP3    H114069   7.885   4.228   3.932
 4708TIP3    H214070   7.780   4.272   4.032
 4709TIP3   OH214071   8.040   1.895   1.079
 4709TIP3    H114072   8.123   1.920   1.120
 4709TIP3    H214073   8.062   1.881   0.987
 4710TIP3   OH214074   5.481   4.531   6.511
 4710TIP3    H114075   5.417   4.589   6.553
 4710TIP3    H214076   5.433   4.450   6.496
 4711TIP3   OH214077   3.957   2.257   0.829
 4711TIP3    H114078   3.920   2.177   0.866
 4711TIP3    H214079   3.901   2.277   0.753
 4712TIP3   OH214080   2.544   6.674   2.528
 4712TIP3    H114081   2.466   6.691   2.474
 4712TIP3    H214082   2.509   6.635   2.608
 4713TIP3   OH214083   5.616   6.366   1.137
 4713TIP3    H114084   5.660   6.283   1.117
 4713TIP3    H214085   5.576   6.393   1.055
 4714TIP3   OH214086   1.443   1.397   5.455
 4714TIP3    H114087   1.525   1.353   5.432
 4714TIP3    H214088   1.395   1.331   5.506
 4715TIP3   OH214089   1.713   0.274   5.025
 4715TIP3    H114090   1.683   0.331   4.953
 4715TIP3    H214091   1.761   0.204   4.981
 4716TIP3   OH214092   4.573   3.076   1.995
 4716TIP3    H114093   4.545   3.167   1.982
 4716TIP3    H214094   4.617   3.053   1.912
 4717TIP3   OH214095   2.913   5.413   4.926
 4717TIP3    H114096   3.005   5.435   4.941
 4717TIP3    H214097   2.885   5.473   4.857
 4718TIP3   OH214098   0.930   3.624   5.602
 4718TIP3    H114099   0.895   3.694   5.658
 4718TIP3    H214100   1.000   3.584   5.654
 4719TIP3   OH214101   0.478   2.549   5.151
 4719TIP3    H114102   0.537   2.479   5.180
 4719TIP3    H214103   0.455   2.525   5.061
 4720TIP3   OH214104   5.422   3.391   2.938
 4720TIP3    H114105   5.334   3.428   2.944
 4720TIP3    H214106   5.471   3.432   3.009
 4721TIP3   OH214107   2.307   6.971   3.055
 4721TIP3    H114108   2.249   6.997   3.126
 4721TIP3    H214109   2.393   7.005   3.080
 4722TIP3   OH214110   5.388   7.533   0.403
 4722TIP3    H114111   5.340   7.466   0.452
 4722TIP3    H214112   5.426   7.589   0.471
 4723TIP3   OH214113   6.168   6.984   6.413
 4723TIP3    H114114   6.181   7.079   6.408
 4723TIP3    H214115   6.171   6.965   6.507
 4724TIP3   OH214116   2.228   4.501   4.585
 4724TIP3    H114117   2.178   4.456   4.653
 4724TIP3    H214118   2.196   4.464   4.503
 4725TIP3   OH214119  -0.016   4.190   3.738
 4725TIP3    H114120  -0.028   4.256   3.807
 4725TIP3    H214121   0.054   4.134   3.770
 4726TIP3   OH214122   1.712   6.802   2.892
 4726TIP3    H114123   1.727   6.894   2.871
 4726TIP3    H214124   1.678   6.803   2.982
 4727TIP3   OH214125   6.234   0.777   1.663
 4727TIP3    H114126   6.181   0.749   1.738
 4727TIP3    H214127   6.237   0.872   1.671
 4728TIP3   OH214128   7.636   7.228   4.972
 4728TIP3    H114129   7.695   7.288   5.017
 4728TIP3    H214130   7.556   7.229   5.024
 4729TIP3   OH214131   0.144   6.647   0.979
 4729TIP3    H114132   0.106   6.561   0.962
 4729TIP3    H214133   0.073   6.709   0.964
 4730TIP3   OH214134   2.002   1.444   5.404
 4730TIP3    H114135   1.972   1.386   5.475
 4730TIP3    H214136   2.055   1.510   5.447
 4731TIP3   OH214137   1.378   3.117   0.183
 4731TIP3    H114138   1.432   3.191   0.155
 4731TIP3    H214139   1.434   3.041   0.171
 4732TIP3   OH214140   4.079   0.091   2.146
 4732TIP3    H114141   4.172   0.105   2.164
 4732TIP3    H214142   4.075   0.070   2.053
 4733TIP3   OH214143   6.981   1.377   6.698
 4733TIP3    H114144   7.012   1.310   6.637
 4733TIP3    H214145   6.886   1.369   6.697
 4734TIP3   OH214146   3.357   6.204   4.663
 4734TIP3    H114147   3.330   6.295   4.655
 4734TIP3    H214148   3.397   6.198   4.750
 4735TIP3   OH214149   4.115   5.181   2.557
 4735TIP3    H114150   4.168   5.233   2.617
 4735TIP3    H214151   4.084   5.107   2.609
 4736TIP3   OH214152   5.538   7.306   2.853
 4736TIP3    H114153   5.531   7.262   2.937
 4736TIP3    H214154   5.572   7.240   2.793
 4737TIP3   OH214155   2.089   0.173   6.725
 4737TIP3    H114156   2.125   0.087   6.704
 4737TIP3    H214157   2.165   0.230   6.733
 4738TIP3   OH214158   7.121   4.346   0.473
 4738TIP3    H114159   7.162   4.274   0.424
 4738TIP3    H214160   7.130   4.422   0.415
 4739TIP3   OH214161   4.108   7.358   2.163
 4739TIP3    H114162   4.089   7.409   2.241
 4739TIP3    H214163   4.105   7.267   2.192
 4740TIP3   OH214164   0.411   6.401   1.980
 4740TIP3    H114165   0.394   6.427   1.890
 4740TIP3    H214166   0.506   6.411   1.990
 4741TIP3   OH214167   7.307   3.624   4.268
 4741TIP3    H114168   7.386   3.679   4.271
 4741TIP3    H214169   7.297   3.604   4.175
 4742TIP3   OH214170   5.874   3.550   0.143
 4742TIP3    H114171   5.872   3.559   0.048
 4742TIP3    H214172   5.798   3.599   0.174
 4743TIP3   OH214173   6.614   0.970   2.337
 4743TIP3    H114174   6.552   1.019   2.282
 4743TIP3    H214175   6.617   0.883   2.297
 4744TIP3   OH214176   0.643   4.962   3.185
 4744TIP3    H114177   0.677   4.902   3.251
 4744TIP3    H214178   0.581   5.017   3.232
 4745TIP3   OH214179   8.121   7.437   1.499
 4745TIP3    H114180   8.087   7.525   1.514
 4745TIP3    H214181   8.045   7.380   1.509
 4746TIP3   OH214182   7.610   2.343   4.864
 4746TIP3    H114183   7.674   2.413   4.851
 4746TIP3    H214184   7.546   2.379   4.925
 4747TIP3   OH214185   0.850   6.155   1.605
 4747TIP3    H114186   0.933   6.115   1.630
 4747TIP3    H214187   0.785   6.112   1.660
 4748TIP3   OH214188   7.403   0.438   6.005
 4748TIP3    H114189   7.427   0.522   5.965
 4748TIP3    H214190   7.356   0.391   5.937
 4749TIP3   OH214191   1.930   3.975   1.132
 4749TIP3    H114192   1.886   4.055   1.104
 4749TIP3    H214193   1.975   3.943   1.054
 4750TIP3   OH214194   2.397   1.365   5.968
 4750TIP3    H114195   2.319   1.405   6.006
 4750TIP3    H214196   2.372   1.274   5.951
 4751TIP3   OH214197   4.693   7.021   3.533
 4751TIP3    H114198   4.749   6.951   3.566
 4751TIP3    H214199   4.617   6.976   3.495
 4752TIP3   OH214200   8.112   5.684   3.281
 4752TIP3    H114201   8.101   5.716   3.191
 4752TIP3    H214202   8.023   5.680   3.316
 4753TIP3   OH214203   3.590   6.300   0.813
 4753TIP3    H114204   3.647   6.273   0.741
 4753TIP3    H214205   3.515   6.240   0.808
 4754TIP3   OH214206   2.991   3.135   6.727
 4754TIP3    H114207   2.900   3.156   6.705
 4754TIP3    H214208   3.005   3.047   6.692
 4755TIP3   OH214209   2.635   2.001   4.273
 4755TIP3    H114210   2.675   1.970   4.354
 4755TIP3    H214211   2.709   2.036   4.222
 4756TIP3   OH214212   5.797   5.848   4.500
 4756TIP3    H114213   5.868   5.794   4.534
 4756TIP3    H214214   5.839   5.908   4.439
 4757TIP3   OH214215   1.915   2.207   6.215
 4757TIP3    H114216   1.966   2.164   6.147
 4757TIP3    H214217   1.971   2.278   6.247
 4758TIP3   OH214218   3.511   6.722   4.038
 4758TIP3    H114219   3.429   6.769   4.056
 4758TIP3    H214220   3.516   6.720   3.942
 4759TIP3   OH214221   1.680   3.548   2.022
 4759TIP3    H114222   1.739   3.587   1.957
 4759TIP3    H214223   1.649   3.468   1.981
 4760TIP3   OH214224   6.737   4.433   4.020
 4760TIP3    H114225   6.703   4.514   3.983
 4760TIP3    H214226   6.755   4.377   3.945
 4761TIP3   OH214227   3.590   7.227   4.779
 4761TIP3    H114228   3.566   7.196   4.866
 4761TIP3    H214229   3.599   7.322   4.789
 4762TIP3   OH214230   6.352   3.791   0.936
 4762TIP3    H114231   6.350   3.696   0.928
 4762TIP3    H214232   6.438   3.811   0.972
 4763TIP3   OH214233   3.609   0.795   0.351
 4763TIP3    H114234   3.637   0.885   0.370
 4763TIP3    H214235   3.517   0.792   0.377
 4764TIP3   OH214236   5.349   3.745   3.955
 4764TIP3    H114237   5.254   3.737   3.950
 4764TIP3    H214238   5.382   3.669   3.907
 4765TIP3   OH214239   6.815   6.290   5.461
 4765TIP3    H114240   6.846   6.352   5.396
 4765TIP3    H214241   6.787   6.344   5.535
 4766TIP3   OH214242   0.810   4.474   2.356
 4766TIP3    H114243   0.906   4.476   2.362
 4766TIP3    H214244   0.789   4.537   2.288
 4767TIP3   OH214245   7.781   3.205   5.530
 4767TIP3    H114246   7.732   3.177   5.608
 4767TIP3    H214247   7.853   3.143   5.523
 4768TIP3   OH214248   4.740   7.403   5.471
 4768TIP3    H114249   4.716   7.427   5.560
 4768TIP3    H214250   4.797   7.327   5.481
 4769TIP3   OH214251   0.312   6.692   3.774
 4769TIP3    H114252   0.397   6.677   3.817
 4769TIP3    H214253   0.317   6.782   3.743
 4770TIP3   OH214254   2.800   3.583   3.508
 4770TIP3    H114255   2.769   3.646   3.573
 4770TIP3    H214256   2.724   3.569   3.451
 4771TIP3   OH214257   5.444   6.936   0.230
 4771TIP3    H114258   5.417   6.897   0.147
 4771TIP3    H214259   5.440   6.864   0.293
 4772TIP3   OH214260   5.205   6.600   2.157
 4772TIP3    H114261   5.239   6.631   2.073
 4772TIP3    H214262   5.140   6.665   2.182
 4773TIP3   OH214263   4.043   4.452   5.584
 4773TIP3    H114264   4.138   4.442   5.584
 4773TIP3    H214265   4.015   4.421   5.671
 4774TIP3   OH214266   7.074   2.124   5.652
 4774TIP3    H114267   7.130   2.047   5.641
 4774TIP3    H214268   7.128   2.185   5.702
 4775TIP3   OH214269   2.367   6.692   3.011
 4775TIP3    H114270   2.338   6.782   3.024
 4775TIP3    H214271   2.301   6.638   3.053
 4776TIP3   OH214272   3.668   5.109   6.066
 4776TIP3    H114273   3.620   5.053   6.128
 4776TIP3    H214274   3.750   5.128   6.110
 4777TIP3   OH214275   3.715   5.716   1.820
 4777TIP3    H114276   3.708   5.765   1.902
 4777TIP3    H214277   3.748   5.779   1.757
 4778TIP3   OH214278   4.596   6.657   5.340
 4778TIP3    H114279   4.660   6.728   5.328
 4778TIP3    H214280   4.578   6.626   5.251
 4779TIP3   OH214281   1.564   5.229   1.030
 4779TIP3    H114282   1.613   5.304   0.996
 4779TIP3    H214283   1.606   5.208   1.113
 4780TIP3   OH214284   0.699   0.129   6.651
 4780TIP3    H114285   0.792   0.106   6.658
 4780TIP3    H214286   0.653   0.056   6.694
 4781TIP3   OH214287   2.172   6.270   5.534
 4781TIP3    H114288   2.082   6.267   5.565
 4781TIP3    H214289   2.207   6.182   5.550
 4782TIP3   OH214290   2.690   7.398   0.965
 4782TIP3    H114291   2.752   7.326   0.950
 4782TIP3    H214292   2.655   7.381   1.052
 4783TIP3   OH214293   1.338   3.785   4.229
 4783TIP3    H114294   1.401   3.857   4.220
 4783TIP3    H214295   1.393   3.707   4.232
 4784TIP3   OH214296   1.422   4.232   0.160
 4784TIP3    H114297   1.414   4.327   0.168
 4784TIP3    H214298   1.395   4.198   0.245
 4785TIP3   OH214299   0.215   2.651   4.422
 4785TIP3    H114300   0.270   2.593   4.370
 4785TIP3    H214301   0.205   2.729   4.368
 4786TIP3   OH214302   8.000   0.598   5.688
 4786TIP3    H114303   7.971   0.671   5.634
 4786TIP3    H214304   8.094   0.591   5.671
 4787TIP3   OH214305   1.916   1.296   1.804
 4787TIP3    H114306   1.904   1.251   1.887
 4787TIP3    H214307   1.875   1.239   1.739
 4788TIP3   OH214308   7.572   5.066   5.604
 4788TIP3    H114309   7.645   5.123   5.627
 4788TIP3    H214310   7.541   5.030   5.687
 4789TIP3   OH214311   6.020   3.385   1.709
 4789TIP3    H114312   5.929   3.369   1.684
 4789TIP3    H214313   6.067   3.391   1.626
 4790TIP3   OH214314   6.345   7.581   4.150
 4790TIP3    H114315   6.292   7.503   4.135
 4790TIP3    H214316   6.379   7.570   4.239
 4791TIP3   OH214317   5.452   1.868   6.733
 4791TIP3    H114318   5.405   1.818   6.800
 4791TIP3    H214319   5.474   1.951   6.776
 4792TIP3   OH214320   3.768   3.295   4.414
 4792TIP3    H114321   3.760   3.369   4.473
 4792TIP3    H214322   3.787   3.334   4.328
 4793TIP3   OH214323   4.694   5.150   2.911
 4793TIP3    H114324   4.617   5.207   2.917
 4793TIP3    H214325   4.717   5.150   2.818
 4794TIP3   OH214326   1.346   3.473   6.592
 4794TIP3    H114327   1.354   3.561   6.629
 4794TIP3    H214328   1.370   3.484   6.500
 4795TIP3   OH214329   3.340   7.451   1.467
 4795TIP3    H114330   3.332   7.531   1.519
 4795TIP3    H214331   3.324   7.380   1.530
 4796TIP3   OH214332   3.586   4.655   5.673
 4796TIP3    H114333   3.632   4.730   5.709
 4796TIP3    H214334   3.618   4.580   5.724
 4797TIP3   OH214335   7.153   6.159   2.282
 4797TIP3    H114336   7.242   6.194   2.287
 4797TIP3    H214337   7.113   6.206   2.209
 4798TIP3   OH214338   4.327   2.237   4.245
 4798TIP3    H114339   4.264   2.282   4.301
 4798TIP3    H214340   4.383   2.306   4.211
 4799TIP3   OH214341   5.247   4.954   1.169
 4799TIP3    H114342   5.291   4.954   1.084
 4799TIP3    H214343   5.230   4.861   1.187
 4800TIP3   OH214344   4.016   0.499   0.603
 4800TIP3    H114345   3.966   0.569   0.645
 4800TIP3    H214346   4.071   0.463   0.673
 4801TIP3   OH214347   4.391   6.156   1.043
 4801TIP3    H114348   4.373   6.131   0.952
 4801TIP3    H214349   4.471   6.209   1.038
 4802TIP3   OH214350   5.480   7.371   6.627
 4802TIP3    H114351   5.535   7.393   6.552
 4802TIP3    H214352   5.432   7.293   6.600
 4803TIP3   OH214353   6.417   2.310   6.657
 4803TIP3    H114354   6.345   2.373   6.660
 4803TIP3    H214355   6.377   2.228   6.628
 4804TIP3   OH214356   4.984   6.449   4.943
 4804TIP3    H114357   4.951   6.446   5.033
 4804TIP3    H214358   4.906   6.463   4.890
 4805TIP3   OH214359   5.383   7.060   5.078
 4805TIP3    H114360   5.385   6.970   5.112
 4805TIP3    H214361   5.474   7.078   5.054
 4806TIP3   OH214362   7.896   3.436   3.368
 4806TIP3    H114363   7.924   3.414   3.457
 4806TIP3    H214364   7.886   3.532   3.370
 4807TIP3   OH214365   5.790   3.920   0.017
 4807TIP3    H114366   5.823   3.867  -0.056
 4807TIP3    H214367   5.759   3.856   0.081
 4808TIP3   OH214368   6.302   4.808   3.931
 4808TIP3    H114369   6.370   4.763   3.881
 4808TIP3    H214370   6.351   4.861   3.994
 4809TIP3   OH214371   5.250   5.668   5.856
 4809TIP3    H114372   5.209   5.673   5.769
 4809TIP3    H214373   5.244   5.757   5.890
 4810TIP3   OH214374   1.123   6.501   0.455
 4810TIP3    H114375   1.123   6.592   0.483
 4810TIP3    H214376   1.119   6.505   0.359
 4811TIP3   OH214377   4.220   2.349   0.822
 4811TIP3    H114378   4.215   2.349   0.726
 4811TIP3    H214379   4.134   2.318   0.850
 4812TIP3   OH214380   4.791   7.771   4.612
 4812TIP3    H114381   4.715   7.738   4.660
 4812TIP3    H214382   4.864   7.758   4.673
 4813TIP3   OH214383   7.599   5.917   0.276
 4813TIP3    H114384   7.623   5.997   0.230
 4813TIP3    H214385   7.531   5.878   0.222
 4814TIP3   OH214386   8.154   2.382   3.460
 4814TIP3    H114387   8.119   2.446   3.398
 4814TIP3    H214388   8.152   2.426   3.544
 4815TIP3   OH214389   0.325   0.924   6.323
 4815TIP3    H114390   0.362   0.970   6.247
 4815TIP3    H214391   0.269   0.857   6.285
 4816TIP3   OH214392   7.254   7.648   1.597
 4816TIP3    H114393   7.285   7.738   1.606
 4816TIP3    H214394   7.297   7.600   1.668
 4817TIP3   OH214395   1.836   1.037   2.777
 4817TIP3    H114396   1.792   1.107   2.729
 4817TIP3    H214397   1.823   1.060   2.869
 4818TIP3   OH214398   3.354   6.485   5.297
 4818TIP3    H114399   3.364   6.454   5.387
 4818TIP3    H214400   3.260   6.500   5.287
 4819TIP3   OH214401   6.807  -0.003   1.203
 4819TIP3    H114402   6.766   0.076   1.168
 4819TIP3    H214403   6.734  -0.059   1.228
 4820TIP3   OH214404   6.632   4.769   3.929
 4820TIP3    H114405   6.601   4.698   3.874
 4820TIP3    H214406   6.619   4.738   4.019
 4821TIP3   OH214407   5.892   5.079   6.620
 4821TIP3    H114408   5.799   5.078   6.596
 4821TIP3    H214409   5.911   5.171   6.637
 4822TIP3   OH214410   1.701   7.203   6.499
 4822TIP3    H114411   1.699   7.110   6.478
 4822TIP3    H214412   1.735   7.207   6.589
 4823TIP3   OH214413   6.485   1.173   5.175
 4823TIP3    H114414   6.575   1.201   5.157
 4823TIP3    H214415   6.430   1.242   5.138
 4824TIP3   OH214416   3.824   4.407   1.243
 4824TIP3    H114417   3.825   4.323   1.197
 4824TIP3    H214418   3.894   4.458   1.203
 4825TIP3   OH214419   2.258   2.516   2.065
 4825TIP3    H114420   2.291   2.428   2.080
 4825TIP3    H214421   2.200   2.533   2.139
 4826TIP3   OH214422   0.190   0.143   3.601
 4826TIP3    H114423   0.166   0.212   3.540
 4826TIP3    H214424   0.121   0.144   3.668
 4827TIP3   OH214425   3.458   5.584   2.077
 4827TIP3    H114426   3.449   5.626   1.991
 4827TIP3    H214427   3.544   5.613   2.108
 4828TIP3   OH214428   4.645   1.273   6.001
 4828TIP3    H114429   4.693   1.345   6.042
 4828TIP3    H214430   4.660   1.198   6.059
 4829TIP3   OH214431   0.012   2.555   1.034
 4829TIP3    H114432   0.060   2.637   1.049
 4829TIP3    H214433   0.077   2.495   0.999
 4830TIP3   OH214434   4.286   0.442   5.478
 4830TIP3    H114435   4.360   0.444   5.538
 4830TIP3    H214436   4.210   0.432   5.534
 4831TIP3   OH214437   3.837   4.082   3.894
 4831TIP3    H114438   3.744   4.083   3.873
 4831TIP3    H214439   3.867   4.171   3.879
 4832TIP3   OH214440   5.396   4.996   2.606
 4832TIP3    H114441   5.459   5.039   2.549
 4832TIP3    H214442   5.447   4.969   2.683
 4833TIP3   OH214443   2.520   2.532   3.413
 4833TIP3    H114444   2.429   2.510   3.395
 4833TIP3    H214445   2.520   2.564   3.504
 4834TIP3   OH214446   0.407   6.745   2.611
 4834TIP3    H114447   0.502   6.751   2.599
 4834TIP3    H214448   0.387   6.652   2.598
 4835TIP3   OH214449   3.537   6.774   1.272
 4835TIP3    H114450   3.602   6.811   1.212
 4835TIP3    H214451   3.453   6.794   1.232
 4836TIP3   OH214452   0.622   3.024   3.949
 4836TIP3    H114453   0.597   3.108   3.988
 4836TIP3    H214454   0.555   3.008   3.882
 4837TIP3   OH214455   5.882   3.683   5.975
 4837TIP3    H114456   5.962   3.685   5.923
 4837TIP3    H214457   5.909   3.714   6.062
 4838TIP3   OH214458   5.117   0.571   5.661
 4838TIP3    H114459   5.104   0.626   5.739
 4838TIP3    H214460   5.165   0.627   5.600
 4839TIP3   OH214461   0.717   6.080   2.474
 4839TIP3    H114462   0.669   6.053   2.395
 4839TIP3    H214463   0.806   6.048   2.461
 4840TIP3   OH214464   0.825   4.333   4.515
 4840TIP3    H114465   0.905   4.360   4.560
 4840TIP3    H214466   0.771   4.293   4.583
 4841TIP3   OH214467   8.038   3.344   6.691
 4841TIP3    H114468   8.076   3.342   6.603
 4841TIP3    H214469   7.962   3.401   6.682
 4842TIP3   OH214470   5.420   2.093   1.906
 4842TIP3    H114471   5.356   2.095   1.834
 4842TIP3    H214472   5.504   2.077   1.863
 4843TIP3   OH214473   8.040   7.071   0.926
 4843TIP3    H114474   8.116   7.088   0.871
 4843TIP3    H214475   7.965   7.101   0.875
 4844TIP3   OH214476   5.249   1.242   0.314
 4844TIP3    H114477   5.261   1.164   0.369
 4844TIP3    H214478   5.319   1.236   0.249
 4845TIP3   OH214479   6.816   0.706   3.634
 4845TIP3    H114480   6.786   0.673   3.719
 4845TIP3    H214481   6.884   0.770   3.656
 4846TIP3   OH214482   8.139   1.859   1.828
 4846TIP3    H114483   8.183   1.937   1.794
 4846TIP3    H214484   8.090   1.825   1.753
 4847TIP3   OH214485   4.130   3.757   1.896
 4847TIP3    H114486   4.165   3.715   1.975
 4847TIP3    H214487   4.037   3.769   1.915
 4848TIP3   OH214488   8.228   5.421   0.392
 4848TIP3    H114489   8.176   5.341   0.380
 4848TIP3    H214490   8.250   5.449   0.303
 4849TIP3   OH214491   3.067   3.465   5.708
 4849TIP3    H114492   2.980   3.454   5.670
 4849TIP3    H214493   3.125   3.470   5.632
 4850TIP3   OH214494   5.984   0.422   1.290
 4850TIP3    H114495   6.026   0.396   1.207
 4850TIP3    H214496   5.930   0.497   1.266
 4851TIP3   OH214497   2.294   5.111   0.184
 4851TIP3    H114498   2.244   5.045   0.232
 4851TIP3    H214499   2.231   5.183   0.171
 4852TIP3   OH214500   6.404   7.586   6.570
 4852TIP3    H114501   6.432   7.536   6.493
 4852TIP3    H214502   6.358   7.661   6.534
 4853TIP3   OH214503   0.694   2.182   5.984
 4853TIP3    H114504   0.643   2.114   6.027
 4853TIP3    H214505   0.735   2.231   6.055
 4854TIP3   OH214506   4.619   0.242   3.742
 4854TIP3    H114507   4.680   0.268   3.811
 4854TIP3    H214508   4.556   0.185   3.786
 4855TIP3   OH214509   3.969   4.689   6.276
 4855TIP3    H114510   4.005   4.625   6.337
 4855TIP3    H214511   4.011   4.772   6.300
 4856TIP3   OH214512   7.507   4.078   3.590
 4856TIP3    H114513   7.542   4.164   3.567
 4856TIP3    H214514   7.414   4.083   3.570
 4857TIP3   OH214515   2.138   2.160   6.043
 4857TIP3    H114516   2.214   2.209   6.011
 4857TIP3    H214517   2.117   2.099   5.972
 4858TIP3   OH214518   2.304   3.904   4.163
 4858TIP3    H114519   2.348   3.989   4.153
 4858TIP3    H214520   2.372   3.846   4.198
 4859TIP3   OH214521   3.832   1.474   1.301
 4859TIP3    H114522   3.772   1.499   1.231
 4859TIP3    H214523   3.820   1.380   1.310
 4860TIP3   OH214524   1.515   3.369   2.596
 4860TIP3    H114525   1.510   3.385   2.502
 4860TIP3    H214526   1.478   3.448   2.636
 4861TIP3   OH214527   1.111   3.054   4.789
 4861TIP3    H114528   1.028   3.008   4.799
 4861TIP3    H214529   1.101   3.134   4.841
 4862TIP3   OH214530   6.169   1.802   6.611
 4862TIP3    H114531   6.141   1.796   6.519
 4862TIP3    H214532   6.264   1.800   6.607
 4863TIP3   OH214533   5.236   5.827   4.318
 4863TIP3    H114534   5.282   5.757   4.271
 4863TIP3    H214535   5.270   5.908   4.280
 4864TIP3   OH214536   3.861   3.150   4.028
 4864TIP3    H114537   3.887   3.238   4.056
 4864TIP3    H214538   3.765   3.155   4.019
 4865TIP3   OH214539   4.613   2.090   6.129
 4865TIP3    H114540   4.697   2.122   6.097
 4865TIP3    H214541   4.628   1.997   6.147
 4866TIP3   OH214542   7.012   5.840   2.965
 4866TIP3    H114543   7.014   5.881   2.879
 4866TIP3    H214544   7.013   5.914   3.026
 4867TIP3   OH214545   4.091   3.491   6.119
 4867TIP3    H114546   4.164   3.430   6.125
 4867TIP3    H214547   4.092   3.538   6.202
 4868TIP3   OH214548   0.809   7.128   1.650
 4868TIP3    H114549   0.894   7.140   1.692
 4868TIP3    H214550   0.794   7.034   1.651
 4869TIP3   OH214551   4.072   1.660   5.575
 4869TIP3    H114552   3.990   1.685   5.531
 4869TIP3    H214553   4.130   1.634   5.504
 4870TIP3   OH214554   6.522   1.127   3.045
 4870TIP3    H114555   6.429   1.123   3.022
 4870TIP3    H214556   6.567   1.125   2.960
 4871TIP3   OH214557   5.525   1.154   4.550
 4871TIP3    H114558   5.573   1.091   4.497
 4871TIP3    H214559   5.584   1.228   4.559
 4872TIP3   OH214560   3.797   5.889   0.594
 4872TIP3    H114561   3.708   5.855   0.590
 4872TIP3    H214562   3.806   5.921   0.684
 4873TIP3   OH214563   3.457   3.443   1.619
 4873TIP3    H114564   3.491   3.361   1.655
 4873TIP3    H214565   3.362   3.432   1.618
 4874TIP3   OH214566   5.709   4.209   5.888
 4874TIP3    H114567   5.696   4.222   5.982
 4874TIP3    H214568   5.786   4.154   5.881
 4875TIP3   OH214569   5.500   3.738   3.589
 4875TIP3    H114570   5.485   3.833   3.580
 4875TIP3    H214571   5.594   3.730   3.604
 4876TIP3   OH214572   7.407   6.245   5.753
 4876TIP3    H114573   7.372   6.182   5.816
 4876TIP3    H214574   7.381   6.211   5.667
 4877TIP3   OH214575   7.995   2.832   4.057
 4877TIP3    H114576   8.085   2.866   4.057
 4877TIP3    H214577   7.969   2.832   3.965
 4878TIP3   OH214578   1.932   6.578   5.250
 4878TIP3    H114579   1.838   6.586   5.232
 4878TIP3    H214580   1.965   6.523   5.179
 4879TIP3   OH214581   6.454   6.954   2.765
 4879TIP3    H114582   6.526   6.909   2.808
 4879TIP3    H214583   6.404   6.884   2.723
 4880TIP3   OH214584   2.856   3.681   5.965
 4880TIP3    H114585   2.949   3.657   5.962
 4880TIP3    H214586   2.810   3.598   5.960
 4881TIP3   OH214587   1.412   7.011   2.292
 4881TIP3    H114588   1.479   6.943   2.282
 4881TIP3    H214589   1.406   7.025   2.387
 4882TIP3   OH214590   0.562   1.688   0.661
 4882TIP3    H114591   0.582   1.759   0.599
 4882TIP3    H214592   0.515   1.730   0.732
 4883TIP3   OH214593   1.085   4.492   2.315
 4883TIP3    H114594   1.172   4.519   2.285
 4883TIP3    H214595   1.096   4.473   2.408
 4884TIP3   OH214596   0.455   1.013   1.900
 4884TIP3    H114597   0.474   1.105   1.920
 4884TIP3    H214598   0.457   0.969   1.985
 4885TIP3   OH214599   7.554   3.521   0.664
 4885TIP3    H114600   7.508   3.455   0.715
 4885TIP3    H214601   7.492   3.546   0.596
 4886TIP3   OH214602   1.760   6.025   6.200
 4886TIP3    H114603   1.675   5.988   6.225
 4886TIP3    H214604   1.757   6.029   6.104
 4887TIP3   OH214605   6.111   2.554   2.331
 4887TIP3    H114606   6.056   2.580   2.256
 4887TIP3    H214607   6.057   2.572   2.407
 4888TIP3   OH214608   5.538   2.910   1.965
 4888TIP3    H114609   5.536   2.868   1.879
 4888TIP3    H214610   5.554   3.003   1.946
 4889TIP3   OH214611   7.421   0.573   6.634
 4889TIP3    H114612   7.437   0.561   6.541
 4889TIP3    H214613   7.340   0.623   6.639
 4890TIP3   OH214614   5.189   4.157   2.609
 4890TIP3    H114615   5.147   4.085   2.563
 4890TIP3    H214616   5.270   4.119   2.644
 4891TIP3   OH214617   1.973   3.603   6.504
 4891TIP3    H114618   2.016   3.517   6.499
 4891TIP3    H214619   1.904   3.599   6.438
 4892TIP3   OH214620   4.538   7.163   0.904
 4892TIP3    H114621   4.616   7.198   0.860
 4892TIP3    H214622   4.571   7.089   0.955
 4893TIP3   OH214623   2.062   1.919   2.440
 4893TIP3    H114624   2.102   1.884   2.519
 4893TIP3    H214625   2.033   1.842   2.391
 4894TIP3   OH214626  -0.024   3.706   6.617
 4894TIP3    H114627   0.049   3.744   6.665
 4894TIP3    H214628  -0.023   3.749   6.532
 4895TIP3   OH214629   7.859   1.008   5.335
 4895TIP3    H114630   7.820   1.019   5.421
 4895TIP3    H214631   7.849   1.093   5.293
 4896TIP3   OH214632   2.013   5.909   4.310
 4896TIP3    H114633   1.953   5.876   4.375
 4896TIP3    H214634   2.058   5.982   4.353
 4897TIP3   OH214635   5.617   0.789   3.325
 4897TIP3    H114636   5.638   0.698   3.305
 4897TIP3    H214637   5.559   0.783   3.401
 4898TIP3   OH214638   0.528   3.758   6.673
 4898TIP3    H114639   0.528   3.843   6.716
 4898TIP3    H214640   0.617   3.725   6.683
 4899TIP3   OH214641   0.013   5.478   6.013
 4899TIP3    H114642   0.029   5.422   5.936
 4899TIP3    H214643   0.015   5.567   5.979
 4900TIP3   OH214644   1.314   1.722   2.431
 4900TIP3    H114645   1.248   1.762   2.488
 4900TIP3    H214646   1.397   1.742   2.474
 4901TIP3   OH214647   4.877   3.566   4.528
 4901TIP3    H114648   4.892   3.474   4.550
 4901TIP3    H214649   4.787   3.568   4.493
 4902TIP3   OH214650   3.019   2.067   0.341
 4902TIP3    H114651   3.052   2.043   0.254
 4902TIP3    H214652   2.939   2.117   0.323
 4903TIP3   OH214653   6.117   2.890   4.046
 4903TIP3    H114654   6.108   2.854   4.134
 4903TIP3    H214655   6.039   2.858   4.000
 4904TIP3   OH214656   3.226   2.077   6.135
 4904TIP3    H114657   3.224   2.100   6.042
 4904TIP3    H214658   3.184   2.150   6.179
 4905TIP3   OH214659   6.707   5.606   4.312
 4905TIP3    H114660   6.613   5.615   4.300
 4905TIP3    H214661   6.720   5.613   4.407
 4906TIP3   OH214662   3.802   1.134   5.950
 4906TIP3    H114663   3.835   1.136   5.860
 4906TIP3    H214664   3.738   1.206   5.953
 4907TIP3   OH214665   0.460   6.289   1.020
 4907TIP3    H114666   0.543   6.318   1.057
 4907TIP3    H214667   0.469   6.303   0.925
 4908TIP3   OH214668   4.508   2.056   2.071
 4908TIP3    H114669   4.521   2.090   1.983
 4908TIP3    H214670   4.484   1.965   2.058
 4909TIP3   OH214671   5.441   5.443   5.184
 4909TIP3    H114672   5.523   5.397   5.201
 4909TIP3    H214673   5.372   5.382   5.211
 4910TIP3   OH214674   3.672   2.848   1.137
 4910TIP3    H114675   3.755   2.884   1.103
 4910TIP3    H214676   3.671   2.758   1.107
 4911TIP3   OH214677   1.558   4.667   6.767
 4911TIP3    H114678   1.598   4.581   6.778
 4911TIP3    H214679   1.611   4.724   6.823
 4912TIP3   OH214680   4.504   1.884   5.061
 4912TIP3    H114681   4.419   1.866   5.021
 4912TIP3    H214682   4.554   1.927   4.991
 4913TIP3   OH214683   7.743   1.670   5.927
 4913TIP3    H114684   7.799   1.595   5.945
 4913TIP3    H214685   7.773   1.703   5.842
 4914TIP3   OH214686   1.281   7.142   0.605
 4914TIP3    H114687   1.311   7.219   0.652
 4914TIP3    H214688   1.357   7.115   0.553
 4915TIP3   OH214689   6.249   6.323   3.798
 4915TIP3    H114690   6.308   6.320   3.873
 4915TIP3    H214691   6.230   6.417   3.787
 4916TIP3   OH214692   4.165   5.235   0.926
 4916TIP3    H114693   4.178   5.283   1.008
 4916TIP3    H214694   4.086   5.184   0.942
 4917TIP3   OH214695   2.674   5.630   4.460
 4917TIP3    H114696   2.717   5.551   4.493
 4917TIP3    H214697   2.585   5.626   4.495
 4918TIP3   OH214698   3.841   4.487   3.106
 4918TIP3    H114699   3.885   4.500   3.190
 4918TIP3    H214700   3.750   4.469   3.129
 4919TIP3   OH214701   4.262   7.814   6.083
 4919TIP3    H114702   4.225   7.812   6.171
 4919TIP3    H214703   4.356   7.808   6.096
 4920TIP3   OH214704   1.876   7.121   5.715
 4920TIP3    H114705   1.843   7.130   5.805
 4920TIP3    H214706   1.840   7.038   5.685
 4921TIP3   OH214707   5.287   3.245   3.685
 4921TIP3    H114708   5.272   3.255   3.779
 4921TIP3    H214709   5.240   3.318   3.645
 4922TIP3   OH214710   0.231   4.922   4.254
 4922TIP3    H114711   0.260   5.004   4.214
 4922TIP3    H214712   0.203   4.868   4.181
 4923TIP3   OH214713   2.560   1.382   6.736
 4923TIP3    H114714   2.498   1.440   6.781
 4923TIP3    H214715   2.644   1.427   6.742
 4924TIP3   OH214716   1.222   6.457   4.903
 4924TIP3    H114717   1.136   6.425   4.932
 4924TIP3    H214718   1.284   6.419   4.966
 4925TIP3   OH214719   3.700   2.815   3.537
 4925TIP3    H114720   3.776   2.810   3.595
 4925TIP3    H214721   3.657   2.896   3.563
 4926TIP3   OH214722   2.994   5.153   0.192
 4926TIP3    H114723   2.992   5.100   0.112
 4926TIP3    H214724   3.038   5.097   0.257
 4927TIP3   OH214725   7.342   7.422   6.090
 4927TIP3    H114726   7.264   7.427   6.035
 4927TIP3    H214727   7.313   7.450   6.176
 4928TIP3   OH214728   1.774   6.898   2.022
 4928TIP3    H114729   1.781   6.991   2.000
 4928TIP3    H214730   1.720   6.861   1.952
 4929TIP3   OH214731   4.642   0.457   5.405
 4929TIP3    H114732   4.560   0.444   5.452
 4929TIP3    H214733   4.709   0.426   5.466
 4930TIP3   OH214734   2.450   3.818   0.928
 4930TIP3    H114735   2.513   3.845   0.861
 4930TIP3    H214736   2.496   3.751   0.979
 4931TIP3   OH214737   1.320   3.793   6.646
 4931TIP3    H114738   1.288   3.757   6.729
 4931TIP3    H214739   1.248   3.846   6.614
 4932TIP3   OH214740   0.135   3.525   0.202
 4932TIP3    H114741   0.188   3.492   0.129
 4932TIP3    H214742   0.069   3.581   0.160
 4933TIP3   OH214743   6.833   2.536   5.816
 4933TIP3    H114744   6.739   2.552   5.806
 4933TIP3    H214745   6.869   2.623   5.835
 4934TIP3   OH214746   0.630   1.488   5.941
 4934TIP3    H114747   0.642   1.394   5.956
 4934TIP3    H214748   0.719   1.522   5.933
 4935TIP3   OH214749   2.167   1.703   1.258
 4935TIP3    H114750   2.257   1.682   1.237
 4935TIP3    H214751   2.139   1.634   1.318
 4936TIP3   OH214752   1.752   6.089   1.041
 4936TIP3    H114753   1.774   6.032   0.967
 4936TIP3    H214754   1.727   6.172   1.000
 4937TIP3   OH214755   0.395   4.260   3.833
 4937TIP3    H114756   0.335   4.322   3.875
 4937TIP3    H214757   0.347   4.231   3.755
 4938TIP3   OH214758   6.288   2.935   6.180
 4938TIP3    H114759   6.194   2.920   6.165
 4938TIP3    H214760   6.324   2.949   6.093
 4939TIP3   OH214761   4.237   3.916   5.565
 4939TIP3    H114762   4.177   3.987   5.585
 4939TIP3    H214763   4.203   3.841   5.613
 4940TIP3   OH214764   0.538   0.394   5.617
 4940TIP3    H114765   0.571   0.322   5.564
 4940TIP3    H214766   0.581   0.383   5.702
 4941TIP3   OH214767   3.973   4.025   0.445
 4941TIP3    H114768   3.922   4.056   0.371
 4941TIP3    H214769   4.062   4.015   0.411
 4942TIP3   OH214770   2.292   3.168   6.365
 4942TIP3    H114771   2.299   3.091   6.421
 4942TIP3    H214772   2.239   3.230   6.415
 4943TIP3   OH214773   7.572   6.864   2.826
 4943TIP3    H114774   7.569   6.889   2.918
 4943TIP3    H214775   7.644   6.915   2.790
 4944TIP3   OH214776   6.870   6.266   0.935
 4944TIP3    H114777   6.822   6.348   0.934
 4944TIP3    H214778   6.839   6.222   1.015
 4945TIP3   OH214779   7.139   4.176   6.488
 4945TIP3    H114780   7.206   4.112   6.464
 4945TIP3    H214781   7.184   4.240   6.543
 4946TIP3   OH214782   7.779   1.506   4.613
 4946TIP3    H114783   7.827   1.428   4.586
 4946TIP3    H214784   7.722   1.527   4.539
 4947TIP3   OH214785   6.416   3.327   4.739
 4947TIP3    H114786   6.497   3.301   4.782
 4947TIP3    H214787   6.443   3.391   4.674
 4948TIP3   OH214788   4.209   5.939   1.127
 4948TIP3    H114789   4.123   5.958   1.165
 4948TIP3    H214790   4.247   6.025   1.111
 4949TIP3   OH214791   3.604   5.617   5.836
 4949TIP3    H114792   3.643   5.637   5.921
 4949TIP3    H214793   3.627   5.693   5.781
 4950TIP3   OH214794   1.484   6.786   3.955
 4950TIP3    H114795   1.454   6.780   3.864
 4950TIP3    H214796   1.532   6.868   3.958
 4951TIP3   OH214797   4.967   2.291   1.659
 4951TIP3    H114798   5.014   2.354   1.605
 4951TIP3    H214799   5.006   2.207   1.637
 4952TIP3   OH214800   3.823   4.873   1.597
 4952TIP3    H114801   3.893   4.900   1.656
 4952TIP3    H214802   3.864   4.872   1.510
 4953TIP3   OH214803   2.056   3.298   0.039
 4953TIP3    H114804   2.110   3.236   0.089
 4953TIP3    H214805   2.098   3.383   0.052
 4954TIP3   OH214806   0.677   2.447   3.112
 4954TIP3    H114807   0.687   2.499   3.032
 4954TIP3    H214808   0.714   2.501   3.182
 4955TIP3   OH214809   3.670   1.530   2.381
 4955TIP3    H114810   3.612   1.491   2.446
 4955TIP3    H214811   3.757   1.500   2.406
 4956TIP3   OH214812   3.862   1.770   0.684
 4956TIP3    H114813   3.804   1.829   0.635
 4956TIP3    H214814   3.929   1.828   0.721
 4957TIP3   OH214815   4.641   5.618   1.929
 4957TIP3    H114816   4.546   5.624   1.937
 4957TIP3    H214817   4.659   5.642   1.838
 4958TIP3   OH214818   5.643   1.035   1.188
 4958TIP3    H114819   5.607   1.112   1.144
 4958TIP3    H214820   5.696   1.070   1.259
 4959TIP3   OH214821   8.101   0.941   6.741
 4959TIP3    H114822   8.130   0.959   6.652
 4959TIP3    H214823   8.059   0.855   6.736
 4960TIP3   OH214824   6.574   5.470   5.373
 4960TIP3    H114825   6.537   5.534   5.433
 4960TIP3    H214826   6.610   5.522   5.301
 4961TIP3   OH214827   5.232   2.781   1.524
 4961TIP3    H114828   5.191   2.807   1.442
 4961TIP3    H214829   5.289   2.708   1.500
 4962TIP3   OH214830   4.376   3.771   5.993
 4962TIP3    H114831   4.435   3.745   6.063
 4962TIP3    H214832   4.292   3.784   6.036
 4963TIP3   OH214833   7.515   3.869   4.692
 4963TIP3    H114834   7.551   3.905   4.773
 4963TIP3    H214835   7.473   3.943   4.649
 4964TIP3   OH214836   1.975   6.787   0.963
 4964TIP3    H114837   2.012   6.811   0.877
 4964TIP3    H214838   2.051   6.784   1.021
 4965TIP3   OH214839   5.650   3.448   3.723
 4965TIP3    H114840   5.649   3.423   3.816
 4965TIP3    H214841   5.701   3.529   3.721
 4966TIP3   OH214842   4.711   2.342   2.659
 4966TIP3    H114843   4.771   2.376   2.592
 4966TIP3    H214844   4.642   2.297   2.610
 4967TIP3   OH214845   2.196   7.818   3.573
 4967TIP3    H114846   2.162   7.844   3.487
 4967TIP3    H214847   2.145   7.741   3.597
 4968TIP3   OH214848   1.919   3.213   2.279
 4968TIP3    H114849   1.852   3.174   2.335
 4968TIP3    H214850   1.913   3.307   2.295
 4969TIP3   OH214851   2.527   0.333   3.538
 4969TIP3    H114852   2.508   0.249   3.495
 4969TIP3    H214853   2.469   0.395   3.494
 4970TIP3   OH214854   1.965   0.701   0.951
 4970TIP3    H114855   1.892   0.676   1.007
 4970TIP3    H214856   1.940   0.668   0.864
 4971TIP3   OH214857   6.720   5.133   5.496
 4971TIP3    H114858   6.732   5.133   5.590
 4971TIP3    H214859   6.648   5.072   5.480
 4972TIP3   OH214860   2.992   6.930   3.081
 4972TIP3    H114861   2.988   6.889   3.167
 4972TIP3    H214862   3.028   6.863   3.023
 4973TIP3   OH214863   4.391   0.883   0.745
 4973TIP3    H114864   4.357   0.929   0.669
 4973TIP3    H214865   4.364   0.935   0.820
 4974TIP3   OH214866   4.100   6.334   5.050
 4974TIP3    H114867   4.171   6.319   5.112
 4974TIP3    H214868   4.084   6.249   5.010
 4975TIP3   OH214869   3.004   5.270   6.648
 4975TIP3    H114870   3.034   5.351   6.605
 4975TIP3    H214871   2.983   5.297   6.737
 4976TIP3   OH214872   4.347   2.398   3.735
 4976TIP3    H114873   4.438   2.380   3.760
 4976TIP3    H214874   4.295   2.358   3.804
 4977TIP3   OH214875   3.053   6.368   6.145
 4977TIP3    H114876   3.015   6.450   6.177
 4977TIP3    H214877   3.027   6.302   6.210
 4978TIP3   OH214878   6.442   3.789   2.152
 4978TIP3    H114879   6.414   3.768   2.063
 4978TIP3    H214880   6.528   3.747   2.161
 4979TIP3   OH214881   6.586   6.175   0.214
 4979TIP3    H114882   6.565   6.224   0.134
 4979TIP3    H214883   6.589   6.084   0.186
 4980TIP3   OH214884   4.190   7.685   0.212
 4980TIP3    H114885   4.097   7.672   0.193
 4980TIP3    H214886   4.214   7.762   0.160
 4981TIP3   OH214887   5.223   5.313   6.588
 4981TIP3    H114888   5.149   5.330   6.647
 4981TIP3    H214889   5.193   5.241   6.532
 4982TIP3   OH214890   8.065   3.644   0.220
 4982TIP3    H114891   8.064   3.583   0.294
 4982TIP3    H214892   7.996   3.707   0.241
 4983TIP3   OH214893   8.240   4.959   5.584
 4983TIP3    H114894   8.317   4.907   5.562
 4983TIP3    H214895   8.176   4.939   5.516
 4984TIP3   OH214896   0.774   6.451   0.154
 4984TIP3    H114897   0.840   6.517   0.131
 4984TIP3    H214898   0.823   6.369   0.160
 4985TIP3   OH214899   0.032   5.019   3.728
 4985TIP3    H114900   0.124   4.993   3.719
 4985TIP3    H214901  -0.014   4.940   3.755
 4986TIP3   OH214902   0.040   6.355   3.866
 4986TIP3    H114903   0.081   6.394   3.943
 4986TIP3    H214904   0.071   6.264   3.866
 4987TIP3   OH214905   6.533   1.085   6.158
 4987TIP3    H114906   6.578   1.089   6.074
 4987TIP3    H214907   6.461   1.023   6.145
 4988TIP3   OH214908   7.909   1.987   0.612
 4988TIP3    H114909   7.832   1.937   0.584
 4988TIP3    H214910   7.873   2.070   0.645
 4989TIP3   OH214911   0.993   3.907   0.838
 4989TIP3    H114912   1.013   3.814   0.824
 4989TIP3    H214913   0.906   3.919   0.800
 4990TIP3   OH214914   0.307   4.214   4.922
 4990TIP3    H114915   0.322   4.254   4.837
 4990TIP3    H214916   0.395   4.202   4.959
 4991TIP3   OH214917   0.647   7.040   4.401
 4991TIP3    H114918   0.569   7.062   4.452
 4991TIP3    H214919   0.708   7.111   4.421
 4992TIP3   OH214920   5.274   6.244   3.041
 4992TIP3    H114921   5.310   6.156   3.053
 4992TIP3    H214922   5.181   6.235   3.059
 4993TIP3   OH214923   5.706   2.598   6.344
 4993TIP3    H114924   5.779   2.582   6.285
 4993TIP3    H214925   5.629   2.598   6.287
 4994TIP3   OH214926   1.303   2.014   6.095
 4994TIP3    H114927   1.338   2.014   6.184
 4994TIP3    H214928   1.318   1.925   6.063
 4995TIP3   OH214929   1.127   2.260   5.137
 4995TIP3    H114930   1.179   2.278   5.058
 4995TIP3    H214931   1.161   2.176   5.169
 4996TIP3   OH214932   5.252   1.127   3.954
 4996TIP3    H114933   5.228   1.051   3.901
 4996TIP3    H214934   5.190   1.126   4.026
 4997TIP3   OH214935   3.149   0.198   4.506
 4997TIP3    H114936   3.203   0.119   4.511
 4997TIP3    H214937   3.207   0.263   4.466
 4998TIP3   OH214938   3.705   2.447   1.199
 4998TIP3    H114939   3.657   2.486   1.126
 4998TIP3    H214940   3.793   2.432   1.165
 4999TIP3   OH214941   4.426   5.115   3.613
 4999TIP3    H114942   4.465   5.191   3.568
 4999TIP3    H214943   4.348   5.094   3.561
 5000TIP3   OH214944   4.793   0.857   5.980
 5000TIP3    H114945   4.839   0.915   6.041
 5000TIP3    H214946   4.734   0.915   5.932
 5001TIP3   OH214947   7.571   0.709   0.751
 5001TIP3    H114948   7.564   0.710   0.656
 5001TIP3    H214949   7.598   0.798   0.774
 5002TIP3   OH214950   0.000   0.594   1.103
 5002TIP3    H114951  -0.023   0.687   1.112
 5002TIP3    H214952  -0.079   0.553   1.069
 5003TIP3   OH214953   0.052   0.588   2.333
 5003TIP3    H114954   0.089   0.639   2.406
 5003TIP3    H214955   0.096   0.623   2.255
 5004TIP3   OH214956   2.472   4.620   5.138
 5004TIP3    H114957   2.431   4.706   5.152
 5004TIP3    H214958   2.529   4.608   5.214
 5005TIP3   OH214959   4.936   3.379   6.752
 5005TIP3    H114960   4.931   3.414   6.663
 5005TIP3    H214961   5.030   3.373   6.770
 5006TIP3   OH214962   2.360   0.222   2.039
 5006TIP3    H114963   2.433   0.276   2.010
 5006TIP3    H214964   2.284   0.257   1.993
 5007TIP3   OH214965   1.059   4.344   5.900
 5007TIP3    H114966   1.079   4.263   5.946
 5007TIP3    H214967   1.025   4.316   5.815
 5008TIP3   OH214968   5.531   1.091   5.805
 5008TIP3    H114969   5.568   1.038   5.876
 5008TIP3    H214970   5.471   1.031   5.760
 5009TIP3   OH214971   3.484   4.218   2.306
 5009TIP3    H114972   3.457   4.243   2.218
 5009TIP3    H214973   3.525   4.133   2.296
 5010TIP3   OH214974   2.190   4.546   6.708
 5010TIP3    H114975   2.153   4.589   6.631
 5010TIP3    H214976   2.257   4.487   6.673
 5011TIP3   OH214977   5.434   2.786   5.922
 5011TIP3    H114978   5.378   2.730   5.868
 5011TIP3    H214979   5.491   2.831   5.859
 5012TIP3   OH214980   6.360   0.914   1.316
 5012TIP3    H114981   6.284   0.856   1.312
 5012TIP3    H214982   6.356   0.963   1.234
 5013TIP3   OH214983   4.436   2.716   2.081
 5013TIP3    H114984   4.520   2.759   2.099
 5013TIP3    H214985   4.443   2.631   2.123
 5014TIP3   OH214986   2.035   5.759   3.687
 5014TIP3    H114987   2.100   5.810   3.733
 5014TIP3    H214988   2.023   5.680   3.741
 5015TIP3   OH214989   3.223   5.646   5.539
 5015TIP3    H114990   3.271   5.592   5.602
 5015TIP3    H214991   3.276   5.641   5.459
 5016TIP3   OH214992   1.953   1.130   5.459
 5016TIP3    H114993   1.867   1.170   5.444
 5016TIP3    H214994   1.947   1.091   5.546
 5017TIP3   OH214995   4.959   6.793   1.214
 5017TIP3    H114996   4.903   6.783   1.290
 5017TIP3    H214997   4.990   6.884   1.217
 5018TIP3   OH214998   0.135   2.946   5.209
 5018TIP3    H114999   0.143   2.970   5.117
 5018TIP3    H215000   0.152   2.852   5.210
 5019TIP3   OH215001   6.836   1.433   1.669
 5019TIP3    H115002   6.852   1.435   1.764
 5019TIP3    H215003   6.878   1.353   1.639
 5020TIP3   OH215004   7.361   2.846   5.475
 5020TIP3    H115005   7.358   2.775   5.540
 5020TIP3    H215006   7.339   2.925   5.525
 5021TIP3   OH215007   7.432   4.055   1.053
 5021TIP3    H115008   7.395   3.969   1.030
 5021TIP3    H215009   7.356   4.109   1.073
 5022TIP3   OH215010   6.646   1.509   5.900
 5022TIP3    H115011   6.561   1.545   5.928
 5022TIP3    H215012   6.689   1.582   5.856
 5023TIP3   OH215013   3.405   2.271   5.094
 5023TIP3    H115014   3.347   2.267   5.170
 5023TIP3    H215015   3.490   2.244   5.129
 5024TIP3   OH215016   6.439   2.583   3.449
 5024TIP3    H115017   6.466   2.498   3.482
 5024TIP3    H215018   6.441   2.574   3.353
 5025TIP3   OH215019   2.687   1.072   1.916
 5025TIP3    H115020   2.622   1.093   1.982
 5025TIP3    H215021   2.732   1.156   1.900
 5026TIP3   OH215022   6.738   3.335   3.428
 5026TIP3    H115023   6.792   3.315   3.351
 5026TIP3    H215024   6.749   3.260   3.485
 5027TIP3   OH215025   1.649   4.035   3.968
 5027TIP3    H115026   1.668   4.126   3.991
 5027TIP3    H215027   1.605   4.039   3.884
 5028TIP3   OH215028   3.295   6.301   6.468
 5028TIP3    H115029   3.284   6.395   6.481
 5028TIP3    H215030   3.385   6.292   6.438
 5029TIP3   OH215031   1.459   5.295   0.789
 5029TIP3    H115032   1.542   5.319   0.748
 5029TIP3    H215033   1.482   5.229   0.854
 5030TIP3   OH215034   1.878  -0.005   5.823
 5030TIP3    H115035   1.849   0.035   5.741
 5030TIP3    H215036   1.973  -0.004   5.819
 5031TIP3   OH215037   4.106   3.022   3.915
 5031TIP3    H115038   4.041   3.092   3.916
 5031TIP3    H215039   4.077   2.962   3.984
 5032TIP3   OH215040   6.385   1.658   5.209
 5032TIP3    H115041   6.396   1.747   5.243
 5032TIP3    H215042   6.355   1.670   5.119
 5033TIP3   OH215043   3.335   6.852   3.338
 5033TIP3    H115044   3.387   6.904   3.401
 5033TIP3    H215045   3.370   6.877   3.252
 5034TIP3   OH215046   8.141   7.413   3.734
 5034TIP3    H115047   8.213   7.385   3.790
 5034TIP3    H215048   8.099   7.332   3.705
 5035TIP3   OH215049   8.207   6.030   3.733
 5035TIP3    H115050   8.150   5.992   3.666
 5035TIP3    H215051   8.291   6.043   3.689
 5036TIP3   OH215052   0.840   1.573   4.129
 5036TIP3    H115053   0.827   1.629   4.052
 5036TIP3    H215054   0.815   1.628   4.203
 5037TIP3   OH215055   4.467   4.358   2.859
 5037TIP3    H115056   4.410   4.283   2.879
 5037TIP3    H215057   4.532   4.322   2.798
 5038TIP3   OH215058   0.011   5.593   6.324
 5038TIP3    H115059  -0.051   5.635   6.265
 5038TIP3    H215060   0.040   5.515   6.276
 5039TIP3   OH215061   1.702   3.790   1.742
 5039TIP3    H115062   1.650   3.871   1.747
 5039TIP3    H215063   1.792   3.821   1.735
 5040TIP3   OH215064   1.412   4.890   6.213
 5040TIP3    H115065   1.446   4.838   6.141
 5040TIP3    H215066   1.317   4.883   6.206
 5041TIP3   OH215067   7.847   0.591   4.141
 5041TIP3    H115068   7.820   0.639   4.063
 5041TIP3    H215069   7.942   0.579   4.130
 5042TIP3   OH215070   5.131   2.099   5.372
 5042TIP3    H115071   5.161   2.133   5.455
 5042TIP3    H215072   5.085   2.172   5.330
 5043TIP3   OH215073   4.594   6.756   0.516
 5043TIP3    H115074   4.578   6.828   0.576
 5043TIP3    H215075   4.512   6.706   0.515
 5044TIP3   OH215076   1.025   2.355   5.866
 5044TIP3    H115077   1.053   2.266   5.847
 5044TIP3    H215078   1.055   2.407   5.791
 5045TIP3   OH215079   5.622   6.518   4.576
 5045TIP3    H115080   5.630   6.557   4.489
 5045TIP3    H215081   5.665   6.581   4.634
 5046TIP3   OH215082   2.037   1.109   0.419
 5046TIP3    H115083   2.092   1.150   0.353
 5046TIP3    H215084   2.076   1.135   0.503
 5047TIP3   OH215085   6.991   1.489   6.184
 5047TIP3    H115086   7.086   1.498   6.190
 5047TIP3    H215087   6.977   1.401   6.149
 5048TIP3   OH215088   1.261   4.072   3.718
 5048TIP3    H115089   1.342   4.117   3.695
 5048TIP3    H215090   1.217   4.057   3.635
 5049TIP3   OH215091   5.098   2.935   4.972
 5049TIP3    H115092   5.159   2.982   5.028
 5049TIP3    H215093   5.056   3.002   4.919
 5050TIP3   OH215094   3.247   5.126   5.140
 5050TIP3    H115095   3.301   5.204   5.152
 5050TIP3    H215096   3.157   5.157   5.145
 5051TIP3   OH215097   5.035   4.971   2.154
 5051TIP3    H115098   5.089   4.967   2.075
 5051TIP3    H215099   5.098   4.983   2.225
 5052TIP3   OH215100   7.295   4.565   6.320
 5052TIP3    H115101   7.199   4.558   6.320
 5052TIP3    H215102   7.314   4.622   6.394
 5053TIP3   OH215103   2.264   4.141   6.386
 5053TIP3    H115104   2.257   4.233   6.360
 5053TIP3    H215105   2.216   4.135   6.468
 5054TIP3   OH215106   2.915   6.343   0.630
 5054TIP3    H115107   2.897   6.258   0.670
 5054TIP3    H215108   2.922   6.324   0.536
 5055TIP3   OH215109   6.733   3.585   2.666
 5055TIP3    H115110   6.735   3.577   2.570
 5055TIP3    H215111   6.641   3.600   2.687
 5056TIP3   OH215112   7.247   1.911   3.014
 5056TIP3    H115113   7.165   1.939   2.973
 5056TIP3    H215114   7.220   1.871   3.096
 5057TIP3   OH215115   4.517   5.100   0.171
 5057TIP3    H115116   4.455   5.049   0.119
 5057TIP3    H215117   4.602   5.059   0.154
 5058TIP3   OH215118   5.690   1.902   4.064
 5058TIP3    H115119   5.656   1.909   4.153
 5058TIP3    H215120   5.713   1.991   4.039
 5059TIP3   OH215121   0.691   6.380   6.612
 5059TIP3    H115122   0.765   6.319   6.609
 5059TIP3    H215123   0.720   6.448   6.673
 5060TIP3   OH215124   6.626   1.734   4.321
 5060TIP3    H115125   6.714   1.753   4.289
 5060TIP3    H215126   6.627   1.758   4.413
 5061TIP3   OH215127   1.563   1.113   0.312
 5061TIP3    H115128   1.647   1.157   0.331
 5061TIP3    H215129   1.583   1.056   0.237
 5062TIP3   OH215130   4.554   6.322   5.062
 5062TIP3    H115131   4.476   6.297   5.013
 5062TIP3    H215132   4.523   6.385   5.127
 5063TIP3   OH215133   6.315   7.017   2.342
 5063TIP3    H115134   6.258   7.092   2.322
 5063TIP3    H215135   6.387   7.054   2.392
 5064TIP3   OH215136   1.364   1.504   5.225
 5064TIP3    H115137   1.444   1.547   5.195
 5064TIP3    H215138   1.389   1.459   5.305
 5065TIP3   OH215139   1.079   3.212   6.457
 5065TIP3    H115140   0.986   3.231   6.441
 5065TIP3    H215141   1.090   3.121   6.429
 5066TIP3   OH215142   7.219   5.303   3.421
 5066TIP3    H115143   7.173   5.320   3.503
 5066TIP3    H215144   7.201   5.211   3.401
 5067TIP3   OH215145   3.201   2.613   6.619
 5067TIP3    H115146   3.287   2.582   6.647
 5067TIP3    H215147   3.196   2.703   6.651
 5068TIP3   OH215148   0.101   0.188   4.980
 5068TIP3    H115149   0.040   0.195   5.054
 5068TIP3    H215150   0.154   0.267   4.986
 5069TIP3   OH215151   8.226   0.711   5.930
 5069TIP3    H115152   8.310   0.756   5.920
 5069TIP3    H215153   8.161   0.778   5.908
 5070TIP3   OH215154   7.253   5.910   2.328
 5070TIP3    H115155   7.192   5.980   2.306
 5070TIP3    H215156   7.320   5.915   2.260
 5071TIP3   OH215157   7.737   2.117   4.726
 5071TIP3    H115158   7.830   2.134   4.709
 5071TIP3    H215159   7.699   2.204   4.738
 5072TIP3   OH215160   5.829   4.429   0.416
 5072TIP3    H115161   5.846   4.360   0.480
 5072TIP3    H215162   5.901   4.491   0.427
 5073TIP3   OH215163   2.776   3.165   0.675
 5073TIP3    H115164   2.852   3.176   0.732
 5073TIP3    H215165   2.702   3.197   0.727
 5074TIP3   OH215166   2.443   1.443   3.407
 5074TIP3    H115167   2.383   1.398   3.466
 5074TIP3    H215168   2.490   1.505   3.463
 5075TIP3   OH215169   3.565   4.304   4.453
 5075TIP3    H115170   3.648   4.348   4.433
 5075TIP3    H215171   3.499   4.356   4.407
 5076TIP3   OH215172   5.952   4.091   0.153
 5076TIP3    H115173   5.983   4.162   0.096
 5076TIP3    H215174   5.896   4.038   0.096
 5077TIP3   OH215175   3.192   0.763   0.575
 5077TIP3    H115176   3.194   0.720   0.661
 5077TIP3    H215177   3.103   0.748   0.543
 5078TIP3   OH215178   3.144   1.046   4.256
 5078TIP3    H115179   3.151   1.082   4.345
 5078TIP3    H215180   3.124   1.121   4.201
 5079TIP3   OH215181   0.373   7.778   2.089
 5079TIP3    H115182   0.449   7.733   2.054
 5079TIP3    H215183   0.326   7.809   2.012
 5080TIP3   OH215184   1.158   5.037   5.148
 5080TIP3    H115185   1.190   4.954   5.183
 5080TIP3    H215186   1.062   5.031   5.157
 5081TIP3   OH215187   6.266   7.729   6.371
 5081TIP3    H115188   6.228   7.805   6.327
 5081TIP3    H215189   6.266   7.661   6.305
 5082TIP3   OH215190   3.473   7.279   6.324
 5082TIP3    H115191   3.380   7.270   6.303
 5082TIP3    H215192   3.518   7.236   6.252
 5083TIP3   OH215193   5.159   5.285   4.915
 5083TIP3    H115194   5.176   5.366   4.868
 5083TIP3    H215195   5.070   5.261   4.889
 5084TIP3   OH215196   5.281   4.186   3.679
 5084TIP3    H115197   5.365   4.227   3.657
 5084TIP3    H215198   5.298   4.137   3.759
 5085TIP3   OH215199   0.415   7.253   1.108
 5085TIP3    H115200   0.351   7.215   1.048
 5085TIP3    H215201   0.365   7.274   1.186
 5086TIP3   OH215202   2.902   2.714   0.552
 5086TIP3    H115203   2.913   2.650   0.482
 5086TIP3    H215204   2.820   2.689   0.595
 5087TIP3   OH215205   7.906   5.795   6.344
 5087TIP3    H115206   7.831   5.827   6.394
 5087TIP3    H215207   7.972   5.776   6.410
 5088TIP3   OH215208   4.308   1.209   3.095
 5088TIP3    H115209   4.261   1.175   3.171
 5088TIP3    H215210   4.285   1.302   3.092
 5089TIP3   OH215211   5.246   6.471   1.388
 5089TIP3    H115212   5.185   6.484   1.315
 5089TIP3    H215213   5.189   6.449   1.463
 5090TIP3   OH215214   2.386   0.236   0.600
 5090TIP3    H115215   2.358   0.178   0.529
 5090TIP3    H215216   2.454   0.290   0.562
 5091TIP3   OH215217   5.873   0.968   1.027
 5091TIP3    H115218   5.896   0.907   1.097
 5091TIP3    H215219   5.793   1.011   1.058
 5092TIP3   OH215220   4.449   2.340   0.005
 5092TIP3    H115221   4.354   2.347   0.018
 5092TIP3    H215222   4.476   2.268   0.061
 5093TIP3   OH215223   0.458   3.896   0.382
 5093TIP3    H115224   0.384   3.927   0.433
 5093TIP3    H215225   0.443   3.931   0.294
 5094TIP3   OH215226   0.732   3.326   1.256
 5094TIP3    H115227   0.805   3.363   1.305
 5094TIP3    H215228   0.761   3.329   1.165
 5095TIP3   OH215229   4.439   1.243   0.482
 5095TIP3    H115230   4.431   1.148   0.479
 5095TIP3    H215231   4.453   1.264   0.574
 5096TIP3   OH215232   0.083   7.480   2.339
 5096TIP3    H115233   0.126   7.552   2.385
 5096TIP3    H215234  -0.004   7.476   2.378
 5097TIP3   OH215235   3.413   6.947   6.600
 5097TIP3    H115236   3.320   6.925   6.602
 5097TIP3    H215237   3.416   7.043   6.600
 5098TIP3   OH215238   4.942   7.027   6.222
 5098TIP3    H115239   4.950   6.932   6.217
 5098TIP3    H215240   4.925   7.054   6.131
 5099TIP3   OH215241   8.076   2.857   3.390
 5099TIP3    H115242   8.096   2.854   3.484
 5099TIP3    H215243   8.092   2.948   3.365
 5100TIP3   OH215244   3.852   7.320   6.603
 5100TIP3    H115245   3.933   7.279   6.633
 5100TIP3    H215246   3.784   7.282   6.657
 5101TIP3   OH215247   3.071   5.409   4.111
 5101TIP3    H115248   3.097   5.498   4.088
 5101TIP3    H215249   3.089   5.358   4.032
 5102TIP3   OH215250   2.659   3.417   4.144
 5102TIP3    H115251   2.635   3.509   4.147
 5102TIP3    H215252   2.707   3.402   4.225
 5103TIP3   OH215253   5.300   2.579   5.737
 5103TIP3    H115254   5.390   2.550   5.723
 5103TIP3    H215255   5.285   2.645   5.669
 5104TIP3   OH215256   5.628   6.355   5.216
 5104TIP3    H115257   5.535   6.331   5.212
 5104TIP3    H215258   5.653   6.338   5.306
 5105TIP3   OH215259   4.891   6.573   0.247
 5105TIP3    H115260   4.891   6.611   0.159
 5105TIP3    H215261   4.962   6.508   0.245
 5106TIP3   OH215262   3.106   4.680   1.753
 5106TIP3    H115263   3.062   4.723   1.679
 5106TIP3    H215264   3.163   4.615   1.713
 5107TIP3   OH215265   0.315   3.981   1.408
 5107TIP3    H115266   0.308   3.990   1.503
 5107TIP3    H215267   0.377   4.049   1.382
 5108TIP3   OH215268   2.483   5.339   1.499
 5108TIP3    H115269   2.443   5.408   1.446
 5108TIP3    H215270   2.543   5.294   1.439
 5109TIP3   OH215271   3.821   3.530   4.962
 5109TIP3    H115272   3.767   3.529   5.041
 5109TIP3    H215273   3.853   3.619   4.956
 5110TIP3   OH215274   6.452   3.036   2.807
 5110TIP3    H115275   6.395   2.969   2.770
 5110TIP3    H215276   6.393   3.107   2.832
 5111TIP3   OH215277   1.606   7.065   2.905
 5111TIP3    H115278   1.611   7.130   2.836
 5111TIP3    H215279   1.512   7.056   2.923
 5112TIP3   OH215280   7.359   0.723   5.904
 5112TIP3    H115281   7.416   0.796   5.931
 5112TIP3    H215282   7.282   0.732   5.960
 5113TIP3   OH215283   7.897   3.366   2.846
 5113TIP3    H115284   7.919   3.378   2.938
 5113TIP3    H215285   7.823   3.424   2.830
 5114TIP3   OH215286   1.197   0.571   1.594
 5114TIP3    H115287   1.245   0.530   1.667
 5114TIP3    H215288   1.203   0.506   1.523
 5115TIP3   OH215289   8.013   1.835   2.986
 5115TIP3    H115290   8.021   1.816   3.079
 5115TIP3    H215291   7.919   1.843   2.971
 5116TIP3   OH215292   3.171   1.335   4.210
 5116TIP3    H115293   3.194   1.281   4.134
 5116TIP3    H215294   3.254   1.368   4.243
 5117TIP3   OH215295   0.882   1.038   1.328
 5117TIP3    H115296   0.942   1.068   1.260
 5117TIP3    H215297   0.795   1.066   1.298
 5118TIP3   OH215298   7.529   4.702   1.120
 5118TIP3    H115299   7.515   4.684   1.027
 5118TIP3    H215300   7.443   4.686   1.161
 5119TIP3   OH215301   1.708   3.872   4.717
 5119TIP3    H115302   1.655   3.833   4.786
 5119TIP3    H215303   1.646   3.887   4.645
 5120TIP3   OH215304   1.257   0.901   6.211
 5120TIP3    H115305   1.178   0.903   6.157
 5120TIP3    H215306   1.230   0.857   6.291
 5121TIP3   OH215307   4.158   7.109   2.634
 5121TIP3    H115308   4.213   7.177   2.674
 5121TIP3    H215309   4.199   7.090   2.550
 5122TIP3   OH215310   5.427   6.116   2.804
 5122TIP3    H115311   5.365   6.187   2.817
 5122TIP3    H215312   5.376   6.047   2.761
 5123TIP3   OH215313   5.829   0.314   4.803
 5123TIP3    H115314   5.871   0.340   4.885
 5123TIP3    H215315   5.894   0.332   4.735
 5124TIP3   OH215316   6.430   1.579   2.629
 5124TIP3    H115317   6.353   1.631   2.650
 5124TIP3    H215318   6.419   1.556   2.537
 5125TIP3   OH215319   4.213   2.799   0.382
 5125TIP3    H115320   4.144   2.754   0.431
 5125TIP3    H215321   4.236   2.874   0.437
 5126TIP3   OH215322   4.363   0.199   2.421
 5126TIP3    H115323   4.281   0.246   2.433
 5126TIP3    H215324   4.364   0.177   2.328
 5127TIP3   OH215325   3.347   0.470   0.544
 5127TIP3    H115326   3.346   0.552   0.496
 5127TIP3    H215327   3.255   0.443   0.548
 5128TIP3   OH215328   6.972   7.338   4.678
 5128TIP3    H115329   7.036   7.331   4.749
 5128TIP3    H215330   6.907   7.270   4.698
 5129TIP3   OH215331   4.328   1.839   3.785
 5129TIP3    H115332   4.241   1.865   3.813
 5129TIP3    H215333   4.378   1.921   3.783
 5130TIP3   OH215334   0.955   5.482   5.172
 5130TIP3    H115335   0.957   5.390   5.146
 5130TIP3    H215336   0.925   5.529   5.094
 5131TIP3   OH215337   5.245   0.952   4.202
 5131TIP3    H115338   5.316   0.924   4.144
 5131TIP3    H215339   5.267   1.042   4.226
 5132TIP3   OH215340   0.297   5.677   5.792
 5132TIP3    H115341   0.255   5.661   5.707
 5132TIP3    H215342   0.224   5.699   5.850
 5133TIP3   OH215343   6.747   5.118   5.805
 5133TIP3    H115344   6.696   5.085   5.880
 5133TIP3    H215345   6.832   5.076   5.814
 5134TIP3   OH215346   3.139   6.681   2.060
 5134TIP3    H115347   3.226   6.660   2.026
 5134TIP3    H215348   3.079   6.659   1.989
 5135TIP3   OH215349   5.162   2.893   3.967
 5135TIP3    H115350   5.090   2.954   3.979
 5135TIP3    H215351   5.121   2.814   3.930
 5136TIP3   OH215352   0.918   5.839   6.715
 5136TIP3    H115353   0.929   5.752   6.676
 5136TIP3    H215354   1.006   5.876   6.715
 5137TIP3   OH215355   5.665   5.306   3.263
 5137TIP3    H115356   5.735   5.241   3.268
 5137TIP3    H215357   5.657   5.339   3.352
 5138TIP3   OH215358   5.507   3.729   3.116
 5138TIP3    H115359   5.559   3.682   3.050
 5138TIP3    H215360   5.500   3.666   3.189
 5139TIP3   OH215361   6.529   2.439   4.078
 5139TIP3    H115362   6.486   2.403   4.156
 5139TIP3    H215363   6.504   2.380   4.007
 5140TIP3   OH215364   3.472   5.900   5.223
 5140TIP3    H115365   3.405   5.961   5.252
 5140TIP3    H215366   3.553   5.932   5.262
 5141TIP3   OH215367   5.506   2.933   5.362
 5141TIP3    H115368   5.464   2.911   5.279
 5141TIP3    H215369   5.527   3.027   5.355
 5142TIP3   OH215370   7.268   6.542   5.578
 5142TIP3    H115371   7.259   6.448   5.595
 5142TIP3    H215372   7.357   6.563   5.603
 5143TIP3   OH215373   0.704   5.159   4.657
 5143TIP3    H115374   0.677   5.165   4.749
 5143TIP3    H215375   0.639   5.100   4.617
 5144TIP3   OH215376   2.549   6.809   1.724
 5144TIP3    H115377   2.454   6.799   1.715
 5144TIP3    H215378   2.584   6.786   1.638
 5145TIP3   OH215379   3.309   7.838   6.638
 5145TIP3    H115380   3.324   7.756   6.686
 5145TIP3    H215381   3.215   7.842   6.626
 5146TIP3   OH215382   8.017   2.913   6.677
 5146TIP3    H115383   7.965   2.835   6.697
 5146TIP3    H215384   7.977   2.982   6.730
 5147TIP3   OH215385   1.425   2.426   4.281
 5147TIP3    H115386   1.409   2.464   4.368
 5147TIP3    H215387   1.358   2.465   4.225
 5148TIP3   OH215388   0.394   2.294   1.351
 5148TIP3    H115389   0.412   2.378   1.310
 5148TIP3    H215390   0.424   2.229   1.288
 5149TIP3   OH215391   2.651   7.379   0.481
 5149TIP3    H115392   2.585   7.421   0.535
 5149TIP3    H215393   2.688   7.450   0.429
 5150TIP3   OH215394   7.389   7.581   2.475
 5150TIP3    H115395   7.295   7.579   2.458
 5150TIP3    H215396   7.398   7.636   2.553
 5151TIP3   OH215397   8.210   2.528   2.449
 5151TIP3    H115398   8.121   2.557   2.429
 5151TIP3    H215399   8.203   2.432   2.455
 5152TIP3   OH215400   5.509   2.400   3.546
 5152TIP3    H115401   5.437   2.452   3.581
 5152TIP3    H215402   5.557   2.371   3.623
 5153TIP3   OH215403   1.621   6.038   3.785
 5153TIP3    H115404   1.542   6.012   3.833
 5153TIP3    H215405   1.598   6.123   3.747
 5154TIP3   OH215406   3.115   3.356   3.827
 5154TIP3    H115407   3.079   3.285   3.774
 5154TIP3    H215408   3.178   3.399   3.770
 5155TIP3   OH215409   5.463   1.683   2.858
 5155TIP3    H115410   5.382   1.633   2.851
 5155TIP3    H215411   5.472   1.727   2.773
 5156TIP3   OH215412   3.869   5.479   2.665
 5156TIP3    H115413   3.956   5.478   2.624
 5156TIP3    H215414   3.857   5.389   2.697
 5157TIP3   OH215415   1.474   0.551   6.069
 5157TIP3    H115416   1.539   0.556   5.999
 5157TIP3    H215417   1.477   0.460   6.098
 5158TIP3   OH215418   2.820   7.238   6.354
 5158TIP3    H115419   2.745   7.207   6.304
 5158TIP3    H215420   2.815   7.333   6.350
 5159TIP3   OH215421   1.862   4.237   1.278
 5159TIP3    H115422   1.838   4.215   1.188
 5159TIP3    H215423   1.918   4.164   1.306
 5160TIP3   OH215424   0.701   1.411   3.900
 5160TIP3    H115425   0.620   1.368   3.871
 5160TIP3    H215426   0.675   1.501   3.918
 5161TIP3   OH215427   1.597   5.575   1.292
 5161TIP3    H115428   1.568   5.660   1.258
 5161TIP3    H215429   1.676   5.596   1.342
 5162TIP3   OH215430   4.243   7.537   6.667
 5162TIP3    H115431   4.260   7.479   6.592
 5162TIP3    H215432   4.302   7.506   6.735
 5163TIP3   OH215433   1.937   4.627   0.160
 5163TIP3    H115434   1.981   4.710   0.140
 5163TIP3    H215435   1.992   4.561   0.119
 5164TIP3   OH215436   6.364   0.828   5.656
 5164TIP3    H115437   6.398   0.917   5.667
 5164TIP3    H215438   6.284   0.826   5.708
 5165TIP3   OH215439   1.402   1.640   6.235
 5165TIP3    H115440   1.448   1.717   6.270
 5165TIP3    H215441   1.454   1.565   6.264
 5166TIP3   OH215442   5.807   1.804   4.996
 5166TIP3    H115443   5.902   1.808   5.008
 5166TIP3    H215444   5.774   1.882   5.041
 5167TIP3   OH215445   7.973   1.560   3.905
 5167TIP3    H115446   8.019   1.643   3.912
 5167TIP3    H215447   7.888   1.582   3.867
 5168TIP3   OH215448   1.135   4.893   6.146
 5168TIP3    H115449   1.040   4.890   6.158
 5168TIP3    H215450   1.158   4.805   6.114
 5169TIP3   OH215451   7.620   4.208   2.755
 5169TIP3    H115452   7.658   4.282   2.802
 5169TIP3    H215453   7.694   4.150   2.737
 5170TIP3   OH215454   2.541   1.975   4.711
 5170TIP3    H115455   2.587   1.949   4.790
 5170TIP3    H215456   2.506   2.062   4.731
 5171TIP3   OH215457   1.751   5.459   5.983
 5171TIP3    H115458   1.671   5.406   5.986
 5171TIP3    H215459   1.773   5.466   5.891
 5172TIP3   OH215460   4.099   5.848   3.514
 5172TIP3    H115461   4.142   5.897   3.584
 5172TIP3    H215462   4.093   5.910   3.441
 5173TIP3   OH215463   4.714   4.498   5.320
 5173TIP3    H115464   4.788   4.481   5.379
 5173TIP3    H215465   4.754   4.508   5.234
 5174TIP3   OH215466   1.347   2.690   1.370
 5174TIP3    H115467   1.387   2.774   1.348
 5174TIP3    H215468   1.420   2.628   1.369
 5175TIP3   OH215469   8.138   7.294   4.100
 5175TIP3    H115470   8.119   7.201   4.091
 5175TIP3    H215471   8.184   7.302   4.184
 5176TIP3   OH215472   4.209   4.289   1.371
 5176TIP3    H115473   4.165   4.359   1.323
 5176TIP3    H215474   4.138   4.239   1.412
 5177TIP3   OH215475   1.554   0.350   5.237
 5177TIP3    H115476   1.597   0.321   5.156
 5177TIP3    H215477   1.551   0.271   5.292
 5178TIP3   OH215478   0.814   2.342   5.496
 5178TIP3    H115479   0.872   2.414   5.522
 5178TIP3    H215480   0.738   2.351   5.554
 5179TIP3   OH215481   1.455   2.495   2.958
 5179TIP3    H115482   1.409   2.578   2.950
 5179TIP3    H215483   1.545   2.515   2.932
 5180TIP3   OH215484   7.641   6.031   2.350
 5180TIP3    H115485   7.550   6.008   2.332
 5180TIP3    H215486   7.669   5.967   2.415
 5181TIP3   OH215487   7.794   3.516   2.308
 5181TIP3    H115488   7.760   3.536   2.396
 5181TIP3    H215489   7.746   3.574   2.250
 5182TIP3   OH215490   4.562   5.391   0.209
 5182TIP3    H115491   4.654   5.391   0.234
 5182TIP3    H215492   4.534   5.300   0.219
 5183TIP3   OH215493   7.302   7.447   0.121
 5183TIP3    H115494   7.378   7.406   0.162
 5183TIP3    H215495   7.229   7.389   0.145
 5184TIP3   OH215496   1.523   0.080   0.350
 5184TIP3    H115497   1.544   0.003   0.403
 5184TIP3    H215498   1.571   0.067   0.268
 5185TIP3   OH215499   3.247   1.532   1.755
 5185TIP3    H115500   3.197   1.472   1.700
 5185TIP3    H215501   3.264   1.608   1.699
 5186TIP3   OH215502   3.584   3.699   0.934
 5186TIP3    H115503   3.531   3.763   0.981
 5186TIP3    H215504   3.542   3.615   0.952
 5187TIP3   OH215505   3.023   7.261   1.541
 5187TIP3    H115506   2.993   7.292   1.455
 5187TIP3    H215507   3.118   7.261   1.535
 5188TIP3   OH215508   7.764   5.205   5.753
 5188TIP3    H115509   7.859   5.211   5.754
 5188TIP3    H215510   7.734   5.291   5.723
 5189TIP3   OH215511   6.572   1.049   1.081
 5189TIP3    H115512   6.604   0.964   1.051
 5189TIP3    H215513   6.484   1.032   1.114
 5190TIP3   OH215514   8.022   2.317   1.887
 5190TIP3    H115515   7.994   2.398   1.846
 5190TIP3    H215516   8.032   2.339   1.980
 5191TIP3   OH215517   2.814   6.481   1.166
 5191TIP3    H115518   2.722   6.467   1.145
 5191TIP3    H215519   2.816   6.563   1.216
 5192TIP3   OH215520   5.926   1.187   3.450
 5192TIP3    H115521   5.879   1.146   3.377
 5192TIP3    H215522   5.929   1.119   3.518
 5193TIP3   OH215523   4.064   3.809   4.584
 5193TIP3    H115524   3.974   3.843   4.590
 5193TIP3    H215525   4.106   3.840   4.664
 5194TIP3   OH215526   1.504   3.619   6.390
 5194TIP3    H115527   1.512   3.709   6.422
 5194TIP3    H215528   1.593   3.586   6.388
 5195TIP3   OH215529   6.295   3.940   1.459
 5195TIP3    H115530   6.296   3.933   1.364
 5195TIP3    H215531   6.203   3.953   1.481
 5196TIP3   OH215532   4.256   2.396   2.291
 5196TIP3    H115533   4.222   2.315   2.330
 5196TIP3    H215534   4.191   2.419   2.225
 5197TIP3   OH215535   0.071   1.879   4.991
 5197TIP3    H115536   0.157   1.852   4.958
 5197TIP3    H215537   0.015   1.802   4.978
 5198TIP3   OH215538   2.216   1.290   4.368
 5198TIP3    H115539   2.221   1.322   4.459
 5198TIP3    H215540   2.291   1.331   4.325
 5199TIP3   OH215541   3.948   5.195   6.026
 5199TIP3    H115542   3.897   5.254   5.971
 5199TIP3    H215543   4.038   5.227   6.019
 5200TIP3   OH215544   0.946   2.088   0.016
 5200TIP3    H115545   0.858   2.063   0.044
 5200TIP3    H215546   0.940   2.182   0.000
 5201TIP3   OH215547   5.816   7.304   4.300
 5201TIP3    H115548   5.888   7.364   4.319
 5201TIP3    H215549   5.858   7.226   4.266
 5202TIP3   OH215550   5.911   1.510   2.490
 5202TIP3    H115551   5.991   1.463   2.513
 5202TIP3    H215552   5.854   1.499   2.566
 5203TIP3   OH215553   1.927   0.591   3.327
 5203TIP3    H115554   1.984   0.514   3.333
 5203TIP3    H215555   1.838   0.556   3.330
 5204TIP3   OH215556   1.619   2.238   3.716
 5204TIP3    H115557   1.547   2.284   3.759
 5204TIP3    H215558   1.588   2.225   3.626
 5205TIP3   OH215559   4.966   1.574   2.515
 5205TIP3    H115560   4.986   1.520   2.591
 5205TIP3    H215561   4.877   1.605   2.530
 5206TIP3   OH215562   7.590   6.383   3.464
 5206TIP3    H115563   7.586   6.290   3.441
 5206TIP3    H215564   7.683   6.403   3.469
 5207TIP3   OH215565   0.409   1.514   6.107
 5207TIP3    H115566   0.497   1.502   6.069
 5207TIP3    H215567   0.370   1.583   6.055
 5208TIP3   OH215568   0.068   1.478   1.702
 5208TIP3    H115569   0.150   1.455   1.746
 5208TIP3    H215570   0.090   1.478   1.609
 5209TIP3   OH215571   5.462   6.577   2.262
 5209TIP3    H115572   5.511   6.657   2.245
 5209TIP3    H215573   5.373   6.597   2.232
 5210TIP3   OH215574   6.269   5.901   5.908
 5210TIP3    H115575   6.306   5.844   5.975
 5210TIP3    H215576   6.339   5.963   5.888
 5211TIP3   OH215577   6.134   6.921   3.754
 5211TIP3    H115578   6.049   6.926   3.709
 5211TIP3    H215579   6.171   7.008   3.747
 5212TIP3   OH215580   8.035   0.262   5.511
 5212TIP3    H115581   7.953   0.310   5.523
 5212TIP3    H215582   8.044   0.255   5.416
 5213TIP3   OH215583   4.366   4.477   2.151
 5213TIP3    H115584   4.370   4.478   2.247
 5213TIP3    H215585   4.275   4.455   2.131
 5214TIP3   OH215586   7.645   1.207   5.195
 5214TIP3    H115587   7.662   1.272   5.263
 5214TIP3    H215588   7.554   1.182   5.208
 5215TIP3   OH215589   4.786   3.517   0.757
 5215TIP3    H115590   4.873   3.557   0.752
 5215TIP3    H215591   4.773   3.478   0.671
 5216TIP3   OH215592   6.588   4.663   0.447
 5216TIP3    H115593   6.679   4.655   0.477
 5216TIP3    H215594   6.582   4.753   0.415
 5217TIP3   OH215595   0.900   6.069   0.783
 5217TIP3    H115596   0.938   5.982   0.770
 5217TIP3    H215597   0.975   6.129   0.774
 5218TIP3   OH215598   7.687   4.892   3.437
 5218TIP3    H115599   7.707   4.986   3.436
 5218TIP3    H215600   7.748   4.855   3.500
 5219TIP3   OH215601   6.803   0.302   2.039
 5219TIP3    H115602   6.718   0.310   2.083
 5219TIP3    H215603   6.843   0.389   2.047
 5220TIP3   OH215604   4.280   3.295   0.402
 5220TIP3    H115605   4.328   3.328   0.478
 5220TIP3    H215606   4.245   3.210   0.430
 5221TIP3   OH215607   7.090   2.017   0.456
 5221TIP3    H115608   7.170   2.020   0.509
 5221TIP3    H215609   7.121   2.012   0.366
 5222TIP3   OH215610   7.252   1.443   2.959
 5222TIP3    H115611   7.312   1.430   2.886
 5222TIP3    H215612   7.166   1.453   2.918
 5223TIP3   OH215613   0.704   4.423   5.042
 5223TIP3    H115614   0.671   4.507   5.009
 5223TIP3    H215615   0.764   4.393   4.974
 5224TIP3   OH215616   0.777   6.573   1.965
 5224TIP3    H115617   0.793   6.577   1.870
 5224TIP3    H215618   0.860   6.546   2.002
 5225TIP3   OH215619   5.997   7.421   3.765
 5225TIP3    H115620   5.920   7.439   3.713
 5225TIP3    H215621   5.963   7.389   3.849
 5226TIP3   OH215622   1.767   1.512   2.158
 5226TIP3    H115623   1.720   1.581   2.204
 5226TIP3    H215624   1.798   1.454   2.228
 5227TIP3   OH215625   4.639   6.104   4.106
 5227TIP3    H115626   4.570   6.146   4.157
 5227TIP3    H215627   4.659   6.024   4.154
 5228TIP3   OH215628   2.531   4.979   0.960
 5228TIP3    H115629   2.556   5.064   0.924
 5228TIP3    H215630   2.451   4.955   0.913
 5229TIP3   OH215631   3.034   7.175   4.066
 5229TIP3    H115632   3.117   7.150   4.106
 5229TIP3    H215633   3.004   7.095   4.022
 5230TIP3   OH215634   2.791   6.100   1.959
 5230TIP3    H115635   2.836   6.089   2.043
 5230TIP3    H215636   2.823   6.184   1.926
 5231TIP3   OH215637   4.699   1.160   2.296
 5231TIP3    H115638   4.778   1.198   2.333
 5231TIP3    H215639   4.672   1.094   2.360
 5232TIP3   OH215640   5.864   0.139   4.358
 5232TIP3    H115641   5.772   0.119   4.378
 5232TIP3    H215642   5.861   0.180   4.271
 5233TIP3   OH215643   6.029   2.413   0.515
 5233TIP3    H115644   6.114   2.437   0.477
 5233TIP3    H215645   5.996   2.344   0.457
 5234TIP3   OH215646   1.945   3.204   6.249
 5234TIP3    H115647   2.034   3.178   6.228
 5234TIP3    H215648   1.893   3.125   6.236
 5235TIP3   OH215649   1.392   1.139   4.737
 5235TIP3    H115650   1.480   1.113   4.764
 5235TIP3    H215651   1.405   1.209   4.674
 5236TIP3   OH215652   5.670   5.060   1.001
 5236TIP3    H115653   5.680   5.099   1.088
 5236TIP3    H215654   5.759   5.050   0.969
 5237TIP3   OH215655   1.589   1.509   6.064
 5237TIP3    H115656   1.653   1.551   6.121
 5237TIP3    H215657   1.582   1.420   6.097
 5238TIP3   OH215658   3.482   1.950   5.046
 5238TIP3    H115659   3.416   1.945   4.977
 5238TIP3    H215660   3.561   1.914   5.007
 5239TIP3   OH215661   4.626   1.163   0.266
 5239TIP3    H115662   4.618   1.225   0.194
 5239TIP3    H215663   4.536   1.135   0.284
 5240TIP3   OH215664   3.392   7.462   3.582
 5240TIP3    H115665   3.353   7.522   3.645
 5240TIP3    H215666   3.337   7.384   3.584
 5241TIP3   OH215667   2.713   4.425   3.729
 5241TIP3    H115668   2.744   4.512   3.706
 5241TIP3    H215669   2.656   4.438   3.805
 5242TIP3   OH215670   1.123   3.514   6.349
 5242TIP3    H115671   1.104   3.464   6.428
 5242TIP3    H215672   1.100   3.604   6.371
 5243TIP3   OH215673   6.508   5.462   6.642
 5243TIP3    H115674   6.490   5.402   6.569
 5243TIP3    H215675   6.604   5.472   6.642
 5244TIP3   OH215676   7.648   2.678   2.924
 5244TIP3    H115677   7.733   2.636   2.933
 5244TIP3    H215678   7.617   2.689   3.014
 5245TIP3   OH215679   7.601   0.164   1.125
 5245TIP3    H115680   7.569   0.221   1.055
 5245TIP3    H215681   7.659   0.102   1.080
 5246TIP3   OH215682   2.573   3.023   3.224
 5246TIP3    H115683   2.527   2.945   3.255
 5246TIP3    H215684   2.657   3.021   3.268
 5247TIP3   OH215685   8.097   4.534   6.139
 5247TIP3    H115686   8.148   4.520   6.059
 5247TIP3    H215687   8.060   4.448   6.159
 5248TIP3   OH215688   1.869   1.037   4.484
 5248TIP3    H115689   1.779   1.017   4.507
 5248TIP3    H215690   1.921   0.969   4.527
 5249TIP3   OH215691   6.877   4.508   1.079
 5249TIP3    H115692   6.940   4.529   1.010
 5249TIP3    H215693   6.919   4.440   1.131
 5250TIP3   OH215694   2.653   0.593   5.641
 5250TIP3    H115695   2.607   0.586   5.725
 5250TIP3    H215696   2.649   0.504   5.605
 5251TIP3   OH215697   5.381   4.919   4.095
 5251TIP3    H115698   5.475   4.899   4.092
 5251TIP3    H215699   5.377   5.014   4.083
 5252TIP3   OH215700   7.503   5.680   2.397
 5252TIP3    H115701   7.460   5.614   2.342
 5252TIP3    H215702   7.447   5.687   2.474
 5253TIP3   OH215703   0.609   1.436   2.667
 5253TIP3    H115704   0.569   1.439   2.580
 5253TIP3    H215705   0.595   1.524   2.702
 5254TIP3   OH215706   3.839   0.004   3.520
 5254TIP3    H115707   3.844  -0.052   3.597
 5254TIP3    H215708   3.776  -0.039   3.463
 5255TIP3   OH215709   6.667   3.055   3.584
 5255TIP3    H115710   6.590   2.999   3.568
 5255TIP3    H215711   6.731   3.027   3.518
 5256TIP3   OH215712   2.249   3.906   1.128
 5256TIP3    H115713   2.327   3.853   1.110
 5256TIP3    H215714   2.220   3.936   1.042
 5257TIP3   OH215715   1.866   5.791   6.718
 5257TIP3    H115716   1.822   5.827   6.641
 5257TIP3    H215717   1.918   5.864   6.753
 5258TIP3   OH215718   5.796   3.366   2.486
 5258TIP3    H115719   5.825   3.456   2.503
 5258TIP3    H215720   5.844   3.339   2.408
 5259TIP3   OH215721   7.546   2.779   0.954
 5259TIP3    H115722   7.487   2.839   0.999
 5259TIP3    H215723   7.586   2.728   1.025
 5260TIP3   OH215724   5.521   4.771   6.007
 5260TIP3    H115725   5.509   4.734   6.095
 5260TIP3    H215726   5.604   4.818   6.013
 5261TIP3   OH215727   4.809   6.507   1.332
 5261TIP3    H115728   4.894   6.505   1.287
 5261TIP3    H215729   4.757   6.441   1.286
 5262TIP3   OH215730   5.759   6.313   6.475
 5262TIP3    H115731   5.694   6.328   6.406
 5262TIP3    H215732   5.744   6.383   6.538
 5263TIP3   OH215733   1.852   5.535   0.192
 5263TIP3    H115734   1.817   5.546   0.104
 5263TIP3    H215735   1.895   5.450   0.190
 5264TIP3   OH215736   2.789   0.279   5.951
 5264TIP3    H115737   2.823   0.285   5.862
 5264TIP3    H215738   2.843   0.213   5.994
 5265TIP3   OH215739   4.839   7.154   5.973
 5265TIP3    H115740   4.927   7.175   5.943
 5265TIP3    H215741   4.790   7.236   5.962
 5266TIP3   OH215742   5.424   2.829   6.771
 5266TIP3    H115743   5.482   2.897   6.807
 5266TIP3    H215744   5.483   2.757   6.749
 5267TIP3   OH215745   4.064   7.545   6.006
 5267TIP3    H115746   3.996   7.564   6.071
 5267TIP3    H215747   4.046   7.455   5.979
 5268TIP3   OH215748   0.098   5.437   5.097
 5268TIP3    H115749   0.033   5.474   5.038
 5268TIP3    H215750   0.097   5.343   5.078
 5269TIP3   OH215751   0.917   0.378   0.238
 5269TIP3    H115752   1.003   0.377   0.196
 5269TIP3    H215753   0.935   0.394   0.331
 5270TIP3   OH215754   0.231   1.700   0.242
 5270TIP3    H115755   0.141   1.681   0.215
 5270TIP3    H215756   0.270   1.614   0.258
 5271TIP3   OH215757   6.530   1.568   3.918
 5271TIP3    H115758   6.572   1.482   3.915
 5271TIP3    H215759   6.476   1.570   3.839
 5272TIP3   OH215760   7.689   4.264   3.463
 5272TIP3    H115761   7.752   4.312   3.409
 5272TIP3    H215762   7.739   4.240   3.542
 5273TIP3   OH215763   2.515   0.446   0.414
 5273TIP3    H115764   2.484   0.420   0.327
 5273TIP3    H215765   2.605   0.414   0.418
 5274TIP3   OH215766   6.081   4.863   2.070
 5274TIP3    H115767   6.168   4.822   2.068
 5274TIP3    H215768   6.059   4.869   2.163
 5275TIP3   OH215769   7.960   5.885   4.609
 5275TIP3    H115770   8.022   5.936   4.556
 5275TIP3    H215771   7.941   5.941   4.684
 5276TIP3   OH215772   2.977   6.195   0.974
 5276TIP3    H115773   2.943   6.132   1.038
 5276TIP3    H215774   3.017   6.141   0.906
 5277TIP3   OH215775   4.926   1.011   6.184
 5277TIP3    H115776   4.964   0.988   6.269
 5277TIP3    H215777   4.991   1.068   6.143
 5278TIP3   OH215778   5.760   0.477   2.743
 5278TIP3    H115779   5.845   0.518   2.729
 5278TIP3    H215780   5.772   0.419   2.818
 5279TIP3   OH215781   0.625   6.913   5.425
 5279TIP3    H115782   0.716   6.929   5.451
 5279TIP3    H215783   0.632   6.851   5.353
 5280TIP3   OH215784   6.700   6.864   1.370
 5280TIP3    H115785   6.615   6.906   1.357
 5280TIP3    H215786   6.692   6.818   1.453
 5281TIP3   OH215787   6.171   6.101   0.549
 5281TIP3    H115788   6.081   6.100   0.581
 5281TIP3    H215789   6.196   6.194   0.549
 5282TIP3   OH215790  -0.007   4.715   6.273
 5282TIP3    H115791   0.074   4.722   6.223
 5282TIP3    H215792  -0.070   4.675   6.213
 5283TIP3   OH215793   1.667   1.721   2.294
 5283TIP3    H115794   1.596   1.714   2.230
 5283TIP3    H215795   1.627   1.695   2.377
 5284TIP3   OH215796   7.622   4.500   3.942
 5284TIP3    H115797   7.698   4.446   3.966
 5284TIP3    H215798   7.657   4.564   3.880
 5285TIP3   OH215799   6.502   7.315   0.468
 5285TIP3    H115800   6.542   7.285   0.386
 5285TIP3    H215801   6.413   7.280   0.465
 5286TIP3   OH215802   1.304   0.144   5.994
 5286TIP3    H115803   1.282   0.205   6.064
 5286TIP3    H215804   1.398   0.129   6.004
 5287TIP3   OH215805   4.061   7.147   1.841
 5287TIP3    H115806   4.089   7.174   1.753
 5287TIP3    H215807   4.143   7.138   1.890
 5288TIP3   OH215808   2.882   7.203   5.053
 5288TIP3    H115809   2.789   7.219   5.037
 5288TIP3    H215810   2.898   7.116   5.016
 5289TIP3   OH215811   7.569   0.353   1.337
 5289TIP3    H115812   7.604   0.284   1.280
 5289TIP3    H215813   7.489   0.383   1.294
 5290TIP3   OH215814   3.484   2.561   3.099
 5290TIP3    H115815   3.518   2.598   3.180
 5290TIP3    H215816   3.561   2.531   3.051
 5291TIP3   OH215817   0.716   3.017   5.072
 5291TIP3    H115818   0.663   3.061   5.005
 5291TIP3    H215819   0.699   3.067   5.152
 5292TIP3   OH215820   8.211   1.418   0.574
 5292TIP3    H115821   8.289   1.379   0.536
 5292TIP3    H215822   8.139   1.361   0.547
 5293TIP3   OH215823   3.376   1.781   0.383
 5293TIP3    H115824   3.281   1.795   0.391
 5293TIP3    H215825   3.408   1.861   0.340
 5294TIP3   OH215826   0.431   5.060   0.132
 5294TIP3    H115827   0.424   5.033   0.040
 5294TIP3    H215828   0.524   5.080   0.144
 5295TIP3   OH215829   2.427   7.345   5.490
 5295TIP3    H115830   2.429   7.295   5.571
 5295TIP3    H215831   2.486   7.298   5.431
 5296TIP3   OH215832   1.195   7.292   5.262
 5296TIP3    H115833   1.231   7.379   5.274
 5296TIP3    H215834   1.227   7.265   5.176
 5297TIP3   OH215835   4.941   5.690   4.973
 5297TIP3    H115836   5.018   5.641   4.945
 5297TIP3    H215837   4.867   5.632   4.956
 5298TIP3   OH215838   7.691   7.683   1.062
 5298TIP3    H115839   7.615   7.705   1.007
 5298TIP3    H215840   7.653   7.659   1.146
 5299TIP3   OH215841   3.883   4.038   3.235
 5299TIP3    H115842   3.826   4.102   3.280
 5299TIP3    H215843   3.957   4.026   3.294
 5300TIP3   OH215844   3.187   2.677   0.324
 5300TIP3    H115845   3.194   2.632   0.408
 5300TIP3    H215846   3.277   2.706   0.305
 5301TIP3   OH215847   6.091   1.508   5.027
 5301TIP3    H115848   6.076   1.566   4.953
 5301TIP3    H215849   6.041   1.548   5.099
 5302TIP3   OH215850   4.375   2.929   5.580
 5302TIP3    H115851   4.417   2.895   5.501
 5302TIP3    H215852   4.300   2.978   5.547
 5303TIP3   OH215853   5.438   6.176   1.358
 5303TIP3    H115854   5.356   6.172   1.309
 5303TIP3    H215855   5.490   6.242   1.313
 5304TIP3   OH215856   1.831   3.187   1.093
 5304TIP3    H115857   1.768   3.238   1.144
 5304TIP3    H215858   1.916   3.227   1.113
 5305TIP3   OH215859   7.133   6.536   3.652
 5305TIP3    H115860   7.170   6.449   3.669
 5305TIP3    H215861   7.050   6.518   3.609
 5306TIP3   OH215862   5.018   6.211   3.034
 5306TIP3    H115863   5.011   6.275   2.963
 5306TIP3    H215864   4.940   6.157   3.024
 5307TIP3   OH215865   0.102   2.155   6.076
 5307TIP3    H115866   0.125   2.232   6.129
 5307TIP3    H215867   0.053   2.190   6.002
 5308TIP3   OH215868   2.244   1.518   6.654
 5308TIP3    H115869   2.194   1.599   6.648
 5308TIP3    H215870   2.276   1.517   6.745
 5309TIP3   OH215871   5.142   1.349   1.435
 5309TIP3    H115872   5.192   1.270   1.413
 5309TIP3    H215873   5.055   1.332   1.400
 5310TIP3   OH215874   2.056   5.710   5.436
 5310TIP3    H115875   1.997   5.782   5.457
 5310TIP3    H215876   2.001   5.645   5.392
 5311TIP3   OH215877   1.692   1.786   6.221
 5311TIP3    H115878   1.690   1.786   6.125
 5311TIP3    H215879   1.617   1.840   6.246
 5312TIP3   OH215880   0.336   7.067   5.136
 5312TIP3    H115881   0.364   7.145   5.087
 5312TIP3    H215882   0.401   7.000   5.112
 5313TIP3   OH215883   3.275   1.629   2.752
 5313TIP3    H115884   3.282   1.679   2.834
 5313TIP3    H215885   3.349   1.569   2.755
 5314TIP3   OH215886   1.088   7.377   4.151
 5314TIP3    H115887   1.115   7.286   4.149
 5314TIP3    H215888   1.164   7.425   4.183
 5315TIP3   OH215889   2.095   3.943   0.015
 5315TIP3    H115890   1.999   3.943   0.012
 5315TIP3    H215891   2.119   3.851   0.019
 5316TIP3   OH215892   5.720   6.612   6.347
 5316TIP3    H115893   5.748   6.640   6.259
 5316TIP3    H215894   5.679   6.527   6.333
 5317TIP3   OH215895   8.275   4.576   3.416
 5317TIP3    H115896   8.180   4.588   3.405
 5317TIP3    H215897   8.300   4.517   3.345
 5318TIP3   OH215898   5.470   5.888   1.387
 5318TIP3    H115899   5.390   5.836   1.384
 5318TIP3    H215900   5.443   5.975   1.358
 5319TIP3   OH215901   6.739   6.204   0.439
 5319TIP3    H115902   6.700   6.183   0.354
 5319TIP3    H215903   6.669   6.251   0.486
 5320TIP3   OH215904   5.629   3.776   2.504
 5320TIP3    H115905   5.601   3.842   2.441
 5320TIP3    H215906   5.551   3.722   2.519
 5321TIP3   OH215907   5.722   1.874   2.157
 5321TIP3    H115908   5.695   1.822   2.233
 5321TIP3    H215909   5.674   1.956   2.166
 5322TIP3   OH215910   1.077   6.563   5.923
 5322TIP3    H115911   1.062   6.639   5.979
 5322TIP3    H215912   0.998   6.510   5.932
 5323TIP3   OH215913   0.206   1.975   5.715
 5323TIP3    H115914   0.274   1.916   5.748
 5323TIP3    H215915   0.209   2.051   5.774
 5324TIP3   OH215916   2.711   3.309   3.661
 5324TIP3    H115917   2.741   3.395   3.630
 5324TIP3    H215918   2.716   3.315   3.756
 5325TIP3   OH215919   7.514   6.990   4.238
 5325TIP3    H115920   7.581   6.924   4.260
 5325TIP3    H215921   7.535   7.016   4.149
 5326TIP3   OH215922   0.933   1.634   3.479
 5326TIP3    H115923   0.925   1.600   3.389
 5326TIP3    H215924   0.908   1.560   3.534
 5327TIP3   OH215925   0.001   5.042   0.175
 5327TIP3    H115926   0.039   4.971   0.123
 5327TIP3    H215927   0.074   5.100   0.193
 5328TIP3   OH215928   5.193   5.902   5.982
 5328TIP3    H115929   5.106   5.925   6.015
 5328TIP3    H215930   5.242   5.984   5.985
 5329TIP3   OH215931   6.164   5.745   1.072
 5329TIP3    H115932   6.180   5.809   1.142
 5329TIP3    H215933   6.250   5.707   1.055
 5330TIP3   OH215934   6.750   2.254   5.361
 5330TIP3    H115935   6.777   2.164   5.378
 5330TIP3    H215936   6.662   2.259   5.397
 5331TIP3   OH215937   1.388   3.024   3.773
 5331TIP3    H115938   1.323   3.070   3.719
 5331TIP3    H215939   1.354   2.934   3.778
 5332TIP3   OH215940   0.050   1.988   0.179
 5332TIP3    H115941  -0.011   2.061   0.190
 5332TIP3    H215942   0.034   1.931   0.254
 5333TIP3   OH215943   1.871   7.680   6.710
 5333TIP3    H115944   1.915   7.597   6.695
 5333TIP3    H215945   1.797   7.681   6.649
 5334TIP3   OH215946   0.473   0.749   2.615
 5334TIP3    H115947   0.452   0.783   2.702
 5334TIP3    H215948   0.459   0.823   2.556
 5335TIP3   OH215949   0.778   5.817   0.953
 5335TIP3    H115950   0.684   5.794   0.956
 5335TIP3    H215951   0.789   5.882   1.021
 5336TIP3   OH215952   6.331   5.498   0.277
 5336TIP3    H115953   6.334   5.487   0.182
 5336TIP3    H215954   6.252   5.453   0.304
 5337TIP3   OH215955   3.256   6.477   4.673
 5337TIP3    H115956   3.301   6.562   4.678
 5337TIP3    H215957   3.229   6.459   4.763
 5338TIP3   OH215958   5.890   5.997   4.310
 5338TIP3    H115959   5.825   6.065   4.325
 5338TIP3    H215960   5.968   6.045   4.280
 5339TIP3   OH215961   2.890   7.183   1.026
 5339TIP3    H115962   2.897   7.124   0.952
 5339TIP3    H215963   2.878   7.125   1.102
 5340TIP3   OH215964   6.600   2.789   3.951
 5340TIP3    H115965   6.663   2.799   4.023
 5340TIP3    H215966   6.578   2.878   3.927
 5341TIP3   OH215967   3.124   6.432   4.909
 5341TIP3    H115968   3.037   6.392   4.914
 5341TIP3    H215969   3.142   6.460   4.999
 5342TIP3   OH215970   5.494   6.108   1.619
 5342TIP3    H115971   5.516   6.124   1.528
 5342TIP3    H215972   5.451   6.022   1.619
 5343TIP3   OH215973   6.564   6.982   4.504
 5343TIP3    H115974   6.528   6.987   4.415
 5343TIP3    H215975   6.531   7.060   4.547
 5344TIP3   OH215976   1.916   6.621   3.282
 5344TIP3    H115977   1.987   6.571   3.242
 5344TIP3    H215978   1.841   6.561   3.280
 5345TIP3   OH215979   0.963   0.910   4.871
 5345TIP3    H115980   0.953   0.899   4.966
 5345TIP3    H215981   1.000   0.998   4.862
 5346TIP3   OH215982   8.164   2.220   6.615
 5346TIP3    H115983   8.180   2.313   6.632
 5346TIP3    H215984   8.179   2.177   6.699
 5347TIP3   OH215985   1.162   6.136   4.610
 5347TIP3    H115986   1.127   6.059   4.565
 5347TIP3    H215987   1.195   6.103   4.693
 5348TIP3   OH215988   1.365   4.753   2.254
 5348TIP3    H115989   1.306   4.772   2.326
 5348TIP3    H215990   1.324   4.793   2.177
 5349TIP3   OH215991   7.463   4.269   3.243
 5349TIP3    H115992   7.555   4.285   3.263
 5349TIP3    H215993   7.452   4.174   3.253
 5350TIP3   OH215994   1.121   3.367   0.677
 5350TIP3    H115995   1.146   3.336   0.764
 5350TIP3    H215996   1.156   3.301   0.617
 5351TIP3   OH215997   8.068   5.235   6.011
 5351TIP3    H115998   8.110   5.211   5.928
 5351TIP3    H215999   8.076   5.157   6.065
 5352TIP3   OH216000   5.243   3.066   5.153
 5352TIP3    H116001   5.195   3.055   5.235
 5352TIP3    H216002   5.283   3.153   5.159
 5353TIP3   OH216003   8.258   7.476   6.260
 5353TIP3    H116004   8.312   7.397   6.247
 5353TIP3    H216005   8.189   7.468   6.195
 5354TIP3   OH216006   7.256   4.295   5.416
 5354TIP3    H116007   7.170   4.299   5.374
 5354TIP3    H216008   7.305   4.230   5.364
 5355TIP3   OH216009   3.792   7.442   2.294
 5355TIP3    H116010   3.830   7.413   2.211
 5355TIP3    H216011   3.861   7.426   2.359
 5356TIP3   OH216012   4.757   4.676   0.056
 5356TIP3    H116013   4.851   4.682   0.037
 5356TIP3    H216014   4.753   4.625   0.137
 5357TIP3   OH216015   2.628   5.031   3.295
 5357TIP3    H116016   2.679   4.953   3.314
 5357TIP3    H216017   2.562   5.034   3.364
 5358TIP3   OH216018   4.040   3.088   0.263
 5358TIP3    H116019   4.120   3.071   0.214
 5358TIP3    H216020   4.026   3.008   0.314
 5359TIP3   OH216021   3.640   0.442   4.042
 5359TIP3    H116022   3.571   0.401   3.990
 5359TIP3    H216023   3.602   0.524   4.072
 5360TIP3   OH216024   6.438   6.319   6.703
 5360TIP3    H116025   6.421   6.408   6.670
 5360TIP3    H216026   6.399   6.318   6.790
 5361TIP3   OH216027   2.004   1.565   4.666
 5361TIP3    H116028   1.959   1.648   4.680
 5361TIP3    H216029   1.983   1.512   4.744
 5362TIP3   OH216030   7.783   0.554   2.420
 5362TIP3    H116031   7.832   0.549   2.338
 5362TIP3    H216032   7.849   0.578   2.486
 5363TIP3   OH216033   0.464   5.082   5.550
 5363TIP3    H116034   0.404   5.137   5.600
 5363TIP3    H216035   0.545   5.083   5.600
 5364TIP3   OH216036   6.071   0.916   0.810
 5364TIP3    H116037   5.983   0.935   0.776
 5364TIP3    H216038   6.056   0.887   0.900
 5365TIP3   OH216039   2.676   2.804   2.426
 5365TIP3    H116040   2.648   2.877   2.372
 5365TIP3    H216041   2.752   2.768   2.380
 5366TIP3   OH216042   2.473   5.790   1.234
 5366TIP3    H116043   2.440   5.878   1.253
 5366TIP3    H216044   2.490   5.752   1.320
 5367TIP3   OH216045   5.443   6.694   6.109
 5367TIP3    H116046   5.405   6.740   6.183
 5367TIP3    H216047   5.368   6.657   6.062
 5368TIP3   OH216048   4.753   4.190   5.245
 5368TIP3    H116049   4.735   4.261   5.183
 5368TIP3    H216050   4.750   4.233   5.331
 5369TIP3   OH216051   4.731   4.884   0.631
 5369TIP3    H116052   4.812   4.933   0.644
 5369TIP3    H216053   4.678   4.904   0.708
 5370TIP3   OH216054   1.075   7.162   5.489
 5370TIP3    H116055   1.115   7.220   5.425
 5370TIP3    H216056   1.002   7.213   5.525
 5371TIP3   OH216057   3.659   4.489   6.430
 5371TIP3    H116058   3.587   4.426   6.424
 5371TIP3    H216059   3.717   4.465   6.358
 5372TIP3   OH216060   1.715   0.094   6.179
 5372TIP3    H116061   1.807   0.114   6.198
 5372TIP3    H216062   1.710   0.089   6.084
 5373TIP3   OH216063   0.889   0.826   0.205
 5373TIP3    H116064   0.825   0.897   0.200
 5373TIP3    H216065   0.883   0.794   0.295
 5374TIP3   OH216066   2.393   1.464   1.826
 5374TIP3    H116067   2.432   1.525   1.889
 5374TIP3    H216068   2.429   1.492   1.741
 5375TIP3   OH216069   1.328   3.923   2.845
 5375TIP3    H116070   1.285   3.892   2.765
 5375TIP3    H216071   1.421   3.904   2.831
 5376TIP3   OH216072   7.804   2.692   5.006
 5376TIP3    H116073   7.789   2.632   4.932
 5376TIP3    H216074   7.822   2.635   5.080
 5377TIP3   OH216075   1.388   2.975   0.489
 5377TIP3    H116076   1.361   2.973   0.581
 5377TIP3    H216077   1.472   2.929   0.488
 5378TIP3   OH216078   4.314   6.871   6.153
 5378TIP3    H116079   4.263   6.817   6.213
 5378TIP3    H216080   4.334   6.814   6.079
 5379TIP3   OH216081   1.067   2.817   5.355
 5379TIP3    H116082   1.149   2.775   5.381
 5379TIP3    H216083   1.041   2.869   5.431
 5380TIP3   OH216084   7.435   3.194   4.690
 5380TIP3    H116085   7.439   3.280   4.649
 5380TIP3    H216086   7.389   3.208   4.773
 5381TIP3   OH216087   3.473   0.786   2.421
 5381TIP3    H116088   3.463   0.732   2.500
 5381TIP3    H216089   3.560   0.764   2.389
 5382TIP3   OH216090   6.556   4.352   4.237
 5382TIP3    H116091   6.538   4.259   4.248
 5382TIP3    H216092   6.607   4.357   4.156
 5383TIP3   OH216093   3.531   5.017   5.080
 5383TIP3    H116094   3.535   4.999   4.986
 5383TIP3    H216095   3.615   5.057   5.101
 5384TIP3   OH216096   7.877   5.872   0.039
 5384TIP3    H116097   7.799   5.847  -0.009
 5384TIP3    H216098   7.885   5.967   0.027
 5385TIP3   OH216099   2.608   1.758   0.210
 5385TIP3    H116100   2.618   1.667   0.183
 5385TIP3    H216101   2.657   1.765   0.292
 5386TIP3   OH216102   7.138   1.493   0.793
 5386TIP3    H116103   7.113   1.500   0.885
 5386TIP3    H216104   7.122   1.580   0.757
 5387TIP3   OH216105   2.781   2.985   4.128
 5387TIP3    H116106   2.851   3.050   4.129
 5387TIP3    H216107   2.813   2.916   4.069
 5388TIP3   OH216108   8.159   7.144   5.464
 5388TIP3    H116109   8.162   7.070   5.403
 5388TIP3    H216110   8.101   7.208   5.421
 5389TIP3   OH216111   4.380   0.287   5.013
 5389TIP3    H116112   4.475   0.285   5.002
 5389TIP3    H216113   4.362   0.221   5.080
 5390TIP3   OH216114   1.322   2.509   0.222
 5390TIP3    H116115   1.277   2.592   0.234
 5390TIP3    H216116   1.405   2.532   0.182
 5391TIP3   OH216117   6.196   0.251   3.340
 5391TIP3    H116118   6.171   0.186   3.405
 5391TIP3    H216119   6.218   0.199   3.262
 5392TIP3   OH216120   5.935   0.666   3.568
 5392TIP3    H116121   6.017   0.686   3.613
 5392TIP3    H216122   5.927   0.735   3.502
 5393TIP3   OH216123   2.624   0.311   3.788
 5393TIP3    H116124   2.650   0.390   3.834
 5393TIP3    H216125   2.589   0.342   3.705
 5394TIP3   OH216126   5.117   6.349   0.495
 5394TIP3    H116127   5.120   6.374   0.403
 5394TIP3    H216128   5.170   6.269   0.500
 5395TIP3   OH216129   5.560   4.300   3.676
 5395TIP3    H116130   5.524   4.362   3.739
 5395TIP3    H216131   5.566   4.218   3.724
 5396TIP3   OH216132   1.345   7.412   6.396
 5396TIP3    H116133   1.308   7.409   6.485
 5396TIP3    H216134   1.343   7.505   6.373
 5397TIP3   OH216135   6.457   6.596   0.988
 5397TIP3    H116136   6.450   6.670   1.048
 5397TIP3    H216137   6.371   6.553   0.992
 5398TIP3   OH216138   4.398   1.718   3.522
 5398TIP3    H116139   4.307   1.693   3.503
 5398TIP3    H216140   4.393   1.770   3.602
 5399TIP3   OH216141   3.185   2.284   6.594
 5399TIP3    H116142   3.117   2.346   6.569
 5399TIP3    H216143   3.256   2.299   6.532
 5400TIP3   OH216144   3.063   2.718   1.666
 5400TIP3    H116145   3.145   2.673   1.684
 5400TIP3    H216146   3.086   2.785   1.601
 5401TIP3   OH216147   7.214   5.207   2.531
 5401TIP3    H116148   7.286   5.144   2.521
 5401TIP3    H216149   7.245   5.268   2.598
 5402TIP3   OH216150   6.423   0.060   6.000
 5402TIP3    H116151   6.435   0.012   5.918
 5402TIP3    H216152   6.336   0.032   6.031
 5403TIP3   OH216153   6.789   7.440   3.781
 5403TIP3    H116154   6.716   7.402   3.830
 5403TIP3    H216155   6.805   7.379   3.710
 5404TIP3   OH216156   7.653   3.803   1.839
 5404TIP3    H116157   7.701   3.791   1.757
 5404TIP3    H216158   7.602   3.723   1.849
 5405TIP3   OH216159   1.113   0.761   1.770
 5405TIP3    H116160   1.132   0.686   1.714
 5405TIP3    H216161   1.046   0.810   1.722
 5406TIP3   OH216162   3.870   1.657   5.357
 5406TIP3    H116163   3.915   1.679   5.276
 5406TIP3    H216164   3.797   1.601   5.329
 5407TIP3   OH216165   6.143   3.463   0.085
 5407TIP3    H116166   6.207   3.523   0.124
 5407TIP3    H216167   6.061   3.484   0.129
 5408TIP3   OH216168   6.414   3.812   1.703
 5408TIP3    H116169   6.406   3.876   1.632
 5408TIP3    H216170   6.465   3.856   1.770
 5409TIP3   OH216171   1.083   4.823   1.567
 5409TIP3    H116172   1.088   4.897   1.627
 5409TIP3    H216173   0.990   4.803   1.560
 5410TIP3   OH216174   8.007   6.333   0.813
 5410TIP3    H116175   7.955   6.381   0.749
 5410TIP3    H216176   8.092   6.378   0.814
 5411TIP3   OH216177   4.580   1.120   2.056
 5411TIP3    H116178   4.605   1.140   2.146
 5411TIP3    H216179   4.658   1.080   2.018
 5412TIP3   OH216180   4.712   2.206   2.914
 5412TIP3    H116181   4.731   2.256   2.993
 5412TIP3    H216182   4.727   2.268   2.842
 5413TIP3   OH216183   1.743   1.976   3.096
 5413TIP3    H116184   1.784   1.891   3.082
 5413TIP3    H216185   1.798   2.019   3.162
 5414TIP3   OH216186   2.060   5.397   5.003
 5414TIP3    H116187   2.074   5.488   5.026
 5414TIP3    H216188   2.049   5.397   4.908
 5415TIP3   OH216189   1.621   2.720   2.916
 5415TIP3    H116190   1.540   2.760   2.884
 5415TIP3    H216191   1.686   2.742   2.850
 5416TIP3   OH216192   7.686   5.578   3.113
 5416TIP3    H116193   7.653   5.662   3.144
 5416TIP3    H216194   7.727   5.538   3.190
 5417TIP3   OH216195   2.763   3.657   4.786
 5417TIP3    H116196   2.760   3.733   4.844
 5417TIP3    H216197   2.738   3.583   4.842
 5418TIP3   OH216198   2.840   7.642   6.041
 5418TIP3    H116199   2.799   7.558   6.019
 5418TIP3    H216200   2.829   7.695   5.962
 5419TIP3   OH216201   4.115   4.256   2.214
 5419TIP3    H116202   4.104   4.321   2.145
 5419TIP3    H216203   4.198   4.213   2.193
 5420TIP3   OH216204   3.083   3.341   4.091
 5420TIP3    H116205   3.137   3.347   4.012
 5420TIP3    H216206   3.140   3.300   4.156
 5421TIP3   OH216207   6.702   6.765   4.697
 5421TIP3    H116208   6.779   6.721   4.661
 5421TIP3    H216209   6.658   6.804   4.621
 5422TIP3   OH216210   1.159   6.870   5.105
 5422TIP3    H116211   1.079   6.909   5.070
 5422TIP3    H216212   1.183   6.803   5.042
 5423TIP3   OH216213   0.459   7.356   5.313
 5423TIP3    H116214   0.433   7.405   5.235
 5423TIP3    H216215   0.552   7.338   5.299
 5424TIP3   OH216216   7.381   4.236   0.727
 5424TIP3    H116217   7.331   4.315   0.706
 5424TIP3    H216218   7.427   4.215   0.646
 5425TIP3   OH216219   4.429   3.967   5.030
 5425TIP3    H116220   4.409   3.875   5.010
 5425TIP3    H216221   4.520   3.965   5.061
 5426TIP3   OH216222   2.266   5.194   5.808
 5426TIP3    H116223   2.297   5.237   5.887
 5426TIP3    H216224   2.228   5.112   5.838
 5427TIP3   OH216225   0.192   0.706   4.527
 5427TIP3    H116226   0.110   0.739   4.490
 5427TIP3    H216227   0.200   0.751   4.611
 5428TIP3   OH216228   4.019   6.767   4.110
 5428TIP3    H116229   3.994   6.785   4.200
 5428TIP3    H216230   3.957   6.700   4.080
 5429TIP3   OH216231   3.305   6.917   5.690
 5429TIP3    H116232   3.314   6.907   5.595
 5429TIP3    H216233   3.328   6.832   5.726
 5430TIP3   OH216234   1.576   2.327   1.584
 5430TIP3    H116235   1.656   2.374   1.608
 5430TIP3    H216236   1.607   2.241   1.555
 5431TIP3   OH216237   1.284   5.224   1.763
 5431TIP3    H116238   1.287   5.297   1.702
 5431TIP3    H216239   1.347   5.247   1.832
 5432TIP3   OH216240   7.833   6.311   5.008
 5432TIP3    H116241   7.904   6.307   5.072
 5432TIP3    H216242   7.754   6.296   5.058
 5433TIP3   OH216243   2.046   1.307   3.769
 5433TIP3    H116244   1.987   1.233   3.751
 5433TIP3    H216245   1.990   1.384   3.763
 5434TIP3   OH216246   1.114   3.846   5.484
 5434TIP3    H116247   1.037   3.835   5.539
 5434TIP3    H216248   1.102   3.931   5.443
 5435TIP3   OH216249   4.501   5.156   4.569
 5435TIP3    H116250   4.522   5.077   4.519
 5435TIP3    H216251   4.454   5.212   4.507
 5436TIP3   OH216252   1.546   3.125   2.071
 5436TIP3    H116253   1.473   3.127   2.010
 5436TIP3    H216254   1.556   3.033   2.094
 5437TIP3   OH216255   6.162   1.055   5.806
 5437TIP3    H116256   6.120   1.004   5.737
 5437TIP3    H216257   6.095   1.065   5.873
 5438TIP3   OH216258   1.014   6.754   2.083
 5438TIP3    H116259   0.931   6.798   2.065
 5438TIP3    H216260   1.081   6.819   2.060
 5439TIP3   OH216261   7.139   0.837   4.590
 5439TIP3    H116262   7.148   0.773   4.661
 5439TIP3    H216263   7.074   0.798   4.531
 5440TIP3   OH216264   8.207   3.729   5.225
 5440TIP3    H116265   8.122   3.729   5.182
 5440TIP3    H216266   8.201   3.798   5.290
 5441TIP3   OH216267   4.813   7.422   6.595
 5441TIP3    H116268   4.782   7.507   6.562
 5441TIP3    H216269   4.733   7.374   6.616
 5442TIP3   OH216270   2.596   0.178   4.031
 5442TIP3    H116271   2.622   0.219   3.948
 5442TIP3    H216272   2.671   0.190   4.088
 5443TIP3   OH216273   6.247   7.729   5.971
 5443TIP3    H116274   6.247   7.693   5.882
 5443TIP3    H216275   6.173   7.685   6.014
 5444TIP3   OH216276   6.947   2.356   0.686
 5444TIP3    H116277   6.944   2.313   0.772
 5444TIP3    H216278   6.927   2.287   0.623
 5445TIP3   OH216279   6.018   2.921   1.504
 5445TIP3    H116280   5.980   3.001   1.542
 5445TIP3    H216281   6.057   2.950   1.422
 5446TIP3   OH216282   5.905   3.410   0.382
 5446TIP3    H116283   6.000   3.403   0.391
 5446TIP3    H216284   5.892   3.459   0.301
 5447TIP3   OH216285   4.455   5.599   5.844
 5447TIP3    H116286   4.548   5.610   5.866
 5447TIP3    H216287   4.455   5.573   5.751
 5448TIP3   OH216288   0.047   4.882   5.991
 5448TIP3    H116289  -0.025   4.830   5.955
 5448TIP3    H216290   0.089   4.922   5.915
 5449TIP3   OH216291   2.169   1.025   3.619
 5449TIP3    H116292   2.149   1.009   3.527
 5449TIP3    H216293   2.085   1.017   3.664
 5450TIP3   OH216294   5.183   3.057   6.712
 5450TIP3    H116295   5.145   3.093   6.632
 5450TIP3    H216296   5.147   2.969   6.718
 5451TIP3   OH216297   7.946   5.320   1.336
 5451TIP3    H116298   7.992   5.301   1.419
 5451TIP3    H216299   7.942   5.235   1.292
 5452TIP3   OH216300   7.162   4.989   4.142
 5452TIP3    H116301   7.186   4.938   4.064
 5452TIP3    H216302   7.078   5.029   4.119
 5453TIP3   OH216303   0.703   7.639   2.262
 5453TIP3    H116304   0.754   7.690   2.199
 5453TIP3    H216305   0.646   7.584   2.207
 5454TIP3   OH216306   3.173   6.106   0.414
 5454TIP3    H116307   3.205   6.143   0.332
 5454TIP3    H216308   3.151   6.182   0.468
 5455TIP3   OH216309   3.792   0.194   3.952
 5455TIP3    H116310   3.758   0.112   3.989
 5455TIP3    H216311   3.723   0.259   3.969
 5456TIP3   OH216312   1.407   6.739   0.552
 5456TIP3    H116313   1.369   6.697   0.628
 5456TIP3    H216314   1.340   6.731   0.484
 5457TIP3   OH216315   2.280   3.418   1.857
 5457TIP3    H116316   2.361   3.370   1.873
 5457TIP3    H216317   2.231   3.411   1.939
 5458TIP3   OH216318   0.837   6.550   2.905
 5458TIP3    H116319   0.774   6.505   2.962
 5458TIP3    H216320   0.869   6.482   2.847
 5459TIP3   OH216321   4.502   0.244   2.855
 5459TIP3    H116322   4.421   0.203   2.825
 5459TIP3    H216323   4.567   0.220   2.790
 5460TIP3   OH216324   6.852   3.351   5.870
 5460TIP3    H116325   6.765   3.343   5.908
 5460TIP3    H216326   6.876   3.262   5.844
 5461TIP3   OH216327   3.302   1.807   2.971
 5461TIP3    H116328   3.364   1.881   2.969
 5461TIP3    H216329   3.219   1.847   2.996
 5462TIP3   OH216330   5.246   2.633   0.119
 5462TIP3    H116331   5.317   2.593   0.170
 5462TIP3    H216332   5.287   2.656   0.035
 5463TIP3   OH216333   1.865   7.770   3.814
 5463TIP3    H116334   1.862   7.787   3.720
 5463TIP3    H216335   1.950   7.730   3.828
 5464TIP3   OH216336   2.772   5.811   6.424
 5464TIP3    H116337   2.775   5.731   6.477
 5464TIP3    H216338   2.722   5.873   6.477
 5465TIP3   OH216339   6.446   2.688   4.172
 5465TIP3    H116340   6.501   2.756   4.133
 5465TIP3    H216341   6.473   2.607   4.128
 5466TIP3   OH216342   1.566   6.851   6.137
 5466TIP3    H116343   1.588   6.943   6.150
 5466TIP3    H216344   1.638   6.816   6.085
 5467TIP3   OH216345   0.973   5.628   1.975
 5467TIP3    H116346   0.981   5.536   1.998
 5467TIP3    H216347   1.062   5.663   1.983
 5468TIP3   OH216348   5.073  -0.014   6.729
 5468TIP3    H116349   5.051  -0.034   6.638
 5468TIP3    H216350   5.024   0.066   6.749
 5469TIP3   OH216351   0.232   6.116   4.309
 5469TIP3    H116352   0.269   6.062   4.239
 5469TIP3    H216353   0.306   6.131   4.369
 5470TIP3   OH216354   5.274   3.226   2.647
 5470TIP3    H116355   5.333   3.212   2.721
 5470TIP3    H216356   5.191   3.186   2.674
 5471TIP3   OH216357   2.963   4.437   4.449
 5471TIP3    H116358   3.016   4.510   4.418
 5471TIP3    H216359   2.880   4.447   4.402
 5472TIP3   OH216360   7.400   5.675   2.927
 5472TIP3    H116361   7.371   5.745   2.986
 5472TIP3    H216362   7.336   5.605   2.940
 5473TIP3   OH216363   4.525   5.943   6.688
 5473TIP3    H116364   4.508   5.963   6.780
 5473TIP3    H216365   4.620   5.942   6.680
 5474TIP3   OH216366   6.509   3.628   6.759
 5474TIP3    H116367   6.506   3.552   6.816
 5474TIP3    H216368   6.421   3.633   6.721
 5475TIP3   OH216369   4.683   1.883   0.321
 5475TIP3    H116370   4.732   1.956   0.282
 5475TIP3    H216371   4.735   1.805   0.302
 5476TIP3   OH216372   4.417   6.615   6.316
 5476TIP3    H116373   4.461   6.637   6.234
 5476TIP3    H216374   4.404   6.521   6.312
 5477TIP3   OH216375   3.466   3.909   1.126
 5477TIP3    H116376   3.421   3.994   1.118
 5477TIP3    H216377   3.447   3.881   1.215
 5478TIP3   OH216378   4.680   2.102   6.723
 5478TIP3    H116379   4.700   2.016   6.761
 5478TIP3    H216380   4.707   2.094   6.632
 5479TIP3   OH216381   4.003   4.733   5.247
 5479TIP3    H116382   3.974   4.701   5.162
 5479TIP3    H216383   4.060   4.664   5.281
 5480TIP3   OH216384   1.534   0.737   0.985
 5480TIP3    H116385   1.446   0.768   0.964
 5480TIP3    H216386   1.582   0.816   1.008
 5481TIP3   OH216387   3.540   3.619   3.486
 5481TIP3    H116388   3.541   3.684   3.557
 5481TIP3    H216389   3.632   3.607   3.463
 5482TIP3   OH216390   3.626   5.209   4.833
 5482TIP3    H116391   3.636   5.257   4.751
 5482TIP3    H216392   3.716   5.191   4.861
 5483TIP3   OH216393   4.008   4.935   3.326
 5483TIP3    H116394   3.954   4.910   3.250
 5483TIP3    H216395   3.945   4.961   3.393
 5484TIP3   OH216396   5.441   0.632   3.614
 5484TIP3    H116397   5.453   0.630   3.709
 5484TIP3    H216398   5.428   0.724   3.594
 5485TIP3   OH216399   5.226   4.811   1.997
 5485TIP3    H116400   5.207   4.735   2.052
 5485TIP3    H216401   5.213   4.780   1.908
 5486TIP3   OH216402   4.845   5.328   0.160
 5486TIP3    H116403   4.902   5.277   0.218
 5486TIP3    H216404   4.856   5.287   0.074
 5487TIP3   OH216405   0.282   4.671   6.240
 5487TIP3    H116406   0.314   4.602   6.298
 5487TIP3    H216407   0.308   4.753   6.283
 5488TIP3   OH216408   4.638   7.555   0.632
 5488TIP3    H116409   4.561   7.514   0.592
 5488TIP3    H216410   4.603   7.632   0.677
 5489TIP3   OH216411   1.509   5.789   1.062
 5489TIP3    H116412   1.514   5.731   0.985
 5489TIP3    H216413   1.547   5.872   1.032
 5490TIP3   OH216414   2.987   5.423   1.902
 5490TIP3    H116415   3.079   5.432   1.879
 5490TIP3    H216416   2.961   5.509   1.935
 5491TIP3   OH216417   5.821   6.365   4.049
 5491TIP3    H116418   5.800   6.433   4.113
 5491TIP3    H216419   5.838   6.413   3.968
 5492TIP3   OH216420   4.507   2.794   6.271
 5492TIP3    H116421   4.493   2.699   6.276
 5492TIP3    H216422   4.505   2.813   6.177
 5493TIP3   OH216423   5.366   0.748   5.728
 5493TIP3    H116424   5.412   0.774   5.649
 5493TIP3    H216425   5.393   0.658   5.743
 5494TIP3   OH216426   7.983   2.126   0.896
 5494TIP3    H116427   7.918   2.170   0.841
 5494TIP3    H216428   7.970   2.033   0.879
 5495TIP3   OH216429   7.360   5.139   3.955
 5495TIP3    H116430   7.393   5.094   4.033
 5495TIP3    H216431   7.281   5.185   3.984
 5496TIP3   OH216432   6.964   7.533   6.134
 5496TIP3    H116433   6.935   7.624   6.133
 5496TIP3    H216434   7.031   7.530   6.202
 5497TIP3   OH216435   0.622   2.741   0.781
 5497TIP3    H116436   0.578   2.687   0.846
 5497TIP3    H216437   0.641   2.681   0.709
 5498TIP3   OH216438   4.497   2.224   5.782
 5498TIP3    H116439   4.580   2.271   5.784
 5498TIP3    H216440   4.497   2.178   5.698
 5499TIP3   OH216441   1.582   2.664   4.926
 5499TIP3    H116442   1.572   2.583   4.876
 5499TIP3    H216443   1.620   2.726   4.864
 5500TIP3   OH216444   1.013   7.006   2.951
 5500TIP3    H116445   1.004   7.082   3.008
 5500TIP3    H216446   0.938   7.010   2.892
 5501TIP3   OH216447   7.143   2.754   0.587
 5501TIP3    H116448   7.167   2.751   0.494
 5501TIP3    H216449   7.089   2.833   0.595
 5502TIP3   OH216450   5.024   1.991   4.412
 5502TIP3    H116451   4.929   1.997   4.425
 5502TIP3    H216452   5.042   1.897   4.413
 5503TIP3   OH216453   6.622   0.972   6.739
 5503TIP3    H116454   6.620   1.067   6.750
 5503TIP3    H216455   6.547   0.953   6.683
 5504TIP3   OH216456   4.123   5.041   3.083
 5504TIP3    H116457   4.185   4.968   3.084
 5504TIP3    H216458   4.063   5.022   3.155
 5505TIP3   OH216459   5.573   3.248   4.249
 5505TIP3    H116460   5.548   3.185   4.316
 5505TIP3    H216461   5.633   3.308   4.293
 5506TIP3   OH216462   4.118   7.318   0.512
 5506TIP3    H116463   4.087   7.249   0.452
 5506TIP3    H216464   4.205   7.340   0.480
 5507TIP3   OH216465   6.693   0.203   5.713
 5507TIP3    H116466   6.741   0.130   5.753
 5507TIP3    H216467   6.663   0.255   5.787
 5508TIP3   OH216468   6.990   4.640   5.363
 5508TIP3    H116469   6.982   4.671   5.273
 5508TIP3    H216470   6.900   4.621   5.390
 5509TIP3   OH216471   1.364   3.847   5.051
 5509TIP3    H116472   1.358   3.932   5.009
 5509TIP3    H216473   1.442   3.806   5.014
 5510TIP3   OH216474   5.577   3.193   6.577
 5510TIP3    H116475   5.497   3.180   6.526
 5510TIP3    H216476   5.581   3.118   6.635
 5511TIP3   OH216477   3.045   1.156   6.645
 5511TIP3    H116478   3.117   1.201   6.601
 5511TIP3    H216479   3.084   1.076   6.681
 5512TIP3   OH216480   7.443   0.715   0.202
 5512TIP3    H116481   7.445   0.789   0.140
 5512TIP3    H216482   7.534   0.685   0.206
 5513TIP3   OH216483   4.340   2.792   0.641
 5513TIP3    H116484   4.274   2.799   0.710
 5513TIP3    H216485   4.350   2.697   0.628
 5514TIP3   OH216486   0.183   1.864   5.419
 5514TIP3    H116487   0.192   1.929   5.489
 5514TIP3    H216488   0.260   1.807   5.428
 5515TIP3   OH216489   6.219   0.360   1.535
 5515TIP3    H116490   6.305   0.387   1.505
 5515TIP3    H216491   6.164   0.363   1.456
 5516TIP3   OH216492   1.141   1.599   0.636
 5516TIP3    H116493   1.215   1.654   0.609
 5516TIP3    H216494   1.174   1.510   0.631
 5517TIP3   OH216495   6.000   2.369   1.691
 5517TIP3    H116496   6.024   2.284   1.727
 5517TIP3    H216497   5.916   2.389   1.731
 5518TIP3   OH216498   5.094   2.370   0.157
 5518TIP3    H116499   5.037   2.405   0.089
 5518TIP3    H216500   5.142   2.445   0.190
 5519TIP3   OH216501   5.924   0.996   3.934
 5519TIP3    H116502   5.844   1.036   3.966
 5519TIP3    H216503   5.952   0.938   4.004
 5520TIP3   OH216504   6.681   6.472   4.317
 5520TIP3    H116505   6.601   6.447   4.362
 5520TIP3    H216506   6.751   6.448   4.377
 5521TIP3   OH216507   4.297   3.114   3.737
 5521TIP3    H116508   4.244   3.079   3.809
 5521TIP3    H216509   4.385   3.081   3.753
 5522TIP3   OH216510   6.374   2.256   2.763
 5522TIP3    H116511   6.380   2.170   2.723
 5522TIP3    H216512   6.461   2.295   2.752
 5523TIP3   OH216513   7.006   0.385   0.097
 5523TIP3    H116514   6.964   0.437   0.027
 5523TIP3    H216515   7.099   0.404   0.088
 5524TIP3   OH216516   0.583   2.289   2.352
 5524TIP3    H116517   0.497   2.268   2.388
 5524TIP3    H216518   0.570   2.368   2.300
 5525TIP3   OH216519   6.818   0.824   5.934
 5525TIP3    H116520   6.860   0.770   5.868
 5525TIP3    H216521   6.731   0.843   5.898
 5526TIP3   OH216522   5.330   4.979   5.717
 5526TIP3    H116523   5.297   5.067   5.699
 5526TIP3    H216524   5.422   4.982   5.692
 5527TIP3   OH216525   0.471   3.735   3.497
 5527TIP3    H116526   0.566   3.745   3.502
 5527TIP3    H216527   0.457   3.677   3.422
 5528TIP3   OH216528   6.212   0.743   6.350
 5528TIP3    H116529   6.199   0.763   6.258
 5528TIP3    H216530   6.289   0.795   6.375
 5529TIP3   OH216531   5.164   4.981   2.754
 5529TIP3    H116532   5.243   5.022   2.721
 5529TIP3    H216533   5.178   4.887   2.741
 5530TIP3   OH216534   5.624   2.196   4.074
 5530TIP3    H116535   5.566   2.198   3.998
 5530TIP3    H216536   5.660   2.284   4.078
 5531TIP3   OH216537   6.531   7.425   6.385
 5531TIP3    H116538   6.618   7.412   6.348
 5531TIP3    H216539   6.471   7.392   6.318
 5532TIP3   OH216540   4.754   5.076   1.072
 5532TIP3    H116541   4.685   5.121   1.121
 5532TIP3    H216542   4.804   5.147   1.031
 5533TIP3   OH216543   7.441   5.489   4.303
 5533TIP3    H116544   7.400   5.433   4.369
 5533TIP3    H216545   7.368   5.530   4.256
 5534TIP3   OH216546   5.509   6.498   4.039
 5534TIP3    H116547   5.506   6.529   4.130
 5534TIP3    H216548   5.419   6.473   4.019
 5535TIP3   OH216549   7.058   0.260   5.682
 5535TIP3    H116550   7.079   0.168   5.662
 5535TIP3    H216551   7.121   0.285   5.750
 5536TIP3   OH216552   3.675   1.042   2.578
 5536TIP3    H116553   3.729   1.055   2.500
 5536TIP3    H216554   3.679   0.948   2.595
 5537TIP3   OH216555   3.064   0.426   0.593
 5537TIP3    H116556   3.070   0.474   0.676
 5537TIP3    H216557   3.037   0.337   0.619
 5538TIP3   OH216558   0.575   0.232   1.783
 5538TIP3    H116559   0.564   0.327   1.792
 5538TIP3    H216560   0.587   0.200   1.872
 5539TIP3   OH216561   1.502   6.503   5.101
 5539TIP3    H116562   1.449   6.507   5.180
 5539TIP3    H216563   1.470   6.575   5.046
 5540TIP3   OH216564   0.617   1.863   4.700
 5540TIP3    H116565   0.679   1.878   4.628
 5540TIP3    H216566   0.669   1.877   4.779
 5541TIP3   OH216567   6.943   0.228   3.003
 5541TIP3    H116568   6.889   0.150   2.993
 5541TIP3    H216569   6.998   0.228   2.925
 5542TIP3   OH216570   0.212   2.272   3.101
 5542TIP3    H116571   0.161   2.266   3.182
 5542TIP3    H216572   0.289   2.322   3.125
 5543TIP3   OH216573   8.111   2.137   6.305
 5543TIP3    H116574   8.173   2.105   6.371
 5543TIP3    H216575   8.167   2.175   6.237
 5544TIP3   OH216576   3.510   6.252   0.085
 5544TIP3    H116577   3.496   6.158   0.081
 5544TIP3    H216578   3.583   6.263   0.146
 5545TIP3   OH216579   0.816   4.754   1.512
 5545TIP3    H116580   0.849   4.672   1.478
 5545TIP3    H216581   0.774   4.797   1.438
 5546TIP3   OH216582   4.715   0.543   4.485
 5546TIP3    H116583   4.637   0.491   4.505
 5546TIP3    H216584   4.697   0.581   4.399
 5547TIP3   OH216585   1.189   5.322   5.096
 5547TIP3    H116586   1.177   5.228   5.109
 5547TIP3    H216587   1.215   5.355   5.182
 5548TIP3   OH216588   6.829   0.953   3.444
 5548TIP3    H116589   6.783   0.961   3.360
 5548TIP3    H216590   6.881   0.873   3.435
 5549TIP3   OH216591   1.763   2.622   5.119
 5549TIP3    H116592   1.686   2.656   5.073
 5549TIP3    H216593   1.738   2.533   5.144
 5550TIP3   OH216594   6.865   4.049   1.839
 5550TIP3    H116595   6.813   3.972   1.813
 5550TIP3    H216596   6.940   4.048   1.780
 5551TIP3   OH216597   3.033   7.214   3.745
 5551TIP3    H116598   3.114   7.258   3.772
 5551TIP3    H216599   2.971   7.234   3.815
 5552TIP3   OH216600   0.906   3.018   3.944
 5552TIP3    H116601   0.931   2.928   3.922
 5552TIP3    H216602   0.810   3.020   3.934
 5553TIP3   OH216603   1.576   5.767   5.459
 5553TIP3    H116604   1.630   5.827   5.407
 5553TIP3    H216605   1.489   5.771   5.419
 5554TIP3   OH216606   7.377   2.710   6.678
 5554TIP3    H116607   7.417   2.650   6.740
 5554TIP3    H216608   7.394   2.797   6.714
 5555TIP3   OH216609   6.902   0.280   2.618
 5555TIP3    H116610   6.868   0.194   2.642
 5555TIP3    H216611   6.946   0.265   2.534
 5556TIP3   OH216612   1.112   2.892   0.425
 5556TIP3    H116613   1.153   2.853   0.349
 5556TIP3    H216614   1.178   2.951   0.461
 5557TIP3   OH216615   0.717   5.972   6.590
 5557TIP3    H116616   0.782   6.040   6.608
 5557TIP3    H216617   0.760   5.890   6.615
 5558TIP3   OH216618   5.109   2.499   1.304
 5558TIP3    H116619   5.136   2.412   1.274
 5558TIP3    H216620   5.065   2.538   1.229
 5559TIP3   OH216621   5.580   7.239   3.127
 5559TIP3    H116622   5.631   7.158   3.122
 5559TIP3    H216623   5.504   7.217   3.181
 5560TIP3   OH216624   3.065   0.690   5.135
 5560TIP3    H116625   3.148   0.644   5.136
 5560TIP3    H216626   3.077   0.764   5.195
 5561TIP3   OH216627   4.167   6.058   2.198
 5561TIP3    H116628   4.172   6.113   2.120
 5561TIP3    H216629   4.074   6.057   2.221
 5562TIP3   OH216630   7.649   5.707   1.913
 5562TIP3    H116631   7.742   5.687   1.904
 5562TIP3    H216632   7.643   5.800   1.892
 5563TIP3   OH216633   0.168   3.181   3.675
 5563TIP3    H116634   0.213   3.129   3.608
 5563TIP3    H216635   0.129   3.254   3.625
 5564TIP3   OH216636   4.836   6.714   4.702
 5564TIP3    H116637   4.803   6.712   4.792
 5564TIP3    H216638   4.757   6.716   4.648
 5565TIP3   OH216639   1.723   1.765   0.341
 5565TIP3    H116640   1.679   1.831   0.395
 5565TIP3    H216641   1.674   1.765   0.259
 5566TIP3   OH216642   2.672   4.613   5.938
 5566TIP3    H116643   2.690   4.559   5.861
 5566TIP3    H216644   2.757   4.623   5.981
 5567TIP3   OH216645   2.468   3.849   4.458
 5567TIP3    H116646   2.468   3.762   4.499
 5567TIP3    H216647   2.391   3.892   4.493
 5568TIP3   OH216648   2.827   2.785   1.818
 5568TIP3    H116649   2.907   2.790   1.766
 5568TIP3    H216650   2.799   2.876   1.828
 5569TIP3   OH216651   3.162   0.309   5.302
 5569TIP3    H116652   3.221   0.249   5.347
 5569TIP3    H216653   3.078   0.264   5.302
 5570TIP3   OH216654   0.500   4.319   5.199
 5570TIP3    H116655   0.577   4.360   5.162
 5570TIP3    H216656   0.498   4.231   5.160
 5571TIP3   OH216657   3.865   6.259   3.934
 5571TIP3    H116658   3.790   6.259   3.994
 5571TIP3    H216659   3.857   6.176   3.886
 5572TIP3   OH216660   4.126   1.715   3.494
 5572TIP3    H116661   4.096   1.651   3.559
 5572TIP3    H216662   4.064   1.787   3.500
 5573TIP3   OH216663   0.185   1.886   1.741
 5573TIP3    H116664   0.168   1.979   1.751
 5573TIP3    H216665   0.169   1.869   1.648
 5574TIP3   OH216666   7.993   0.606   3.112
 5574TIP3    H116667   8.080   0.569   3.118
 5574TIP3    H216668   7.955   0.593   3.199
 5575TIP3   OH216669   3.814   0.843   4.129
 5575TIP3    H116670   3.824   0.934   4.103
 5575TIP3    H216671   3.845   0.793   4.055
 5576TIP3   OH216672   2.345   0.508   1.279
 5576TIP3    H116673   2.395   0.440   1.232
 5576TIP3    H216674   2.310   0.564   1.210
 5577TIP3   OH216675   2.268   0.126   3.198
 5577TIP3    H116676   2.187   0.157   3.156
 5577TIP3    H216677   2.326   0.105   3.125
 5578TIP3   OH216678   3.762   4.139   1.157
 5578TIP3    H116679   3.781   4.052   1.191
 5578TIP3    H216680   3.730   4.123   1.067
 5579TIP3   OH216681   6.916   4.517   0.106
 5579TIP3    H116682   6.848   4.483   0.164
 5579TIP3    H216683   6.964   4.440   0.078
 5580TIP3   OH216684   4.405   4.518   5.967
 5580TIP3    H116685   4.497   4.545   5.962
 5580TIP3    H216686   4.358   4.596   5.994
 5581TIP3   OH216687   3.269   1.042   0.330
 5581TIP3    H116688   3.271   1.018   0.238
 5581TIP3    H216689   3.227   1.129   0.331
 5582TIP3   OH216690   7.742   6.189   5.468
 5582TIP3    H116691   7.802   6.162   5.538
 5582TIP3    H216692   7.784   6.265   5.428
 5583TIP3   OH216693   4.180   1.927   1.724
 5583TIP3    H116694   4.212   1.926   1.634
 5583TIP3    H216695   4.125   2.005   1.729
 5584TIP3   OH216696   7.804   1.216   0.259
 5584TIP3    H116697   7.890   1.259   0.262
 5584TIP3    H216698   7.818   1.131   0.302
 5585TIP3   OH216699   6.384   2.585   6.212
 5585TIP3    H116700   6.320   2.516   6.195
 5585TIP3    H216701   6.426   2.600   6.128
 5586TIP3   OH216702   3.813   6.995   3.682
 5586TIP3    H116703   3.886   6.986   3.744
 5586TIP3    H216704   3.735   6.976   3.734
 5587TIP3   OH216705   2.105   7.667   4.637
 5587TIP3    H116706   2.059   7.725   4.576
 5587TIP3    H216707   2.113   7.718   4.717
 5588TIP3   OH216708   1.495   4.556   1.449
 5588TIP3    H116709   1.538   4.641   1.457
 5588TIP3    H216710   1.406   4.571   1.478
 5589TIP3   OH216711   8.013   1.170   2.270
 5589TIP3    H116712   7.978   1.124   2.347
 5589TIP3    H216713   7.977   1.259   2.278
 5590TIP3   OH216714   2.085   6.186   3.428
 5590TIP3    H116715   2.102   6.279   3.445
 5590TIP3    H216716   2.108   6.174   3.336
 5591TIP3   OH216717   7.535   4.091   6.595
 5591TIP3    H116718   7.517   4.139   6.675
 5591TIP3    H216719   7.596   4.022   6.622
 5592TIP3   OH216720   7.776   5.187   6.496
 5592TIP3    H116721   7.804   5.111   6.446
 5592TIP3    H216722   7.830   5.258   6.464
 5593TIP3   OH216723   2.293   0.810   3.430
 5593TIP3    H116724   2.313   0.753   3.357
 5593TIP3    H216725   2.315   0.898   3.399
 5594TIP3   OH216726   5.431   2.834   2.208
 5594TIP3    H116727   5.483   2.850   2.129
 5594TIP3    H216728   5.413   2.740   2.207
 5595TIP3   OH216729   2.326   0.818   0.386
 5595TIP3    H116730   2.290   0.855   0.305
 5595TIP3    H216731   2.255   0.767   0.424
 5596TIP3   OH216732   2.774   7.265   3.849
 5596TIP3    H116733   2.715   7.309   3.789
 5596TIP3    H216734   2.726   7.188   3.878
 5597TIP3   OH216735   5.594   6.261   4.680
 5597TIP3    H116736   5.592   6.354   4.659
 5597TIP3    H216737   5.609   6.258   4.774
 5598TIP3   OH216738   4.484   1.029   4.754
 5598TIP3    H116739   4.431   1.078   4.692
 5598TIP3    H216740   4.438   0.946   4.765
 5599TIP3   OH216741   6.972   4.280   5.308
 5599TIP3    H116742   7.011   4.344   5.248
 5599TIP3    H216743   6.882   4.310   5.319
 5600TIP3   OH216744   0.846   7.094   5.688
 5600TIP3    H116745   0.881   7.053   5.609
 5600TIP3    H216746   0.873   7.186   5.682
 5601TIP3   OH216747   3.628   6.608   0.226
 5601TIP3    H116748   3.614   6.513   0.236
 5601TIP3    H216749   3.713   6.615   0.183
 5602TIP3   OH216750   1.688   6.431   3.145
 5602TIP3    H116751   1.714   6.518   3.113
 5602TIP3    H216752   1.594   6.440   3.162
 5603TIP3   OH216753   5.534   6.292   0.625
 5603TIP3    H116754   5.456   6.237   0.616
 5603TIP3    H216755   5.547   6.302   0.720
 5604TIP3   OH216756   0.467   6.591   4.014
 5604TIP3    H116757   0.465   6.526   3.944
 5604TIP3    H216758   0.538   6.564   4.071
 5605TIP3   OH216759   6.896   7.585   0.141
 5605TIP3    H116760   6.835   7.659   0.134
 5605TIP3    H216761   6.873   7.543   0.224
 5606TIP3   OH216762   7.530   5.538   0.234
 5606TIP3    H116763   7.607   5.546   0.291
 5606TIP3    H216764   7.456   5.557   0.290
 5607TIP3   OH216765   7.440   3.063   6.455
 5607TIP3    H116766   7.391   3.025   6.528
 5607TIP3    H216767   7.373   3.084   6.390
 5608TIP3   OH216768   4.462   0.797   5.287
 5608TIP3    H116769   4.388   0.736   5.286
 5608TIP3    H216770   4.426   0.878   5.251
 5609TIP3   OH216771   2.065   1.725   3.256
 5609TIP3    H116772   2.015   1.753   3.179
 5609TIP3    H216773   2.120   1.653   3.224
 5610TIP3   OH216774   7.611   3.763   5.703
 5610TIP3    H116775   7.555   3.771   5.625
 5610TIP3    H216776   7.549   3.766   5.776
 5611TIP3   OH216777   0.490   4.554   2.633
 5611TIP3    H116778   0.580   4.579   2.653
 5611TIP3    H216779   0.498   4.471   2.586
 5612TIP3   OH216780   3.769   7.497   5.116
 5612TIP3    H116781   3.818   7.505   5.198
 5612TIP3    H216782   3.678   7.489   5.144
 5613TIP3   OH216783   0.948   4.780   6.492
 5613TIP3    H116784   1.041   4.798   6.502
 5613TIP3    H216785   0.943   4.719   6.418
 5614TIP3   OH216786   3.239   0.559   1.053
 5614TIP3    H116787   3.320   0.589   1.012
 5614TIP3    H216788   3.263   0.478   1.098
 5615TIP3   OH216789   6.842   1.825   4.164
 5615TIP3    H116790   6.905   1.753   4.158
 5615TIP3    H216791   6.895   1.902   4.183
 5616TIP3   OH216792   7.353   0.712   3.082
 5616TIP3    H116793   7.342   0.783   3.145
 5616TIP3    H216794   7.272   0.661   3.089
 5617TIP3   OH216795   5.918   6.156   0.643
 5617TIP3    H116796   5.868   6.163   0.561
 5617TIP3    H216797   5.946   6.246   0.662
 5618TIP3   OH216798   0.471   5.995   6.721
 5618TIP3    H116799   0.558   6.003   6.681
 5618TIP3    H216800   0.413   5.975   6.647
 5619TIP3   OH216801   7.829   6.009   6.104
 5619TIP3    H116802   7.780   6.080   6.062
 5619TIP3    H216803   7.773   5.981   6.176
 5620TIP3   OH216804   6.436   5.959   4.153
 5620TIP3    H116805   6.509   5.915   4.111
 5620TIP3    H216806   6.366   5.958   4.087
 5621TIP3   OH216807   1.469   2.049   1.853
 5621TIP3    H116808   1.419   2.054   1.772
 5621TIP3    H216809   1.543   1.993   1.832
 5622TIP3   OH216810   4.627   1.711   5.533
 5622TIP3    H116811   4.563   1.690   5.466
 5622TIP3    H216812   4.576   1.720   5.614
 5623TIP3   OH216813   2.077   5.882   0.520
 5623TIP3    H116814   2.154   5.827   0.502
 5623TIP3    H216815   2.006   5.819   0.534
 5624TIP3   OH216816   4.190   2.567   4.711
 5624TIP3    H116817   4.109   2.608   4.742
 5624TIP3    H216818   4.200   2.598   4.621
 5625TIP3   OH216819   3.511   6.756   0.827
 5625TIP3    H116820   3.563   6.751   0.908
 5625TIP3    H216821   3.432   6.706   0.846
 5626TIP3   OH216822   3.744   3.142   2.547
 5626TIP3    H116823   3.765   3.184   2.463
 5626TIP3    H216824   3.750   3.213   2.611
 5627TIP3   OH216825   4.320   4.114   3.137
 5627TIP3    H116826   4.341   4.111   3.230
 5627TIP3    H216827   4.271   4.196   3.126
 5628TIP3   OH216828   5.194   4.480   0.023
 5628TIP3    H116829   5.136   4.555   0.010
 5628TIP3    H216830   5.149   4.425   0.087
 5629TIP3   OH216831   0.314   0.124   2.539
 5629TIP3    H116832   0.379   0.066   2.499
 5629TIP3    H216833   0.301   0.193   2.476
 5630TIP3   OH216834   0.556   7.027   2.319
 5630TIP3    H116835   0.561   6.939   2.357
 5630TIP3    H216836   0.610   7.022   2.239
 5631TIP3   OH216837   0.771   3.242   6.369
 5631TIP3    H116838   0.793   3.284   6.286
 5631TIP3    H216839   0.701   3.296   6.406
 5632TIP3   OH216840   6.404   4.030   4.137
 5632TIP3    H116841   6.476   3.988   4.185
 5632TIP3    H216842   6.389   3.973   4.062
 5633TIP3   OH216843   2.917   6.611   5.724
 5633TIP3    H116844   2.842   6.649   5.770
 5633TIP3    H216845   2.900   6.630   5.632
 5634TIP3   OH216846   5.032   5.283   4.557
 5634TIP3    H116847   5.006   5.218   4.622
 5634TIP3    H216848   5.051   5.231   4.478
 5635TIP3   OH216849   7.368   0.057   0.395
 5635TIP3    H116850   7.440   0.109   0.359
 5635TIP3    H216851   7.336   0.006   0.321
 5636TIP3   OH216852   5.933   4.633   2.722
 5636TIP3    H116853   5.944   4.542   2.749
 5636TIP3    H216854   6.013   4.676   2.751
 5637TIP3   OH216855   1.138   4.187   4.413
 5637TIP3    H116856   1.091   4.109   4.444
 5637TIP3    H216857   1.098   4.207   4.329
 5638TIP3   OH216858   3.547   7.362   5.915
 5638TIP3    H116859   3.642   7.353   5.919
 5638TIP3    H216860   3.518   7.288   5.863
 5639TIP3   OH216861   3.165   5.985   1.340
 5639TIP3    H116862   3.204   6.007   1.255
 5639TIP3    H216863   3.088   5.932   1.318
 5640TIP3   OH216864   5.193   7.222   3.740
 5640TIP3    H116865   5.129   7.292   3.728
 5640TIP3    H216866   5.185   7.167   3.663
 5641TIP3   OH216867   4.196   1.314   5.941
 5641TIP3    H116868   4.146   1.351   5.868
 5641TIP3    H216869   4.237   1.390   5.982
 5642TIP3   OH216870   1.407   0.340   4.878
 5642TIP3    H116871   1.489   0.380   4.848
 5642TIP3    H216872   1.404   0.255   4.834
 5643TIP3   OH216873   3.363   3.832   1.408
 5643TIP3    H116874   3.378   3.741   1.436
 5643TIP3    H216875   3.275   3.852   1.438
 5644TIP3   OH216876   3.625   6.987   2.246
 5644TIP3    H116877   3.563   7.057   2.263
 5644TIP3    H216878   3.686   6.990   2.320
 5645TIP3   OH216879   6.304   0.384   4.627
 5645TIP3    H116880   6.295   0.442   4.551
 5645TIP3    H216881   6.344   0.305   4.592
 5646TIP3   OH216882   3.512   7.640   2.535
 5646TIP3    H116883   3.423   7.616   2.507
 5646TIP3    H216884   3.531   7.579   2.606
 5647TIP3   OH216885   5.929   2.327   4.373
 5647TIP3    H116886   5.862   2.259   4.374
 5647TIP3    H216887   6.006   2.284   4.336
 5648TIP3   OH216888   2.019   0.499   3.653
 5648TIP3    H116889   2.105   0.538   3.638
 5648TIP3    H216890   1.960   0.550   3.598
 5649TIP3   OH216891   3.797   2.881   6.526
 5649TIP3    H116892   3.816   2.873   6.432
 5649TIP3    H216893   3.740   2.957   6.533
 5650TIP3   OH216894   6.502   1.278   3.271
 5650TIP3    H116895   6.523   1.228   3.192
 5650TIP3    H216896   6.452   1.217   3.325
 5651TIP3   OH216897   5.530   1.747   3.126
 5651TIP3    H116898   5.502   1.727   3.037
 5651TIP3    H216899   5.495   1.676   3.179
 5652TIP3   OH216900   5.622   1.126   1.943
 5652TIP3    H116901   5.617   1.125   1.847
 5652TIP3    H216902   5.715   1.133   1.962
 5653TIP3   OH216903   6.480   1.349   6.084
 5653TIP3    H116904   6.547   1.365   6.018
 5653TIP3    H216905   6.509   1.270   6.130
 5654TIP3   OH216906   3.543   4.034   5.128
 5654TIP3    H116907   3.567   4.120   5.092
 5654TIP3    H216908   3.610   4.016   5.194
 5655TIP3   OH216909   7.034   4.828   6.457
 5655TIP3    H116910   6.973   4.773   6.505
 5655TIP3    H216911   7.010   4.817   6.365
 5656TIP3   OH216912   6.334   5.569   2.919
 5656TIP3    H116913   6.422   5.535   2.901
 5656TIP3    H216914   6.284   5.492   2.948
 5657TIP3   OH216915   2.637   0.980   6.772
 5657TIP3    H116916   2.699   1.037   6.816
 5657TIP3    H216917   2.691   0.916   6.726
 5658TIP3   OH216918   7.225   2.893   3.431
 5658TIP3    H116919   7.296   2.913   3.492
 5658TIP3    H216920   7.146   2.892   3.486
 5659TIP3   OH216921   6.333   1.250   1.247
 5659TIP3    H116922   6.277   1.176   1.222
 5659TIP3    H216923   6.314   1.318   1.183
 5660TIP3   OH216924   1.026   7.309   5.970
 5660TIP3    H116925   0.962   7.330   5.901
 5660TIP3    H216926   0.999   7.362   6.045
 5661TIP3   OH216927   1.652   4.560   2.347
 5661TIP3    H116928   1.588   4.529   2.411
 5661TIP3    H216929   1.642   4.656   2.347
 5662TIP3   OH216930   5.544   7.381   1.243
 5662TIP3    H116931   5.624   7.404   1.196
 5662TIP3    H216932   5.478   7.440   1.208
 5663TIP3   OH216933   5.499   6.893   2.068
 5663TIP3    H116934   5.431   6.887   2.001
 5663TIP3    H216935   5.503   6.986   2.091
 5664TIP3   OH216936   0.515   6.920   5.714
 5664TIP3    H116937   0.492   7.011   5.733
 5664TIP3    H216938   0.531   6.918   5.620
 5665TIP3   OH216939   6.139   0.146   1.334
 5665TIP3    H116940   6.130   0.231   1.290
 5665TIP3    H216941   6.233   0.126   1.328
 5666TIP3   OH216942   7.598   6.976   3.086
 5666TIP3    H116943   7.677   7.025   3.110
 5666TIP3    H216944   7.527   7.023   3.129
 5667TIP3   OH216945   1.092   2.779   1.063
 5667TIP3    H116946   1.099   2.765   1.158
 5667TIP3    H216947   1.002   2.806   1.050
 5668TIP3   OH216948   3.312   1.943   1.028
 5668TIP3    H116949   3.292   2.036   1.037
 5668TIP3    H216950   3.371   1.938   0.953
 5669TIP3   OH216951   0.479   3.298   2.526
 5669TIP3    H116952   0.396   3.256   2.503
 5669TIP3    H216953   0.544   3.228   2.521
 5670TIP3   OH216954   3.901   4.498   0.586
 5670TIP3    H116955   3.988   4.499   0.626
 5670TIP3    H216956   3.848   4.555   0.641
 5671TIP3   OH216957   7.921   6.197   4.699
 5671TIP3    H116958   7.914   6.128   4.765
 5671TIP3    H216959   8.014   6.201   4.678
 5672TIP3   OH216960   7.305   6.810   6.564
 5672TIP3    H116961   7.344   6.753   6.497
 5672TIP3    H216962   7.225   6.765   6.590
 5673TIP3   OH216963   8.261   5.418   2.301
 5673TIP3    H116964   8.289   5.455   2.384
 5673TIP3    H216965   8.166   5.425   2.302
 5674TIP3   OH216966   3.786   7.419   1.645
 5674TIP3    H116967   3.838   7.418   1.725
 5674TIP3    H216968   3.796   7.331   1.608
 5675TIP3   OH216969   3.730   7.705   3.620
 5675TIP3    H116970   3.765   7.668   3.701
 5675TIP3    H216971   3.714   7.797   3.640
 5676TIP3   OH216972   7.634   7.489   2.722
 5676TIP3    H116973   7.539   7.500   2.727
 5676TIP3    H216974   7.650   7.457   2.633
 5677TIP3   OH216975   8.179   0.686   2.160
 5677TIP3    H116976   8.207   0.658   2.247
 5677TIP3    H216977   8.169   0.781   2.168
 5678TIP3   OH216978   5.653   1.574   1.825
 5678TIP3    H116979   5.705   1.648   1.793
 5678TIP3    H216980   5.603   1.610   1.898
 5679TIP3   OH216981   5.468   3.410   1.577
 5679TIP3    H116982   5.412   3.335   1.597
 5679TIP3    H216983   5.417   3.462   1.515
 5680TIP3   OH216984   7.021   4.208   2.230
 5680TIP3    H116985   7.020   4.264   2.152
 5680TIP3    H216986   7.039   4.268   2.303
 5681TIP3   OH216987   2.606   7.130   1.380
 5681TIP3    H116988   2.523   7.140   1.427
 5681TIP3    H216989   2.669   7.177   1.434
 5682TIP3   OH216990   6.767   6.809   1.107
 5682TIP3    H116991   6.729   6.862   1.177
 5682TIP3    H216992   6.854   6.846   1.094
 5683TIP3   OH216993   2.998   3.107   2.434
 5683TIP3    H116994   3.025   3.025   2.474
 5683TIP3    H216995   3.080   3.150   2.408
 5684TIP3   OH216996   7.377   2.160   3.542
 5684TIP3    H116997   7.321   2.162   3.619
 5684TIP3    H216998   7.437   2.234   3.553
 5685TIP3   OH216999   6.409   6.769   2.243
 5685TIP3    H117000   6.366   6.853   2.263
 5685TIP3    H217001   6.498   6.794   2.220
 5686TIP3   OH217002   5.701   2.921   0.870
 5686TIP3    H117003   5.625   2.889   0.919
 5686TIP3    H217004   5.734   2.844   0.824
 5687TIP3   OH217005   0.885   3.341   5.264
 5687TIP3    H117006   0.893   3.406   5.195
 5687TIP3    H217007   0.799   3.302   5.250
 5688TIP3   OH217008   6.890   5.980   0.421
 5688TIP3    H117009   6.835   6.059   0.427
 5688TIP3    H217010   6.831   5.913   0.386
 5689TIP3   OH217011   1.632   4.391   3.411
 5689TIP3    H117012   1.538   4.379   3.427
 5689TIP3    H217013   1.674   4.351   3.487
 5690TIP3   OH217014   6.936   2.668   4.705
 5690TIP3    H117015   6.953   2.627   4.620
 5690TIP3    H217016   6.960   2.760   4.693
 5691TIP3   OH217017   7.597   1.112   6.658
 5691TIP3    H117018   7.596   1.182   6.724
 5691TIP3    H217019   7.512   1.119   6.614
 5692TIP3   OH217020   1.952   5.565   1.709
 5692TIP3    H117021   2.012   5.635   1.736
 5692TIP3    H217022   2.001   5.485   1.726
 5693TIP3   OH217023   4.843   3.662   0.518
 5693TIP3    H117024   4.755   3.699   0.521
 5693TIP3    H217025   4.882   3.698   0.439
 5694TIP3   OH217026   3.572   7.320   3.268
 5694TIP3    H117027   3.592   7.333   3.361
 5694TIP3    H217028   3.654   7.338   3.223
 5695TIP3   OH217029   7.615   7.582   4.472
 5695TIP3    H117030   7.557   7.505   4.481
 5695TIP3    H217031   7.653   7.593   4.559
 5696TIP3   OH217032   6.411   4.945   3.630
 5696TIP3    H117033   6.462   4.976   3.704
 5696TIP3    H217034   6.351   5.016   3.609
 5697TIP3   OH217035   6.052   3.610   6.313
 5697TIP3    H117036   5.989   3.551   6.271
 5697TIP3    H217037   6.060   3.576   6.403
 5698TIP3   OH217038   8.045   7.191   3.627
 5698TIP3    H117039   8.109   7.126   3.597
 5698TIP3    H217040   7.965   7.167   3.581
 5699TIP3   OH217041   0.100   5.502   2.516
 5699TIP3    H117042   0.049   5.472   2.591
 5699TIP3    H217043   0.191   5.489   2.542
 5700TIP3   OH217044   0.240   3.907   1.158
 5700TIP3    H117045   0.277   3.929   1.243
 5700TIP3    H217046   0.187   3.984   1.134
 5701TIP3   OH217047   1.530   2.489   3.904
 5701TIP3    H117048   1.578   2.431   3.963
 5701TIP3    H217049   1.448   2.507   3.950
 5702TIP3   OH217050   4.475   5.483   5.588
 5702TIP3    H117051   4.519   5.425   5.651
 5702TIP3    H217052   4.542   5.502   5.523
 5703TIP3   OH217053   5.950   4.732   1.060
 5703TIP3    H117054   5.957   4.765   1.150
 5703TIP3    H217055   6.037   4.696   1.041
 5704TIP3   OH217056   2.988   5.516   3.083
 5704TIP3    H117057   3.081   5.500   3.065
 5704TIP3    H217058   2.981   5.514   3.178
 5705TIP3   OH217059   4.918  -0.010   3.864
 5705TIP3    H117060   4.963   0.040   3.797
 5705TIP3    H217061   4.963   0.014   3.946
 5706TIP3   OH217062   4.567   3.173   4.953
 5706TIP3    H117063   4.510   3.168   4.876
 5706TIP3    H217064   4.625   3.247   4.934
 5707TIP3   OH217065   7.388   6.519   6.111
 5707TIP3    H117066   7.354   6.596   6.065
 5707TIP3    H217067   7.426   6.465   6.041
 5708TIP3   OH217068   2.122   5.987   3.187
 5708TIP3    H117069   2.120   5.965   3.280
 5708TIP3    H217070   2.048   5.939   3.149
 5709TIP3   OH217071   5.409   3.736   0.951
 5709TIP3    H117072   5.474   3.777   1.008
 5709TIP3    H217073   5.340   3.802   0.941
 5710TIP3   OH217074   0.745   2.878   2.187
 5710TIP3    H117075   0.660   2.859   2.147
 5710TIP3    H217076   0.808   2.862   2.117
 5711TIP3   OH217077   4.906   3.494   6.518
 5711TIP3    H117078   4.876   3.545   6.443
 5711TIP3    H217079   4.996   3.525   6.533
 5712TIP3   OH217080   3.984   6.804   5.966
 5712TIP3    H117081   3.890   6.789   5.976
 5712TIP3    H217082   4.023   6.766   6.044
 5713TIP3   OH217083   1.783   2.472   0.615
 5713TIP3    H117084   1.837   2.549   0.635
 5713TIP3    H217085   1.815   2.405   0.675
 5714TIP3   OH217086   1.742   0.831   0.619
 5714TIP3    H117087   1.708   0.772   0.686
 5714TIP3    H217088   1.684   0.818   0.543
 5715TIP3   OH217089   4.206   0.274   6.407
 5715TIP3    H117090   4.252   0.358   6.409
 5715TIP3    H217091   4.139   0.286   6.340
 5716TIP3   OH217092   5.449   5.751   2.139
 5716TIP3    H117093   5.505   5.816   2.096
 5716TIP3    H217094   5.446   5.678   2.079
 5717TIP3   OH217095   1.262   4.666   5.654
 5717TIP3    H117096   1.301   4.752   5.665
 5717TIP3    H217097   1.194   4.679   5.587
 5718TIP3   OH217098   0.065   1.599   2.262
 5718TIP3    H117099   0.056   1.634   2.350
 5718TIP3    H217100   0.037   1.671   2.205
 5719TIP3   OH217101   2.601   0.622   3.021
 5719TIP3    H117102   2.583   0.693   3.083
 5719TIP3    H217103   2.536   0.633   2.952
 5720TIP3   OH217104   2.546   3.731   6.751
 5720TIP3    H117105   2.554   3.819   6.713
 5720TIP3    H217106   2.626   3.721   6.803
 5721TIP3   OH217107   4.759   6.451   5.415
 5721TIP3    H117108   4.707   6.373   5.432
 5721TIP3    H217109   4.695   6.518   5.391
 5722TIP3   OH217110   4.847   3.843   5.371
 5722TIP3    H117111   4.896   3.776   5.420
 5722TIP3    H217112   4.782   3.794   5.321
 5723TIP3   OH217113   5.445   3.632   6.440
 5723TIP3    H117114   5.414   3.563   6.381
 5723TIP3    H217115   5.442   3.712   6.386
 5724TIP3   OH217116   6.386   4.482   0.562
 5724TIP3    H117117   6.450   4.541   0.524
 5724TIP3    H217118   6.397   4.493   0.657
 5725TIP3   OH217119   4.889   0.549   1.950
 5725TIP3    H117120   4.833   0.493   1.896
 5725TIP3    H217121   4.829   0.592   2.010
 5726TIP3   OH217122   6.012   6.231   3.406
 5726TIP3    H117123   6.000   6.137   3.422
 5726TIP3    H217124   6.103   6.239   3.378
 5727TIP3   OH217125   5.270   7.057   6.036
 5727TIP3    H117126   5.356   7.024   6.011
 5727TIP3    H217127   5.211   6.984   6.017
 5728TIP3   OH217128   4.715   3.589   2.991
 5728TIP3    H117129   4.739   3.681   2.980
 5728TIP3    H217130   4.758   3.562   3.072
 5729TIP3   OH217131   3.740   2.391   3.835
 5729TIP3    H117132   3.778   2.336   3.767
 5729TIP3    H217133   3.647   2.391   3.817
 5730TIP3   OH217134   0.141   4.986   6.220
 5730TIP3    H117135   0.117   4.987   6.127
 5730TIP3    H217136   0.071   4.936   6.263
 5731TIP3   OH217137   2.154   2.901   4.723
 5731TIP3    H117138   2.081   2.865   4.774
 5731TIP3    H217139   2.171   2.835   4.656
 5732TIP3   OH217140   4.782   1.444   6.541
 5732TIP3    H117141   4.762   1.417   6.630
 5732TIP3    H217142   4.829   1.370   6.503
 5733TIP3   OH217143   5.082   1.112   4.568
 5733TIP3    H117144   5.072   1.187   4.627
 5733TIP3    H217145   5.021   1.130   4.497
 5734TIP3   OH217146   4.251   3.239   4.474
 5734TIP3    H117147   4.250   3.214   4.381
 5734TIP3    H217148   4.250   3.334   4.473
 5735TIP3   OH217149   5.757   7.667   3.261
 5735TIP3    H117150   5.698   7.733   3.297
 5735TIP3    H217151   5.759   7.685   3.167
 5736TIP3   OH217152   2.497   2.772   2.647
 5736TIP3    H117153   2.533   2.841   2.703
 5736TIP3    H217154   2.555   2.769   2.571
 5737TIP3   OH217155   2.070   0.475   2.419
 5737TIP3    H117156   2.082   0.396   2.472
 5737TIP3    H217157   2.153   0.522   2.425
 5738TIP3   OH217158   7.968   3.142   4.805
 5738TIP3    H117159   8.056   3.138   4.844
 5738TIP3    H217160   7.919   3.073   4.849
 5739TIP3   OH217161   5.201   7.390   0.555
 5739TIP3    H117162   5.235   7.350   0.635
 5739TIP3    H217163   5.115   7.352   0.543
 5740TIP3   OH217164   0.661   4.624   1.100
 5740TIP3    H117165   0.577   4.600   1.140
 5740TIP3    H217166   0.640   4.697   1.042
 5741TIP3   OH217167   5.115   6.972   1.817
 5741TIP3    H117168   5.051   6.957   1.887
 5741TIP3    H217169   5.133   7.066   1.821
 5742TIP3   OH217170   5.161   4.555   4.067
 5742TIP3    H117171   5.115   4.514   3.994
 5742TIP3    H217172   5.140   4.648   4.059
 5743TIP3   OH217173   6.955   3.217   6.310
 5743TIP3    H117174   6.928   3.193   6.399
 5743TIP3    H217175   6.895   3.288   6.286
 5744TIP3   OH217176   8.048   1.241   5.516
 5744TIP3    H117177   7.954   1.261   5.509
 5744TIP3    H217178   8.080   1.250   5.426
 5745TIP3   OH217179   3.274   5.816   1.587
 5745TIP3    H117180   3.344   5.816   1.523
 5745TIP3    H217181   3.204   5.867   1.546
 5746TIP3   OH217182   5.753   5.120   5.391
 5746TIP3    H117183   5.660   5.107   5.373
 5746TIP3    H217184   5.766   5.083   5.479
 5747TIP3   OH217185   3.339   0.359   1.200
 5747TIP3    H117186   3.427   0.331   1.226
 5747TIP3    H217187   3.294   0.378   1.283
 5748TIP3   OH217188   4.322   2.908   6.444
 5748TIP3    H117189   4.387   2.938   6.508
 5748TIP3    H217190   4.372   2.853   6.383
 5749TIP3   OH217191   7.566   2.246   0.860
 5749TIP3    H117192   7.538   2.264   0.949
 5749TIP3    H217193   7.511   2.303   0.806
 5750TIP3   OH217194   7.113   0.848   1.685
 5750TIP3    H117195   7.109   0.903   1.607
 5750TIP3    H217196   7.031   0.866   1.731
 5751TIP3   OH217197   4.024   2.394   4.088
 5751TIP3    H117198   3.963   2.453   4.132
 5751TIP3    H217199   4.066   2.449   4.022
 5752TIP3   OH217200   4.930   4.429   4.845
 5752TIP3    H117201   4.880   4.474   4.913
 5752TIP3    H217202   4.995   4.377   4.894
 5753TIP3   OH217203   7.671   2.733   6.749
 5753TIP3    H117204   7.638   2.650   6.716
 5753TIP3    H217205   7.668   2.791   6.673
 5754TIP3   OH217206   1.450   1.695   1.319
 5754TIP3    H117207   1.395   1.682   1.396
 5754TIP3    H217208   1.539   1.677   1.349
 5755TIP3   OH217209   3.656   0.558   1.880
 5755TIP3    H117210   3.735   0.581   1.831
 5755TIP3    H217211   3.627   0.475   1.841
 5756TIP3   OH217212   0.121   7.175   0.977
 5756TIP3    H117213   0.064   7.252   0.977
 5756TIP3    H217214   0.096   7.126   0.900
 5757TIP3   OH217215   8.249   7.099   0.746
 5757TIP3    H117216   8.222   7.185   0.714
 5757TIP3    H217217   8.332   7.082   0.700
 5758TIP3   OH217218   5.937   5.123   2.201
 5758TIP3    H117219   5.989   5.154   2.126
 5758TIP3    H217220   5.880   5.055   2.164
 5759TIP3   OH217221   0.135   0.835   5.317
 5759TIP3    H117222   0.167   0.746   5.331
 5759TIP3    H217223   0.068   0.847   5.385
 5760TIP3   OH217224   4.905   6.368   6.317
 5760TIP3    H117225   4.834   6.318   6.277
 5760TIP3    H217226   4.871   6.458   6.323
 5761TIP3   OH217227   8.153   3.835   6.379
 5761TIP3    H117228   8.103   3.754   6.392
 5761TIP3    H217229   8.096   3.904   6.412
 5762TIP3   OH217230   1.975   2.899   0.185
 5762TIP3    H117231   2.010   2.816   0.219
 5762TIP3    H217232   1.894   2.912   0.234
 5763TIP3   OH217233   2.649   1.428   5.804
 5763TIP3    H117234   2.652   1.333   5.790
 5763TIP3    H217235   2.569   1.443   5.855
 5764TIP3   OH217236   8.213   1.037   4.566
 5764TIP3    H117237   8.138   1.054   4.510
 5764TIP3    H217238   8.231   0.943   4.555
 5765TIP3   OH217239   7.384   3.593   0.452
 5765TIP3    H117240   7.342   3.674   0.425
 5765TIP3    H217241   7.435   3.566   0.376
 5766TIP3   OH217242   6.056   3.352   5.158
 5766TIP3    H117243   6.092   3.322   5.074
 5766TIP3    H217244   6.100   3.436   5.173
 5767TIP3   OH217245   7.337   0.423   1.190
 5767TIP3    H117246   7.286   0.415   1.109
 5767TIP3    H217247   7.280   0.387   1.257
 5768TIP3   OH217248   7.147   3.196   5.889
 5768TIP3    H117249   7.234   3.174   5.856
 5768TIP3    H217250   7.162   3.264   5.954
 5769TIP3   OH217251   1.337   4.441   6.645
 5769TIP3    H117252   1.251   4.477   6.669
 5769TIP3    H217253   1.387   4.517   6.616
 5770TIP3   OH217254   7.170   7.490   6.604
 5770TIP3    H117255   7.088   7.536   6.586
 5770TIP3    H217256   7.204   7.532   6.683
 5771TIP3   OH217257   8.008   0.569   6.004
 5771TIP3    H117258   8.015   0.488   5.952
 5771TIP3    H217259   8.083   0.621   5.976
 5772TIP3   OH217260   5.333   3.174   5.529
 5772TIP3    H117261   5.354   3.153   5.620
 5772TIP3    H217262   5.271   3.106   5.503
 5773TIP3   OH217263   2.678   0.722   2.707
 5773TIP3    H117264   2.690   0.651   2.643
 5773TIP3    H217265   2.589   0.710   2.740
 5774TIP3   OH217266   6.351   2.465   5.336
 5774TIP3    H117267   6.265   2.475   5.378
 5774TIP3    H217268   6.331   2.444   5.245
 5775TIP3   OH217269   5.376   4.020   1.898
 5775TIP3    H117270   5.305   4.057   1.845
 5775TIP3    H217271   5.353   3.928   1.908
 5776TIP3   OH217272   3.083   7.563   3.783
 5776TIP3    H117273   3.126   7.641   3.817
 5776TIP3    H217274   3.135   7.490   3.816
 5777TIP3   OH217275   0.712   5.077   0.151
 5777TIP3    H117276   0.746   5.159   0.186
 5777TIP3    H217277   0.766   5.009   0.191
 5778TIP3   OH217278   7.430   4.742   5.388
 5778TIP3    H117279   7.471   4.658   5.364
 5778TIP3    H217280   7.336   4.723   5.391
 5779TIP3   OH217281   0.207   3.321   6.644
 5779TIP3    H117282   0.152   3.332   6.721
 5779TIP3    H217283   0.248   3.235   6.656
 5780TIP3   OH217284   1.204   1.350   1.036
 5780TIP3    H117285   1.216   1.435   0.994
 5780TIP3    H217286   1.289   1.307   1.028
 5781TIP3   OH217287   2.858   7.674   2.627
 5781TIP3    H117288   2.945   7.699   2.596
 5781TIP3    H217289   2.865   7.581   2.648
 5782TIP3   OH217290   7.707   1.649   3.809
 5782TIP3    H117291   7.666   1.735   3.808
 5782TIP3    H217292   7.676   1.609   3.890
 5783TIP3   OH217293   1.605   1.990   4.130
 5783TIP3    H117294   1.549   1.937   4.187
 5783TIP3    H217295   1.546   2.055   4.091
 5784TIP3   OH217296   4.861   5.346   5.625
 5784TIP3    H117297   4.862   5.438   5.600
 5784TIP3    H217298   4.778   5.333   5.670
 5785TIP3   OH217299   5.400   0.904   3.545
 5785TIP3    H117300   5.367   0.930   3.459
 5785TIP3    H217301   5.405   0.986   3.594
 5786TIP3   OH217302   7.758   4.292   0.402
 5786TIP3    H117303   7.736   4.359   0.466
 5786TIP3    H217304   7.827   4.241   0.443
 5787TIP3   OH217305   5.033   7.371   1.850
 5787TIP3    H117306   5.048   7.417   1.767
 5787TIP3    H217307   5.007   7.440   1.911
 5788TIP3   OH217308   5.868   2.938   4.646
 5788TIP3    H117309   5.835   2.852   4.672
 5788TIP3    H217310   5.907   2.924   4.560
 5789TIP3   OH217311   4.203   4.037   0.250
 5789TIP3    H117312   4.195   3.943   0.269
 5789TIP3    H217313   4.269   4.041   0.180
 5790TIP3   OH217314   7.049   6.101   3.849
 5790TIP3    H117315   7.046   6.113   3.944
 5790TIP3    H217316   7.093   6.017   3.837
 5791TIP3   OH217317   1.439   3.135   5.088
 5791TIP3    H117318   1.522   3.100   5.055
 5791TIP3    H217319   1.386   3.057   5.105
 5792TIP3   OH217320   2.608   4.023   5.006
 5792TIP3    H117321   2.578   4.062   4.924
 5792TIP3    H217322   2.617   4.097   5.066
 5793TIP3   OH217323   0.779   0.095   2.897
 5793TIP3    H117324   0.717   0.153   2.853
 5793TIP3    H217325   0.727   0.045   2.959
 5794TIP3   OH217326   7.576   1.984   2.629
 5794TIP3    H117327   7.627   1.930   2.568
 5794TIP3    H217328   7.642   2.028   2.682
 5795TIP3   OH217329   5.553   1.999   0.284
 5795TIP3    H117330   5.576   2.008   0.192
 5795TIP3    H217331   5.622   2.044   0.331
 5796TIP3   OH217332   4.376   0.056   2.184
 5796TIP3    H117333   4.436   0.087   2.115
 5796TIP3    H217334   4.426  -0.012   2.230
 5797TIP3   OH217335   3.263   7.381   6.754
 5797TIP3    H117336   3.321   7.457   6.747
 5797TIP3    H217337   3.188   7.402   6.700
 5798TIP3   OH217338   7.751   5.432   1.746
 5798TIP3    H117339   7.833   5.428   1.794
 5798TIP3    H217340   7.757   5.511   1.693
 5799TIP3   OH217341   2.251   4.580   2.342
 5799TIP3    H117342   2.301   4.499   2.331
 5799TIP3    H217343   2.203   4.590   2.260
 5800TIP3   OH217344   6.358   5.030   4.425
 5800TIP3    H117345   6.413   5.095   4.469
 5800TIP3    H217346   6.287   5.081   4.387
 5801TIP3   OH217347   1.266   6.971   3.708
 5801TIP3    H117348   1.239   7.050   3.755
 5801TIP3    H217349   1.308   7.003   3.629
 5802TIP3   OH217350   5.027   5.500   2.566
 5802TIP3    H117351   5.112   5.540   2.586
 5802TIP3    H217352   5.047   5.407   2.558
 5803TIP3   OH217353   7.613   3.110   4.382
 5803TIP3    H117354   7.599   3.016   4.392
 5803TIP3    H217355   7.530   3.150   4.412
 5804TIP3   OH217356   3.140   5.736   5.969
 5804TIP3    H117357   3.192   5.764   6.044
 5804TIP3    H217358   3.204   5.698   5.909
 5805TIP3   OH217359   7.769   0.472   3.813
 5805TIP3    H117360   7.816   0.549   3.844
 5805TIP3    H217361   7.711   0.506   3.744
 5806TIP3   OH217362   2.106   3.018   1.702
 5806TIP3    H117363   2.194   3.000   1.734
 5806TIP3    H217364   2.064   2.932   1.699
 5807TIP3   OH217365   5.856   0.149   0.984
 5807TIP3    H117366   5.862   0.053   0.982
 5807TIP3    H217367   5.935   0.179   0.939
 5808TIP3   OH217368   5.777   1.606   6.722
 5808TIP3    H117369   5.782   1.685   6.669
 5808TIP3    H217370   5.760   1.536   6.659
 5809TIP3   OH217371   6.351   3.349   3.135
 5809TIP3    H117372   6.441   3.317   3.128
 5809TIP3    H217373   6.360   3.439   3.164
 5810TIP3   OH217374   2.478   7.609   3.736
 5810TIP3    H117375   2.496   7.516   3.723
 5810TIP3    H217376   2.546   7.654   3.685
 5811TIP3   OH217377   2.225   2.237   6.452
 5811TIP3    H117378   2.144   2.288   6.445
 5811TIP3    H217379   2.273   2.279   6.524
 5812TIP3   OH217380   6.275   2.136   3.186
 5812TIP3    H117381   6.200   2.079   3.170
 5812TIP3    H217382   6.258   2.174   3.272
 5813TIP3   OH217383   2.558   1.815   5.715
 5813TIP3    H117384   2.491   1.751   5.739
 5813TIP3    H217385   2.522   1.860   5.638
 5814TIP3   OH217386   0.177   3.954   5.263
 5814TIP3    H117387   0.103   3.949   5.324
 5814TIP3    H217388   0.211   3.865   5.259
 5815TIP3   OH217389   2.958   6.624   5.459
 5815TIP3    H117390   2.869   6.599   5.436
 5815TIP3    H217391   3.012   6.549   5.432
 5816TIP3   OH217392   1.543   5.867   6.321
 5816TIP3    H117393   1.482   5.828   6.258
 5816TIP3    H217394   1.542   5.808   6.396
 5817TIP3   OH217395   7.561   3.141   6.191
 5817TIP3    H117396   7.517   3.059   6.212
 5817TIP3    H217397   7.644   3.138   6.238
 5818TIP3   OH217398   4.904   1.168   1.627
 5818TIP3    H117399   4.953   1.223   1.689
 5818TIP3    H217400   4.914   1.213   1.543
 5819TIP3   OH217401   6.280   6.518   0.621
 5819TIP3    H117402   6.273   6.488   0.530
 5819TIP3    H217403   6.373   6.540   0.632
 5820TIP3   OH217404   0.730   6.862   4.188
 5820TIP3    H117405   0.698   6.924   4.254
 5820TIP3    H217406   0.768   6.918   4.120
 5821TIP3   OH217407   6.147   5.528   6.437
 5821TIP3    H117408   6.150   5.453   6.497
 5821TIP3    H217409   6.056   5.533   6.410
 5822TIP3   OH217410   4.260   1.061   0.251
 5822TIP3    H117411   4.262   1.156   0.266
 5822TIP3    H217412   4.302   1.050   0.165
 5823TIP3   OH217413   5.203   4.888   0.170
 5823TIP3    H117414   5.266   4.888   0.098
 5823TIP3    H217415   5.256   4.871   0.248
 5824TIP3   OH217416   7.995   7.634   5.297
 5824TIP3    H117417   8.031   7.704   5.243
 5824TIP3    H217418   8.016   7.660   5.387
 5825TIP3   OH217419   6.307   4.288   5.948
 5825TIP3    H117420   6.286   4.364   6.002
 5825TIP3    H217421   6.392   4.258   5.981
 5826TIP3   OH217422   3.765   5.905   3.581
 5826TIP3    H117423   3.784   5.811   3.577
 5826TIP3    H217424   3.754   5.931   3.489
 5827TIP3   OH217425   6.175   6.433   1.681
 5827TIP3    H117426   6.138   6.360   1.630
 5827TIP3    H217427   6.265   6.441   1.648
 5828TIP3   OH217428   0.506   4.790   0.782
 5828TIP3    H117429   0.464   4.710   0.814
 5828TIP3    H217430   0.439   4.832   0.728
 5829TIP3   OH217431   6.218   6.091   0.873
 5829TIP3    H117432   6.247   6.156   0.936
 5829TIP3    H217433   6.197   6.141   0.794
 5830TIP3   OH217434   2.075   1.503   1.924
 5830TIP3    H117435   2.137   1.532   1.857
 5830TIP3    H217436   2.059   1.411   1.904
 5831TIP3   OH217437   0.533   1.718   0.012
 5831TIP3    H117438   0.504   1.807  -0.005
 5831TIP3    H217439   0.554   1.716   0.106
 5832TIP3   OH217440   6.511   7.711   0.318
 5832TIP3    H117441   6.422   7.747   0.324
 5832TIP3    H217442   6.550   7.731   0.403
 5833TIP3   OH217443   2.256   4.106   0.461
 5833TIP3    H117444   2.294   4.186   0.497
 5833TIP3    H217445   2.301   4.092   0.378
 5834TIP3   OH217446   1.492   3.388   2.961
 5834TIP3    H117447   1.501   3.400   3.056
 5834TIP3    H217448   1.502   3.293   2.949
 5835TIP3   OH217449   1.084   1.674   5.911
 5835TIP3    H117450   1.098   1.748   5.969
 5835TIP3    H217451   1.155   1.613   5.931
 5836TIP3   OH217452   2.901   6.629   6.049
 5836TIP3    H117453   2.846   6.642   6.127
 5836TIP3    H217454   2.846   6.656   5.976
 5837TIP3   OH217455   0.430   7.395   0.589
 5837TIP3    H117456   0.453   7.305   0.612
 5837TIP3    H217457   0.435   7.443   0.671
 5838TIP3   OH217458   5.005   2.581   0.738
 5838TIP3    H117459   4.920   2.538   0.745
 5838TIP3    H217460   4.997   2.637   0.661
 5839TIP3   OH217461   0.670   0.632   3.104
 5839TIP3    H117462   0.697   0.664   3.019
 5839TIP3    H217463   0.727   0.557   3.121
 5840TIP3   OH217464   7.722   6.984   4.884
 5840TIP3    H117465   7.703   6.896   4.917
 5840TIP3    H217466   7.656   7.040   4.924
 5841TIP3   OH217467   2.457   4.329   3.124
 5841TIP3    H117468   2.541   4.284   3.121
 5841TIP3    H217469   2.473   4.408   3.175
 5842TIP3   OH217470   7.589   6.012   4.943
 5842TIP3    H117471   7.525   5.948   4.913
 5842TIP3    H217472   7.569   6.091   4.893
 5843TIP3   OH217473   4.580   1.489   0.336
 5843TIP3    H117474   4.490   1.519   0.345
 5843TIP3    H217475   4.576   1.395   0.355
 5844TIP3   OH217476   7.215   3.691   5.350
 5844TIP3    H117477   7.274   3.726   5.416
 5844TIP3    H217478   7.272   3.644   5.288
 5845TIP3   OH217479   8.002   5.447   2.305
 5845TIP3    H117480   7.977   5.536   2.282
 5845TIP3    H217481   7.919   5.400   2.314
 5846TIP3   OH217482   3.075   5.536   3.729
 5846TIP3    H117483   3.109   5.572   3.647
 5846TIP3    H217484   3.042   5.612   3.776
 5847TIP3   OH217485   7.764   5.497   2.877
 5847TIP3    H117486   7.733   5.551   2.804
 5847TIP3    H217487   7.760   5.554   2.953
 5848TIP3   OH217488   4.252   1.636   0.188
 5848TIP3    H117489   4.269   1.621   0.281
 5848TIP3    H217490   4.310   1.709   0.165
 5849TIP3   OH217491   6.340   0.618   4.788
 5849TIP3    H117492   6.346   0.551   4.720
 5849TIP3    H217493   6.319   0.569   4.867
 5850TIP3   OH217494   1.608   4.718   3.923
 5850TIP3    H117495   1.556   4.645   3.891
 5850TIP3    H217496   1.545   4.787   3.941
 5851TIP3   OH217497   6.418   5.668   1.690
 5851TIP3    H117498   6.392   5.640   1.602
 5851TIP3    H217499   6.377   5.753   1.702
 5852TIP3   OH217500   8.048   5.362   4.544
 5852TIP3    H117501   8.077   5.405   4.463
 5852TIP3    H217502   8.006   5.282   4.515
 5853TIP3   OH217503   6.102   6.559   3.637
 5853TIP3    H117504   6.044   6.635   3.633
 5853TIP3    H217505   6.127   6.543   3.547
 5854TIP3   OH217506   7.234   7.740   4.332
 5854TIP3    H117507   7.268   7.682   4.264
 5854TIP3    H217508   7.257   7.696   4.414
 5855TIP3   OH217509   0.001   5.360   1.468
 5855TIP3    H117510  -0.079   5.337   1.515
 5855TIP3    H217511   0.000   5.305   1.390
 5856TIP3   OH217512   0.643   3.701   4.288
 5856TIP3    H117513   0.672   3.778   4.239
 5856TIP3    H217514   0.588   3.737   4.358
 5857TIP3   OH217515   2.796   7.554   3.453
 5857TIP3    H117516   2.744   7.486   3.410
 5857TIP3    H217517   2.750   7.635   3.433
 5858TIP3   OH217518   4.425   3.982   3.372
 5858TIP3    H117519   4.394   3.986   3.463
 5858TIP3    H217520   4.514   4.015   3.375
 5859TIP3   OH217521   5.373   6.889   6.298
 5859TIP3    H117522   5.307   6.931   6.353
 5859TIP3    H217523   5.427   6.961   6.266
 5860TIP3   OH217524   6.476   3.819   4.289
 5860TIP3    H117525   6.520   3.832   4.373
 5860TIP3    H217526   6.420   3.743   4.303
 5861TIP3   OH217527   3.823   6.868   1.470
 5861TIP3    H117528   3.830   6.917   1.552
 5861TIP3    H217529   3.749   6.809   1.484
 5862TIP3   OH217530   5.253   7.741   3.494
 5862TIP3    H117531   5.160   7.762   3.491
 5862TIP3    H217532   5.257   7.648   3.471
 5863TIP3   OH217533   1.579   5.727   1.833
 5863TIP3    H117534   1.613   5.696   1.917
 5863TIP3    H217535   1.562   5.820   1.847
 5864TIP3   OH217536   4.737   5.218   3.982
 5864TIP3    H117537   4.759   5.284   3.916
 5864TIP3    H217538   4.669   5.259   4.035
 5865TIP3   OH217539   3.227   5.111   6.678
 5865TIP3    H117540   3.275   5.173   6.732
 5865TIP3    H217541   3.140   5.151   6.668
 5866TIP3   OH217542   2.769   1.290   0.358
 5866TIP3    H117543   2.685   1.312   0.319
 5866TIP3    H217544   2.766   1.195   0.371
 5867TIP3   OH217545   7.680   1.355   2.606
 5867TIP3    H117546   7.662   1.287   2.541
 5867TIP3    H217547   7.664   1.437   2.561
 5868TIP3   OH217548   6.882   2.457   5.536
 5868TIP3    H117549   6.836   2.449   5.619
 5868TIP3    H217550   6.855   2.542   5.501
 5869TIP3   OH217551   0.809   6.694   0.378
 5869TIP3    H117552   0.771   6.705   0.291
 5869TIP3    H217553   0.787   6.604   0.403
 5870TIP3   OH217554   7.102   2.400   4.797
 5870TIP3    H117555   7.037   2.419   4.730
 5870TIP3    H217556   7.101   2.304   4.805
 5871TIP3   OH217557   1.441   6.003   1.394
 5871TIP3    H117558   1.519   5.971   1.439
 5871TIP3    H217559   1.389   5.925   1.377
 5872TIP3   OH217560   1.661   6.342   1.873
 5872TIP3    H117561   1.753   6.339   1.846
 5872TIP3    H217562   1.652   6.272   1.938
 5873TIP3   OH217563   2.130   3.477   5.033
 5873TIP3    H117564   2.192   3.417   5.073
 5873TIP3    H217565   2.181   3.522   4.965
 5874TIP3   OH217566   0.923   1.985   1.248
 5874TIP3    H117567   0.849   2.004   1.190
 5874TIP3    H217568   0.988   2.052   1.227
 5875TIP3   OH217569  -0.011   7.026   6.217
 5875TIP3    H117570   0.079   7.013   6.188
 5875TIP3    H217571  -0.028   6.951   6.274
 5876TIP3   OH217572   2.831   5.367   2.855
 5876TIP3    H117573   2.865   5.457   2.851
 5876TIP3    H217574   2.740   5.378   2.883
 5877TIP3   OH217575   6.079   1.322   5.634
 5877TIP3    H117576   6.062   1.235   5.598
 5877TIP3    H217577   6.120   1.371   5.563
 5878TIP3   OH217578   3.840   7.264   1.982
 5878TIP3    H117579   3.768   7.201   1.975
 5878TIP3    H217580   3.919   7.211   1.966
 5879TIP3   OH217581   8.198   7.181   6.033
 5879TIP3    H117582   8.159   7.117   5.973
 5879TIP3    H217583   8.226   7.129   6.108
 5880TIP3   OH217584   1.638   5.475   0.980
 5880TIP3    H117585   1.595   5.528   0.913
 5880TIP3    H217586   1.608   5.512   1.063
 5881TIP3   OH217587   5.702   7.497   5.099
 5881TIP3    H117588   5.609   7.512   5.085
 5881TIP3    H217589   5.736   7.583   5.125
 5882TIP3   OH217590   0.597   2.611   0.292
 5882TIP3    H117591   0.680   2.565   0.304
 5882TIP3    H217592   0.538   2.545   0.256
 5883TIP3   OH217593   4.541   6.775   3.756
 5883TIP3    H117594   4.473   6.802   3.693
 5883TIP3    H217595   4.564   6.856   3.801
 5884TIP3   OH217596   6.751   3.723   2.891
 5884TIP3    H117597   6.747   3.659   2.820
 5884TIP3    H217598   6.843   3.722   2.918
 5885TIP3   OH217599   7.608   2.330   3.587
 5885TIP3    H117600   7.606   2.287   3.673
 5885TIP3    H217601   7.686   2.296   3.545
 5886TIP3   OH217602   6.101   6.402   0.354
 5886TIP3    H117603   6.152   6.476   0.321
 5886TIP3    H217604   6.149   6.325   0.324
 5887TIP3   OH217605   1.050   4.083   2.213
 5887TIP3    H117606   1.027   4.080   2.120
 5887TIP3    H217607   1.130   4.135   2.217
 5888TIP3   OH217608   0.697   2.141   1.339
 5888TIP3    H117609   0.716   2.063   1.286
 5888TIP3    H217610   0.655   2.106   1.418
 5889TIP3   OH217611   1.221   3.103   3.977
 5889TIP3    H117612   1.218   3.141   3.889
 5889TIP3    H217613   1.129   3.087   3.999
 5890TIP3   OH217614   0.696   3.083   1.078
 5890TIP3    H117615   0.752   3.161   1.085
 5890TIP3    H217616   0.618   3.114   1.033
 5891TIP3   OH217617   5.911   4.709   3.583
 5891TIP3    H117618   5.932   4.621   3.615
 5891TIP3    H217619   5.954   4.714   3.498
 5892TIP3   OH217620   1.670   3.297   1.888
 5892TIP3    H117621   1.644   3.225   1.945
 5892TIP3    H217622   1.738   3.260   1.832
 5893TIP3   OH217623   7.290   1.522   1.225
 5893TIP3    H117624   7.217   1.525   1.163
 5893TIP3    H217625   7.288   1.607   1.268
 5894TIP3   OH217626   4.911   6.013   0.026
 5894TIP3    H117627   4.927   6.096  -0.020
 5894TIP3    H217628   4.915   6.036   0.119
 5895TIP3   OH217629  -0.005   5.905   0.754
 5895TIP3    H117630   0.022   5.823   0.713
 5895TIP3    H217631  -0.027   5.962   0.680
 5896TIP3   OH217632   5.241   6.525   5.910
 5896TIP3    H117633   5.282   6.487   5.833
 5896TIP3    H217634   5.200   6.452   5.955
 5897TIP3   OH217635   0.169   3.846   2.905
 5897TIP3    H117636   0.214   3.921   2.944
 5897TIP3    H217637   0.160   3.870   2.813
 5898TIP3   OH217638   0.145   0.931   3.837
 5898TIP3    H117639   0.112   0.842   3.851
 5898TIP3    H217640   0.102   0.983   3.906
 5899TIP3   OH217641   7.538   1.711   2.091
 5899TIP3    H117642   7.512   1.687   2.180
 5899TIP3    H217643   7.456   1.732   2.046
 5900TIP3   OH217644   6.762   6.912   5.364
 5900TIP3    H117645   6.670   6.905   5.339
 5900TIP3    H217646   6.766   6.875   5.452
 5901TIP3   OH217647   6.396   4.110   4.570
 5901TIP3    H117648   6.340   4.181   4.602
 5901TIP3    H217649   6.483   4.149   4.566
 5902TIP3   OH217650   7.331   2.568   2.473
 5902TIP3    H117651   7.390   2.582   2.546
 5902TIP3    H217652   7.269   2.641   2.477
 5903TIP3   OH217653   7.686   4.304   5.913
 5903TIP3    H117654   7.707   4.339   5.999
 5903TIP3    H217655   7.649   4.378   5.866
 5904TIP3   OH217656   7.148   1.197   2.824
 5904TIP3    H117657   7.101   1.183   2.906
 5904TIP3    H217658   7.233   1.156   2.838
 5905TIP3   OH217659   0.941   1.090   3.283
 5905TIP3    H117660   0.969   1.075   3.373
 5905TIP3    H217661   1.002   1.155   3.249
 5906TIP3   OH217662   4.850   1.898   0.804
 5906TIP3    H117663   4.880   1.809   0.823
 5906TIP3    H217664   4.771   1.886   0.750
 5907TIP3   OH217665   5.779   7.749   5.107
 5907TIP3    H117666   5.686   7.773   5.112
 5907TIP3    H217667   5.816   7.811   5.044
 5908TIP3   OH217668   1.805   7.675   3.259
 5908TIP3    H117669   1.776   7.764   3.242
 5908TIP3    H217670   1.723   7.624   3.265
 5909TIP3   OH217671   7.992   2.844   2.442
 5909TIP3    H117672   7.980   2.888   2.358
 5909TIP3    H217673   8.028   2.911   2.499
 5910TIP3   OH217674   3.646   4.778   5.172
 5910TIP3    H117675   3.618   4.863   5.138
 5910TIP3    H217676   3.614   4.715   5.107
 5911TIP3   OH217677   0.135   4.014   4.993
 5911TIP3    H117678   0.117   3.986   5.083
 5911TIP3    H217679   0.191   4.090   5.002
 5912TIP3   OH217680   6.751   0.669   0.893
 5912TIP3    H117681   6.673   0.654   0.840
 5912TIP3    H217682   6.771   0.762   0.880
 5913TIP3   OH217683   6.034   4.137   2.649
 5913TIP3    H117684   6.058   4.050   2.617
 5913TIP3    H217685   5.948   4.155   2.611
 5914TIP3   OH217686   6.085   4.453   0.543
 5914TIP3    H117687   6.175   4.485   0.542
 5914TIP3    H217688   6.091   4.364   0.510
 5915TIP3   OH217689   3.892   6.309   6.470
 5915TIP3    H117690   3.870   6.217   6.485
 5915TIP3    H217691   3.966   6.326   6.530
 5916TIP3   OH217692   3.780   4.463   4.445
 5916TIP3    H117693   3.798   4.466   4.351
 5916TIP3    H217694   3.867   4.453   4.485
 5917TIP3   OH217695   2.812   0.973   2.302
 5917TIP3    H117696   2.828   1.051   2.355
 5917TIP3    H217697   2.897   0.953   2.263
 5918TIP3   OH217698   2.906   1.754   6.650
 5918TIP3    H117699   2.927   1.846   6.668
 5918TIP3    H217700   2.930   1.708   6.730
 5919TIP3   OH217701   1.948   0.773   5.450
 5919TIP3    H117702   1.884   0.819   5.504
 5919TIP3    H217703   1.903   0.759   5.366
 5920TIP3   OH217704   5.123   5.558   6.457
 5920TIP3    H117705   5.048   5.527   6.406
 5920TIP3    H217706   5.161   5.479   6.495
 5921TIP3   OH217707   5.893   6.551   2.055
 5921TIP3    H117708   5.925   6.623   2.001
 5921TIP3    H217709   5.798   6.563   2.058
 5922TIP3   OH217710   4.942   1.729   1.533
 5922TIP3    H117711   4.887   1.785   1.587
 5922TIP3    H217712   4.989   1.673   1.595
 5923TIP3   OH217713   3.934   6.182   4.478
 5923TIP3    H117714   3.929   6.096   4.437
 5923TIP3    H217715   3.897   6.242   4.413
 5924TIP3   OH217716   7.977   2.889   2.901
 5924TIP3    H117717   8.048   2.839   2.860
 5924TIP3    H217718   7.899   2.864   2.851
 5925TIP3   OH217719   5.793   1.112   3.227
 5925TIP3    H117720   5.721   1.144   3.171
 5925TIP3    H217721   5.856   1.075   3.166
 5926TIP3   OH217722   4.908   6.074   5.382
 5926TIP3    H117723   4.838   6.061   5.317
 5926TIP3    H217724   4.989   6.065   5.333
 5927TIP3   OH217725   4.475   1.902   4.224
 5927TIP3    H117726   4.432   1.835   4.171
 5927TIP3    H217727   4.410   1.971   4.232
 5928TIP3   OH217728   1.867   4.947   1.137
 5928TIP3    H117729   1.846   5.030   1.179
 5928TIP3    H217730   1.848   4.962   1.044
 5929TIP3   OH217731   5.861   2.425   4.602
 5929TIP3    H117732   5.771   2.401   4.577
 5929TIP3    H217733   5.912   2.411   4.523
 5930TIP3   OH217734   6.375   0.681   3.444
 5930TIP3    H117735   6.302   0.709   3.389
 5930TIP3    H217736   6.427   0.760   3.457
 5931TIP3   OH217737   4.430   4.304   4.728
 5931TIP3    H117738   4.514   4.262   4.707
 5931TIP3    H217739   4.406   4.267   4.813
 5932TIP3   OH217740   4.285   3.327   2.532
 5932TIP3    H117741   4.312   3.235   2.540
 5932TIP3    H217742   4.337   3.372   2.599
 5933TIP3   OH217743   7.276   3.470   5.624
 5933TIP3    H117744   7.188   3.470   5.662
 5933TIP3    H217745   7.332   3.437   5.694
 5934TIP3   OH217746   3.505   4.628   3.912
 5934TIP3    H117747   3.478   4.651   4.001
 5934TIP3    H217748   3.457   4.688   3.856
 5935TIP3   OH217749   7.735   7.315   6.758
 5935TIP3    H117750   7.793   7.265   6.701
 5935TIP3    H217751   7.793   7.369   6.811
 5936TIP3   OH217752   8.159   6.327   3.624
 5936TIP3    H117753   8.235   6.272   3.601
 5936TIP3    H217754   8.137   6.301   3.713
 5937TIP3   OH217755   2.036   6.458   6.281
 5937TIP3    H117756   2.112   6.403   6.263
 5937TIP3    H217757   1.961   6.398   6.275
 5938TIP3   OH217758   1.210   5.387   0.622
 5938TIP3    H117759   1.218   5.330   0.546
 5938TIP3    H217760   1.300   5.404   0.650
 5939TIP3   OH217761   5.530   6.315   3.858
 5939TIP3    H117762   5.559   6.387   3.914
 5939TIP3    H217763   5.570   6.333   3.773
 5940TIP3   OH217764   4.947   2.732   4.622
 5940TIP3    H117765   5.021   2.791   4.611
 5940TIP3    H217766   4.877   2.787   4.658
 5941TIP3   OH217767   0.473   5.448   5.670
 5941TIP3    H117768   0.396   5.504   5.660
 5941TIP3    H217769   0.442   5.370   5.715
 5942TIP3   OH217770   3.921   6.007   3.815
 5942TIP3    H117771   3.870   5.958   3.750
 5942TIP3    H217772   3.918   5.953   3.894
 5943TIP3   OH217773   2.895   1.475   4.921
 5943TIP3    H117774   2.891   1.488   5.015
 5943TIP3    H217775   2.881   1.381   4.909
 5944TIP3   OH217776   4.862   4.605   4.116
 5944TIP3    H117777   4.923   4.653   4.061
 5944TIP3    H217778   4.898   4.612   4.204
 5945TIP3   OH217779   0.527   6.298   2.357
 5945TIP3    H117780   0.480   6.227   2.314
 5945TIP3    H217781   0.569   6.257   2.433
 5946TIP3   OH217782   4.323   7.338   0.833
 5946TIP3    H117783   4.346   7.319   0.742
 5946TIP3    H217784   4.391   7.296   0.884
 5947TIP3   OH217785   4.562   2.599   4.767
 5947TIP3    H117786   4.505   2.525   4.789
 5947TIP3    H217787   4.634   2.561   4.717
 5948TIP3   OH217788   5.750   6.734   1.137
 5948TIP3    H117789   5.726   6.792   1.209
 5948TIP3    H217790   5.783   6.655   1.179
 5949TIP3   OH217791   6.570   0.397   2.643
 5949TIP3    H117792   6.614   0.375   2.725
 5949TIP3    H217793   6.550   0.312   2.603
 5950TIP3   OH217794   7.230   0.245   1.380
 5950TIP3    H117795   7.160   0.188   1.348
 5950TIP3    H217796   7.294   0.185   1.417
 5951TIP3   OH217797   8.235   3.680   0.022
 5951TIP3    H117798   8.195   3.654   0.105
 5951TIP3    H217799   8.194   3.764   0.000
 5952TIP3   OH217800   2.086   5.433   6.078
 5952TIP3    H117801   2.005   5.460   6.120
 5952TIP3    H217802   2.147   5.505   6.093
 5953TIP3   OH217803   4.965   3.103   3.910
 5953TIP3    H117804   4.962   3.147   3.825
 5953TIP3    H217805   4.956   3.174   3.974
 5954TIP3   OH217806   5.007   4.620   3.812
 5954TIP3    H117807   5.020   4.575   3.728
 5954TIP3    H217808   4.917   4.653   3.808
 5955TIP3   OH217809   4.684   5.632   1.631
 5955TIP3    H117810   4.676   5.716   1.587
 5955TIP3    H217811   4.747   5.582   1.579
 5956TIP3   OH217812   7.251   2.835   0.338
 5956TIP3    H117813   7.346   2.825   0.331
 5956TIP3    H217814   7.235   2.927   0.318
 5957TIP3   OH217815   4.393   1.610   4.249
 5957TIP3    H117816   4.397   1.637   4.157
 5957TIP3    H217817   4.318   1.550   4.253
 5958TIP3   OH217818   5.846   4.811   4.466
 5958TIP3    H117819   5.907   4.772   4.527
 5958TIP3    H217820   5.801   4.878   4.516
 5959TIP3   OH217821   8.293   1.809   3.679
 5959TIP3    H117822   8.209   1.791   3.720
 5959TIP3    H217823   8.310   1.902   3.698
 5960TIP3   OH217824   2.493   4.286   3.465
 5960TIP3    H117825   2.571   4.238   3.495
 5960TIP3    H217826   2.452   4.317   3.546
 5961TIP3   OH217827   2.738   4.494   4.298
 5961TIP3    H117828   2.700   4.581   4.285
 5961TIP3    H217829   2.663   4.437   4.316
 5962TIP3   OH217830   6.387   0.472   1.353
 5962TIP3    H117831   6.350   0.548   1.310
 5962TIP3    H217832   6.473   0.501   1.384
 5963TIP3   OH217833   7.534   2.231   3.819
 5963TIP3    H117834   7.448   2.217   3.859
 5963TIP3    H217835   7.595   2.186   3.877
 5964TIP3   OH217836   0.543   1.869   6.418
 5964TIP3    H117837   0.570   1.780   6.443
 5964TIP3    H217838   0.606   1.926   6.462
 5965TIP3   OH217839   7.959   4.654   2.362
 5965TIP3    H117840   7.958   4.748   2.376
 5965TIP3    H217841   8.034   4.623   2.414
 5966TIP3   OH217842   7.578   1.900   4.820
 5966TIP3    H117843   7.610   1.987   4.794
 5966TIP3    H217844   7.653   1.843   4.808
 5967TIP3   OH217845   5.887   3.899   6.287
 5967TIP3    H117846   5.903   3.804   6.283
 5967TIP3    H217847   5.873   3.917   6.380
 5968TIP3   OH217848   4.685   2.847   0.759
 5968TIP3    H117849   4.629   2.920   0.732
 5968TIP3    H217850   4.649   2.820   0.843
 5969TIP3   OH217851   6.916   0.523   2.981
 5969TIP3    H117852   6.911   0.541   3.075
 5969TIP3    H217853   6.951   0.434   2.976
 5970TIP3   OH217854   0.460   3.217   0.444
 5970TIP3    H117855   0.549   3.215   0.478
 5970TIP3    H217856   0.468   3.251   0.355
 5971TIP3   OH217857   6.429   0.260   3.971
 5971TIP3    H117858   6.377   0.298   4.042
 5971TIP3    H217859   6.438   0.168   3.994
 5972TIP3   OH217860   6.016   4.811   1.563
 5972TIP3    H117861   6.013   4.886   1.622
 5972TIP3    H217862   5.978   4.739   1.614
 5973TIP3   OH217863   5.412   3.386   6.299
 5973TIP3    H117864   5.405   3.291   6.310
 5973TIP3    H217865   5.448   3.398   6.212
 5974TIP3   OH217866   0.153   5.525   2.124
 5974TIP3    H117867   0.069   5.525   2.170
 5974TIP3    H217868   0.188   5.436   2.138
 5975TIP3   OH217869   6.598   4.032   3.774
 5975TIP3    H117870   6.564   4.033   3.684
 5975TIP3    H217871   6.641   3.947   3.782
 5976TIP3   OH217872   2.888   7.380   1.750
 5976TIP3    H117873   2.921   7.460   1.791
 5976TIP3    H217874   2.956   7.354   1.689
 5977TIP3   OH217875   4.674   6.595   3.954
 5977TIP3    H117876   4.642   6.666   3.898
 5977TIP3    H217877   4.659   6.515   3.903
 5978TIP3   OH217878   7.452   0.746   4.248
 5978TIP3    H117879   7.449   0.777   4.157
 5978TIP3    H217880   7.542   0.718   4.261
 5979TIP3   OH217881   3.420   5.240   1.615
 5979TIP3    H117882   3.445   5.150   1.593
 5979TIP3    H217883   3.492   5.293   1.581
 5980TIP3   OH217884   5.234   5.767   3.075
 5980TIP3    H117885   5.272   5.696   3.127
 5980TIP3    H217886   5.143   5.773   3.106
 5981TIP3   OH217887   1.971   7.549   2.285
 5981TIP3    H117888   2.032   7.574   2.355
 5981TIP3    H217889   1.887   7.536   2.329
 5982TIP3   OH217890   4.003   6.046   5.897
 5982TIP3    H117891   4.041   6.129   5.926
 5982TIP3    H217892   3.996   6.055   5.802
 5983TIP3   OH217893   8.295   3.137   1.546
 5983TIP3    H117894   8.284   3.225   1.512
 5983TIP3    H217895   8.308   3.082   1.469
 5984TIP3   OH217896   4.092   2.928   4.362
 5984TIP3    H117897   4.152   2.991   4.322
 5984TIP3    H217898   4.016   2.927   4.304
 5985TIP3   OH217899   1.954   2.497   5.608
 5985TIP3    H117900   1.865   2.516   5.637
 5985TIP3    H217901   1.957   2.402   5.600
 5986TIP3   OH217902   0.720   0.656   0.948
 5986TIP3    H117903   0.789   0.703   0.995
 5986TIP3    H217904   0.647   0.717   0.946
 5987TIP3   OH217905   5.779   7.195   2.180
 5987TIP3    H117906   5.843   7.266   2.190
 5987TIP3    H217907   5.832   7.119   2.158
 5988TIP3   OH217908   6.070   2.255   5.826
 5988TIP3    H117909   6.005   2.243   5.756
 5988TIP3    H217910   6.092   2.348   5.822
 5989TIP3   OH217911   3.553   3.842   4.900
 5989TIP3    H117912   3.485   3.871   4.961
 5989TIP3    H217913   3.576   3.921   4.851
 5990TIP3   OH217914   3.154   3.440   2.532
 5990TIP3    H117915   3.079   3.499   2.521
 5990TIP3    H217916   3.167   3.402   2.445
 5991TIP3   OH217917   3.866   7.226   3.474
 5991TIP3    H117918   3.862   7.135   3.441
 5991TIP3    H217919   3.779   7.242   3.509
 5992TIP3   OH217920   4.582   7.188   4.348
 5992TIP3    H117921   4.504   7.224   4.307
 5992TIP3    H217922   4.642   7.262   4.355
 5993TIP3   OH217923   3.233   4.247   4.327
 5993TIP3    H117924   3.161   4.252   4.391
 5993TIP3    H217925   3.275   4.333   4.332
 5994TIP3   OH217926   0.615   3.715   0.799
 5994TIP3    H117927   0.537   3.696   0.850
 5994TIP3    H217928   0.582   3.739   0.712
 5995TIP3   OH217929   3.229   0.228   3.709
 5995TIP3    H117930   3.224   0.177   3.789
 5995TIP3    H217931   3.149   0.281   3.708
 5996TIP3   OH217932   7.637   3.539   0.292
 5996TIP3    H117933   7.684   3.573   0.368
 5996TIP3    H217934   7.669   3.590   0.218
 5997TIP3   OH217935   4.604   5.050   2.137
 5997TIP3    H117936   4.590   5.144   2.150
 5997TIP3    H217937   4.646   5.021   2.219
 5998TIP3   OH217938   3.598   7.138   1.928
 5998TIP3    H117939   3.514   7.142   1.974
 5998TIP3    H217940   3.617   7.044   1.923
 5999TIP3   OH217941   7.107   5.474   0.667
 5999TIP3    H117942   7.127   5.486   0.760
 5999TIP3    H217943   7.126   5.382   0.650
 6000TIP3   OH217944   7.559   6.581   5.667
 6000TIP3    H117945   7.633   6.638   5.646
 6000TIP3    H217946   7.563   6.511   5.601
 6001TIP3   OH217947   5.892   3.960   4.580
 6001TIP3    H117948   5.981   3.956   4.614
 6001TIP3    H217949   5.870   3.870   4.558
 6002TIP3   OH217950   5.432   2.236   2.144
 6002TIP3    H117951   5.344   2.213   2.173
 6002TIP3    H217952   5.440   2.196   2.057
 6003TIP3   OH217953   3.670   5.294   1.140
 6003TIP3    H117954   3.680   5.250   1.056
 6003TIP3    H217955   3.726   5.243   1.200
 6004TIP3   OH217956   7.096   2.883   2.208
 6004TIP3    H117957   7.084   2.949   2.276
 6004TIP3    H217958   7.153   2.924   2.143
 6005TIP3   OH217959   6.914   3.419   0.927
 6005TIP3    H117960   6.828   3.450   0.956
 6005TIP3    H217961   6.974   3.489   0.952
 6006TIP3   OH217962   2.220   1.856   4.656
 6006TIP3    H117963   2.195   1.784   4.715
 6006TIP3    H217964   2.186   1.935   4.699
 6007TIP3   OH217965   4.345   0.525   1.260
 6007TIP3    H117966   4.371   0.617   1.249
 6007TIP3    H217967   4.426   0.479   1.280
 6008TIP3   OH217968   4.659   1.435   3.399
 6008TIP3    H117969   4.747   1.411   3.426
 6008TIP3    H217970   4.624   1.355   3.360
 6009TIP3   OH217971   0.591   5.037   6.134
 6009TIP3    H117972   0.676   5.081   6.137
 6009TIP3    H217973   0.588   4.985   6.214
 6010TIP3   OH217974   4.491   6.055   5.354
 6010TIP3    H117975   4.462   5.977   5.401
 6010TIP3    H217976   4.445   6.051   5.271
 6011TIP3   OH217977   0.168   6.504   0.715
 6011TIP3    H117978   0.227   6.485   0.789
 6011TIP3    H217979   0.226   6.506   0.639
 6012TIP3   OH217980   7.376   0.733   1.950
 6012TIP3    H117981   7.351   0.806   2.006
 6012TIP3    H217982   7.392   0.773   1.864
 6013TIP3   OH217983   4.455   6.993   2.274
 6013TIP3    H117984   4.408   7.026   2.351
 6013TIP3    H217985   4.519   7.062   2.253
 6014TIP3   OH217986   2.175   2.749   1.954
 6014TIP3    H117987   2.211   2.668   1.990
 6014TIP3    H217988   2.081   2.732   1.946
 6015TIP3   OH217989   3.083   1.752   0.733
 6015TIP3    H117990   3.148   1.681   0.735
 6015TIP3    H217991   3.078   1.779   0.642
 6016TIP3   OH217992   5.138   4.264   5.528
 6016TIP3    H117993   5.130   4.181   5.481
 6016TIP3    H217994   5.223   4.259   5.571
 6017TIP3   OH217995   7.948   6.612   3.694
 6017TIP3    H117996   7.934   6.706   3.678
 6017TIP3    H217997   8.036   6.608   3.732
 6018TIP3   OH217998   3.446   6.082   0.685
 6018TIP3    H117999   3.455   6.018   0.614
 6018TIP3    H218000   3.486   6.039   0.761
 6019TIP3   OH218001   1.949   5.785   3.087
 6019TIP3    H118002   1.870   5.752   3.131
 6019TIP3    H218003   1.931   5.774   2.994
 6020TIP3   OH218004   0.036   2.585   4.117
 6020TIP3    H118005   0.093   2.605   4.192
 6020TIP3    H218006   0.076   2.630   4.043
 6021TIP3   OH218007   5.387   0.352   5.196
 6021TIP3    H118008   5.463   0.410   5.200
 6021TIP3    H218009   5.425   0.264   5.191
 6022TIP3   OH218010   3.105   0.501   2.514
 6022TIP3    H118011   3.092   0.491   2.420
 6022TIP3    H218012   3.070   0.420   2.551
 6023TIP3   OH218013   5.635   5.432   2.997
 6023TIP3    H118014   5.669   5.404   3.082
 6023TIP3    H218015   5.578   5.506   3.018
 6024TIP3   OH218016   5.176   7.757   5.216
 6024TIP3    H118017   5.202   7.710   5.295
 6024TIP3    H218018   5.173   7.689   5.148
 6025TIP3   OH218019   0.548   3.740   6.076
 6025TIP3    H118020   0.521   3.703   6.160
 6025TIP3    H218021   0.522   3.833   6.081
 6026TIP3   OH218022   4.915   4.874   4.960
 6026TIP3    H118023   4.930   4.894   4.868
 6026TIP3    H218024   4.846   4.934   4.987
 6027TIP3   OH218025   5.907   7.017   3.586
 6027TIP3    H118026   5.902   6.997   3.493
 6027TIP3    H218027   5.852   7.095   3.596
 6028TIP3   OH218028   4.761   1.992   6.487
 6028TIP3    H118029   4.824   1.943   6.539
 6028TIP3    H218030   4.813   2.058   6.441
 6029TIP3   OH218031   0.977   4.208   0.937
 6029TIP3    H118032   0.895   4.256   0.951
 6029TIP3    H218033   0.967   4.127   0.987
 6030TIP3   OH218034   4.507   0.435   2.485
 6030TIP3    H118035   4.587   0.394   2.518
 6030TIP3    H218036   4.472   0.371   2.422
 6031TIP3   OH218037   2.858   6.728   0.437
 6031TIP3    H118038   2.953   6.742   0.437
 6031TIP3    H218039   2.840   6.686   0.521
 6032TIP3   OH218040   6.555   6.710   3.740
 6032TIP3    H118041   6.619   6.640   3.750
 6032TIP3    H218042   6.602   6.779   3.694
 6033TIP3   OH218043   4.487   5.332   2.938
 6033TIP3    H118044   4.508   5.424   2.955
 6033TIP3    H218045   4.445   5.301   3.018
 6034TIP3   OH218046   5.225   1.617   1.939
 6034TIP3    H118047   5.183   1.693   1.898
 6034TIP3    H218048   5.281   1.655   2.008
 6035TIP3   OH218049   4.601   3.491   4.967
 6035TIP3    H118050   4.668   3.558   4.953
 6035TIP3    H218051   4.582   3.457   4.880
 6036TIP3   OH218052   6.897   2.777   6.388
 6036TIP3    H118053   6.895   2.822   6.303
 6036TIP3    H218054   6.986   2.789   6.419
 6037TIP3   OH218055   3.723   7.797   4.014
 6037TIP3    H118056   3.669   7.767   4.087
 6037TIP3    H218057   3.696   7.743   3.940
 6038TIP3   OH218058   7.720   0.981   4.263
 6038TIP3    H118059   7.714   0.937   4.178
 6038TIP3    H218060   7.722   1.074   4.243
 6039TIP3   OH218061   0.436   4.379   3.435
 6039TIP3    H118062   0.446   4.473   3.416
 6039TIP3    H218063   0.402   4.341   3.354
 6040TIP3   OH218064   5.401   7.389   2.552
 6040TIP3    H118065   5.315   7.424   2.574
 6040TIP3    H218066   5.385   7.329   2.479
 6041TIP3   OH218067   5.274   5.196   1.864
 6041TIP3    H118068   5.364   5.164   1.867
 6041TIP3    H218069   5.275   5.274   1.919
 6042TIP3   OH218070   7.753   2.602   0.310
 6042TIP3    H118071   7.760   2.543   0.384
 6042TIP3    H218072   7.766   2.689   0.348
 6043TIP3   OH218073   4.664   4.710   4.819
 6043TIP3    H118074   4.572   4.729   4.802
 6043TIP3    H218075   4.700   4.688   4.733
 6044TIP3   OH218076   1.718   3.191   6.770
 6044TIP3    H118077   1.695   3.157   6.684
 6044TIP3    H218078   1.799   3.146   6.794
 6045TIP3   OH218079   2.697   4.039   4.450
 6045TIP3    H118080   2.650   3.967   4.492
 6045TIP3    H218081   2.663   4.042   4.360
 6046TIP3   OH218082   1.968   5.255   0.935
 6046TIP3    H118083   1.984   5.309   1.013
 6046TIP3    H218084   2.055   5.229   0.906
 6047TIP3   OH218085   6.109   1.709   3.406
 6047TIP3    H118086   6.024   1.726   3.365
 6047TIP3    H218087   6.167   1.690   3.333
 6048TIP3   OH218088   3.182   1.742   3.464
 6048TIP3    H118089   3.100   1.786   3.444
 6048TIP3    H218090   3.160   1.677   3.530
 6049TIP3   OH218091   8.283   7.712   4.893
 6049TIP3    H118092   8.208   7.771   4.889
 6049TIP3    H218093   8.343   7.745   4.825
 6050TIP3   OH218094   1.266   4.289   1.214
 6050TIP3    H118095   1.268   4.197   1.188
 6050TIP3    H218096   1.352   4.305   1.254
 6051TIP3   OH218097   6.088   1.410   1.332
 6051TIP3    H118098   6.170   1.386   1.374
 6051TIP3    H218099   6.048   1.472   1.393
 6052TIP3   OH218100   2.914   2.112   4.504
 6052TIP3    H118101   2.982   2.177   4.524
 6052TIP3    H218102   2.926   2.093   4.411
 6053TIP3   OH218103   0.520   3.634   3.236
 6053TIP3    H118104   0.484   3.649   3.149
 6053TIP3    H218105   0.598   3.690   3.240
 6054TIP3   OH218106   0.475   3.156   6.212
 6054TIP3    H118107   0.404   3.210   6.245
 6054TIP3    H218108   0.544   3.218   6.187
 6055TIP3   OH218109   3.314   1.804   1.608
 6055TIP3    H118110   3.275   1.875   1.660
 6055TIP3    H218111   3.261   1.801   1.528
 6056TIP3   OH218112   4.399   4.786   4.743
 6056TIP3    H118113   4.365   4.832   4.666
 6056TIP3    H218114   4.372   4.695   4.730
 6057TIP3   OH218115   7.722   7.419   3.559
 6057TIP3    H118116   7.718   7.323   3.555
 6057TIP3    H218117   7.749   7.439   3.648
 6058TIP3   OH218118   5.013   5.218   0.354
 6058TIP3    H118119   5.055   5.146   0.402
 6058TIP3    H218120   4.953   5.257   0.418
 6059TIP3   OH218121   7.939   6.740   0.461
 6059TIP3    H118122   7.960   6.680   0.532
 6059TIP3    H218123   7.997   6.713   0.389
 6060TIP3   OH218124   7.022   0.047   2.188
 6060TIP3    H118125   6.973   0.060   2.107
 6060TIP3    H218126   7.108   0.015   2.159
 6061TIP3   OH218127   3.845   4.486   1.518
 6061TIP3    H118128   3.836   4.427   1.444
 6061TIP3    H218129   3.935   4.517   1.514
 6062TIP3   OH218130   5.212   3.480   6.010
 6062TIP3    H118131   5.266   3.401   6.018
 6062TIP3    H218132   5.159   3.465   5.932
 6063TIP3   OH218133   1.937   6.394   5.040
 6063TIP3    H118134   1.998   6.454   4.998
 6063TIP3    H218135   1.970   6.307   5.019
 6064TIP3   OH218136   8.210   0.880   6.226
 6064TIP3    H118137   8.288   0.829   6.250
 6064TIP3    H218138   8.141   0.815   6.218
 6065TIP3   OH218139   5.950   0.633   6.424
 6065TIP3    H118140   5.939   0.643   6.518
 6065TIP3    H218141   6.043   0.652   6.408
 6066TIP3   OH218142   4.753   2.132   0.192
 6066TIP3    H118143   4.765   2.202   0.128
 6066TIP3    H218144   4.758   2.175   0.277
 6067TIP3   OH218145   0.164   4.189   3.350
 6067TIP3    H118146   0.193   4.101   3.373
 6067TIP3    H218147   0.162   4.237   3.433
 6068TIP3   OH218148   6.286   5.303   3.896
 6068TIP3    H118149   6.246   5.219   3.918
 6068TIP3    H218150   6.375   5.297   3.930
 6069TIP3   OH218151   7.163   3.115   5.464
 6069TIP3    H118152   7.163   3.197   5.414
 6069TIP3    H218153   7.248   3.115   5.509
 6070TIP3   OH218154   7.023   0.714   0.453
 6070TIP3    H118155   7.111   0.715   0.415
 6070TIP3    H218156   6.967   0.683   0.382
 6071TIP3   OH218157   3.987   5.750   2.324
 6071TIP3    H118158   4.030   5.741   2.238
 6071TIP3    H218159   3.923   5.819   2.312
 6072TIP3   OH218160   7.022   1.553   2.545
 6072TIP3    H118161   7.085   1.482   2.535
 6072TIP3    H218162   7.019   1.570   2.639
 6073TIP3   OH218163   1.680   7.779  -0.020
 6073TIP3    H118164   1.611   7.842  -0.002
 6073TIP3    H218165   1.714   7.755   0.066
 6074TIP3   OH218166   2.918   0.160   2.785
 6074TIP3    H118167   2.825   0.162   2.810
 6074TIP3    H218168   2.938   0.067   2.774
 6075TIP3   OH218169   1.745   6.277   5.331
 6075TIP3    H118170   1.812   6.263   5.265
 6075TIP3    H218171   1.724   6.370   5.325
 6076TIP3   OH218172   4.002   1.239   0.790
 6076TIP3    H118173   4.031   1.321   0.830
 6076TIP3    H218174   4.014   1.173   0.858
 6077TIP3   OH218175   7.473   6.823   5.128
 6077TIP3    H118176   7.518   6.744   5.098
 6077TIP3    H218177   7.426   6.795   5.206
 6078TIP3   OH218178   1.554   1.091   0.669
 6078TIP3    H118179   1.598   1.023   0.720
 6078TIP3    H218180   1.464   1.091   0.702
 6079TIP3   OH218181   2.502   7.302   4.317
 6079TIP3    H118182   2.459   7.349   4.246
 6079TIP3    H218183   2.541   7.225   4.275
 6080TIP3   OH218184   2.224   5.993   5.621
 6080TIP3    H118185   2.299   5.938   5.600
 6080TIP3    H218186   2.172   5.942   5.683
 6081TIP3   OH218187   6.889   4.770   5.158
 6081TIP3    H118188   6.835   4.803   5.230
 6081TIP3    H218189   6.851   4.810   5.080
 6082TIP3   OH218190   1.360   1.986   4.797
 6082TIP3    H118191   1.410   2.045   4.741
 6082TIP3    H218192   1.415   1.908   4.805
 6083TIP3   OH218193   3.015   1.509   2.729
 6083TIP3    H118194   3.091   1.566   2.745
 6083TIP3    H218195   2.940   1.561   2.759
 6084TIP3   OH218196   3.130   7.202   0.497
 6084TIP3    H118197   3.208   7.257   0.510
 6084TIP3    H218198   3.165   7.113   0.491
 6085TIP3   OH218199   6.759   7.368   3.348
 6085TIP3    H118200   6.735   7.392   3.259
 6085TIP3    H218201   6.854   7.383   3.352
 6086TIP3   OH218202   1.508   6.380   2.252
 6086TIP3    H118203   1.417   6.410   2.247
 6086TIP3    H218204   1.548   6.436   2.319
 6087TIP3   OH218205   6.614   2.081   6.443
 6087TIP3    H118206   6.612   2.176   6.457
 6087TIP3    H218207   6.652   2.071   6.356
 6088TIP3   OH218208   2.008   3.430   0.917
 6088TIP3    H118209   1.979   3.516   0.885
 6088TIP3    H218210   2.103   3.440   0.928
 6089TIP3   OH218211   1.647   6.101   4.246
 6089TIP3    H118212   1.662   6.007   4.259
 6089TIP3    H218213   1.555   6.114   4.268
 6090TIP3   OH218214   5.797   6.729   0.524
 6090TIP3    H118215   5.749   6.683   0.592
 6090TIP3    H218216   5.889   6.718   0.549
 6091TIP3   OH218217   3.852   0.426   5.025
 6091TIP3    H118218   3.927   0.428   4.967
 6091TIP3    H218219   3.837   0.333   5.041
 6092TIP3   OH218220   1.913   1.984   4.447
 6092TIP3    H118221   1.975   1.934   4.394
 6092TIP3    H218222   1.912   2.071   4.408
 6093TIP3   OH218223   3.777   5.173   0.175
 6093TIP3    H118224   3.848   5.152   0.115
 6093TIP3    H218225   3.819   5.220   0.247
 6094TIP3   OH218226   4.348   2.001   6.722
 6094TIP3    H118227   4.300   1.927   6.683
 6094TIP3    H218228   4.440   1.979   6.710
 6095TIP3   OH218229   7.712   3.062   2.111
 6095TIP3    H118230   7.617   3.049   2.102
 6095TIP3    H218231   7.736   3.113   2.034
 6096TIP3   OH218232   6.564   2.727   5.826
 6096TIP3    H118233   6.533   2.677   5.750
 6096TIP3    H218234   6.595   2.810   5.789
 6097TIP3   OH218235   3.967   7.751   1.624
 6097TIP3    H118236   3.888   7.732   1.674
 6097TIP3    H218237   3.937   7.754   1.533
 6098TIP3   OH218238   2.167   6.298   1.614
 6098TIP3    H118239   2.144   6.220   1.565
 6098TIP3    H218240   2.262   6.292   1.625
 6099TIP3   OH218241   6.778   2.791   3.151
 6099TIP3    H118242   6.809   2.703   3.129
 6099TIP3    H218243   6.695   2.800   3.104
 6100TIP3   OH218244   3.630   0.807   3.284
 6100TIP3    H118245   3.637   0.764   3.199
 6100TIP3    H218246   3.538   0.831   3.291
 6101TIP3   OH218247   0.982   6.588   1.719
 6101TIP3    H118248   0.889   6.573   1.701
 6101TIP3    H218249   1.028   6.531   1.658
 6102TIP3   OH218250   5.548   7.003   3.479
 6102TIP3    H118251   5.587   6.917   3.465
 6102TIP3    H218252   5.614   7.052   3.528
 6103TIP3   OH218253   3.670   6.887   1.062
 6103TIP3    H118254   3.640   6.959   1.118
 6103TIP3    H218255   3.765   6.897   1.058
 6104TIP3   OH218256   4.573   0.345   4.286
 6104TIP3    H118257   4.523   0.349   4.205
 6104TIP3    H218258   4.658   0.309   4.260
 6105TIP3   OH218259   5.661   3.449   1.325
 6105TIP3    H118260   5.615   3.423   1.246
 6105TIP3    H218261   5.647   3.377   1.386
 6106TIP3   OH218262   6.059   0.053   2.640
 6106TIP3    H118263   6.118   0.111   2.687
 6106TIP3    H218264   6.117   0.001   2.583
 6107TIP3   OH218265   6.447   0.139   3.701
 6107TIP3    H118266   6.435   0.214   3.760
 6107TIP3    H218267   6.513   0.168   3.638
 6108TIP3   OH218268   2.578   0.338   1.530
 6108TIP3    H118269   2.600   0.392   1.454
 6108TIP3    H218270   2.526   0.395   1.586
 6109TIP3   OH218271   7.286   4.490   0.952
 6109TIP3    H118272   7.301   4.488   0.858
 6109TIP3    H218273   7.300   4.399   0.980
 6110TIP3   OH218274   0.306   6.624   4.544
 6110TIP3    H118275   0.238   6.595   4.605
 6110TIP3    H218276   0.263   6.626   4.459
 6111TIP3   OH218277   1.300   4.917   1.113
 6111TIP3    H118278   1.276   4.862   1.039
 6111TIP3    H218279   1.395   4.909   1.120
 6112TIP3   OH218280   0.362   6.985   0.398
 6112TIP3    H118281   0.426   7.042   0.442
 6112TIP3    H218282   0.396   6.897   0.410
 6113TIP3   OH218283   1.448   5.311   6.435
 6113TIP3    H118284   1.423   5.245   6.370
 6113TIP3    H218285   1.543   5.303   6.443
 6114TIP3   OH218286   4.903   5.207   4.823
 6114TIP3    H118287   4.862   5.166   4.900
 6114TIP3    H218288   4.914   5.135   4.761
 6115TIP3   OH218289   0.821   0.404   4.417
 6115TIP3    H118290   0.860   0.489   4.400
 6115TIP3    H218291   0.877   0.342   4.370
 6116TIP3   OH218292   4.143   5.430   3.717
 6116TIP3    H118293   4.142   5.340   3.684
 6116TIP3    H218294   4.120   5.484   3.641
 6117TIP3   OH218295   0.123   2.925   5.924
 6117TIP3    H118296   0.088   2.864   5.859
 6117TIP3    H218297   0.067   3.002   5.916
 6118TIP3   OH218298   4.518   4.400   3.242
 6118TIP3    H118299   4.533   4.493   3.227
 6118TIP3    H218300   4.431   4.396   3.282
 6119TIP3   OH218301   5.758   4.340   1.461
 6119TIP3    H118302   5.789   4.409   1.520
 6119TIP3    H218303   5.751   4.263   1.516
 6120TIP3   OH218304   0.620   5.485   2.148
 6120TIP3    H118305   0.680   5.495   2.075
 6120TIP3    H218306   0.663   5.528   2.221
 6121TIP3   OH218307   8.013   1.639   5.416
 6121TIP3    H118308   8.013   1.691   5.496
 6121TIP3    H218309   8.086   1.673   5.365
 6122TIP3   OH218310   1.590   2.765   2.445
 6122TIP3    H118311   1.631   2.689   2.403
 6122TIP3    H218312   1.659   2.832   2.446
 6123TIP3   OH218313   7.751   3.031   3.326
 6123TIP3    H118314   7.772   3.016   3.418
 6123TIP3    H218315   7.837   3.032   3.282
 6124TIP3   OH218316   6.648   7.276   5.265
 6124TIP3    H118317   6.650   7.215   5.192
 6124TIP3    H218318   6.607   7.228   5.336
 6125TIP3   OH218319   5.229   5.694   3.448
 6125TIP3    H118320   5.143   5.719   3.414
 6125TIP3    H218321   5.272   5.778   3.466
 6126TIP3   OH218322   1.905   5.081   4.475
 6126TIP3    H118323   1.913   5.011   4.539
 6126TIP3    H218324   1.977   5.066   4.413
 6127TIP3   OH218325   4.285   4.219   4.034
 6127TIP3    H118326   4.337   4.161   4.088
 6127TIP3    H218327   4.200   4.223   4.078
 6128TIP3   OH218328   5.519   6.040   3.890
 6128TIP3    H118329   5.562   6.032   3.975
 6128TIP3    H218330   5.517   6.134   3.873
 6129TIP3   OH218331   8.119   4.436   1.515
 6129TIP3    H118332   8.058   4.477   1.577
 6129TIP3    H218333   8.100   4.342   1.522
 6130TIP3   OH218334   5.815   5.789   6.266
 6130TIP3    H118335   5.848   5.827   6.347
 6130TIP3    H218336   5.858   5.839   6.197
 6131TIP3   OH218337   5.591   0.758   3.995
 6131TIP3    H118338   5.604   0.832   3.936
 6131TIP3    H218339   5.679   0.740   4.030
 6132TIP3   OH218340   7.320   0.459   3.860
 6132TIP3    H118341   7.394   0.504   3.821
 6132TIP3    H218342   7.246   0.518   3.847
 6133TIP3   OH218343   7.991   5.059   1.292
 6133TIP3    H118344   7.903   5.051   1.330
 6133TIP3    H218345   8.041   4.990   1.335
 6134TIP3   OH218346   7.542   6.631   6.666
 6134TIP3    H118347   7.490   6.551   6.655
 6134TIP3    H218348   7.481   6.695   6.702
 6135TIP3   OH218349   1.768   0.715   3.844
 6135TIP3    H118350   1.721   0.728   3.926
 6135TIP3    H218351   1.859   0.701   3.870
 6136TIP3   OH218352   0.355   5.001   2.327
 6136TIP3    H118353   0.348   5.085   2.372
 6136TIP3    H218354   0.398   4.943   2.390
 6137TIP3   OH218355   6.567   2.233   0.729
 6137TIP3    H118356   6.483   2.263   0.764
 6137TIP3    H218357   6.631   2.257   0.797
 6138TIP3   OH218358   1.609   4.491   3.148
 6138TIP3    H118359   1.584   4.583   3.153
 6138TIP3    H218360   1.618   4.463   3.239
 6139TIP3   OH218361   4.768   2.667   3.919
 6139TIP3    H118362   4.690   2.633   3.876
 6139TIP3    H218363   4.763   2.762   3.906
 6140TIP3   OH218364   1.474   3.707   3.903
 6140TIP3    H118365   1.478   3.727   3.810
 6140TIP3    H218366   1.427   3.780   3.942
 6141TIP3   OH218367   5.040   4.011   0.642
 6141TIP3    H118368   4.977   3.949   0.604
 6141TIP3    H218369   4.990   4.055   0.711
 6142TIP3   OH218370   3.462   3.535   4.996
 6142TIP3    H118371   3.491   3.614   4.950
 6142TIP3    H218372   3.463   3.560   5.088
 6143TIP3   OH218373   4.271   4.386   0.915
 6143TIP3    H118374   4.222   4.447   0.970
 6143TIP3    H218375   4.362   4.396   0.943
 6144TIP3   OH218376   6.396   4.825   0.993
 6144TIP3    H118377   6.378   4.918   1.006
 6144TIP3    H218378   6.490   4.820   0.978
 6145TIP3   OH218379   5.822   1.281   0.784
 6145TIP3    H118380   5.727   1.289   0.795
 6145TIP3    H218381   5.858   1.304   0.869
 6146TIP3   OH218382   8.209   3.604   0.683
 6146TIP3    H118383   8.175   3.516   0.699
 6146TIP3    H218384   8.280   3.592   0.621
 6147TIP3   OH218385   1.541   2.441   4.753
 6147TIP3    H118386   1.453   2.402   4.749
 6147TIP3    H218387   1.572   2.439   4.662
 6148TIP3   OH218388   7.737   4.866   6.497
 6148TIP3    H118389   7.703   4.870   6.586
 6148TIP3    H218390   7.666   4.824   6.447
 6149TIP3   OH218391   5.339   1.563   0.939
 6149TIP3    H118392   5.313   1.652   0.918
 6149TIP3    H218393   5.427   1.572   0.977
 6150TIP3   OH218394   7.794   4.034   6.174
 6150TIP3    H118395   7.803   3.939   6.178
 6150TIP3    H218396   7.824   4.058   6.087
 6151TIP3   OH218397   7.040   0.049   1.357
 6151TIP3    H118398   6.954   0.023   1.324
 6151TIP3    H218399   7.041   0.017   1.448
 6152TIP3   OH218400   6.378   4.881   1.922
 6152TIP3    H118401   6.349   4.835   2.001
 6152TIP3    H218402   6.343   4.830   1.850
 6153TIP3   OH218403   3.506   5.587   3.992
 6153TIP3    H118404   3.463   5.595   3.906
 6153TIP3    H218405   3.461   5.513   4.034
 6154TIP3   OH218406   0.776   7.387   5.865
 6154TIP3    H118407   0.781   7.455   5.797
 6154TIP3    H218408   0.694   7.341   5.847
 6155TIP3   OH218409   7.740   4.436   5.628
 6155TIP3    H118410   7.788   4.461   5.549
 6155TIP3    H218411   7.703   4.350   5.608
 6156TIP3   OH218412   5.782   7.004   1.626
 6156TIP3    H118413   5.698   7.047   1.642
 6156TIP3    H218414   5.838   7.031   1.700
 6157TIP3   OH218415   1.366   6.237   1.291
 6157TIP3    H118416   1.358   6.293   1.367
 6157TIP3    H218417   1.410   6.158   1.323
 6158TIP3   OH218418   3.678   4.984   2.593
 6158TIP3    H118419   3.689   4.895   2.558
 6158TIP3    H218420   3.590   4.984   2.631
 6159TIP3   OH218421   3.249   1.627   3.210
 6159TIP3    H118422   3.261   1.701   3.151
 6159TIP3    H218423   3.214   1.665   3.290
 6160TIP3   OH218424   0.682   1.790   5.814
 6160TIP3    H118425   0.632   1.750   5.885
 6160TIP3    H218426   0.717   1.871   5.852
 6161TIP3   OH218427   0.660   3.243   1.908
 6161TIP3    H118428   0.729   3.181   1.885
 6161TIP3    H218429   0.586   3.219   1.852
 6162TIP3   OH218430   0.872   0.883   3.112
 6162TIP3    H118431   0.961   0.909   3.090
 6162TIP3    H218432   0.838   0.954   3.166
 6163TIP3   OH218433   1.053   3.122   2.321
 6163TIP3    H118434   0.989   3.074   2.373
 6163TIP3    H218435   1.016   3.210   2.311
 6164TIP3   OH218436   0.731  -0.007   0.411
 6164TIP3    H118437   0.767   0.080   0.428
 6164TIP3    H218438   0.742  -0.053   0.494
 6165TIP3   OH218439   7.953   3.625   1.403
 6165TIP3    H118440   7.882   3.584   1.355
 6165TIP3    H218441   8.009   3.553   1.429
 6166TIP3   OH218442   3.898   7.416   0.828
 6166TIP3    H118443   3.823   7.476   0.832
 6166TIP3    H218444   3.894   7.369   0.911
 6167TIP3   OH218445   7.664   3.879   5.204
 6167TIP3    H118446   7.753   3.855   5.231
 6167TIP3    H218447   7.650   3.966   5.240
 6168TIP3   OH218448   5.926   7.765   5.672
 6168TIP3    H118449   5.954   7.683   5.712
 6168TIP3    H218450   6.007   7.806   5.643
 6169TIP3   OH218451   4.429   7.265   1.653
 6169TIP3    H118452   4.442   7.316   1.573
 6169TIP3    H218453   4.518   7.248   1.686
 6170TIP3   OH218454   7.959   0.550   0.528
 6170TIP3    H118455   7.976   0.632   0.574
 6170TIP3    H218456   8.007   0.558   0.446
 6171TIP3   OH218457   0.500   7.143   3.128
 6171TIP3    H118458   0.579   7.194   3.109
 6171TIP3    H218459   0.525   7.052   3.111
 6172TIP3   OH218460   2.403   5.592   3.047
 6172TIP3    H118461   2.313   5.565   3.068
 6172TIP3    H218462   2.399   5.688   3.045
 6173TIP3   OH218463   7.654   5.157   3.918
 6173TIP3    H118464   7.562   5.184   3.915
 6173TIP3    H218465   7.700   5.235   3.950
 6174TIP3   OH218466   5.528   0.267   2.170
 6174TIP3    H118467   5.464   0.297   2.106
 6174TIP3    H218468   5.494   0.297   2.254
 6175TIP3   OH218469   8.155   4.877   4.345
 6175TIP3    H118470   8.220   4.811   4.322
 6175TIP3    H218471   8.072   4.828   4.348
 6176TIP3   OH218472   3.705   0.253   2.518
 6176TIP3    H118473   3.662   0.188   2.464
 6176TIP3    H218474   3.740   0.204   2.592
 6177TIP3   OH218475   2.806   3.426   2.441
 6177TIP3    H118476   2.713   3.449   2.450
 6177TIP3    H218477   2.819   3.417   2.346
 6178TIP3   OH218478   1.548   7.053   1.282
 6178TIP3    H118479   1.537   7.123   1.218
 6178TIP3    H218480   1.640   7.029   1.275
 6179TIP3   OH218481   2.901   0.497   2.913
 6179TIP3    H118482   2.939   0.584   2.909
 6179TIP3    H218483   2.828   0.505   2.974
 6180TIP3   OH218484   7.576   6.598   1.153
 6180TIP3    H118485   7.566   6.631   1.064
 6180TIP3    H218486   7.651   6.539   1.149
 6181TIP3   OH218487   4.280   6.158   0.412
 6181TIP3    H118488   4.362   6.207   0.417
 6181TIP3    H218489   4.292   6.086   0.475
 6182TIP3   OH218490   1.495   5.064   5.419
 6182TIP3    H118491   1.496   5.107   5.334
 6182TIP3    H218492   1.574   5.010   5.420
 6183TIP3   OH218493   4.930   1.720   3.193
 6183TIP3    H118494   4.972   1.791   3.145
 6183TIP3    H218495   4.840   1.748   3.205
 6184TIP3   OH218496   7.178   4.711   0.155
 6184TIP3    H118497   7.092   4.669   0.144
 6184TIP3    H218498   7.236   4.640   0.179
 6185TIP3   OH218499   4.558   4.482   6.772
 6185TIP3    H118500   4.628   4.545   6.792
 6185TIP3    H218501   4.603   4.411   6.727
 6186TIP3   OH218502   8.207   3.740   4.309
 6186TIP3    H118503   8.235   3.786   4.229
 6186TIP3    H218504   8.231   3.649   4.294
 6187TIP3   OH218505   5.977   4.783   0.753
 6187TIP3    H118506   5.908   4.742   0.701
 6187TIP3    H218507   5.945   4.781   0.843
 6188TIP3   OH218508   5.168   5.276   3.610
 6188TIP3    H118509   5.208   5.202   3.563
 6188TIP3    H218510   5.075   5.270   3.590
 6189TIP3   OH218511   3.097   2.281   0.613
 6189TIP3    H118512   3.143   2.203   0.646
 6189TIP3    H218513   3.041   2.248   0.543
 6190TIP3   OH218514   7.875   7.836   0.417
 6190TIP3    H118515   7.966   7.807   0.424
 6190TIP3    H218516   7.823   7.759   0.437
 6191TIP3   OH218517   4.523   7.773   2.808
 6191TIP3    H118518   4.541   7.848   2.865
 6191TIP3    H218519   4.485   7.812   2.729
 6192TIP3   OH218520   0.789   5.881   3.990
 6192TIP3    H118521   0.828   5.964   4.017
 6192TIP3    H218522   0.797   5.881   3.895
 6193TIP3   OH218523   4.134   0.061   3.491
 6193TIP3    H118524   4.038   0.052   3.495
 6193TIP3    H218525   4.151   0.090   3.401
 6194TIP3   OH218526   5.107   6.078   2.256
 6194TIP3    H118527   5.145   6.162   2.228
 6194TIP3    H218528   5.103   6.026   2.176
 6195TIP3   OH218529   6.430   3.403   5.058
 6195TIP3    H118530   6.369   3.474   5.039
 6195TIP3    H218531   6.510   3.427   5.011
 6196TIP3   OH218532   6.985   2.217   3.123
 6196TIP3    H118533   6.937   2.288   3.165
 6196TIP3    H218534   7.056   2.260   3.075
 6197TIP3   OH218535   0.016   7.703   1.849
 6197TIP3    H118536   0.025   7.618   1.807
 6197TIP3    H218537   0.003   7.683   1.942
 6198TIP3   OH218538   4.479   6.150   2.361
 6198TIP3    H118539   4.467   6.189   2.275
 6198TIP3    H218540   4.406   6.183   2.414
 6199TIP3   OH218541   1.827   0.990   5.663
 6199TIP3    H118542   1.768   0.923   5.628
 6199TIP3    H218543   1.773   1.042   5.722
 6200TIP3   OH218544   5.697   4.652   2.936
 6200TIP3    H118545   5.788   4.681   2.946
 6200TIP3    H218546   5.658   4.667   3.022
 6201TIP3   OH218547   2.678   1.676   6.246
 6201TIP3    H118548   2.683   1.638   6.158
 6201TIP3    H218549   2.592   1.719   6.249
 6202TIP3   OH218550   6.753   3.217   1.508
 6202TIP3    H118551   6.687   3.227   1.440
 6202TIP3    H218552   6.806   3.143   1.480
 6203TIP3   OH218553   5.329   7.050   6.778
 6203TIP3    H118554   5.311   6.958   6.762
 6203TIP3    H218555   5.300   7.095   6.699
 6204TIP3   OH218556   2.793   5.138   6.527
 6204TIP3    H118557   2.779   5.045   6.545
 6204TIP3    H218558   2.865   5.163   6.585
 6205TIP3   OH218559   8.068   6.284   2.424
 6205TIP3    H118560   8.031   6.305   2.338
 6205TIP3    H218561   8.102   6.195   2.414
 6206TIP3   OH218562   2.500   6.538   2.800
 6206TIP3    H118563   2.565   6.489   2.850
 6206TIP3    H218564   2.447   6.583   2.867
 6207TIP3   OH218565   1.109   3.109   1.208
 6207TIP3    H118566   1.195   3.140   1.236
 6207TIP3    H218567   1.124   3.020   1.177
 6208TIP3   OH218568   3.381   7.205   2.075
 6208TIP3    H118569   3.361   7.288   2.033
 6208TIP3    H218570   3.410   7.228   2.163
 6209TIP3   OH218571   0.733   2.647   6.418
 6209TIP3    H118572   0.708   2.671   6.328
 6209TIP3    H218573   0.687   2.709   6.473
 6210TIP3   OH218574   2.305   7.430   4.481
 6210TIP3    H118575   2.327   7.515   4.444
 6210TIP3    H218576   2.386   7.379   4.472
 6211TIP3   OH218577   5.938   7.413   2.191
 6211TIP3    H118578   5.995   7.452   2.125
 6211TIP3    H218579   5.874   7.481   2.211
 6212TIP3   OH218580   3.881   1.580   2.015
 6212TIP3    H118581   3.912   1.654   1.961
 6212TIP3    H218582   3.815   1.619   2.072
 6213TIP3   OH218583   2.533   0.697   1.809
 6213TIP3    H118584   2.493   0.714   1.895
 6213TIP3    H218585   2.626   0.718   1.822
 6214TIP3   OH218586   1.411   0.352   2.726
 6214TIP3    H118587   1.392   0.439   2.761
 6214TIP3    H218588   1.467   0.369   2.650
 6215TIP3   OH218589   1.785   4.443   4.821
 6215TIP3    H118590   1.720   4.508   4.848
 6215TIP3    H218591   1.826   4.414   4.902
 6216TIP3   OH218592   1.815   0.125   3.723
 6216TIP3    H118593   1.831   0.126   3.818
 6216TIP3    H218594   1.820   0.032   3.700
 6217TIP3   OH218595   2.192   7.516   1.367
 6217TIP3    H118596   2.285   7.535   1.382
 6217TIP3    H218597   2.154   7.598   1.337
 6218TIP3   OH218598   8.048   0.042   1.634
 6218TIP3    H118599   8.035   0.130   1.598
 6218TIP3    H218600   8.128   0.049   1.686
 6219TIP3   OH218601   1.572   6.354   0.429
 6219TIP3    H118602   1.552   6.416   0.500
 6219TIP3    H218603   1.625   6.286   0.470
 6220TIP3   OH218604   4.614   7.570   2.629
 6220TIP3    H118605   4.703   7.580   2.661
 6220TIP3    H218606   4.565   7.639   2.672
 6221TIP3   OH218607   2.822   2.343   3.529
 6221TIP3    H118608   2.826   2.407   3.600
 6221TIP3    H218609   2.728   2.323   3.520
 6222TIP3   OH218610   3.588   2.918   4.152
 6222TIP3    H118611   3.595   2.958   4.065
 6222TIP3    H218612   3.514   2.962   4.193
 6223TIP3   OH218613   7.145   3.439   5.113
 6223TIP3    H118614   7.123   3.531   5.100
 6223TIP3    H218615   7.216   3.423   5.051
 6224TIP3   OH218616   8.084   4.603   0.736
 6224TIP3    H118617   8.023   4.676   0.744
 6224TIP3    H218618   8.059   4.560   0.654
 6225TIP3   OH218619   5.272   2.124   6.180
 6225TIP3    H118620   5.342   2.188   6.174
 6225TIP3    H218621   5.242   2.130   6.271
 6226TIP3   OH218622   0.464   2.348   3.256
 6226TIP3    H118623   0.532   2.367   3.191
 6226TIP3    H218624   0.419   2.431   3.269
 6227TIP3   OH218625   4.154   2.899   3.602
 6227TIP3    H118626   4.141   2.992   3.623
 6227TIP3    H218627   4.073   2.857   3.631
 6228TIP3   OH218628   7.569   5.158   2.393
 6228TIP3    H118629   7.488   5.168   2.343
 6228TIP3    H218630   7.541   5.125   2.478
 6229TIP3   OH218631   7.008   6.781   4.802
 6229TIP3    H118632   6.980   6.872   4.803
 6229TIP3    H218633   7.038   6.764   4.892
 6230TIP3   OH218634   3.040   5.300   5.793
 6230TIP3    H118635   3.019   5.346   5.712
 6230TIP3    H218636   2.969   5.324   5.853
 6231TIP3   OH218637   6.055   0.513   2.665
 6231TIP3    H118638   6.059   0.538   2.572
 6231TIP3    H218639   6.143   0.483   2.685
 6232TIP3   OH218640   5.684   7.216   3.603
 6232TIP3    H118641   5.669   7.279   3.533
 6232TIP3    H218642   5.621   7.239   3.670
 6233TIP3   OH218643   5.734   0.462   1.514
 6233TIP3    H118644   5.771   0.379   1.484
 6233TIP3    H218645   5.685   0.495   1.439
 6234TIP3   OH218646   1.101   3.944   0.172
 6234TIP3    H118647   1.166   3.999   0.130
 6234TIP3    H218648   1.151   3.875   0.215
 6235TIP3   OH218649   3.802   3.428   1.342
 6235TIP3    H118650   3.747   3.503   1.361
 6235TIP3    H218651   3.794   3.372   1.419
 6236TIP3   OH218652   0.255   3.391   4.154
 6236TIP3    H118653   0.289   3.460   4.210
 6236TIP3    H218654   0.215   3.437   4.080
 6237TIP3   OH218655   4.342   1.396   2.359
 6237TIP3    H118656   4.437   1.392   2.354
 6237TIP3    H218657   4.312   1.392   2.268
 6238TIP3   OH218658   1.435   3.648   4.701
 6238TIP3    H118659   1.404   3.735   4.675
 6238TIP3    H218660   1.432   3.596   4.621
 6239TIP3   OH218661   3.633   5.151   3.392
 6239TIP3    H118662   3.677   5.157   3.308
 6239TIP3    H218663   3.700   5.117   3.452
 6240TIP3   OH218664   4.964   1.311   4.999
 6240TIP3    H118665   4.896   1.250   5.030
 6240TIP3    H218666   4.979   1.285   4.908
 6241TIP3   OH218667   8.157   1.583   1.986
 6241TIP3    H118668   8.207   1.592   1.905
 6241TIP3    H218669   8.144   1.673   2.016
 6242TIP3   OH218670   7.713   1.790   2.480
 6242TIP3    H118671   7.805   1.802   2.505
 6242TIP3    H218672   7.701   1.695   2.480
 6243TIP3   OH218673   3.826   1.963   5.364
 6243TIP3    H118674   3.895   1.982   5.427
 6243TIP3    H218675   3.859   1.888   5.314
 6244TIP3   OH218676   2.117   3.311   3.192
 6244TIP3    H118677   2.181   3.268   3.249
 6244TIP3    H218678   2.032   3.284   3.227
 6245TIP3   OH218679   0.184   1.129   2.268
 6245TIP3    H118680   0.200   1.220   2.244
 6245TIP3    H218681   0.268   1.098   2.302
 6246TIP3   OH218682   2.918   1.950   1.147
 6246TIP3    H118683   2.824   1.946   1.131
 6246TIP3    H218684   2.955   1.885   1.089
 6247TIP3   OH218685   6.787   5.463   6.613
 6247TIP3    H118686   6.852   5.417   6.667
 6247TIP3    H218687   6.835   5.493   6.537
 6248TIP3   OH218688   4.769   3.874   1.418
 6248TIP3    H118689   4.704   3.871   1.488
 6248TIP3    H218690   4.786   3.782   1.396
 6249TIP3   OH218691   6.377   3.729   5.212
 6249TIP3    H118692   6.438   3.720   5.286
 6249TIP3    H218693   6.425   3.781   5.148
 6250TIP3   OH218694   2.776   6.961   1.154
 6250TIP3    H118695   2.715   6.988   1.222
 6250TIP3    H218696   2.720   6.922   1.086
 6251TIP3   OH218697   1.619   0.326   6.440
 6251TIP3    H118698   1.637   0.404   6.493
 6251TIP3    H218699   1.665   0.255   6.486
 6252TIP3   OH218700   0.996   7.089   1.371
 6252TIP3    H118701   0.914   7.043   1.382
 6252TIP3    H218702   0.999   7.152   1.443
 6253TIP3   OH218703   3.392   2.994   5.024
 6253TIP3    H118704   3.474   2.953   5.050
 6253TIP3    H218705   3.330   2.968   5.092
 6254TIP3   OH218706   7.493   1.298   1.309
 6254TIP3    H118707   7.505   1.264   1.221
 6254TIP3    H218708   7.457   1.386   1.297
 6255TIP3   OH218709   6.206   0.674   5.996
 6255TIP3    H118710   6.167   0.687   5.909
 6255TIP3    H218711   6.212   0.579   6.005
 6256TIP3   OH218712   5.202   3.661   3.458
 6256TIP3    H118713   5.250   3.649   3.376
 6256TIP3    H218714   5.269   3.685   3.522
 6257TIP3   OH218715   3.970   0.404   4.348
 6257TIP3    H118716   4.049   0.369   4.389
 6257TIP3    H218717   3.979   0.499   4.356
 6258TIP3   OH218718   3.821   3.635   6.416
 6258TIP3    H118719   3.745   3.638   6.475
 6258TIP3    H218720   3.876   3.708   6.445
 6259TIP3   OH218721   0.435   5.368   6.704
 6259TIP3    H118722   0.385   5.295   6.742
 6259TIP3    H218723   0.380   5.445   6.719
 6260TIP3   OH218724   5.794   4.611   5.586
 6260TIP3    H118725   5.767   4.627   5.677
 6260TIP3    H218726   5.730   4.660   5.534
 6261TIP3   OH218727   3.343   2.291   4.829
 6261TIP3    H118728   3.266   2.348   4.828
 6261TIP3    H218729   3.364   2.280   4.921
 6262TIP3   OH218730   1.708   5.257   6.501
 6262TIP3    H118731   1.752   5.310   6.567
 6262TIP3    H218732   1.747   5.284   6.418
 6263TIP3   OH218733   7.923   6.882   2.415
 6263TIP3    H118734   8.017   6.867   2.430
 6263TIP3    H218735   7.880   6.806   2.453
 6264TIP3   OH218736   8.200   0.301   5.229
 6264TIP3    H118737   8.170   0.392   5.227
 6264TIP3    H218738   8.275   0.302   5.289
 6265TIP3   OH218739   7.966   1.025   3.326
 6265TIP3    H118740   7.888   1.072   3.298
 6265TIP3    H218741   8.010   1.086   3.386
 6266TIP3   OH218742   5.454   6.119   2.323
 6266TIP3    H118743   5.433   6.172   2.400
 6266TIP3    H218744   5.538   6.079   2.343
 6267TIP3   OH218745   0.103   6.430   6.204
 6267TIP3    H118746   0.136   6.420   6.115
 6267TIP3    H218747   0.169   6.386   6.259
 6268TIP3   OH218748   4.095   1.926   3.905
 6268TIP3    H118749   4.003   1.902   3.917
 6268TIP3    H218750   4.135   1.907   3.990
 6269TIP3   OH218751   8.121   7.450   2.374
 6269TIP3    H118752   8.109   7.360   2.345
 6269TIP3    H218753   8.067   7.502   2.314
 6270TIP3   OH218754   4.923   0.312   5.802
 6270TIP3    H118755   4.975   0.299   5.881
 6270TIP3    H218756   4.833   0.314   5.834
 6271TIP3   OH218757   8.252   1.766   5.300
 6271TIP3    H118758   8.288   1.758   5.211
 6271TIP3    H218759   8.327   1.791   5.354
 6272TIP3   OH218760   5.147   1.041   2.335
 6272TIP3    H118761   5.227   0.990   2.323
 6272TIP3    H218762   5.167   1.099   2.408
 6273TIP3   OH218763   6.646   0.613   6.237
 6273TIP3    H118764   6.672   0.569   6.156
 6273TIP3    H218765   6.712   0.587   6.301
 6274TIP3   OH218766   2.315   3.268   5.091
 6274TIP3    H118767   2.255   3.237   5.022
 6274TIP3    H218768   2.347   3.188   5.133
 6275TIP3   OH218769   4.781   0.906   3.915
 6275TIP3    H118770   4.819   0.994   3.912
 6275TIP3    H218771   4.765   0.884   3.823
 6276TIP3   OH218772   6.674   0.708   5.664
 6276TIP3    H118773   6.598   0.733   5.717
 6276TIP3    H218774   6.652   0.622   5.630
 6277TIP3   OH218775   0.032   1.400   1.069
 6277TIP3    H118776  -0.048   1.348   1.071
 6277TIP3    H218777   0.065   1.397   1.158
 6278TIP3   OH218778   6.485   3.277   4.003
 6278TIP3    H118779   6.571   3.294   4.041
 6278TIP3    H218780   6.440   3.225   4.070
 6279TIP3   OH218781   6.741   7.617   4.471
 6279TIP3    H118782   6.746   7.709   4.494
 6279TIP3    H218783   6.802   7.608   4.397
 6280TIP3   OH218784   4.186   0.160   3.242
 6280TIP3    H118785   4.129   0.236   3.225
 6280TIP3    H218786   4.138   0.086   3.205
 6281TIP3   OH218787   2.734   3.331   6.213
 6281TIP3    H118788   2.691   3.271   6.274
 6281TIP3    H218789   2.662   3.369   6.163
 6282TIP3   OH218790   0.456   7.814   1.351
 6282TIP3    H118791   0.479   7.722   1.338
 6282TIP3    H218792   0.525   7.848   1.409
 6283TIP3   OH218793   7.574   1.534   4.019
 6283TIP3    H118794   7.516   1.458   4.012
 6283TIP3    H218795   7.642   1.507   4.081
 6284TIP3   OH218796   3.433   2.923   2.455
 6284TIP3    H118797   3.504   2.897   2.396
 6284TIP3    H218798   3.473   2.920   2.543
 6285TIP3   OH218799   6.671   5.724   3.379
 6285TIP3    H118800   6.583   5.689   3.393
 6285TIP3    H218801   6.674   5.804   3.432
 6286TIP3   OH218802   2.336   2.889   1.766
 6286TIP3    H118803   2.292   2.847   1.839
 6286TIP3    H218804   2.396   2.823   1.732
 6287TIP3   OH218805   7.572   3.916   4.950
 6287TIP3    H118806   7.601   3.882   5.035
 6287TIP3    H218807   7.587   4.010   4.955
 6288TIP3   OH218808   1.605   0.267   1.825
 6288TIP3    H118809   1.602   0.180   1.865
 6288TIP3    H218810   1.572   0.254   1.737
 6289TIP3   OH218811   4.330   0.698   4.505
 6289TIP3    H118812   4.389   0.766   4.472
 6289TIP3    H218813   4.374   0.616   4.484
 6290TIP3   OH218814   4.077   4.642   1.521
 6290TIP3    H118815   4.125   4.668   1.443
 6290TIP3    H218816   4.140   4.649   1.593
 6291TIP3   OH218817   3.278   3.936   5.710
 6291TIP3    H118818   3.193   3.971   5.684
 6291TIP3    H218819   3.289   3.857   5.656
 6292TIP3   OH218820   1.629   3.871   2.816
 6292TIP3    H118821   1.702   3.899   2.870
 6292TIP3    H218822   1.645   3.778   2.801
 6293TIP3   OH218823   6.088   2.822   2.794
 6293TIP3    H118824   6.072   2.910   2.762
 6293TIP3    H218825   6.112   2.834   2.886
 6294TIP3   OH218826   2.693   6.899   6.057
 6294TIP3    H118827   2.736   6.984   6.045
 6294TIP3    H218828   2.666   6.899   6.149
 6295TIP3   OH218829   3.436   0.514   2.940
 6295TIP3    H118830   3.341   0.521   2.934
 6295TIP3    H218831   3.460   0.453   2.870
 6296TIP3   OH218832   5.594   4.284   1.743
 6296TIP3    H118833   5.510   4.321   1.770
 6296TIP3    H218834   5.657   4.353   1.762
 6297TIP3   OH218835   1.415   4.267   2.695
 6297TIP3    H118836   1.497   4.218   2.696
 6297TIP3    H218837   1.384   4.264   2.786
 6298TIP3   OH218838   7.900   2.033   3.554
 6298TIP3    H118839   7.973   1.995   3.505
 6298TIP3    H218840   7.822   2.006   3.505
 6299TIP3   OH218841   0.419   4.040   4.012
 6299TIP3    H118842   0.450   3.987   3.938
 6299TIP3    H218843   0.389   4.122   3.972
 6300TIP3   OH218844   1.897   5.407   3.099
 6300TIP3    H118845   1.958   5.464   3.147
 6300TIP3    H218846   1.815   5.456   3.098
 6301TIP3   OH218847   0.561   4.312   2.393
 6301TIP3    H118848   0.636   4.370   2.382
 6301TIP3    H218849   0.493   4.352   2.338
 6302TIP3   OH218850   4.071   1.471   5.763
 6302TIP3    H118851   4.059   1.550   5.709
 6302TIP3    H218852   4.067   1.399   5.701
 6303TIP3   OH218853   5.118   1.812   5.024
 6303TIP3    H118854   5.198   1.803   4.971
 6303TIP3    H218855   5.064   1.738   4.997
 6304TIP3   OH218856   4.060   2.335   3.426
 6304TIP3    H118857   4.078   2.251   3.385
 6304TIP3    H218858   4.146   2.375   3.440
 6305TIP3   OH218859   2.534   7.756   2.027
 6305TIP3    H118860   2.628   7.769   2.042
 6305TIP3    H218861   2.494   7.839   2.051
 6306TIP3   OH218862   1.291   0.577   2.533
 6306TIP3    H118863   1.383   0.576   2.507
 6306TIP3    H218864   1.293   0.570   2.629
 6307TIP3   OH218865   3.235   1.590   0.156
 6307TIP3    H118866   3.296   1.521   0.182
 6307TIP3    H218867   3.152   1.565   0.197
 6308TIP3   OH218868   2.291   0.074   0.943
 6308TIP3    H118869   2.204   0.111   0.928
 6308TIP3    H218870   2.275   0.000   1.002
 6309TIP3   OH218871   6.482   4.898   3.120
 6309TIP3    H118872   6.411   4.845   3.158
 6309TIP3    H218873   6.493   4.971   3.181
 6310TIP3   OH218874   3.038   0.294   4.051
 6310TIP3    H118875   3.066   0.380   4.084
 6310TIP3    H218876   3.016   0.245   4.130
 6311TIP3   OH218877   7.411   5.025   2.593
 6311TIP3    H118878   7.386   4.936   2.570
 6311TIP3    H218879   7.466   5.015   2.671
 6312TIP3   OH218880   5.452   1.234   3.054
 6312TIP3    H118881   5.426   1.184   2.977
 6312TIP3    H218882   5.473   1.321   3.020
 6313TIP3   OH218883   1.664   2.364   4.503
 6313TIP3    H118884   1.711   2.302   4.447
 6313TIP3    H218885   1.668   2.447   4.455
 6314TIP3   OH218886   0.412   6.425   0.037
 6314TIP3    H118887   0.430   6.518   0.027
 6314TIP3    H218888   0.416   6.409   0.131
 6315TIP3   OH218889   1.029   7.564   2.953
 6315TIP3    H118890   0.976   7.524   2.884
 6315TIP3    H218891   0.966   7.606   3.011
 6316TIP3   OH218892   0.748   5.572   5.636
 6316TIP3    H118893   0.784   5.484   5.631
 6316TIP3    H218894   0.654   5.559   5.650
 6317TIP3   OH218895   2.732   4.946   1.809
 6317TIP3    H118896   2.745   4.923   1.901
 6317TIP3    H218897   2.749   5.040   1.805
 6318TIP3   OH218898   1.672   0.967   1.011
 6318TIP3    H118899   1.730   1.015   0.951
 6318TIP3    H218900   1.707   0.986   1.098
 6319TIP3   OH218901   5.795   1.968   5.649
 6319TIP3    H118902   5.781   1.992   5.740
 6319TIP3    H218903   5.757   1.881   5.640
 6320TIP3   OH218904   7.281   6.215   5.492
 6320TIP3    H118905   7.316   6.129   5.468
 6320TIP3    H218906   7.312   6.273   5.422
 6321TIP3   OH218907   0.079   5.797   0.299
 6321TIP3    H118908   0.075   5.788   0.394
 6321TIP3    H218909   0.164   5.761   0.275
 6322TIP3   OH218910   5.003   0.135   0.814
 6322TIP3    H118911   4.989   0.191   0.890
 6322TIP3    H218912   5.098   0.123   0.810
 6323TIP3   OH218913   6.663   4.941   4.476
 6323TIP3    H118914   6.608   5.002   4.525
 6323TIP3    H218915   6.661   4.860   4.527
 6324TIP3   OH218916   8.187   6.727   1.562
 6324TIP3    H118917   8.130   6.803   1.549
 6324TIP3    H218918   8.191   6.717   1.657
 6325TIP3   OH218919   1.576   4.594   0.455
 6325TIP3    H118920   1.622   4.655   0.398
 6325TIP3    H218921   1.623   4.512   0.445
 6326TIP3   OH218922   3.281   1.006   0.713
 6326TIP3    H118923   3.247   0.941   0.653
 6326TIP3    H218924   3.365   1.033   0.675
 6327TIP3   OH218925   5.800   6.880   3.838
 6327TIP3    H118926   5.762   6.947   3.894
 6327TIP3    H218927   5.832   6.928   3.762
 6328TIP3   OH218928   2.074   7.020   2.351
 6328TIP3    H118929   2.065   7.113   2.373
 6328TIP3    H218930   2.164   6.999   2.375
 6329TIP3   OH218931   2.698   5.886   6.700
 6329TIP3    H118932   2.764   5.833   6.745
 6329TIP3    H218933   2.615   5.846   6.726
 6330TIP3   OH218934   6.895   7.326   6.724
 6330TIP3    H118935   6.806   7.314   6.691
 6330TIP3    H218936   6.951   7.291   6.655
 6331TIP3   OH218937   6.524   5.027   2.630
 6331TIP3    H118938   6.520   5.122   2.635
 6331TIP3    H218939   6.539   4.998   2.720
 6332TIP3   OH218940   0.930   2.528   1.430
 6332TIP3    H118941   0.865   2.586   1.469
 6332TIP3    H218942   0.993   2.586   1.388
 6333TIP3   OH218943   0.248   6.237   1.190
 6333TIP3    H118944   0.290   6.178   1.253
 6333TIP3    H218945   0.317   6.260   1.128
 6334TIP3   OH218946   6.652   7.011   6.703
 6334TIP3    H118947   6.599   6.974   6.632
 6334TIP3    H218948   6.694   7.088   6.664
 6335TIP3   OH218949   3.319   6.000   6.575
 6335TIP3    H118950   3.395   6.028   6.524
 6335TIP3    H218951   3.275   6.082   6.598
 6336TIP3   OH218952   1.078   0.057   5.859
 6336TIP3    H118953   1.026   0.008   5.923
 6336TIP3    H218954   1.158   0.082   5.906
 6337TIP3   OH218955   6.142   7.261   3.389
 6337TIP3    H118956   6.229   7.299   3.383
 6337TIP3    H218957   6.083   7.336   3.389
 6338TIP3   OH218958   7.063   1.489   1.073
 6338TIP3    H118959   7.040   1.527   1.157
 6338TIP3    H218960   7.035   1.397   1.079
 6339TIP3   OH218961   1.876   3.112   0.005
 6339TIP3    H118962   1.922   3.038   0.046
 6339TIP3    H218963   1.935   3.186   0.017
 6340TIP3   OH218964   4.497   6.691   6.685
 6340TIP3    H118965   4.451   6.608   6.671
 6340TIP3    H218966   4.582   6.666   6.721
 6341TIP3   OH218967   5.650   5.261   6.257
 6341TIP3    H118968   5.578   5.265   6.320
 6341TIP3    H218969   5.698   5.343   6.270
 6342TIP3   OH218970   2.967   0.322   2.015
 6342TIP3    H118971   2.998   0.248   1.963
 6342TIP3    H218972   2.958   0.394   1.953
 6343TIP3   OH218973   5.870   5.844   3.775
 6343TIP3    H118974   5.925   5.918   3.751
 6343TIP3    H218975   5.856   5.854   3.870
 6344TIP3   OH218976   0.962   1.373   5.792
 6344TIP3    H118977   0.982   1.285   5.825
 6344TIP3    H218978   0.935   1.422   5.869
 6345TIP3   OH218979   3.749   2.662   2.595
 6345TIP3    H118980   3.746   2.696   2.684
 6345TIP3    H218981   3.770   2.737   2.540
 6346TIP3   OH218982   1.307   2.264   6.425
 6346TIP3    H118983   1.374   2.310   6.376
 6346TIP3    H218984   1.353   2.231   6.503
 6347TIP3   OH218985   2.546   3.912   0.475
 6347TIP3    H118986   2.593   3.830   0.464
 6347TIP3    H218987   2.464   3.899   0.427
 6348TIP3   OH218988   0.936   0.668   2.978
 6348TIP3    H118989   0.869   0.680   2.911
 6348TIP3    H218990   0.927   0.744   3.036
 6349TIP3   OH218991   6.933   1.162   1.695
 6349TIP3    H118992   6.949   1.171   1.789
 6349TIP3    H218993   7.016   1.129   1.660
 6350TIP3   OH218994   1.899   6.849   2.470
 6350TIP3    H118995   1.979   6.896   2.448
 6350TIP3    H218996   1.841   6.864   2.394
 6351TIP3   OH218997   5.689   4.122   0.505
 6351TIP3    H118998   5.691   4.169   0.588
 6351TIP3    H218999   5.748   4.173   0.448
 6352TIP3   OH219000   2.198   2.430   5.910
 6352TIP3    H119001   2.123   2.464   5.959
 6352TIP3    H219002   2.161   2.401   5.827
 6353TIP3   OH219003   5.483   0.494   5.691
 6353TIP3    H119004   5.445   0.406   5.696
 6353TIP3    H219005   5.555   0.484   5.629
 6354TIP3   OH219006   5.620   7.704   1.360
 6354TIP3    H119007   5.596   7.725   1.270
 6354TIP3    H219008   5.710   7.673   1.354
 6355TIP3   OH219009   1.637   4.983   6.527
 6355TIP3    H119010   1.546   4.981   6.559
 6355TIP3    H219011   1.660   5.076   6.526
 6356TIP3   OH219012   6.701   3.773   3.712
 6356TIP3    H119013   6.698   3.714   3.788
 6356TIP3    H219014   6.793   3.772   3.685
 6357TIP3   OH219015   2.135   1.224   3.009
 6357TIP3    H119016   2.186   1.280   3.067
 6357TIP3    H219017   2.195   1.206   2.936
 6358TIP3   OH219018   0.923   1.242   6.086
 6358TIP3    H119019   0.974   1.180   6.034
 6358TIP3    H219020   0.962   1.239   6.173
 6359TIP3   OH219021   3.082   7.442   5.884
 6359TIP3    H119022   3.122   7.424   5.969
 6359TIP3    H219023   3.082   7.538   5.877
 6360TIP3   OH219024   7.782   3.856   3.741
 6360TIP3    H119025   7.743   3.903   3.815
 6360TIP3    H219026   7.737   3.772   3.740
 6361TIP3   OH219027   6.664   4.225   0.595
 6361TIP3    H119028   6.633   4.275   0.671
 6361TIP3    H219029   6.757   4.211   0.611
 6362TIP3   OH219030   0.236   7.369   4.249
 6362TIP3    H119031   0.259   7.336   4.162
 6362TIP3    H219032   0.168   7.309   4.280
 6363TIP3   OH219033   6.895   7.118   4.947
 6363TIP3    H119034   6.906   7.086   4.858
 6363TIP3    H219035   6.822   7.179   4.943
 6364TIP3   OH219036   8.291   6.683   4.075
 6364TIP3    H119037   8.372   6.633   4.076
 6364TIP3    H219038   8.240   6.648   4.147
 6365TIP3   OH219039   7.999   1.243   0.808
 6365TIP3    H119040   7.999   1.279   0.719
 6365TIP3    H219041   8.018   1.150   0.797
 6366TIP3   OH219042   6.061   3.340   4.536
 6366TIP3    H119043   6.122   3.322   4.464
 6366TIP3    H219044   6.111   3.319   4.615
 6367TIP3   OH219045   0.701   0.099   2.060
 6367TIP3    H119046   0.773   0.154   2.029
 6367TIP3    H219047   0.674   0.139   2.142
 6368TIP3   OH219048   2.574   5.267   0.058
 6368TIP3    H119049   2.596   5.184   0.100
 6368TIP3    H219050   2.485   5.285   0.088
 6369TIP3   OH219051   2.808   3.213   5.089
 6369TIP3    H119052   2.807   3.134   5.035
 6369TIP3    H219053   2.753   3.191   5.164
 6370TIP3   OH219054   0.448   5.046   4.678
 6370TIP3    H119055   0.439   5.141   4.683
 6370TIP3    H219056   0.368   5.013   4.720
 6371TIP3   OH219057   0.089   0.961   0.235
 6371TIP3    H119058   0.122   1.051   0.235
 6371TIP3    H219059   0.165   0.908   0.261
 6372TIP3   OH219060   4.892   1.848   5.235
 6372TIP3    H119061   4.965   1.790   5.259
 6372TIP3    H219062   4.834   1.793   5.183
 6373TIP3   OH219063   0.082   1.823   2.893
 6373TIP3    H119064   0.108   1.908   2.858
 6373TIP3    H219065   0.058   1.840   2.984
 6374TIP3   OH219066   3.315   3.751   4.396
 6374TIP3    H119067   3.318   3.743   4.492
 6374TIP3    H219068   3.403   3.725   4.367
 6375TIP3   OH219069   0.660   6.438   1.153
 6375TIP3    H119070   0.716   6.370   1.191
 6375TIP3    H219071   0.721   6.497   1.108
 6376TIP3   OH219072   0.077   4.916   1.140
 6376TIP3    H119073   0.158   4.960   1.166
 6376TIP3    H219074   0.085   4.907   1.045
 6377TIP3   OH219075   7.606   1.492   5.670
 6377TIP3    H119076   7.521   1.499   5.714
 6377TIP3    H219077   7.619   1.578   5.630
 6378TIP3   OH219078   2.084   2.644   6.082
 6378TIP3    H119079   2.083   2.573   6.146
 6378TIP3    H219080   2.036   2.715   6.125
 6379TIP3   OH219081   4.734   5.780   1.385
 6379TIP3    H119082   4.712   5.871   1.407
 6379TIP3    H219083   4.776   5.786   1.299
 6380TIP3   OH219084   0.953   6.357   2.720
 6380TIP3    H119085   1.005   6.278   2.707
 6380TIP3    H219086   0.890   6.357   2.647
 6381TIP3   OH219087   3.132   6.187   4.486
 6381TIP3    H119088   3.135   6.172   4.392
 6381TIP3    H219089   3.222   6.174   4.516
 6382TIP3   OH219090   5.873   2.494   6.140
 6382TIP3    H119091   5.842   2.514   6.051
 6382TIP3    H219092   5.963   2.464   6.127
 6383TIP3   OH219093   1.218   5.734   1.907
 6383TIP3    H119094   1.281   5.805   1.917
 6383TIP3    H219095   1.180   5.746   1.820
 6384TIP3   OH219096   1.783   5.760   2.212
 6384TIP3    H119097   1.721   5.730   2.145
 6384TIP3    H219098   1.846   5.689   2.220
 6385TIP3   OH219099   6.640   2.382   6.523
 6385TIP3    H119100   6.643   2.477   6.510
 6385TIP3    H219101   6.560   2.367   6.572
 6386TIP3   OH219102   5.753   2.954   3.225
 6386TIP3    H119103   5.721   2.875   3.270
 6386TIP3    H219104   5.765   3.018   3.295
 6387TIP3   OH219105   1.062   4.455   4.604
 6387TIP3    H119106   1.139   4.494   4.645
 6387TIP3    H219107   1.010   4.529   4.574
 6388TIP3   OH219108   1.227   7.143   4.923
 6388TIP3    H119109   1.184   7.229   4.919
 6388TIP3    H219110   1.159   7.081   4.899
 6389TIP3   OH219111   2.831   5.729   0.542
 6389TIP3    H119112   2.760   5.768   0.593
 6389TIP3    H219113   2.793   5.649   0.506
 6390TIP3   OH219114   2.154   3.796   3.960
 6390TIP3    H119115   2.065   3.831   3.962
 6390TIP3    H219116   2.202   3.846   4.026
 6391TIP3   OH219117   1.876   0.537   0.533
 6391TIP3    H119118   1.789   0.571   0.555
 6391TIP3    H219119   1.859   0.453   0.491
 6392TIP3   OH219120   1.480   0.260   6.214
 6392TIP3    H119121   1.542   0.195   6.183
 6392TIP3    H219122   1.496   0.265   6.309
 6393TIP3   OH219123   7.677   1.941   4.290
 6393TIP3    H119124   7.707   2.032   4.289
 6393TIP3    H219125   7.732   1.898   4.354
 6394TIP3   OH219126   3.112   4.180   5.854
 6394TIP3    H119127   3.060   4.107   5.887
 6394TIP3    H219128   3.129   4.158   5.762
 6395TIP3   OH219129   3.864   5.009   0.593
 6395TIP3    H119130   3.926   4.946   0.629
 6395TIP3    H219131   3.778   4.970   0.611
 6396TIP3   OH219132   5.397   5.394   0.810
 6396TIP3    H119133   5.342   5.422   0.882
 6396TIP3    H219134   5.425   5.475   0.768
 6397TIP3   OH219135   1.989   1.913   5.545
 6397TIP3    H119136   2.046   1.933   5.620
 6397TIP3    H219137   1.906   1.956   5.566
 6398TIP3   OH219138   1.850   4.610   5.420
 6398TIP3    H119139   1.926   4.557   5.397
 6398TIP3    H219140   1.849   4.680   5.355
 6399TIP3   OH219141   0.575   5.380   3.760
 6399TIP3    H119142   0.605   5.469   3.780
 6399TIP3    H219143   0.513   5.360   3.830
 6400TIP3   OH219144   2.186   3.178   4.433
 6400TIP3    H119145   2.235   3.112   4.483
 6400TIP3    H219146   2.139   3.228   4.500
 6401TIP3   OH219147   8.002   6.470   2.911
 6401TIP3    H119148   7.928   6.525   2.938
 6401TIP3    H219149   7.985   6.385   2.952
 6402TIP3   OH219150   3.471   3.215   3.400
 6402TIP3    H119151   3.534   3.197   3.330
 6402TIP3    H219152   3.461   3.310   3.399
 6403TIP3   OH219153   1.050   6.424   3.153
 6403TIP3    H119154   1.026   6.517   3.154
 6403TIP3    H219155   1.067   6.404   3.061
 6404TIP3   OH219156   5.756   5.580   2.340
 6404TIP3    H119157   5.781   5.528   2.263
 6404TIP3    H219158   5.727   5.515   2.404
 6405TIP3   OH219159   2.436   3.275   6.639
 6405TIP3    H119160   2.351   3.301   6.674
 6405TIP3    H219161   2.481   3.358   6.623
 6406TIP3   OH219162   8.270   5.447   3.412
 6406TIP3    H119163   8.203   5.505   3.375
 6406TIP3    H219164   8.225   5.364   3.428
 6407TIP3   OH219165   6.194   6.387   1.944
 6407TIP3    H119166   6.212   6.453   2.011
 6407TIP3    H219167   6.182   6.437   1.864
 6408TIP3   OH219168   2.957   1.163   5.650
 6408TIP3    H119169   2.915   1.129   5.728
 6408TIP3    H219170   3.036   1.110   5.639
 6409TIP3   OH219171   5.588   7.211   4.402
 6409TIP3    H119172   5.672   7.209   4.358
 6409TIP3    H219173   5.526   7.175   4.339
 6410TIP3   OH219174   4.886   5.972   3.306
 6410TIP3    H119175   4.955   6.013   3.359
 6410TIP3    H219176   4.852   6.043   3.251
 6411TIP3   OH219177   7.911   7.649   1.615
 6411TIP3    H119178   7.816   7.646   1.603
 6411TIP3    H219179   7.932   7.742   1.612
 6412TIP3   OH219180   1.966   3.846   1.713
 6412TIP3    H119181   2.029   3.782   1.747
 6412TIP3    H219182   1.991   3.857   1.621
 6413TIP3   OH219183   6.404   0.821   0.497
 6413TIP3    H119184   6.483   0.818   0.443
 6413TIP3    H219185   6.390   0.914   0.516
 6414TIP3   OH219186   5.103   3.835   4.969
 6414TIP3    H119187   5.189   3.867   4.943
 6414TIP3    H219188   5.054   3.914   4.994
 6415TIP3   OH219189   7.270   4.790   0.703
 6415TIP3    H119190   7.180   4.773   0.729
 6415TIP3    H219191   7.269   4.878   0.666
 6416TIP3   OH219192   2.227   6.244   2.342
 6416TIP3    H119193   2.133   6.226   2.348
 6416TIP3    H219194   2.240   6.323   2.394
 6417TIP3   OH219195   0.618   2.734   1.384
 6417TIP3    H119196   0.600   2.644   1.360
 6417TIP3    H219197   0.562   2.787   1.327
 6418TIP3   OH219198   1.944   4.206   3.179
 6418TIP3    H119199   2.021   4.166   3.139
 6418TIP3    H219200   1.953   4.188   3.273
 6419TIP3   OH219201   3.511   2.195   6.679
 6419TIP3    H119202   3.486   2.138   6.752
 6419TIP3    H219203   3.457   2.167   6.606
 6420TIP3   OH219204   4.512   1.995   0.969
 6420TIP3    H119205   4.491   2.027   1.057
 6420TIP3    H219206   4.441   1.934   0.949
 6421TIP3   OH219207   4.209   2.547   5.882
 6421TIP3    H119208   4.245   2.462   5.905
 6421TIP3    H219209   4.277   2.588   5.828
 6422TIP3   OH219210   2.493   6.125   5.374
 6422TIP3    H119211   2.477   6.105   5.466
 6422TIP3    H219212   2.543   6.051   5.342
 6423TIP3   OH219213   7.970   5.600   3.523
 6423TIP3    H119214   8.018   5.536   3.575
 6423TIP3    H219215   8.008   5.685   3.549
 6424TIP3   OH219216   3.419   5.442   6.617
 6424TIP3    H119217   3.361   5.403   6.683
 6424TIP3    H219218   3.413   5.537   6.633
 6425TIP3   OH219219   2.186   5.452   2.152
 6425TIP3    H119220   2.189   5.362   2.185
 6425TIP3    H219221   2.274   5.467   2.116
 6426TIP3   OH219222   0.719   2.006   0.108
 6426TIP3    H119223   0.625   1.990   0.103
 6426TIP3    H219224   0.737   2.016   0.202
 6427TIP3   OH219225   7.100   6.799   6.201
 6427TIP3    H119226   7.176   6.766   6.153
 6427TIP3    H219227   7.044   6.722   6.213
 6428TIP3   OH219228   3.238   5.376   3.084
 6428TIP3    H119229   3.273   5.356   3.171
 6428TIP3    H219230   3.160   5.321   3.077
 6429TIP3   OH219231   6.633   3.156   0.535
 6429TIP3    H119232   6.573   3.081   0.530
 6429TIP3    H219233   6.695   3.132   0.605
 6430TIP3   OH219234   7.835   0.513   1.549
 6430TIP3    H119235   7.780   0.453   1.599
 6430TIP3    H219236   7.773   0.573   1.508
 6431TIP3   OH219237   3.698   0.584   3.466
 6431TIP3    H119238   3.663   0.513   3.412
 6431TIP3    H219239   3.670   0.664   3.422
 6432TIP3   OH219240   6.798   4.301   3.225
 6432TIP3    H119241   6.743   4.229   3.255
 6432TIP3    H219242   6.885   4.281   3.262
 6433TIP3   OH219243   5.136   0.613   2.054
 6433TIP3    H119244   5.101   0.668   2.123
 6433TIP3    H219245   5.058   0.577   2.011
 6434TIP3   OH219246   1.670   0.972   0.085
 6434TIP3    H119247   1.610   0.984   0.012
 6434TIP3    H219248   1.653   0.883   0.116
 6435TIP3   OH219249   0.540   2.802   5.278
 6435TIP3    H119250   0.568   2.786   5.368
 6435TIP3    H219251   0.482   2.728   5.258
 6436TIP3   OH219252   5.052   2.283   2.043
 6436TIP3    H119253   5.002   2.210   2.007
 6436TIP3    H219254   5.029   2.358   1.988
 6437TIP3   OH219255   1.543   3.387   4.104
 6437TIP3    H119256   1.460   3.373   4.150
 6437TIP3    H219257   1.585   3.460   4.151
 6438TIP3   OH219258   5.499   3.550   5.758
 6438TIP3    H119259   5.524   3.503   5.837
 6438TIP3    H219260   5.496   3.482   5.690
 6439TIP3   OH219261   4.367   2.975   5.179
 6439TIP3    H119262   4.390   3.066   5.198
 6439TIP3    H219263   4.399   2.926   5.254
 6440TIP3   OH219264   6.754   3.075   5.509
 6440TIP3    H119265   6.739   3.052   5.418
 6440TIP3    H219266   6.669   3.105   5.541
 6441TIP3   OH219267   2.698   0.648   3.591
 6441TIP3    H119268   2.693   0.601   3.508
 6441TIP3    H219269   2.775   0.704   3.583
 6442TIP3   OH219270   7.477   2.579   2.699
 6442TIP3    H119271   7.501   2.637   2.771
 6442TIP3    H219272   7.529   2.500   2.713
 6443TIP3   OH219273   5.232   5.827   4.910
 6443TIP3    H119274   5.301   5.851   4.972
 6443TIP3    H219275   5.190   5.910   4.889
 6444TIP3   OH219276   7.311   6.287   0.988
 6444TIP3    H119277   7.402   6.317   0.986
 6444TIP3    H219278   7.304   6.227   0.915
 6445TIP3   OH219279   5.714   5.744   6.641
 6445TIP3    H119280   5.697   5.691   6.718
 6445TIP3    H219281   5.749   5.826   6.676
 6446TIP3   OH219282   6.596   5.964   2.041
 6446TIP3    H119283   6.636   6.048   2.019
 6446TIP3    H219284   6.635   5.940   2.125
 6447TIP3   OH219285   0.924   1.502   5.503
 6447TIP3    H119286   0.938   1.557   5.580
 6447TIP3    H219287   0.960   1.417   5.528
 6448TIP3   OH219288   7.834   6.149   3.634
 6448TIP3    H119289   7.769   6.116   3.572
 6448TIP3    H219290   7.843   6.242   3.612
 6449TIP3   OH219291   6.173   7.554   1.134
 6449TIP3    H119292   6.183   7.466   1.098
 6449TIP3    H219293   6.078   7.567   1.141
 6450TIP3   OH219294   2.650   0.281   4.724
 6450TIP3    H119295   2.692   0.350   4.776
 6450TIP3    H219296   2.717   0.214   4.715
 6451TIP3   OH219297   5.400   0.737   0.957
 6451TIP3    H119298   5.374   0.647   0.979
 6451TIP3    H219299   5.388   0.742   0.862
 6452TIP3   OH219300   5.370   0.855   2.310
 6452TIP3    H119301   5.404   0.931   2.262
 6452TIP3    H219302   5.446   0.797   2.319
 6453TIP3   OH219303   1.753   0.708   2.185
 6453TIP3    H119304   1.661   0.689   2.205
 6453TIP3    H219305   1.775   0.648   2.113
 6454TIP3   OH219306   5.893   3.621   5.145
 6454TIP3    H119307   5.882   3.528   5.123
 6454TIP3    H219308   5.966   3.622   5.207
 6455TIP3   OH219309   3.117   2.826   5.485
 6455TIP3    H119310   3.103   2.732   5.473
 6455TIP3    H219311   3.209   2.835   5.507
 6456TIP3   OH219312   2.953   7.404   6.709
 6456TIP3    H119313   2.924   7.320   6.673
 6456TIP3    H219314   3.000   7.446   6.636
 6457TIP3   OH219315   6.378   3.794   4.845
 6457TIP3    H119316   6.346   3.713   4.884
 6457TIP3    H219317   6.431   3.835   4.914
 6458TIP3   OH219318   4.787   1.168   5.149
 6458TIP3    H119319   4.779   1.073   5.136
 6458TIP3    H219320   4.706   1.204   5.112
 6459TIP3   OH219321   3.764   6.740   6.086
 6459TIP3    H119322   3.707   6.675   6.126
 6459TIP3    H219323   3.779   6.805   6.155
 6460TIP3   OH219324   8.066   1.725   6.004
 6460TIP3    H119325   8.090   1.672   6.079
 6460TIP3    H219326   8.102   1.812   6.022
 6461TIP3   OH219327   5.716   2.497   5.123
 6461TIP3    H119328   5.705   2.454   5.038
 6461TIP3    H219329   5.742   2.586   5.102
 6462TIP3   OH219330   8.136   7.424   1.970
 6462TIP3    H119331   8.222   7.443   2.008
 6462TIP3    H219332   8.110   7.341   2.009
 6463TIP3   OH219333   1.377   0.819   1.871
 6463TIP3    H119334   1.286   0.813   1.842
 6463TIP3    H219335   1.399   0.912   1.864
 6464TIP3   OH219336   6.820   3.570   1.592
 6464TIP3    H119337   6.734   3.530   1.582
 6464TIP3    H219338   6.881   3.506   1.555
 6465TIP3   OH219339   6.037   1.452   6.364
 6465TIP3    H119340   6.081   1.418   6.286
 6465TIP3    H219341   6.056   1.388   6.432
 6466TIP3   OH219342   4.715   5.930   0.464
 6466TIP3    H119343   4.788   5.880   0.426
 6466TIP3    H219344   4.657   5.946   0.390
 6467TIP3   OH219345   2.736   5.679   5.609
 6467TIP3    H119346   2.705   5.607   5.554
 6467TIP3    H219347   2.826   5.654   5.632
 6468TIP3   OH219348   4.914   5.511   6.042
 6468TIP3    H119349   5.008   5.529   6.036
 6468TIP3    H219350   4.890   5.539   6.130
 6469TIP3   OH219351   6.172   5.259   1.869
 6469TIP3    H119352   6.172   5.189   1.804
 6469TIP3    H219353   6.203   5.218   1.950
 6470TIP3   OH219354   3.064   2.710   5.805
 6470TIP3    H119355   3.062   2.681   5.896
 6470TIP3    H219356   3.009   2.789   5.804
 6471TIP3   OH219357   2.311   1.338   3.169
 6471TIP3    H119358   2.368   1.345   3.093
 6471TIP3    H219359   2.364   1.372   3.242
 6472TIP3   OH219360   1.192   1.420   5.647
 6472TIP3    H119361   1.262   1.443   5.708
 6472TIP3    H219362   1.115   1.410   5.702
 6473TIP3   OH219363   6.899   5.760   2.601
 6473TIP3    H119364   6.870   5.834   2.655
 6473TIP3    H219365   6.820   5.732   2.555
 6474TIP3   OH219366   3.985   4.210   4.676
 6474TIP3    H119367   3.988   4.166   4.591
 6474TIP3    H219368   3.983   4.303   4.655
 6475TIP3   OH219369   1.886   5.277   2.718
 6475TIP3    H119370   1.860   5.185   2.724
 6475TIP3    H219371   1.975   5.274   2.682
 6476TIP3   OH219372   5.471   4.104   1.059
 6476TIP3    H119373   5.474   4.073   1.150
 6476TIP3    H219374   5.390   4.067   1.024
 6477TIP3   OH219375   0.220   5.305   0.157
 6477TIP3    H119376   0.283   5.233   0.146
 6477TIP3    H219377   0.245   5.369   0.091
 6478TIP3   OH219378   7.163   6.288   2.843
 6478TIP3    H119379   7.153   6.383   2.849
 6478TIP3    H219380   7.255   6.271   2.862
 6479TIP3   OH219381   3.203   5.897   6.782
 6479TIP3    H119382   3.130   5.959   6.786
 6479TIP3    H219383   3.253   5.925   6.706
 6480TIP3   OH219384   3.660   1.696   2.154
 6480TIP3    H119385   3.710   1.767   2.195
 6480TIP3    H219386   3.646   1.634   2.226
 6481TIP3   OH219387   6.235   5.454   5.879
 6481TIP3    H119388   6.291   5.531   5.877
 6481TIP3    H219389   6.220   5.432   5.787
 6482TIP3   OH219390   1.968   7.146   2.655
 6482TIP3    H119391   2.055   7.106   2.657
 6482TIP3    H219392   1.945   7.158   2.747
 6483TIP3   OH219393   1.532   3.326   0.838
 6483TIP3    H119394   1.468   3.394   0.859
 6483TIP3    H219395   1.527   3.265   0.911
 6484TIP3   OH219396   1.205   2.533   3.393
 6484TIP3    H119397   1.169   2.454   3.433
 6484TIP3    H219398   1.177   2.604   3.451
 6485TIP3   OH219399   5.485   4.509   2.040
 6485TIP3    H119400   5.453   4.517   2.130
 6485TIP3    H219401   5.436   4.435   2.003
 6486TIP3   OH219402   2.908   1.793   6.382
 6486TIP3    H119403   2.892   1.760   6.470
 6486TIP3    H219404   2.842   1.749   6.328
 6487TIP3   OH219405   7.132   6.692   5.148
 6487TIP3    H119406   7.177   6.697   5.232
 6487TIP3    H219407   7.051   6.741   5.161
 6488TIP3   OH219408   3.568   3.209   6.284
 6488TIP3    H119409   3.640   3.269   6.263
 6488TIP3    H219410   3.554   3.160   6.203
 6489TIP3   OH219411   5.929   6.972   0.395
 6489TIP3    H119412   5.993   6.901   0.404
 6489TIP3    H219413   5.852   6.929   0.359
 6490TIP3   OH219414   4.338   5.151   5.823
 6490TIP3    H119415   4.256   5.124   5.781
 6490TIP3    H219416   4.383   5.069   5.843
 6491TIP3   OH219417   3.085   4.999   6.464
 6491TIP3    H119418   3.149   5.007   6.534
 6491TIP3    H219419   3.105   5.070   6.403
 6492TIP3   OH219420   3.688   5.374   0.559
 6492TIP3    H119421   3.610   5.394   0.506
 6492TIP3    H219422   3.732   5.305   0.511
 6493TIP3   OH219423   3.233   5.229   6.011
 6493TIP3    H119424   3.300   5.168   5.982
 6493TIP3    H219425   3.217   5.285   5.935
 6494TIP3   OH219426   7.777   5.909   3.751
 6494TIP3    H119427   7.830   5.864   3.817
 6494TIP3    H219428   7.821   5.993   3.738
 6495TIP3   OH219429   2.908   1.660   3.046
 6495TIP3    H119430   2.923   1.751   3.071
 6495TIP3    H219431   2.919   1.611   3.127
 6496TIP3   OH219432   3.895   5.232   0.433
 6496TIP3    H119433   3.979   5.255   0.473
 6496TIP3    H219434   3.866   5.155   0.481
 6497TIP3   OH219435   5.537   7.754   5.769
 6497TIP3    H119436   5.529   7.842   5.732
 6497TIP3    H219437   5.561   7.698   5.695
 6498TIP3   OH219438   3.526   3.257   5.222
 6498TIP3    H119439   3.552   3.349   5.227
 6498TIP3    H219440   3.433   3.258   5.244
 6499TIP3   OH219441   7.681   4.013   3.947
 6499TIP3    H119442   7.586   4.019   3.935
 6499TIP3    H219443   7.698   4.056   4.031
 6500TIP3   OH219444   6.975   6.576   4.180
 6500TIP3    H119445   6.960   6.540   4.268
 6500TIP3    H219446   7.047   6.637   4.190
 6501TIP3   OH219447   2.902   5.133   4.371
 6501TIP3    H119448   2.959   5.208   4.389
 6501TIP3    H219449   2.846   5.127   4.448
 6502TIP3   OH219450   2.225   0.517   4.308
 6502TIP3    H119451   2.233   0.600   4.355
 6502TIP3    H219452   2.145   0.478   4.343
 6503TIP3   OH219453   1.258   5.628   6.688
 6503TIP3    H119454   1.324   5.676   6.638
 6503TIP3    H219455   1.244   5.547   6.638
 6504TIP3   OH219456   3.775   3.798   3.972
 6504TIP3    H119457   3.743   3.853   3.901
 6504TIP3    H219458   3.861   3.835   3.994
 6505TIP3   OH219459   4.439   3.976   0.495
 6505TIP3    H119460   4.451   3.883   0.509
 6505TIP3    H219461   4.356   3.996   0.537
 6506TIP3   OH219462   1.541   0.254   3.718
 6506TIP3    H119463   1.617   0.199   3.740
 6506TIP3    H219464   1.574   0.344   3.724
 6507TIP3   OH219465   0.318   0.820   0.324
 6507TIP3    H119466   0.276   0.840   0.408
 6507TIP3    H219467   0.409   0.799   0.348
 6508TIP3   OH219468   2.852   5.961   3.062
 6508TIP3    H119469   2.795   6.025   3.019
 6508TIP3    H219470   2.818   5.876   3.035
 6509TIP3   OH219471   7.531   5.398   1.072
 6509TIP3    H119472   7.622   5.414   1.097
 6509TIP3    H219473   7.500   5.334   1.137
 6510TIP3   OH219474   4.661   2.638   5.798
 6510TIP3    H119475   4.604   2.592   5.737
 6510TIP3    H219476   4.660   2.586   5.878
 6511TIP3   OH219477   5.195   0.290   2.484
 6511TIP3    H119478   5.100   0.282   2.497
 6511TIP3    H219479   5.228   0.200   2.487
 6512TIP3   OH219480   5.456   5.121   2.342
 6512TIP3    H119481   5.361   5.130   2.340
 6512TIP3    H219482   5.487   5.207   2.373
 6513TIP3   OH219483   3.567   6.050   2.951
 6513TIP3    H119484   3.662   6.061   2.958
 6513TIP3    H219485   3.548   6.063   2.859
 6514TIP3   OH219486   3.135   0.152   2.279
 6514TIP3    H119487   3.105   0.243   2.273
 6514TIP3    H219488   3.119   0.116   2.192
 6515TIP3   OH219489   1.218   2.944   2.156
 6515TIP3    H119490   1.179   3.024   2.191
 6515TIP3    H219491   1.311   2.952   2.174
 6516TIP3   OH219492   5.161   0.190   2.139
 6516TIP3    H119493   5.066   0.179   2.139
 6516TIP3    H219494   5.177   0.266   2.083
 6517TIP3   OH219495   0.975   0.916   5.126
 6517TIP3    H119496   0.999   0.999   5.166
 6517TIP3    H219497   1.003   0.850   5.190
 6518TIP3   OH219498   3.436   1.605   3.511
 6518TIP3    H119499   3.411   1.688   3.472
 6518TIP3    H219500   3.380   1.597   3.588
 6519TIP3   OH219501   7.068   5.319   1.874
 6519TIP3    H119502   7.109   5.328   1.788
 6519TIP3    H219503   7.079   5.404   1.915
 6520TIP3   OH219504   1.009   1.566   4.782
 6520TIP3    H119505   1.090   1.607   4.811
 6520TIP3    H219506   0.991   1.498   4.846
 6521TIP3   OH219507   7.246   2.455   1.833
 6521TIP3    H119508   7.185   2.390   1.868
 6521TIP3    H219509   7.299   2.482   1.908
 6522TIP3   OH219510   6.218   7.490   2.132
 6522TIP3    H119511   6.237   7.454   2.219
 6522TIP3    H219512   6.261   7.429   2.071
 6523TIP3   OH219513   2.675   2.385   0.110
 6523TIP3    H119514   2.598   2.338   0.141
 6523TIP3    H219515   2.707   2.432   0.188
 6524TIP3   OH219516   1.993   6.487   6.564
 6524TIP3    H119517   2.073   6.462   6.609
 6524TIP3    H219518   1.997   6.441   6.480
 6525TIP3   OH219519   6.093   4.039   3.722
 6525TIP3    H119520   6.160   4.107   3.711
 6525TIP3    H219521   6.075   4.039   3.816
 6526TIP3   OH219522   7.503   1.367   6.333
 6526TIP3    H119523   7.578   1.408   6.290
 6526TIP3    H219524   7.529   1.276   6.346
 6527TIP3   OH219525   7.777   3.068   2.607
 6527TIP3    H119526   7.748   3.091   2.695
 6527TIP3    H219527   7.719   3.118   2.549
 6528TIP3   OH219528   6.213   5.924   4.888
 6528TIP3    H119529   6.127   5.959   4.864
 6528TIP3    H219530   6.215   5.836   4.850
 6529TIP3   OH219531   5.227   3.499   1.480
 6529TIP3    H119532   5.157   3.441   1.451
 6529TIP3    H219533   5.218   3.576   1.424
 6530TIP3   OH219534   7.514   4.114   5.833
 6530TIP3    H119535   7.464   4.180   5.787
 6530TIP3    H219536   7.583   4.163   5.877
 6531TIP3   OH219537   4.972   2.891   0.133
 6531TIP3    H119538   4.935   2.975   0.106
 6531TIP3    H219539   4.898   2.842   0.168
 6532TIP3   OH219540   2.720   1.301   1.143
 6532TIP3    H119541   2.666   1.238   1.097
 6532TIP3    H219542   2.800   1.252   1.165
 6533TIP3   OH219543   6.852   4.317   6.086
 6533TIP3    H119544   6.835   4.291   6.176
 6533TIP3    H219545   6.864   4.234   6.039
 6534TIP3   OH219546   7.182   2.663   1.304
 6534TIP3    H119547   7.207   2.741   1.255
 6534TIP3    H219548   7.253   2.649   1.366
 6535TIP3   OH219549   1.909   2.109   2.726
 6535TIP3    H119550   1.900   2.176   2.794
 6535TIP3    H219551   1.957   2.037   2.768
 6536TIP3   OH219552   5.079   2.370   5.779
 6536TIP3    H119553   5.040   2.409   5.701
 6536TIP3    H219554   5.146   2.433   5.807
 6537TIP3   OH219555   2.833   3.073   2.204
 6537TIP3    H119556   2.746   3.062   2.242
 6537TIP3    H219557   2.890   3.091   2.279
 6538TIP3   OH219558   0.198   2.493   5.776
 6538TIP3    H119559   0.121   2.520   5.726
 6538TIP3    H219560   0.228   2.413   5.731
 6539TIP3   OH219561   1.248   4.311   5.155
 6539TIP3    H119562   1.333   4.272   5.136
 6539TIP3    H219563   1.218   4.343   5.070
 6540TIP3   OH219564   0.267   5.655   6.425
 6540TIP3    H119565   0.179   5.635   6.393
 6540TIP3    H219566   0.322   5.653   6.347
 6541TIP3   OH219567   5.727   5.108   0.278
 6541TIP3    H119568   5.792   5.170   0.245
 6541TIP3    H219569   5.675   5.085   0.202
 6542TIP3   OH219570   8.076   1.290   1.082
 6542TIP3    H119571   7.987   1.314   1.108
 6542TIP3    H219572   8.066   1.240   1.001
 6543TIP3   OH219573   3.775   6.208   6.211
 6543TIP3    H119574   3.725   6.273   6.163
 6543TIP3    H219575   3.787   6.246   6.298
 6544TIP3   OH219576   6.719   5.196   4.112
 6544TIP3    H119577   6.771   5.259   4.162
 6544TIP3    H219578   6.734   5.112   4.157
 6545TIP3   OH219579   1.076   6.028   5.212
 6545TIP3    H119580   1.151   6.056   5.159
 6545TIP3    H219581   1.084   6.077   5.293
 6546TIP3   OH219582   7.759   7.340   3.803
 6546TIP3    H119583   7.758   7.251   3.840
 6546TIP3    H219584   7.820   7.388   3.859
 6547TIP3   OH219585   3.311   0.600   6.469
 6547TIP3    H119586   3.257   0.662   6.517
 6547TIP3    H219587   3.263   0.517   6.474
 6548TIP3   OH219588   4.515   1.054   5.475
 6548TIP3    H119589   4.499   1.040   5.382
 6548TIP3    H219590   4.602   1.096   5.478
 6549TIP3   OH219591   0.235   2.416   0.935
 6549TIP3    H119592   0.246   2.410   0.840
 6549TIP3    H219593   0.323   2.432   0.968
 6550TIP3   OH219594   1.474   5.221   3.129
 6550TIP3    H119595   1.479   5.156   3.199
 6550TIP3    H219596   1.541   5.195   3.066
 6551TIP3   OH219597   3.290   1.612   5.017
 6551TIP3    H119598   3.282   1.696   5.061
 6551TIP3    H219599   3.235   1.620   4.939
 6552TIP3   OH219600   6.432   2.504   0.213
 6552TIP3    H119601   6.492   2.442   0.173
 6552TIP3    H219602   6.420   2.573   0.147
 6553TIP3   OH219603   1.040   1.943   0.229
 6553TIP3    H119604   1.030   2.011   0.162
 6553TIP3    H219605   1.012   1.862   0.186
 6554TIP3   OH219606   2.510   2.351   6.488
 6554TIP3    H119607   2.584   2.333   6.431
 6554TIP3    H219608   2.471   2.431   6.452
 6555TIP3   OH219609   1.405   5.675   3.038
 6555TIP3    H119610   1.434   5.590   3.072
 6555TIP3    H219611   1.437   5.677   2.948
 6556TIP3   OH219612   1.266   2.893   5.006
 6556TIP3    H119613   1.195   2.930   5.058
 6556TIP3    H219614   1.261   2.939   4.922
 6557TIP3   OH219615   6.642   0.102   0.181
 6557TIP3    H119616   6.729   0.130   0.209
 6557TIP3    H219617   6.612   0.172   0.123
 6558TIP3   OH219618   4.432   2.356   5.379
 6558TIP3    H119619   4.349   2.395   5.406
 6558TIP3    H219620   4.416   2.324   5.290
 6559TIP3   OH219621   6.431   5.646   4.642
 6559TIP3    H119622   6.489   5.721   4.634
 6559TIP3    H219623   6.348   5.683   4.673
 6560TIP3   OH219624   6.562   1.575   1.034
 6560TIP3    H119625   6.549   1.638   0.963
 6560TIP3    H219626   6.550   1.490   0.992
 6561TIP3   OH219627   6.534   2.113   3.080
 6561TIP3    H119628   6.548   2.020   3.097
 6561TIP3    H219629   6.441   2.128   3.098
 6562TIP3   OH219630   3.842   7.626   3.040
 6562TIP3    H119631   3.839   7.534   3.067
 6562TIP3    H219632   3.935   7.649   3.043
 6563TIP3   OH219633   7.664   0.809   3.300
 6563TIP3    H119634   7.691   0.741   3.239
 6563TIP3    H219635   7.642   0.884   3.244
 6564TIP3   OH219636   5.544   0.418   3.487
 6564TIP3    H119637   5.500   0.475   3.551
 6564TIP3    H219638   5.620   0.383   3.533
 6565TIP3   OH219639   4.206   0.527   2.943
 6565TIP3    H119640   4.131   0.559   2.993
 6565TIP3    H219641   4.261   0.604   2.929
 6566TIP3   OH219642   7.688   5.449   5.590
 6566TIP3    H119643   7.683   5.490   5.676
 6566TIP3    H219644   7.611   5.482   5.543
 6567TIP3   OH219645   1.983   3.484   4.228
 6567TIP3    H119646   1.936   3.556   4.186
 6567TIP3    H219647   2.023   3.436   4.155
 6568TIP3   OH219648   6.018   0.607   2.409
 6568TIP3    H119649   5.963   0.657   2.349
 6568TIP3    H219650   6.099   0.657   2.416
 6569TIP3   OH219651   1.616   6.732   3.164
 6569TIP3    H119652   1.546   6.669   3.183
 6569TIP3    H219653   1.573   6.817   3.165
 6570TIP3   OH219654   4.231   1.876   0.999
 6570TIP3    H119655   4.220   1.781   1.007
 6570TIP3    H219656   4.227   1.909   1.088
 6571TIP3   OH219657   6.394   0.736   1.914
 6571TIP3    H119658   6.404   0.651   1.871
 6571TIP3    H219659   6.427   0.799   1.849
 6572TIP3   OH219660   4.764   2.096   1.817
 6572TIP3    H119661   4.719   2.012   1.829
 6572TIP3    H219662   4.828   2.081   1.748
 6573TIP3   OH219663   0.163   6.739   1.452
 6573TIP3    H119664   0.081   6.715   1.495
 6573TIP3    H219665   0.162   6.835   1.451
 6574TIP3   OH219666   0.233   1.778   6.097
 6574TIP3    H119667   0.248   1.714   6.027
 6574TIP3    H219668   0.145   1.812   6.079
 6575TIP3   OH219669   8.078   6.291   5.601
 6575TIP3    H119670   7.992   6.266   5.635
 6575TIP3    H219671   8.127   6.209   5.598
 6576TIP3   OH219672   1.661   2.389   4.140
 6576TIP3    H119673   1.717   2.464   4.119
 6576TIP3    H219674   1.594   2.424   4.198
 6577TIP3   OH219675   5.040   6.193   0.918
 6577TIP3    H119676   5.099   6.124   0.887
 6577TIP3    H219677   4.957   6.148   0.934
 6578TIP3   OH219678   2.202   4.842   0.668
 6578TIP3    H119679   2.202   4.857   0.763
 6578TIP3    H219680   2.139   4.906   0.634
 6579TIP3   OH219681   5.003   7.770   5.493
 6579TIP3    H119682   5.090   7.780   5.533
 6579TIP3    H219683   5.001   7.678   5.465
 6580TIP3   OH219684   3.949   2.125   1.179
 6580TIP3    H119685   3.995   2.101   1.259
 6580TIP3    H219686   3.907   2.044   1.150
 6581TIP3   OH219687   0.083   6.734   0.616
 6581TIP3    H119688   0.093   6.652   0.665
 6581TIP3    H219689   0.068   6.705   0.526
 6582TIP3   OH219690   5.841   2.353   0.275
 6582TIP3    H119691   5.819   2.261   0.291
 6582TIP3    H219692   5.903   2.350   0.203
 6583TIP3   OH219693   0.475   2.374   6.627
 6583TIP3    H119694   0.564   2.390   6.596
 6583TIP3    H219695   0.486   2.332   6.712
 6584TIP3   OH219696   0.390   7.499   5.751
 6584TIP3    H119697   0.437   7.526   5.831
 6584TIP3    H219698   0.300   7.527   5.765
 6585TIP3   OH219699   4.829   3.654   6.061
 6585TIP3    H119700   4.765   3.700   6.007
 6585TIP3    H219701   4.796   3.565   6.068
 6586TIP3   OH219702   4.648   2.691   2.682
 6586TIP3    H119703   4.733   2.709   2.722
 6586TIP3    H219704   4.599   2.642   2.748
 6587TIP3   OH219705   6.343   5.110   1.110
 6587TIP3    H119706   6.428   5.078   1.141
 6587TIP3    H219707   6.365   5.188   1.059
 6588TIP3   OH219708   2.944   3.546   0.358
 6588TIP3    H119709   3.014   3.595   0.401
 6588TIP3    H219710   2.922   3.599   0.281
 6589TIP3   OH219711   3.139   2.524   5.286
 6589TIP3    H119712   3.107   2.524   5.377
 6589TIP3    H219713   3.092   2.452   5.244
 6590TIP3   OH219714   1.449   3.739   5.285
 6590TIP3    H119715   1.428   3.819   5.335
 6590TIP3    H219716   1.413   3.756   5.198
 6591TIP3   OH219717   2.091   6.977   5.918
 6591TIP3    H119718   2.018   7.024   5.957
 6591TIP3    H219719   2.140   7.044   5.870
 6592TIP3   OH219720   0.421   7.396   2.364
 6592TIP3    H119721   0.491   7.336   2.388
 6592TIP3    H219722   0.350   7.340   2.332
 6593TIP3   OH219723   4.040   4.092   4.948
 6593TIP3    H119724   3.957   4.045   4.947
 6593TIP3    H219725   4.041   4.143   4.868
 6594TIP3   OH219726   7.612   7.667   2.276
 6594TIP3    H119727   7.651   7.724   2.342
 6594TIP3    H219728   7.534   7.631   2.319
 6595TIP3   OH219729   3.888   0.281   2.226
 6595TIP3    H119730   3.882   0.290   2.321
 6595TIP3    H219731   3.964   0.225   2.212
 6596TIP3   OH219732   7.652   2.134   1.177
 6596TIP3    H119733   7.573   2.187   1.185
 6596TIP3    H219734   7.620   2.044   1.166
 6597TIP3   OH219735   5.729   0.096   6.734
 6597TIP3    H119736   5.783   0.033   6.783
 6597TIP3    H219737   5.679   0.142   6.802
 6598TIP3   OH219738   6.859   0.569   2.598
 6598TIP3    H119739   6.795   0.555   2.529
 6598TIP3    H219740   6.899   0.484   2.612
 6599TIP3   OH219741   2.231   3.707   6.599
 6599TIP3    H119742   2.277   3.760   6.534
 6599TIP3    H219743   2.147   3.686   6.558
 6600TIP3   OH219744   1.553   3.068   0.984
 6600TIP3    H119745   1.637   3.112   0.998
 6600TIP3    H219746   1.566   3.019   0.903
 6601TIP3   OH219747   5.646   4.796   4.047
 6601TIP3    H119748   5.692   4.876   4.073
 6601TIP3    H219749   5.645   4.799   3.952
 6602TIP3   OH219750   7.549   5.779   6.711
 6602TIP3    H119751   7.573   5.757   6.801
 6602TIP3    H219752   7.623   5.832   6.679
 6603TIP3   OH219753   0.528   0.851   2.134
 6603TIP3    H119754   0.533   0.897   2.218
 6603TIP3    H219755   0.611   0.870   2.091
 6604TIP3   OH219756   6.550   3.233   4.450
 6604TIP3    H119757   6.524   3.319   4.483
 6604TIP3    H219758   6.631   3.213   4.496
 6605TIP3   OH219759   4.436   1.096   0.971
 6605TIP3    H119760   4.483   1.172   1.005
 6605TIP3    H219761   4.402   1.051   1.048
 6606TIP3   OH219762   1.742   6.231   2.964
 6606TIP3    H119763   1.678   6.224   2.894
 6606TIP3    H219764   1.719   6.311   3.011
 6607TIP3   OH219765   7.685   2.923   3.969
 6607TIP3    H119766   7.699   2.859   4.039
 6607TIP3    H219767   7.730   2.887   3.893
 6608TIP3   OH219768   3.573   0.069   2.358
 6608TIP3    H119769   3.499   0.128   2.370
 6608TIP3    H219770   3.535  -0.019   2.359
 6609TIP3   OH219771   6.089   5.975   3.513
 6609TIP3    H119772   6.183   5.991   3.502
 6609TIP3    H219773   6.073   5.993   3.606
 6610TIP3   OH219774   3.545   2.306   1.741
 6610TIP3    H119775   3.627   2.351   1.761
 6610TIP3    H219776   3.548   2.225   1.792
 6611TIP3   OH219777   7.819   1.584   0.383
 6611TIP3    H119778   7.743   1.526   0.380
 6611TIP3    H219779   7.783   1.672   0.377
 6612TIP3   OH219780   7.630   3.816   2.689
 6612TIP3    H119781   7.541   3.840   2.712
 6612TIP3    H219782   7.683   3.891   2.715
 6613TIP3   OH219783   1.761   7.575   6.051
 6613TIP3    H119784   1.722   7.594   5.966
 6613TIP3    H219785   1.736   7.485   6.070
 6614TIP3   OH219786   5.846   0.086   3.191
 6614TIP3    H119787   5.857   0.072   3.097
 6614TIP3    H219788   5.874   0.176   3.205
 6615TIP3   OH219789   5.513   5.949   0.686
 6615TIP3    H119790   5.459   5.951   0.765
 6615TIP3    H219791   5.594   5.994   0.711
 6616TIP3   OH219792   7.523   0.931   5.950
 6616TIP3    H119793   7.493   1.019   5.928
 6616TIP3    H219794   7.532   0.933   6.046
 6617TIP3   OH219795   3.559   2.884   0.023
 6617TIP3    H119796   3.480   2.938   0.012
 6617TIP3    H219797   3.624   2.944   0.059
 6618TIP3   OH219798   6.880   2.780   5.439
 6618TIP3    H119799   6.795   2.821   5.450
 6618TIP3    H219800   6.931   2.809   5.515
 6619TIP3   OH219801   1.307   4.159   4.171
 6619TIP3    H119802   1.294   4.199   4.257
 6619TIP3    H219803   1.222   4.121   4.149
 6620TIP3   OH219804   3.910   5.835   1.067
 6620TIP3    H119805   3.966   5.757   1.068
 6620TIP3    H219806   3.958   5.899   1.120
 6621TIP3   OH219807   1.629   3.466   6.585
 6621TIP3    H119808   1.635   3.399   6.516
 6621TIP3    H219809   1.545   3.450   6.626
 6622TIP3   OH219810   1.173   7.214   3.787
 6622TIP3    H119811   1.182   7.255   3.873
 6622TIP3    H219812   1.079   7.214   3.770
 6623TIP3   OH219813   4.298   0.000   0.357
 6623TIP3    H119814   4.241   0.038   0.424
 6623TIP3    H219815   4.286   0.057   0.280
 6624TIP3   OH219816   7.860   2.123   2.234
 6624TIP3    H119817   7.812   2.198   2.198
 6624TIP3    H219818   7.793   2.068   2.274
 6625TIP3   OH219819   3.131   6.745   5.941
 6625TIP3    H119820   3.054   6.706   5.980
 6625TIP3    H219821   3.148   6.692   5.863
 6626TIP3   OH219822   3.802   1.923   2.251
 6626TIP3    H119823   3.792   1.880   2.336
 6626TIP3    H219824   3.726   1.981   2.244
 6627TIP3   OH219825   6.072   6.687   1.553
 6627TIP3    H119826   5.997   6.721   1.602
 6627TIP3    H219827   6.103   6.613   1.605
 6628TIP3   OH219828   7.671   2.480   1.918
 6628TIP3    H119829   7.582   2.445   1.920
 6628TIP3    H219830   7.670   2.542   1.845
 6629TIP3   OH219831   4.120   4.776   4.291
 6629TIP3    H119832   4.170   4.815   4.220
 6629TIP3    H219833   4.142   4.683   4.287
 6630TIP3   OH219834   0.557   2.769   6.680
 6630TIP3    H119835   0.636   2.719   6.701
 6630TIP3    H219836   0.527   2.804   6.765
 6631TIP3   OH219837   6.816   5.451   0.635
 6631TIP3    H119838   6.911   5.456   0.642
 6631TIP3    H219839   6.788   5.540   0.614
 6632TIP3   OH219840   2.955   0.523   1.828
 6632TIP3    H119841   2.894   0.474   1.773
 6632TIP3    H219842   2.970   0.605   1.780
 6633TIP3   OH219843   1.934   1.940   0.483
 6633TIP3    H119844   1.943   1.878   0.410
 6633TIP3    H219845   1.979   1.898   0.556
 6634TIP3   OH219846   2.410   0.453   1.712
 6634TIP3    H119847   2.465   0.509   1.767
 6634TIP3    H219848   2.385   0.381   1.769
 6635TIP3   OH219849   7.219   7.288   3.943
 6635TIP3    H119850   7.152   7.340   3.899
 6635TIP3    H219851   7.179   7.263   4.026
 6636TIP3   OH219852   3.442   0.864   5.637
 6636TIP3    H119853   3.507   0.813   5.686
 6636TIP3    H219854   3.359   0.818   5.651
 6637TIP3   OH219855   1.211   4.578   1.500
 6637TIP3    H119856   1.177   4.645   1.560
 6637TIP3    H219857   1.179   4.604   1.414
 6638TIP3   OH219858   6.399   1.217   0.190
 6638TIP3    H119859   6.306   1.210   0.213
 6638TIP3    H219860   6.404   1.297   0.137
 6639TIP3   OH219861   3.592   3.963   2.256
 6639TIP3    H119862   3.566   3.889   2.201
 6639TIP3    H219863   3.686   3.973   2.241
 6640TIP3   OH219864   0.715   7.781   0.718
 6640TIP3    H119865   0.682   7.862   0.680
 6640TIP3    H219866   0.678   7.712   0.662
 6641TIP3   OH219867   0.295   2.235   5.636
 6641TIP3    H119868   0.338   2.275   5.560
 6641TIP3    H219869   0.344   2.155   5.652
 6642TIP3   OH219870   4.634   0.192   1.123
 6642TIP3    H119871   4.667   0.108   1.090
 6642TIP3    H219872   4.558   0.211   1.068
 6643TIP3   OH219873   7.255   7.573   1.336
 6643TIP3    H119874   7.249   7.606   1.425
 6643TIP3    H219875   7.203   7.493   1.336
 6644TIP3   OH219876   3.388   1.082   6.229
 6644TIP3    H119877   3.375   1.018   6.299
 6644TIP3    H219878   3.306   1.081   6.181
 6645TIP3   OH219879   0.960   2.760   0.709
 6645TIP3    H119880   0.991   2.842   0.670
 6645TIP3    H219881   1.040   2.711   0.728
 6646TIP3   OH219882   4.320   5.394   4.535
 6646TIP3    H119883   4.237   5.439   4.553
 6646TIP3    H219884   4.381   5.431   4.599
 6647TIP3   OH219885   4.573   2.303   3.865
 6647TIP3    H119886   4.641   2.361   3.831
 6647TIP3    H219887   4.576   2.316   3.960
 6648TIP3   OH219888   0.819   2.026   3.809
 6648TIP3    H119889   0.729   2.054   3.828
 6648TIP3    H219890   0.863   2.107   3.781
 6649TIP3   OH219891   0.695   3.002   5.825
 6649TIP3    H119892   0.699   3.051   5.743
 6649TIP3    H219893   0.747   3.054   5.886
 6650TIP3   OH219894   0.185   6.006   4.644
 6650TIP3    H119895   0.203   5.912   4.632
 6650TIP3    H219896   0.194   6.044   4.557
 6651TIP3   OH219897   2.192   7.303   1.704
 6651TIP3    H119898   2.257   7.367   1.732
 6651TIP3    H219899   2.162   7.262   1.786
 6652TIP3   OH219900   3.663   7.814   0.368
 6652TIP3    H119901   3.748   7.814   0.324
 6652TIP3    H219902   3.672   7.751   0.439
 6653TIP3   OH219903   8.216   3.406   2.258
 6653TIP3    H119904   8.130   3.443   2.236
 6653TIP3    H219905   8.202   3.366   2.344
 6654TIP3   OH219906   7.036   7.381   4.967
 6654TIP3    H119907   6.980   7.316   5.010
 6654TIP3    H219908   6.992   7.465   4.983
 6655TIP3   OH219909   4.466   5.477   1.036
 6655TIP3    H119910   4.523   5.542   1.078
 6655TIP3    H219911   4.512   5.453   0.956
 6656TIP3   OH219912   1.840   5.254   3.780
 6656TIP3    H119913   1.759   5.270   3.732
 6656TIP3    H219914   1.818   5.182   3.840
 6657TIP3   OH219915   1.994   5.523   2.558
 6657TIP3    H119916   2.019   5.590   2.622
 6657TIP3    H219917   2.031   5.442   2.591
 6658TIP3   OH219918   7.927   5.775   0.291
 6658TIP3    H119919   7.852   5.716   0.286
 6658TIP3    H219920   7.932   5.815   0.204
 6659TIP3   OH219921   3.420   1.914   5.573
 6659TIP3    H119922   3.424   1.823   5.542
 6659TIP3    H219923   3.479   1.915   5.649
 6660TIP3   OH219924   0.327   3.703   6.308
 6660TIP3    H119925   0.234   3.690   6.289
 6660TIP3    H219926   0.339   3.798   6.307
 6661TIP3   OH219927   4.413   3.260   2.778
 6661TIP3    H119928   4.506   3.260   2.801
 6661TIP3    H219929   4.386   3.169   2.789
 6662TIP3   OH219930   3.049   4.569   3.669
 6662TIP3    H119931   3.030   4.509   3.598
 6662TIP3    H219932   2.989   4.643   3.654
 6663TIP3   OH219933   3.439   2.983   0.361
 6663TIP3    H119934   3.452   2.904   0.309
 6663TIP3    H219935   3.351   3.013   0.338
 6664TIP3   OH219936   0.082   2.362   2.034
 6664TIP3    H119937   0.097   2.454   2.013
 6664TIP3    H219938   0.170   2.325   2.040
 6665TIP3   OH219939   6.917   6.250   3.349
 6665TIP3    H119940   7.009   6.241   3.326
 6665TIP3    H219941   6.880   6.163   3.334
 6666TIP3   OH219942   0.846   4.458   6.508
 6666TIP3    H119943   0.887   4.512   6.440
 6666TIP3    H219944   0.862   4.368   6.480
 6667TIP3   OH219945   1.446   1.185   3.618
 6667TIP3    H119946   1.452   1.267   3.570
 6667TIP3    H219947   1.427   1.119   3.552
 6668TIP3   OH219948   2.068   6.609   4.898
 6668TIP3    H119949   2.163   6.601   4.908
 6668TIP3    H219950   2.055   6.635   4.807
 6669TIP3   OH219951   2.171   6.871   0.439
 6669TIP3    H119952   2.191   6.815   0.365
 6669TIP3    H219953   2.151   6.956   0.401
 6670TIP3   OH219954   1.411   6.987   5.042
 6670TIP3    H119955   1.357   6.909   5.054
 6670TIP3    H219956   1.357   7.046   4.989
 6671TIP3   OH219957   7.128   1.167   2.225
 6671TIP3    H119958   7.155   1.257   2.208
 6671TIP3    H219959   7.149   1.153   2.318
 6672TIP3   OH219960   0.024   2.142   4.247
 6672TIP3    H119961   0.008   2.189   4.165
 6672TIP3    H219962  -0.026   2.190   4.313
 6673TIP3   OH219963   5.706   4.023   6.123
 6673TIP3    H119964   5.699   3.973   6.042
 6673TIP3    H219965   5.761   3.969   6.180
 6674TIP3   OH219966   2.855   7.635   2.335
 6674TIP3    H119967   2.940   7.618   2.293
 6674TIP3    H219968   2.876   7.644   2.428
 6675TIP3   OH219969   2.213   7.656   5.217
 6675TIP3    H119970   2.205   7.658   5.313
 6675TIP3    H219971   2.270   7.581   5.200
 6676TIP3   OH219972   7.616   2.254   6.313
 6676TIP3    H119973   7.663   2.263   6.396
 6676TIP3    H219974   7.681   2.218   6.253
 6677TIP3   OH219975   7.229   5.465   6.320
 6677TIP3    H119976   7.177   5.512   6.254
 6677TIP3    H219977   7.224   5.519   6.398
 6678TIP3   OH219978   0.754   0.665   5.167
 6678TIP3    H119979   0.716   0.630   5.087
 6678TIP3    H219980   0.783   0.754   5.144
 6679TIP3   OH219981   7.249   3.062   1.981
 6679TIP3    H119982   7.226   3.135   1.923
 6679TIP3    H219983   7.316   3.013   1.933
 6680TIP3   OH219984   4.456   3.251   5.236
 6680TIP3    H119985   4.411   3.327   5.200
 6680TIP3    H219986   4.530   3.237   5.178
 6681TIP3   OH219987   4.913   3.664   4.920
 6681TIP3    H119988   4.878   3.686   4.833
 6681TIP3    H219989   5.002   3.698   4.919
 6682TIP3   OH219990   5.397   1.468   4.212
 6682TIP3    H119991   5.394   1.453   4.117
 6682TIP3    H219992   5.476   1.520   4.226
 6683TIP3   OH219993   8.070   0.771   3.343
 6683TIP3    H119994   8.018   0.851   3.353
 6683TIP3    H219995   8.012   0.701   3.371
 6684TIP3   OH219996   3.779   5.568   4.060
 6684TIP3    H119997   3.827   5.519   3.993
 6684TIP3    H219998   3.689   5.537   4.052
 6685TIP3   OH219999   2.415   3.971   1.736
 6685TIP3    H120000   2.374   4.058   1.735
 6685TIP3    H220001   2.462   3.967   1.819
 6686TIP3   OH220002   4.639   0.211   4.630
 6686TIP3    H120003   4.618   0.136   4.686
 6686TIP3    H220004   4.734   0.222   4.641
 6687TIP3   OH220005   4.170   7.497   1.935
 6687TIP3    H120006   4.154   7.420   1.990
 6687TIP3    H220007   4.244   7.542   1.976
 6688TIP3   OH220008   4.134   1.766   1.461
 6688TIP3    H120009   4.095   1.680   1.477
 6688TIP3    H220010   4.059   1.826   1.457
 6689TIP3   OH220011   6.580   2.105   4.622
 6689TIP3    H120012   6.591   2.124   4.529
 6689TIP3    H220013   6.498   2.147   4.646
 6690TIP3   OH220014   3.381   0.432   2.230
 6690TIP3    H120015   3.317   0.403   2.295
 6690TIP3    H220016   3.331   0.440   2.149
 6691TIP3   OH220017   7.615   0.358   2.453
 6691TIP3    H120018   7.671   0.290   2.416
 6691TIP3    H220019   7.659   0.440   2.430
 6692TIP3   OH220020   5.442   0.371   1.717
 6692TIP3    H120021   5.363   0.320   1.703
 6692TIP3    H220022   5.419   0.460   1.690
 6693TIP3   OH220023   6.426   6.337   4.034
 6693TIP3    H120024   6.413   6.314   4.126
 6693TIP3    H220025   6.520   6.354   4.026
 6694TIP3   OH220026   6.408   5.959   6.510
 6694TIP3    H120027   6.484   5.900   6.504
 6694TIP3    H220028   6.418   6.018   6.435
 6695TIP3   OH220029   0.789   0.804   5.398
 6695TIP3    H120030   0.879   0.773   5.412
 6695TIP3    H220031   0.753   0.743   5.334
 6696TIP3   OH220032   3.706   5.990   5.349
 6696TIP3    H120033   3.776   5.951   5.296
 6696TIP3    H220034   3.693   5.927   5.421
 6697TIP3   OH220035   6.922   5.756   1.777
 6697TIP3    H120036   6.833   5.747   1.742
 6697TIP3    H220037   6.930   5.849   1.799
 6698TIP3   OH220038   7.503   5.335   0.037
 6698TIP3    H120039   7.582   5.282   0.048
 6698TIP3    H220040   7.495   5.383   0.120
 6699TIP3   OH220041   1.684   3.715   6.739
 6699TIP3    H120042   1.689   3.622   6.716
 6699TIP3    H220043   1.684   3.715   6.835
 6700TIP3   OH220044   0.271   5.219   0.870
 6700TIP3    H120045   0.222   5.137   0.865
 6700TIP3    H220046   0.218   5.282   0.822
 6701TIP3   OH220047   0.792   4.881   3.430
 6701TIP3    H120048   0.730   4.947   3.460
 6701TIP3    H220049   0.750   4.798   3.449
 6702TIP3   OH220050   2.691   0.109   1.765
 6702TIP3    H120051   2.597   0.125   1.767
 6702TIP3    H220052   2.704   0.036   1.826
 6703TIP3   OH220053   0.667   1.838   1.465
 6703TIP3    H120054   0.653   1.885   1.547
 6703TIP3    H220055   0.642   1.747   1.485
 6704TIP3   OH220056   1.410   4.812   0.588
 6704TIP3    H120057   1.433   4.729   0.547
 6704TIP3    H220058   1.393   4.872   0.515
 6705TIP3   OH220059   6.179   6.973   5.770
 6705TIP3    H120060   6.088   6.956   5.795
 6705TIP3    H220061   6.177   6.972   5.674
 6706TIP3   OH220062   7.928   4.143   2.470
 6706TIP3    H120063   8.021   4.164   2.476
 6706TIP3    H220064   7.924   4.065   2.415
 6707TIP3   OH220065   3.469   1.432   1.881
 6707TIP3    H120066   3.453   1.444   1.975
 6707TIP3    H220067   3.391   1.468   1.838
 6708TIP3   OH220068   6.237   7.174   4.979
 6708TIP3    H120069   6.216   7.205   4.891
 6708TIP3    H220070   6.153   7.146   5.016
 6709TIP3   OH220071   5.571   6.691   0.935
 6709TIP3    H120072   5.536   6.778   0.915
 6709TIP3    H220073   5.637   6.707   1.003
 6710TIP3   OH220074   8.163   5.665   0.191
 6710TIP3    H120075   8.244   5.704   0.224
 6710TIP3    H220076   8.093   5.713   0.234
 6711TIP3   OH220077   3.603   1.227   2.769
 6711TIP3    H120078   3.680   1.284   2.772
 6711TIP3    H220079   3.617   1.171   2.692
 6712TIP3   OH220080   3.906   1.871   1.075
 6712TIP3    H120081   3.904   1.818   1.155
 6712TIP3    H220082   3.816   1.865   1.041
 6713TIP3   OH220083   6.196   0.035   0.213
 6713TIP3    H120084   6.156   0.117   0.242
 6713TIP3    H220085   6.268   0.021   0.274
 6714TIP3   OH220086   6.679   1.355   4.734
 6714TIP3    H120087   6.702   1.329   4.645
 6714TIP3    H220088   6.635   1.279   4.770
 6715TIP3   OH220089   2.650   4.550   6.666
 6715TIP3    H120090   2.599   4.472   6.647
 6715TIP3    H220091   2.740   4.519   6.673
 6716TIP3   OH220092   5.972   1.129   3.022
 6716TIP3    H120093   6.012   1.188   2.958
 6716TIP3    H220094   6.027   1.051   3.020
 6717TIP3   OH220095   6.052   0.758   4.406
 6717TIP3    H120096   6.069   0.851   4.396
 6717TIP3    H220097   6.045   0.744   4.500
 6718TIP3   OH220098   8.088   1.434   4.150
 6718TIP3    H120099   8.150   1.494   4.191
 6718TIP3    H220100   8.075   1.469   4.062
 6719TIP3   OH220101   6.139   6.044   2.990
 6719TIP3    H120102   6.199   5.973   3.013
 6719TIP3    H220103   6.161   6.114   3.051
 6720TIP3   OH220104   0.685   3.703   4.794
 6720TIP3    H120105   0.769   3.744   4.779
 6720TIP3    H220106   0.627   3.738   4.727
 6721TIP3   OH220107   1.431   1.444   5.840
 6721TIP3    H120108   1.490   1.486   5.903
 6721TIP3    H220109   1.439   1.350   5.859
 6722TIP3   OH220110   3.890   5.844   4.048
 6722TIP3    H120111   3.984   5.826   4.040
 6722TIP3    H220112   3.851   5.759   4.064
 6723TIP3   OH220113   4.336   6.032   3.407
 6723TIP3    H120114   4.398   6.034   3.335
 6723TIP3    H220115   4.253   6.062   3.369
 6724TIP3   OH220116   4.347   6.174   6.164
 6724TIP3    H120117   4.338   6.111   6.236
 6724TIP3    H220118   4.294   6.138   6.093
 6725TIP3   OH220119   1.169   6.426   2.915
 6725TIP3    H120120   1.191   6.518   2.931
 6725TIP3    H220121   1.112   6.428   2.838
 6726TIP3   OH220122   4.625   0.675   6.083
 6726TIP3    H120123   4.561   0.702   6.017
 6726TIP3    H220124   4.700   0.733   6.070
 6727TIP3   OH220125   7.705   1.577   5.142
 6727TIP3    H120126   7.771   1.517   5.175
 6727TIP3    H220127   7.675   1.538   5.060
 6728TIP3   OH220128   8.278   0.507   6.079
 6728TIP3    H120129   8.326   0.550   6.149
 6728TIP3    H220130   8.260   0.576   6.016
 6729TIP3   OH220131   7.775   7.329   2.020
 6729TIP3    H120132   7.848   7.389   2.038
 6729TIP3    H220133   7.790   7.301   1.930
 6730TIP3   OH220134   3.947   3.403   0.920
 6730TIP3    H120135   3.991   3.443   0.845
 6730TIP3    H220136   3.957   3.467   0.991
 6731TIP3   OH220137   7.430   5.901   1.288
 6731TIP3    H120138   7.468   5.902   1.376
 6731TIP3    H220139   7.373   5.824   1.287
 6732TIP3   OH220140   6.586   3.219   6.290
 6732TIP3    H120141   6.673   3.258   6.285
 6732TIP3    H220142   6.528   3.285   6.252
 6733TIP3   OH220143   2.084   1.775   0.776
 6733TIP3    H120144   2.117   1.716   0.708
 6733TIP3    H220145   1.996   1.743   0.795
 6734TIP3   OH220146   3.392   7.284   5.593
 6734TIP3    H120147   3.424   7.205   5.637
 6734TIP3    H220148   3.464   7.312   5.537
 6735TIP3   OH220149   1.341   2.510   5.887
 6735TIP3    H120150   1.341   2.581   5.821
 6735TIP3    H220151   1.262   2.525   5.938
 6736TIP3   OH220152   5.853   2.151   1.198
 6736TIP3    H120153   5.766   2.163   1.160
 6736TIP3    H220154   5.842   2.168   1.291
 6737TIP3   OH220155   1.849   4.309   2.757
 6737TIP3    H120156   1.918   4.244   2.771
 6737TIP3    H220157   1.863   4.339   2.667
 6738TIP3   OH220158   8.201   6.978   5.803
 6738TIP3    H120159   8.291   6.981   5.836
 6738TIP3    H220160   8.206   6.922   5.726
 6739TIP3   OH220161   2.317   2.892   2.865
 6739TIP3    H120162   2.264   2.955   2.817
 6739TIP3    H220163   2.399   2.938   2.882
 6740TIP3   OH220164   3.156   2.516   4.831
 6740TIP3    H120165   3.206   2.558   4.901
 6740TIP3    H220166   3.151   2.583   4.762
 6741TIP3   OH220167   1.389   3.711   1.997
 6741TIP3    H120168   1.435   3.698   1.914
 6741TIP3    H220169   1.319   3.772   1.976
 6742TIP3   OH220170   3.755   1.229   3.814
 6742TIP3    H120171   3.717   1.147   3.845
 6742TIP3    H220172   3.707   1.249   3.734
 6743TIP3   OH220173   1.681   4.504   1.120
 6743TIP3    H120174   1.657   4.595   1.137
 6743TIP3    H220175   1.743   4.482   1.190
 6744TIP3   OH220176   6.861   7.071   0.878
 6744TIP3    H120177   6.903   7.151   0.909
 6744TIP3    H220178   6.805   7.044   0.951
 6745TIP3   OH220179   1.968   3.980   6.429
 6745TIP3    H120180   1.948   3.934   6.511
 6745TIP3    H220181   2.016   4.058   6.458
 6746TIP3   OH220182   4.008   5.807   1.368
 6746TIP3    H120183   4.029   5.714   1.354
 6746TIP3    H220184   3.913   5.811   1.359
 6747TIP3   OH220185   6.959   5.638   6.235
 6747TIP3    H120186   6.899   5.573   6.198
 6747TIP3    H220187   7.013   5.666   6.160
 6748TIP3   OH220188   8.149   3.371   5.854
 6748TIP3    H120189   8.243   3.379   5.870
 6748TIP3    H220190   8.111   3.448   5.896
 6749TIP3   OH220191   3.977   2.378   3.108
 6749TIP3    H120192   4.022   2.450   3.152
 6749TIP3    H220193   4.015   2.299   3.147
 6750TIP3   OH220194   4.907   2.143   3.953
 6750TIP3    H120195   4.936   2.052   3.959
 6750TIP3    H220196   4.838   2.151   4.019
 6751TIP3   OH220197   5.154   4.753   1.440
 6751TIP3    H120198   5.089   4.695   1.479
 6751TIP3    H220199   5.169   4.821   1.506
 6752TIP3   OH220200   3.323   0.707   0.348
 6752TIP3    H120201   3.260   0.730   0.280
 6752TIP3    H220202   3.291   0.752   0.426
 6753TIP3   OH220203   5.610   6.784   5.588
 6753TIP3    H120204   5.580   6.697   5.560
 6753TIP3    H220205   5.590   6.841   5.514
 6754TIP3   OH220206   3.851   0.231  -0.009
 6754TIP3    H120207   3.845   0.149   0.039
 6754TIP3    H220208   3.926   0.277   0.031
 6755TIP3   OH220209   7.312   1.582   2.392
 6755TIP3    H120210   7.261   1.663   2.388
 6755TIP3    H220211   7.265   1.527   2.455
 6756TIP3   OH220212   5.581   1.194   2.452
 6756TIP3    H120213   5.577   1.158   2.364
 6756TIP3    H220214   5.607   1.120   2.507
 6757TIP3   OH220215   4.019   4.906   1.835
 6757TIP3    H120216   4.085   4.930   1.770
 6757TIP3    H220217   4.042   4.816   1.860
 6758TIP3   OH220218   3.469   0.227   3.943
 6758TIP3    H120219   3.406   0.272   3.998
 6758TIP3    H220220   3.419   0.201   3.866
 6759TIP3   OH220221   3.221   7.642   1.706
 6759TIP3    H120222   3.209   7.701   1.631
 6759TIP3    H220223   3.141   7.651   1.757
 6760TIP3   OH220224   5.762   3.149   3.439
 6760TIP3    H120225   5.775   3.138   3.533
 6760TIP3    H220226   5.800   3.234   3.419
 6761TIP3   OH220227   3.987   4.152   5.825
 6761TIP3    H120228   4.013   4.193   5.907
 6761TIP3    H220229   4.066   4.154   5.771
 6762TIP3   OH220230   4.698   2.369   6.581
 6762TIP3    H120231   4.765   2.304   6.603
 6762TIP3    H220232   4.746   2.444   6.547
 6763TIP3   OH220233   8.199   5.744   1.211
 6763TIP3    H120234   8.165   5.782   1.292
 6763TIP3    H220235   8.125   5.747   1.150
 6764TIP3   OH220236   0.952   6.934   4.911
 6764TIP3    H120237   0.974   6.858   4.857
 6764TIP3    H220238   0.884   6.979   4.861
 6765TIP3   OH220239   7.471   3.103   0.181
 6765TIP3    H120240   7.532   3.169   0.214
 6765TIP3    H220241   7.523   3.024   0.171
 6766TIP3   OH220242   5.213   6.175   5.593
 6766TIP3    H120243   5.259   6.099   5.558
 6766TIP3    H220244   5.271   6.210   5.660
 6767TIP3   OH220245   0.324   6.008   2.856
 6767TIP3    H120246   0.229   5.999   2.863
 6767TIP3    H220247   0.339   6.025   2.763
 6768TIP3   OH220248   3.212   4.708   2.174
 6768TIP3    H120249   3.195   4.801   2.186
 6768TIP3    H220250   3.143   4.678   2.115
 6769TIP3   OH220251   3.548   3.336   6.651
 6769TIP3    H120252   3.495   3.399   6.601
 6769TIP3    H220253   3.529   3.357   6.742
 6770TIP3   OH220254   1.593   2.296   2.626
 6770TIP3    H120255   1.576   2.263   2.538
 6770TIP3    H220256   1.674   2.346   2.617
 6771TIP3   OH220257   6.947   7.722   5.503
 6771TIP3    H120258   6.877   7.725   5.568
 6771TIP3    H220259   6.977   7.632   5.505
 6772TIP3   OH220260   4.283   1.892   1.263
 6772TIP3    H120261   4.377   1.878   1.274
 6772TIP3    H220262   4.242   1.837   1.329
 6773TIP3   OH220263   4.421   2.449   3.465
 6773TIP3    H120264   4.441   2.543   3.468
 6773TIP3    H220265   4.365   2.434   3.541
 6774TIP3   OH220266   2.497   5.674   2.810
 6774TIP3    H120267   2.477   5.611   2.879
 6774TIP3    H220268   2.527   5.622   2.737
 6775TIP3   OH220269   4.070   5.716   2.056
 6775TIP3    H120270   4.033   5.764   1.982
 6775TIP3    H220271   4.165   5.732   2.050
 6776TIP3   OH220272   6.798   6.638   6.594
 6776TIP3    H120273   6.801   6.692   6.672
 6776TIP3    H220274   6.705   6.621   6.581
 6777TIP3   OH220275   2.322   6.836   3.761
 6777TIP3    H120276   2.290   6.873   3.844
 6777TIP3    H220277   2.263   6.872   3.695
 6778TIP3   OH220278   5.821   6.912   2.152
 6778TIP3    H120279   5.725   6.904   2.153
 6778TIP3    H220280   5.851   6.849   2.216
 6779TIP3   OH220281   1.977   5.599   6.284
 6779TIP3    H120282   1.930   5.610   6.366
 6779TIP3    H220283   1.922   5.644   6.219
 6780TIP3   OH220284   0.743   0.641   3.587
 6780TIP3    H120285   0.685   0.665   3.515
 6780TIP3    H220286   0.686   0.635   3.663
 6781TIP3   OH220287   4.608   6.641   2.896
 6781TIP3    H120288   4.699   6.612   2.890
 6781TIP3    H220289   4.603   6.686   2.981
 6782TIP3   OH220290   6.097   6.338   0.764
 6782TIP3    H120291   6.091   6.382   0.849
 6782TIP3    H220292   6.124   6.407   0.703
 6783TIP3   OH220293   5.042   0.568   3.533
 6783TIP3    H120294   5.001   0.504   3.476
 6783TIP3    H220295   5.040   0.528   3.620
 6784TIP3   OH220296   5.897   5.412   1.920
 6784TIP3    H120297   5.921   5.326   1.886
 6784TIP3    H220298   5.871   5.462   1.842
 6785TIP3   OH220299   6.836   4.581   3.504
 6785TIP3    H120300   6.866   4.662   3.546
 6785TIP3    H220301   6.915   4.527   3.499
 6786TIP3   OH220302   0.981   0.473   3.510
 6786TIP3    H120303   0.991   0.494   3.417
 6786TIP3    H220304   0.903   0.521   3.537
 6787TIP3   OH220305   6.535   0.871   5.895
 6787TIP3    H120306   6.492   0.948   5.859
 6787TIP3    H220307   6.498   0.862   5.983
 6788TIP3   OH220308   3.739   0.499   5.267
 6788TIP3    H120309   3.821   0.524   5.310
 6788TIP3    H220310   3.756   0.511   5.173
 6789TIP3   OH220311   2.296   6.319   1.885
 6789TIP3    H120312   2.305   6.346   1.977
 6789TIP3    H220313   2.214   6.359   1.856
 6790TIP3   OH220314   8.168   3.278   2.499
 6790TIP3    H120315   8.182   3.185   2.519
 6790TIP3    H220316   8.078   3.294   2.525
 6791TIP3   OH220317   4.675   7.041   6.471
 6791TIP3    H120318   4.619   6.975   6.512
 6791TIP3    H220319   4.641   7.049   6.382
 6792TIP3   OH220320   3.592   5.241   2.216
 6792TIP3    H120321   3.672   5.208   2.174
 6792TIP3    H220322   3.624   5.301   2.284
 6793TIP3   OH220323   2.190   3.581   3.202
 6793TIP3    H120324   2.209   3.579   3.296
 6793TIP3    H220325   2.146   3.498   3.185
 6794TIP3   OH220326   3.858   2.691   3.000
 6794TIP3    H120327   3.779   2.637   3.005
 6794TIP3    H220328   3.923   2.644   3.052
 6795TIP3   OH220329   2.351   4.021   0.225
 6795TIP3    H120330   2.258   4.000   0.216
 6795TIP3    H220331   2.384   4.021   0.135
 6796TIP3   OH220332   0.030   4.025   3.204
 6796TIP3    H120333   0.058   4.108   3.243
 6796TIP3    H220334   0.105   3.998   3.151
 6797TIP3   OH220335   3.988   4.964   6.200
 6797TIP3    H120336   3.988   5.023   6.125
 6797TIP3    H220337   3.931   5.007   6.264
 6798TIP3   OH220338   2.241   0.405   3.056
 6798TIP3    H120339   2.331   0.374   3.049
 6798TIP3    H220340   2.213   0.378   3.143
 6799TIP3   OH220341   2.803   7.524   6.387
 6799TIP3    H120342   2.842   7.598   6.434
 6799TIP3    H220343   2.792   7.555   6.297
 6800TIP3   OH220344   0.861   3.616   2.254
 6800TIP3    H120345   0.823   3.635   2.168
 6800TIP3    H220346   0.818   3.678   2.313
 6801TIP3   OH220347   5.492   6.851   3.144
 6801TIP3    H120348   5.581   6.837   3.176
 6801TIP3    H220349   5.498   6.845   3.049
 6802TIP3   OH220350   2.458   5.777   5.600
 6802TIP3    H120351   2.547   5.743   5.606
 6802TIP3    H220352   2.469   5.871   5.582
 6803TIP3   OH220353   5.851   2.578   5.789
 6803TIP3    H120354   5.943   2.602   5.793
 6803TIP3    H220355   5.828   2.585   5.697
 6804TIP3   OH220356   5.815   7.251   5.089
 6804TIP3    H120357   5.756   7.180   5.115
 6804TIP3    H220358   5.763   7.331   5.102
 6805TIP3   OH220359   5.018   1.108   0.517
 6805TIP3    H120360   5.027   1.191   0.471
 6805TIP3    H220361   4.927   1.106   0.548
 6806TIP3   OH220362   1.966   1.161   6.463
 6806TIP3    H120363   2.047   1.211   6.472
 6806TIP3    H220364   1.970   1.095   6.533
 6807TIP3   OH220365   0.710   6.278   3.752
 6807TIP3    H120366   0.797   6.310   3.728
 6807TIP3    H220367   0.710   6.186   3.726
 6808TIP3   OH220368   4.083   4.554   6.508
 6808TIP3    H120369   4.068   4.473   6.557
 6808TIP3    H220370   4.173   4.579   6.529
 6809TIP3   OH220371   2.993   7.018   2.200
 6809TIP3    H120372   2.994   7.028   2.105
 6809TIP3    H220373   2.911   7.058   2.228
 6810TIP3   OH220374   3.876   2.544   4.286
 6810TIP3    H120375   3.908   2.608   4.350
 6810TIP3    H220376   3.792   2.580   4.256
 6811TIP3   OH220377   6.478   2.477   5.937
 6811TIP3    H120378   6.560   2.462   5.983
 6811TIP3    H220379   6.471   2.572   5.930
 6812TIP3   OH220380   7.366   0.700   3.700
 6812TIP3    H120381   7.354   0.773   3.639
 6812TIP3    H220382   7.278   0.664   3.713
 6813TIP3   OH220383   2.940   0.545   1.329
 6813TIP3    H120384   2.856   0.538   1.374
 6813TIP3    H220385   2.952   0.639   1.316
 6814TIP3   OH220386   0.193   7.646   4.298
 6814TIP3    H120387   0.215   7.553   4.290
 6814TIP3    H220388   0.103   7.648   4.329
 6815TIP3   OH220389   1.712   0.788   2.710
 6815TIP3    H120390   1.727   0.729   2.783
 6815TIP3    H220391   1.759   0.868   2.734
 6816TIP3   OH220392   2.472   5.150   1.163
 6816TIP3    H120393   2.553   5.184   1.201
 6816TIP3    H220394   2.501   5.085   1.099
 6817TIP3   OH220395   3.007   4.897   4.104
 6817TIP3    H120396   2.915   4.880   4.124
 6817TIP3    H220397   3.032   4.825   4.046
 6818TIP3   OH220398   6.323   2.791   3.858
 6818TIP3    H120399   6.251   2.828   3.909
 6818TIP3    H220400   6.393   2.777   3.922
 6819TIP3   OH220401   5.055   3.632   2.694
 6819TIP3    H120402   5.017   3.547   2.716
 6819TIP3    H220403   5.014   3.657   2.612
 6820TIP3   OH220404   6.650   4.777   2.792
 6820TIP3    H120405   6.648   4.751   2.884
 6820TIP3    H220406   6.650   4.694   2.744
 6821TIP3   OH220407   6.167   0.547   0.293
 6821TIP3    H120408   6.245   0.566   0.240
 6821TIP3    H220409   6.099   0.604   0.257
 6822TIP3   OH220410   4.786   4.344   3.722
 6822TIP3    H120411   4.864   4.301   3.689
 6822TIP3    H220412   4.750   4.391   3.646
 6823TIP3   OH220413   1.679   3.794   0.902
 6823TIP3    H120414   1.678   3.888   0.886
 6823TIP3    H220415   1.617   3.758   0.839
 6824TIP3   OH220416   7.720   6.385   1.374
 6824TIP3    H120417   7.650   6.447   1.392
 6824TIP3    H220418   7.721   6.327   1.450
 6825TIP3   OH220419   0.936   4.299   1.237
 6825TIP3    H120420   0.918   4.257   1.322
 6825TIP3    H220421   1.020   4.263   1.209
 6826TIP3   OH220422   0.166   2.206   1.799
 6826TIP3    H120423   0.220   2.221   1.721
 6826TIP3    H220424   0.214   2.249   1.870
 6827TIP3   OH220425   6.742   6.436   2.684
 6827TIP3    H120426   6.834   6.437   2.657
 6827TIP3    H220427   6.744   6.447   2.779
 6828TIP3   OH220428   5.786   5.349   5.576
 6828TIP3    H120429   5.865   5.312   5.613
 6828TIP3    H220430   5.764   5.293   5.502
 6829TIP3   OH220431   0.313   1.479   0.983
 6829TIP3    H120432   0.344   1.457   0.895
 6829TIP3    H220433   0.218   1.474   0.976
 6830TIP3   OH220434   3.374   0.017   2.932
 6830TIP3    H120435   3.355   0.101   2.972
 6830TIP3    H220436   3.331   0.022   2.846
 6831TIP3   OH220437   3.570   3.999   3.911
 6831TIP3    H120438   3.532   3.940   3.976
 6831TIP3    H220439   3.541   4.086   3.939
 6832TIP3   OH220440   5.894   6.969   4.349
 6832TIP3    H120441   5.988   6.985   4.347
 6832TIP3    H220442   5.880   6.913   4.425
 6833TIP3   OH220443   2.960   3.239   0.878
 6833TIP3    H120444   2.943   3.332   0.871
 6833TIP3    H220445   3.034   3.223   0.819
 6834TIP3   OH220446   0.884   7.719   5.104
 6834TIP3    H120447   0.790   7.734   5.116
 6834TIP3    H220448   0.890   7.659   5.030
 6835TIP3   OH220449   5.541   1.939   3.575
 6835TIP3    H120450   5.602   1.865   3.583
 6835TIP3    H220451   5.597   2.016   3.583
 6836TIP3   OH220452   6.234   3.176   6.714
 6836TIP3    H120453   6.282   3.201   6.793
 6836TIP3    H220454   6.295   3.195   6.643
 6837TIP3   OH220455   3.901   5.384   1.450
 6837TIP3    H120456   3.930   5.347   1.533
 6837TIP3    H220457   3.883   5.308   1.395
 6838TIP3   OH220458   5.469   5.437   4.688
 6838TIP3    H120459   5.494   5.527   4.667
 6838TIP3    H220460   5.483   5.429   4.782
 6839TIP3   OH220461   0.652   1.221   2.984
 6839TIP3    H120462   0.678   1.313   2.995
 6839TIP3    H220463   0.565   1.226   2.943
 6840TIP3   OH220464   5.185   0.726   2.707
 6840TIP3    H120465   5.190   0.683   2.622
 6840TIP3    H220466   5.228   0.666   2.767
 6841TIP3   OH220467   2.105   4.477   4.331
 6841TIP3    H120468   2.158   4.498   4.255
 6841TIP3    H220469   2.076   4.562   4.365
 6842TIP3   OH220470   3.033   0.938   3.253
 6842TIP3    H120471   3.109   0.962   3.306
 6842TIP3    H220472   2.969   1.007   3.271
 6843TIP3   OH220473   2.929   4.983   2.630
 6843TIP3    H120474   2.918   4.937   2.546
 6843TIP3    H220475   3.018   4.963   2.657
 6844TIP3   OH220476   6.976   1.685   2.311
 6844TIP3    H120477   7.002   1.620   2.376
 6844TIP3    H220478   7.021   1.765   2.338
 6845TIP3   OH220479   2.767   6.852   1.507
 6845TIP3    H120480   2.763   6.933   1.559
 6845TIP3    H220481   2.676   6.822   1.502
 6846TIP3   OH220482   1.607   4.029   0.171
 6846TIP3    H120483   1.683   4.043   0.115
 6846TIP3    H220484   1.550   4.104   0.154
 6847TIP3   OH220485   1.953   7.055   3.509
 6847TIP3    H120486   2.028   6.996   3.498
 6847TIP3    H220487   1.975   7.107   3.586
 6848TIP3   OH220488   0.554   5.500   0.951
 6848TIP3    H120489   0.517   5.445   1.020
 6848TIP3    H220490   0.552   5.589   0.987
 6849TIP3   OH220491   6.394   0.130   0.026
 6849TIP3    H120492   6.440   0.054  -0.009
 6849TIP3    H220493   6.314   0.094   0.063
 6850TIP3   OH220494   7.485   6.779   4.729
 6850TIP3    H120495   7.473   6.836   4.653
 6850TIP3    H220496   7.428   6.704   4.712
 6851TIP3   OH220497   6.332   5.241   2.338
 6851TIP3    H120498   6.307   5.169   2.397
 6851TIP3    H220499   6.317   5.206   2.251
 6852TIP3   OH220500   1.169   0.065   0.179
 6852TIP3    H120501   1.088   0.024   0.210
 6852TIP3    H220502   1.141   0.128   0.113
 6853TIP3   OH220503   0.534   5.031   3.740
 6853TIP3    H120504   0.502   5.099   3.798
 6853TIP3    H220505   0.615   5.001   3.781
 6854TIP3   OH220506   7.450   6.340   4.382
 6854TIP3    H120507   7.489   6.266   4.336
 6854TIP3    H220508   7.505   6.415   4.357
 6855TIP3   OH220509   6.340   6.575   6.599
 6855TIP3    H120510   6.333   6.659   6.645
 6855TIP3    H220511   6.253   6.535   6.610
 6856TIP3   OH220512   4.894   0.093   4.780
 6856TIP3    H120513   4.943   0.112   4.860
 6856TIP3    H220514   4.812   0.053   4.810
 6857TIP3   OH220515   3.285   7.221   3.551
 6857TIP3    H120516   3.204   7.169   3.553
 6857TIP3    H220517   3.350   7.164   3.593
 6858TIP3   OH220518   8.009   0.335   5.833
 6858TIP3    H120519   8.040   0.397   5.766
 6858TIP3    H220520   7.921   0.310   5.803
 6859TIP3   OH220521   1.190   1.252   3.280
 6859TIP3    H120522   1.281   1.223   3.276
 6859TIP3    H220523   1.178   1.283   3.369
 6860TIP3   OH220524   0.404   2.367   4.735
 6860TIP3    H120525   0.411   2.348   4.642
 6860TIP3    H220526   0.360   2.452   4.739
 6861TIP3   OH220527   3.436   7.211   6.625
 6861TIP3    H120528   3.434   7.261   6.544
 6861TIP3    H220529   3.404   7.272   6.692
 6862TIP3   OH220530   2.609   5.655   0.758
 6862TIP3    H120531   2.618   5.744   0.726
 6862TIP3    H220532   2.625   5.661   0.852
 6863TIP3   OH220533   6.232   3.987   5.570
 6863TIP3    H120534   6.159   3.942   5.611
 6863TIP3    H220535   6.219   4.079   5.591
 6864TIP3   OH220536   7.152   2.279   3.777
 6864TIP3    H120537   7.215   2.227   3.828
 6864TIP3    H220538   7.181   2.369   3.787
 6865TIP3   OH220539   7.923   2.016   1.885
 6865TIP3    H120540   8.001   1.964   1.866
 6865TIP3    H220541   7.956   2.090   1.936
 6866TIP3   OH220542   3.278   1.052   0.044
 6866TIP3    H120543   3.301   0.965   0.012
 6866TIP3    H220544   3.240   1.096  -0.032
 6867TIP3   OH220545   4.233   5.047   3.425
 6867TIP3    H120546   4.150   4.999   3.423
 6867TIP3    H220547   4.211   5.133   3.387
 6868TIP3   OH220548   0.677   0.983   3.800
 6868TIP3    H120549   0.661   0.906   3.745
 6868TIP3    H220550   0.590   1.013   3.825
 6869TIP3   OH220551   5.206   1.561   2.394
 6869TIP3    H120552   5.183   1.489   2.335
 6869TIP3    H220553   5.123   1.583   2.437
 6870TIP3   OH220554   6.188   2.442   2.744
 6870TIP3    H120555   6.148   2.411   2.825
 6870TIP3    H220556   6.254   2.376   2.723
 6871TIP3   OH220557   6.167   2.258   2.949
 6871TIP3    H120558   6.156   2.186   3.012
 6871TIP3    H220559   6.237   2.228   2.891
 6872TIP3   OH220560   7.316   2.845   4.947
 6872TIP3    H120561   7.260   2.806   4.880
 6872TIP3    H220562   7.307   2.787   5.023
 6873TIP3   OH220563   2.015   7.445   3.595
 6873TIP3    H120564   2.057   7.398   3.523
 6873TIP3    H220565   2.084   7.500   3.632
 6874TIP3   OH220566   7.592   6.485   2.844
 6874TIP3    H120567   7.554   6.424   2.907
 6874TIP3    H220568   7.528   6.491   2.773
 6875TIP3   OH220569   7.426   7.664   5.490
 6875TIP3    H120570   7.509   7.675   5.444
 6875TIP3    H220571   7.422   7.570   5.508
 6876TIP3   OH220572   0.614   4.849   4.757
 6876TIP3    H120573   0.601   4.794   4.680
 6876TIP3    H220574   0.550   4.920   4.746
 6877TIP3   OH220575   5.084   4.586   2.862
 6877TIP3    H120576   5.172   4.621   2.853
 6877TIP3    H220577   5.090   4.496   2.831
 6878TIP3   OH220578   6.349   2.001   2.663
 6878TIP3    H120579   6.356   1.979   2.570
 6878TIP3    H220580   6.261   1.973   2.687
 6879TIP3   OH220581   0.015   0.227   4.057
 6879TIP3    H120582   0.110   0.241   4.054
 6879TIP3    H220583  -0.021   0.313   4.077
 6880TIP3   OH220584   5.818   4.091   5.471
 6880TIP3    H120585   5.865   4.163   5.514
 6880TIP3    H220586   5.776   4.044   5.543
 6881TIP3   OH220587   6.186   6.481   3.359
 6881TIP3    H120588   6.181   6.390   3.331
 6881TIP3    H220589   6.265   6.486   3.414
 6882TIP3   OH220590   2.898   0.277   6.719
 6882TIP3    H120591   2.943   0.206   6.672
 6882TIP3    H220592   2.880   0.240   6.806
 6883TIP3   OH220593   6.486   4.455   1.486
 6883TIP3    H120594   6.459   4.376   1.532
 6883TIP3    H220595   6.508   4.425   1.397
 6884TIP3   OH220596   3.551   1.669   2.652
 6884TIP3    H120597   3.528   1.750   2.606
 6884TIP3    H220598   3.505   1.600   2.605
 6885TIP3   OH220599   3.584   3.532   1.962
 6885TIP3    H120600   3.637   3.471   2.014
 6885TIP3    H220601   3.505   3.482   1.939
 6886TIP3   OH220602   0.977   2.498   2.033
 6886TIP3    H120603   0.944   2.587   2.026
 6886TIP3    H220604   1.008   2.476   1.945
 6887TIP3   OH220605   2.247   2.822   1.448
 6887TIP3    H120606   2.315   2.887   1.435
 6887TIP3    H220607   2.278   2.768   1.521
 6888TIP3   OH220608   3.393   4.469   3.678
 6888TIP3    H120609   3.328   4.450   3.745
 6888TIP3    H220610   3.409   4.563   3.685
 6889TIP3   OH220611   0.476   7.524   0.855
 6889TIP3    H120612   0.527   7.558   0.928
 6889TIP3    H220613   0.442   7.601   0.810
 6890TIP3   OH220614   6.251   1.934   1.030
 6890TIP3    H120615   6.230   1.847   0.998
 6890TIP3    H220616   6.341   1.950   1.000
 6891TIP3   OH220617   1.977   1.669   5.696
 6891TIP3    H120618   2.014   1.737   5.753
 6891TIP3    H220619   1.978   1.708   5.608
 6892TIP3   OH220620   2.460   3.539   6.571
 6892TIP3    H120621   2.466   3.589   6.490
 6892TIP3    H220622   2.481   3.603   6.640
 6893TIP3   OH220623   5.881   0.785   1.984
 6893TIP3    H120624   5.794   0.776   1.946
 6893TIP3    H220625   5.915   0.696   1.986
 6894TIP3   OH220626   7.370   2.099   2.810
 6894TIP3    H120627   7.463   2.078   2.802
 6894TIP3    H220628   7.349   2.080   2.901
 6895TIP3   OH220629   1.001   5.414   3.953
 6895TIP3    H120630   1.086   5.374   3.934
 6895TIP3    H220631   0.938   5.359   3.905
 6896TIP3   OH220632   6.119   5.324   5.606
 6896TIP3    H120633   6.184   5.254   5.609
 6896TIP3    H220634   6.147   5.382   5.535
 6897TIP3   OH220635   8.021   1.390   0.292
 6897TIP3    H120636   7.976   1.460   0.244
 6897TIP3    H220637   8.095   1.367   0.236
 6898TIP3   OH220638   4.006   3.360   4.835
 6898TIP3    H120639   3.996   3.284   4.778
 6898TIP3    H220640   3.917   3.380   4.864
 6899TIP3   OH220641   7.032   0.231   6.688
 6899TIP3    H120642   7.125   0.237   6.666
 6899TIP3    H220643   7.025   0.274   6.774
 6900TIP3   OH220644   7.647   2.131   2.935
 6900TIP3    H120645   7.578   2.142   3.001
 6900TIP3    H220646   7.718   2.186   2.967
 6901TIP3   OH220647   0.136   4.131   4.169
 6901TIP3    H120648   0.045   4.150   4.143
 6901TIP3    H220649   0.180   4.215   4.165
 6902TIP3   OH220650   2.661   0.862   4.788
 6902TIP3    H120651   2.595   0.796   4.810
 6902TIP3    H220652   2.656   0.925   4.859
 6903TIP3   OH220653   4.938   2.840   5.160
 6903TIP3    H120654   4.997   2.883   5.097
 6903TIP3    H220655   4.851   2.871   5.135
 6904TIP3   OH220656   1.797   2.683   6.685
 6904TIP3    H120657   1.743   2.656   6.611
 6904TIP3    H220658   1.843   2.604   6.712
 6905TIP3   OH220659   3.061   5.985   0.021
 6905TIP3    H120660   3.125   5.965   0.090
 6905TIP3    H220661   3.107   5.963  -0.061
 6906TIP3   OH220662   3.683   5.407   5.240
 6906TIP3    H120663   3.631   5.415   5.320
 6906TIP3    H220664   3.773   5.420   5.269
 6907TIP3   OH220665   3.861   0.526   4.682
 6907TIP3    H120666   3.943   0.562   4.648
 6907TIP3    H220667   3.836   0.585   4.752
 6908TIP3   OH220668   5.947   4.854   4.210
 6908TIP3    H120669   5.910   4.852   4.299
 6908TIP3    H220670   6.030   4.807   4.218
 6909TIP3   OH220671   0.228   4.532   0.140
 6909TIP3    H120672   0.218   4.534   0.045
 6909TIP3    H220673   0.238   4.624   0.165
 6910TIP3   OH220674   4.174   1.028   6.418
 6910TIP3    H120675   4.269   1.016   6.410
 6910TIP3    H220676   4.138   0.939   6.417
 6911TIP3   OH220677   6.677   3.494   0.710
 6911TIP3    H120678   6.750   3.476   0.650
 6911TIP3    H220679   6.717   3.499   0.797
 6912TIP3   OH220680   3.974   7.770   3.384
 6912TIP3    H120681   3.974   7.709   3.458
 6912TIP3    H220682   3.885   7.802   3.379
 6913TIP3   OH220683   0.590   1.893   5.358
 6913TIP3    H120684   0.577   1.938   5.441
 6913TIP3    H220685   0.621   1.960   5.298
 6914TIP3   OH220686   4.943   4.726   5.992
 6914TIP3    H120687   4.986   4.641   5.991
 6914TIP3    H220688   4.994   4.780   5.932
 6915TIP3   OH220689   0.992   3.498   4.859
 6915TIP3    H120690   1.048   3.428   4.892
 6915TIP3    H220691   0.994   3.565   4.927
 6916TIP3   OH220692   3.693   5.751   2.431
 6916TIP3    H120693   3.689   5.780   2.340
 6916TIP3    H220694   3.723   5.660   2.424
 6917TIP3   OH220695   1.051   0.744   5.332
 6917TIP3    H120696   1.048   0.676   5.398
 6917TIP3    H220697   1.074   0.699   5.251
 6918TIP3   OH220698   5.355   0.260   2.741
 6918TIP3    H120699   5.439   0.229   2.706
 6918TIP3    H220700   5.313   0.304   2.667
 6919TIP3   OH220701   5.154   6.756   6.015
 6919TIP3    H120702   5.179   6.670   5.983
 6919TIP3    H220703   5.160   6.813   5.938
 6920TIP3   OH220704   0.934   4.194   6.467
 6920TIP3    H120705   0.888   4.121   6.508
 6920TIP3    H220706   1.027   4.170   6.471
 6921TIP3   OH220707   4.180   5.709   3.208
 6921TIP3    H120708   4.097   5.752   3.187
 6921TIP3    H220709   4.159   5.615   3.206
 6922TIP3   OH220710   2.598   0.114   6.104
 6922TIP3    H120711   2.635   0.188   6.057
 6922TIP3    H220712   2.649   0.109   6.185
 6923TIP3   OH220713   3.081   3.933   2.802
 6923TIP3    H120714   3.125   3.857   2.764
 6923TIP3    H220715   3.008   3.950   2.743
 6924TIP3   OH220716   0.798   1.504   4.396
 6924TIP3    H120717   0.752   1.434   4.350
 6924TIP3    H220718   0.889   1.476   4.399
 6925TIP3   OH220719   1.905   1.132   1.127
 6925TIP3    H120720   1.884   1.042   1.151
 6925TIP3    H220721   1.940   1.171   1.207
 6926TIP3   OH220722   7.646   3.516   2.871
 6926TIP3    H120723   7.592   3.584   2.829
 6926TIP3    H220724   7.587   3.474   2.933
 6927TIP3   OH220725   6.758   6.106   6.365
 6927TIP3    H120726   6.808   6.184   6.338
 6927TIP3    H220727   6.687   6.141   6.418
 6928TIP3   OH220728   2.431   3.829   5.132
 6928TIP3    H120729   2.505   3.867   5.085
 6928TIP3    H220730   2.354   3.852   5.080
 6929TIP3   OH220731   4.322   3.865   2.203
 6929TIP3    H120732   4.294   3.920   2.129
 6929TIP3    H220733   4.248   3.867   2.263
 6930TIP3   OH220734   6.442   6.597   2.893
 6930TIP3    H120735   6.427   6.634   2.806
 6930TIP3    H220736   6.396   6.513   2.891
 6931TIP3   OH220737   8.153   5.764   6.181
 6931TIP3    H120738   8.192   5.828   6.240
 6931TIP3    H220739   8.061   5.762   6.205
 6932TIP3   OH220740   0.827   2.859   0.932
 6932TIP3    H120741   0.775   2.932   0.965
 6932TIP3    H220742   0.771   2.817   0.866
 6933TIP3   OH220743   4.911   1.469   5.259
 6933TIP3    H120744   4.945   1.422   5.183
 6933TIP3    H220745   4.975   1.537   5.276
 6934TIP3   OH220746   8.132   3.922   1.761
 6934TIP3    H120747   8.198   3.963   1.817
 6934TIP3    H220748   8.096   3.994   1.709
 6935TIP3   OH220749   3.840   5.625   1.553
 6935TIP3    H120750   3.885   5.600   1.633
 6935TIP3    H220751   3.852   5.551   1.493
 6936TIP3   OH220752   1.668   2.953   3.739
 6936TIP3    H120753   1.586   3.003   3.735
 6936TIP3    H220754   1.717   2.982   3.662
 6937TIP3   OH220755   2.265   3.820   5.955
 6937TIP3    H120756   2.249   3.887   6.021
 6937TIP3    H220757   2.359   3.827   5.936
 6938TIP3   OH220758   4.324   4.275   4.482
 6938TIP3    H120759   4.345   4.309   4.570
 6938TIP3    H220760   4.316   4.181   4.494
 6939TIP3   OH220761   7.528   1.857   6.405
 6939TIP3    H120762   7.527   1.903   6.489
 6939TIP3    H220763   7.437   1.834   6.389
 6940TIP3   OH220764   0.713   7.050   6.189
 6940TIP3    H120765   0.718   6.969   6.240
 6940TIP3    H220766   0.653   7.029   6.117
 6941TIP3   OH220767   3.067   4.246   5.021
 6941TIP3    H120768   3.055   4.200   4.938
 6941TIP3    H220769   3.142   4.304   5.006
 6942TIP3   OH220770   3.070   1.834   6.143
 6942TIP3    H120771   3.043   1.787   6.222
 6942TIP3    H220772   3.102   1.918   6.175
 6943TIP3   OH220773   1.971   6.828   5.334
 6943TIP3    H120774   2.008   6.820   5.422
 6943TIP3    H220775   1.937   6.741   5.314
 6944TIP3   OH220776   7.039   2.508   4.115
 6944TIP3    H120777   6.945   2.506   4.098
 6944TIP3    H220778   7.076   2.452   4.047
 6945TIP3   OH220779   0.704   5.282   5.649
 6945TIP3    H120780   0.634   5.347   5.648
 6945TIP3    H220781   0.687   5.229   5.727
 6946TIP3   OH220782   5.497   5.603   3.408
 6946TIP3    H120783   5.525   5.554   3.485
 6946TIP3    H220784   5.401   5.600   3.412
 6947TIP3   OH220785   2.223   6.462   2.121
 6947TIP3    H120786   2.178   6.542   2.151
 6947TIP3    H220787   2.297   6.452   2.182
 6948TIP3   OH220788   6.733   2.219   3.611
 6948TIP3    H120789   6.655   2.273   3.603
 6948TIP3    H220790   6.769   2.215   3.523
 6949TIP3   OH220791   2.989   0.080   1.886
 6949TIP3    H120792   3.061   0.053   1.830
 6949TIP3    H220793   2.910   0.048   1.842
 6950TIP3   OH220794   3.389   0.067   6.080
 6950TIP3    H120795   3.403   0.128   6.152
 6950TIP3    H220796   3.448  -0.006   6.098
 6951TIP3   OH220797   6.901   7.774   3.016
 6951TIP3    H120798   6.980   7.739   3.055
 6951TIP3    H220799   6.928   7.806   2.930
 6952TIP3   OH220800   7.244   2.605   2.100
 6952TIP3    H120801   7.287   2.525   2.130
 6952TIP3    H220802   7.188   2.631   2.173
 6953TIP3   OH220803   0.710   5.247   1.960
 6953TIP3    H120804   0.633   5.217   2.009
 6953TIP3    H220805   0.673   5.284   1.880
 6954TIP3   OH220806   1.350   6.617   3.535
 6954TIP3    H120807   1.314   6.638   3.449
 6954TIP3    H220808   1.344   6.522   3.542
 6955TIP3   OH220809   7.437   4.528   5.860
 6955TIP3    H120810   7.463   4.538   5.951
 6955TIP3    H220811   7.387   4.607   5.840
 6956TIP3   OH220812   6.243   2.523   1.055
 6956TIP3    H120813   6.299   2.598   1.072
 6956TIP3    H220814   6.262   2.462   1.127
 6957TIP3   OH220815   6.605   2.786   0.445
 6957TIP3    H120816   6.593   2.696   0.477
 6957TIP3    H220817   6.549   2.839   0.503
 6958TIP3   OH220818   1.191   1.388   3.054
 6958TIP3    H120819   1.144   1.314   3.014
 6958TIP3    H220820   1.225   1.353   3.136
 6959TIP3   OH220821   2.841   2.067   6.340
 6959TIP3    H120822   2.844   2.103   6.428
 6959TIP3    H220823   2.841   1.972   6.352
 6960TIP3   OH220824   7.401   2.873   2.359
 6960TIP3    H120825   7.345   2.848   2.432
 6960TIP3    H220826   7.486   2.892   2.398
 6961TIP3   OH220827   0.903   6.883   3.393
 6961TIP3    H120828   0.889   6.815   3.328
 6961TIP3    H220829   0.854   6.958   3.360
 6962TIP3   OH220830   5.469   0.218   5.744
 6962TIP3    H120831   5.461   0.152   5.675
 6962TIP3    H220832   5.378   0.234   5.772
 6963TIP3   OH220833   4.868   2.667   3.029
 6963TIP3    H120834   4.929   2.594   3.038
 6963TIP3    H220835   4.872   2.691   2.936
 6964TIP3   OH220836   0.892   6.271   1.888
 6964TIP3    H120837   0.956   6.295   1.822
 6964TIP3    H220838   0.944   6.245   1.964
 6965TIP3   OH220839   4.311   0.073   5.202
 6965TIP3    H120840   4.317  -0.014   5.163
 6965TIP3    H220841   4.370   0.069   5.278
 6966TIP3   OH220842   4.422   4.375   5.254
 6966TIP3    H120843   4.434   4.441   5.185
 6966TIP3    H220844   4.480   4.404   5.325
 6967TIP3   OH220845   0.260   4.476   2.734
 6967TIP3    H120846   0.349   4.512   2.728
 6967TIP3    H220847   0.247   4.430   2.651
 6968TIP3   OH220848   4.983   4.077   5.027
 6968TIP3    H120849   5.018   4.160   5.059
 6968TIP3    H220850   4.888   4.086   5.036
 6969TIP3   OH220851   0.782   3.927   1.197
 6969TIP3    H120852   0.741   3.920   1.111
 6969TIP3    H220853   0.758   4.014   1.228
 6970TIP3   OH220854   7.432   5.645   3.657
 6970TIP3    H120855   7.507   5.703   3.648
 6970TIP3    H220856   7.401   5.660   3.746
 6971TIP3   OH220857   7.032   6.871   4.347
 6971TIP3    H120858   7.069   6.831   4.269
 6971TIP3    H220859   7.090   6.945   4.366
 6972TIP3   OH220860   1.377   4.453   0.956
 6972TIP3    H120861   1.295   4.491   0.987
 6972TIP3    H220862   1.443   4.487   1.017
 6973TIP3   OH220863   2.117   2.177   1.475
 6973TIP3    H120864   2.073   2.135   1.549
 6973TIP3    H220865   2.175   2.109   1.440
 6974TIP3   OH220866   6.893   3.292   2.404
 6974TIP3    H120867   6.925   3.332   2.485
 6974TIP3    H220868   6.842   3.361   2.362
 6975TIP3   OH220869   0.266   1.087   3.081
 6975TIP3    H120870   0.281   1.039   3.000
 6975TIP3    H220871   0.225   1.023   3.139
 6976TIP3   OH220872   2.190   0.087   2.911
 6976TIP3    H120873   2.206  -0.001   2.876
 6976TIP3    H220874   2.252   0.143   2.865
 6977TIP3   OH220875   5.321   7.494   5.485
 6977TIP3    H120876   5.375   7.570   5.464
 6977TIP3    H220877   5.304   7.501   5.579
 6978TIP3   OH220878   4.261   6.375   1.194
 6978TIP3    H120879   4.282   6.286   1.168
 6978TIP3    H220880   4.168   6.372   1.218
 6979TIP3   OH220881   6.904   0.610   1.555
 6979TIP3    H120882   6.962   0.658   1.495
 6979TIP3    H220883   6.950   0.528   1.572
 6980TIP3   OH220884   4.099   3.311   2.003
 6980TIP3    H120885   4.183   3.336   1.965
 6980TIP3    H220886   4.099   3.215   2.000
 6981TIP3   OH220887   5.197   1.349   5.588
 6981TIP3    H120888   5.243   1.345   5.504
 6981TIP3    H220889   5.133   1.419   5.576
 6982TIP3   OH220890   5.830   0.521   1.877
 6982TIP3    H120891   5.907   0.467   1.865
 6982TIP3    H220892   5.804   0.547   1.788
 6983TIP3   OH220893   1.760   2.877   0.364
 6983TIP3    H120894   1.734   2.924   0.443
 6983TIP3    H220895   1.773   2.787   0.393
 6984TIP3   OH220896   7.142   3.942   4.393
 6984TIP3    H120897   7.210   3.942   4.325
 6984TIP3    H220898   7.123   3.849   4.407
 6985TIP3   OH220899   5.239   0.557   4.828
 6985TIP3    H120900   5.322   0.552   4.875
 6985TIP3    H220901   5.232   0.649   4.801
 6986TIP3   OH220902   1.840   3.872   0.070
 6986TIP3    H120903   1.833   3.834  -0.018
 6986TIP3    H220904   1.763   3.839   0.116
 6987TIP3   OH220905   5.436   7.237   0.844
 6987TIP3    H120906   5.518   7.246   0.891
 6987TIP3    H220907   5.433   7.313   0.786
 6988TIP3   OH220908   4.725   1.536   1.041
 6988TIP3    H120909   4.712   1.625   1.073
 6988TIP3    H220910   4.793   1.500   1.097
 6989TIP3   OH220911   0.747   3.372   4.757
 6989TIP3    H120912   0.835   3.406   4.773
 6989TIP3    H220913   0.693   3.450   4.744
 6990TIP3   OH220914   6.880   2.766   2.069
 6990TIP3    H120915   6.955   2.817   2.096
 6990TIP3    H220916   6.854   2.803   1.984
 6991TIP3   OH220917   4.102   5.390   4.003
 6991TIP3    H120918   4.070   5.454   3.939
 6991TIP3    H220919   4.145   5.323   3.950
 6992TIP3   OH220920   6.367   1.104   0.520
 6992TIP3    H120921   6.278   1.089   0.550
 6992TIP3    H220922   6.357   1.148   0.435
 6993TIP3   OH220923   2.994   1.445   3.995
 6993TIP3    H120924   2.984   1.401   4.079
 6993TIP3    H220925   3.083   1.479   3.996
 6994TIP3   OH220926   4.359   5.777   4.485
 6994TIP3    H120927   4.272   5.810   4.461
 6994TIP3    H220928   4.386   5.724   4.410
 6995TIP3   OH220929   2.649   4.929   3.700
 6995TIP3    H120930   2.614   4.978   3.626
 6995TIP3    H220931   2.719   4.985   3.735
 6996TIP3   OH220932   4.810   7.503   5.125
 6996TIP3    H120933   4.834   7.544   5.207
 6996TIP3    H220934   4.883   7.444   5.105
 6997TIP3   OH220935   8.250   4.362   4.516
 6997TIP3    H120936   8.296   4.311   4.582
 6997TIP3    H220937   8.222   4.441   4.561
 6998TIP3   OH220938   2.836   2.849   3.774
 6998TIP3    H120939   2.836   2.835   3.679
 6998TIP3    H220940   2.906   2.911   3.789
 6999TIP3   OH220941   2.813   4.197   5.654
 6999TIP3    H120942   2.779   4.171   5.740
 6999TIP3    H220943   2.829   4.291   5.663
 7000TIP3   OH220944   6.850   0.263   4.380
 7000TIP3    H120945   6.866   0.191   4.319
 7000TIP3    H220946   6.828   0.221   4.462
 7001TIP3   OH220947   3.276   3.971   3.831
 7001TIP3    H120948   3.207   4.035   3.847
 7001TIP3    H220949   3.266   3.906   3.901
 7002TIP3   OH220950   1.451   2.518   5.564
 7002TIP3    H120951   1.391   2.585   5.529
 7002TIP3    H220952   1.396   2.465   5.622
 7003TIP3   OH220953   1.635   4.818   1.195
 7003TIP3    H120954   1.726   4.840   1.174
 7003TIP3    H220955   1.584   4.860   1.125
 7004TIP3   OH220956   3.993   6.678   0.849
 7004TIP3    H120957   4.000   6.591   0.888
 7004TIP3    H220958   3.966   6.663   0.759
 7005TIP3   OH220959   7.670   7.350   2.485
 7005TIP3    H120960   7.706   7.274   2.438
 7005TIP3    H220961   7.580   7.324   2.507
 7006TIP3   OH220962   3.925   3.197   6.014
 7006TIP3    H120963   3.976   3.131   6.060
 7006TIP3    H220964   3.911   3.266   6.078
 7007TIP3   OH220965   3.044   1.326   3.164
 7007TIP3    H120966   2.989   1.384   3.216
 7007TIP3    H220967   2.997   1.243   3.162
 7008TIP3   OH220968   0.846   1.300   6.530
 7008TIP3    H120969   0.931   1.342   6.518
 7008TIP3    H220970   0.793   1.330   6.456
 7009TIP3   OH220971   1.120   6.718   3.323
 7009TIP3    H120972   1.155   6.746   3.239
 7009TIP3    H220973   1.073   6.794   3.357
 7010TIP3   OH220974   8.254   5.402   2.723
 7010TIP3    H120975   8.284   5.386   2.813
 7010TIP3    H220976   8.159   5.392   2.728
 7011TIP3   OH220977   3.197   7.424   4.903
 7011TIP3    H120978   3.162   7.498   4.854
 7011TIP3    H220979   3.290   7.446   4.916
 7012TIP3   OH220980   1.786   3.293   2.671
 7012TIP3    H120981   1.694   3.304   2.647
 7012TIP3    H220982   1.831   3.366   2.629
 7013TIP3   OH220983   6.762   7.362   6.259
 7013TIP3    H120984   6.818   7.431   6.223
 7013TIP3    H220985   6.721   7.322   6.182
 7014TIP3   OH220986   4.423   5.955   0.569
 7014TIP3    H120987   4.513   5.931   0.549
 7014TIP3    H220988   4.371   5.878   0.546
 7015TIP3   OH220989   7.802   7.220   4.346
 7015TIP3    H120990   7.726   7.168   4.370
 7015TIP3    H220991   7.869   7.196   4.410
 7016TIP3   OH220992   6.853   0.117   3.954
 7016TIP3    H120993   6.897   0.198   3.925
 7016TIP3    H220994   6.793   0.146   4.023
 7017TIP3   OH220995   5.041   7.327   1.014
 7017TIP3    H120996   5.100   7.349   1.085
 7017TIP3    H220997   4.970   7.278   1.056
 7018TIP3   OH220998   7.785   1.730   1.943
 7018TIP3    H120999   7.859   1.744   2.001
 7018TIP3    H221000   7.708   1.728   2.000
 7019TIP3   OH221001   7.059   4.594   4.310
 7019TIP3    H121002   7.109   4.535   4.254
 7019TIP3    H221003   7.125   4.641   4.361
 7020TIP3   OH221004   0.443   3.517   1.675
 7020TIP3    H121005   0.423   3.445   1.616
 7020TIP3    H221006   0.364   3.528   1.728
 7021TIP3   OH221007   5.742   2.738   4.795
 7021TIP3    H121008   5.735   2.687   4.875
 7021TIP3    H221009   5.666   2.711   4.743
 7022TIP3   OH221010   0.604   6.785   2.093
 7022TIP3    H121011   0.573   6.728   2.164
 7022TIP3    H221012   0.683   6.743   2.061
 7023TIP3   OH221013   0.942   7.116   6.810
 7023TIP3    H121014   1.007   7.057   6.772
 7023TIP3    H221015   0.890   7.147   6.736
 7024TIP3   OH221016   6.902   0.110   6.291
 7024TIP3    H121017   6.883   0.110   6.385
 7024TIP3    H221018   6.917   0.202   6.270
 7025TIP3   OH221019   1.276   5.054   4.824
 7025TIP3    H121020   1.208   5.120   4.809
 7025TIP3    H221021   1.233   4.971   4.804
 7026TIP3   OH221022   2.862   4.135   2.264
 7026TIP3    H121023   2.845   4.114   2.172
 7026TIP3    H221024   2.953   4.164   2.265
 7027TIP3   OH221025   7.539   6.688   1.804
 7027TIP3    H121026   7.614   6.630   1.816
 7027TIP3    H221027   7.559   6.765   1.856
 7028TIP3   OH221028   2.165   2.559   1.695
 7028TIP3    H121029   2.242   2.576   1.640
 7028TIP3    H221030   2.191   2.486   1.750
 7029TIP3   OH221031   3.517   7.078   5.799
 7029TIP3    H121032   3.463   7.001   5.816
 7029TIP3    H221033   3.606   7.042   5.792
 7030TIP3   OH221034   6.403   6.553   0.365
 7030TIP3    H121035   6.449   6.477   0.400
 7030TIP3    H221036   6.451   6.577   0.286
 7031TIP3   OH221037   4.456   3.818   1.058
 7031TIP3    H121038   4.362   3.818   1.041
 7031TIP3    H221039   4.495   3.832   0.972
 7032TIP3   OH221040   7.648   7.118   5.960
 7032TIP3    H121041   7.636   7.024   5.942
 7032TIP3    H221042   7.571   7.143   6.009
 7033TIP3   OH221043   1.169   5.682   5.320
 7033TIP3    H121044   1.228   5.617   5.281
 7033TIP3    H221045   1.084   5.666   5.280
 7034TIP3   OH221046   1.576   3.348   5.863
 7034TIP3    H121047   1.634   3.280   5.898
 7034TIP3    H221048   1.534   3.306   5.787
 7035TIP3   OH221049   4.099   3.420   4.281
 7035TIP3    H121050   4.080   3.341   4.230
 7035TIP3    H221051   4.135   3.481   4.217
 7036TIP3   OH221052   2.326   1.718   4.171
 7036TIP3    H121053   2.349   1.635   4.129
 7036TIP3    H221054   2.406   1.771   4.166
 7037TIP3   OH221055   6.137   3.409   1.079
 7037TIP3    H121056   6.131   3.329   1.026
 7037TIP3    H221057   6.045   3.430   1.099
 7038TIP3   OH221058   4.898   2.768   2.779
 7038TIP3    H121059   4.917   2.846   2.728
 7038TIP3    H221060   4.946   2.698   2.735
 7039TIP3   OH221061   3.333   7.515   4.068
 7039TIP3    H121062   3.270   7.463   4.117
 7039TIP3    H221063   3.418   7.483   4.097
 7040TIP3   OH221064   2.165   3.466   2.178
 7040TIP3    H121065   2.241   3.524   2.185
 7040TIP3    H221066   2.144   3.443   2.268
 7041TIP3   OH221067   6.311   1.931   3.408
 7041TIP3    H121068   6.361   1.883   3.341
 7041TIP3    H221069   6.220   1.902   3.395
 7042TIP3   OH221070   7.023   1.991   1.486
 7042TIP3    H121071   7.025   1.940   1.567
 7042TIP3    H221072   6.930   1.994   1.463
 7043TIP3   OH221073   3.175   0.117   1.112
 7043TIP3    H121074   3.183   0.099   1.206
 7043TIP3    H221075   3.107   0.184   1.106
 7044TIP3   OH221076   7.609   0.972   1.326
 7044TIP3    H121077   7.537   1.005   1.381
 7044TIP3    H221078   7.630   0.886   1.362
 7045TIP3   OH221079   6.095   2.613   0.693
 7045TIP3    H121080   6.070   2.531   0.653
 7045TIP3    H221081   6.190   2.607   0.704
 7046TIP3   OH221082   2.422   0.158   4.485
 7046TIP3    H121083   2.333   0.169   4.521
 7046TIP3    H221084   2.467   0.105   4.551
 7047TIP3   OH221085   3.627   7.729   0.644
 7047TIP3    H121086   3.543   7.764   0.671
 7047TIP3    H221087   3.609   7.639   0.617
 7048TIP3   OH221088   1.157   3.323   3.766
 7048TIP3    H121089   1.197   3.397   3.812
 7048TIP3    H221090   1.067   3.350   3.753
 7049TIP3   OH221091   4.145   7.061   2.247
 7049TIP3    H121092   4.139   6.998   2.319
 7049TIP3    H221093   4.230   7.042   2.207
 7050TIP3   OH221094   7.624   5.714   4.331
 7050TIP3    H121095   7.568   5.639   4.311
 7050TIP3    H221096   7.616   5.726   4.426
 7051TIP3   OH221097   6.550   5.039   3.839
 7051TIP3    H121098   6.632   5.088   3.831
 7051TIP3    H221099   6.563   4.981   3.914
 7052TIP3   OH221100   4.762   3.549   3.398
 7052TIP3    H121101   4.687   3.597   3.363
 7052TIP3    H221102   4.766   3.574   3.490
 7053TIP3   OH221103   4.689   1.559   3.000
 7053TIP3    H121104   4.638   1.558   3.081
 7053TIP3    H221105   4.625   1.545   2.931
 7054TIP3   OH221106   3.033   4.044   3.467
 7054TIP3    H121107   3.115   4.078   3.504
 7054TIP3    H221108   3.004   3.978   3.529
 7055TIP3   OH221109   0.751   5.854   5.781
 7055TIP3    H121110   0.830   5.800   5.784
 7055TIP3    H221111   0.687   5.806   5.833
 7056TIP3   OH221112   7.669   7.735   5.348
 7056TIP3    H121113   7.706   7.716   5.262
 7056TIP3    H221114   7.746   7.750   5.404
 7057TIP3   OH221115   2.328   5.444   1.871
 7057TIP3    H121116   2.337   5.510   1.940
 7057TIP3    H221117   2.256   5.475   1.817
 7058TIP3   OH221118   0.957   7.411   5.182
 7058TIP3    H121119   0.985   7.485   5.235
 7058TIP3    H221120   1.015   7.339   5.207
 7059TIP3   OH221121   6.719   5.555   1.982
 7059TIP3    H121122   6.690   5.646   1.977
 7059TIP3    H221123   6.814   5.560   1.987
 7060TIP3   OH221124   3.248   5.880   2.185
 7060TIP3    H121125   3.176   5.929   2.224
 7060TIP3    H221126   3.215   5.791   2.176
 7061TIP3   OH221127   3.555   7.385   1.053
 7061TIP3    H121128   3.607   7.373   1.132
 7061TIP3    H221129   3.473   7.424   1.084
 7062TIP3   OH221130   3.313   4.993   5.882
 7062TIP3    H121131   3.364   5.054   5.830
 7062TIP3    H221132   3.300   4.918   5.825
 7063TIP3   OH221133   0.193   0.888   4.167
 7063TIP3    H121134   0.187   0.825   4.095
 7063TIP3    H221135   0.104   0.896   4.199
 7064TIP3   OH221136   2.421   5.086   4.186
 7064TIP3    H121137   2.431   5.001   4.228
 7064TIP3    H221138   2.422   5.149   4.258
 7065TIP3   OH221139   2.278   4.003   0.760
 7065TIP3    H121140   2.358   4.016   0.810
 7065TIP3    H221141   2.303   4.017   0.669
 7066TIP3   OH221142   3.220   0.751   6.088
 7066TIP3    H121143   3.161   0.805   6.036
 7066TIP3    H221144   3.196   0.661   6.067
 7067TIP3   OH221145   5.254   6.131   1.804
 7067TIP3    H121146   5.277   6.112   1.895
 7067TIP3    H221147   5.254   6.045   1.761
 7068TIP3   OH221148   0.309   2.130   0.264
 7068TIP3    H121149   0.224   2.109   0.226
 7068TIP3    H221150   0.363   2.053   0.244
 7069TIP3   OH221151   0.568   7.547   2.634
 7069TIP3    H121152   0.658   7.564   2.608
 7069TIP3    H221153   0.514   7.596   2.572
 7070TIP3   OH221154   1.072   4.783   3.530
 7070TIP3    H121155   1.092   4.703   3.481
 7070TIP3    H221156   0.989   4.813   3.493
 7071TIP3   OH221157   7.011   3.155   2.092
 7071TIP3    H121158   7.094   3.108   2.083
 7071TIP3    H221159   6.972   3.153   2.005
 7072TIP3   OH221160   7.740   5.335   2.253
 7072TIP3    H121161   7.678   5.286   2.308
 7072TIP3    H221162   7.730   5.295   2.166
 7073TIP3   OH221163   0.950   6.385   5.006
 7073TIP3    H121164   0.919   6.374   5.096
 7073TIP3    H221165   0.886   6.444   4.965
 7074TIP3   OH221166   8.144   7.643   0.469
 7074TIP3    H121167   8.123   7.584   0.542
 7074TIP3    H221168   8.239   7.640   0.463
 7075TIP3   OH221169   8.275   3.831   1.043
 7075TIP3    H121170   8.202   3.893   1.049
 7075TIP3    H221171   8.336   3.859   1.112
 7076TIP3   OH221172   1.561   5.953   0.753
 7076TIP3    H121173   1.635   5.923   0.805
 7076TIP3    H221174   1.548   5.883   0.689
 7077TIP3   OH221175   2.879   4.737   1.061
 7077TIP3    H121176   2.933   4.779   1.127
 7077TIP3    H221177   2.932   4.738   0.981
 7078TIP3   OH221178   3.043   6.895   1.498
 7078TIP3    H121179   3.070   6.920   1.409
 7078TIP3    H221180   2.952   6.867   1.487
 7079TIP3   OH221181   0.495   2.180   1.079
 7079TIP3    H121182   0.479   2.095   1.121
 7079TIP3    H221183   0.456   2.170   0.992
 7080TIP3   OH221184   0.945   7.496   0.394
 7080TIP3    H121185   0.927   7.490   0.487
 7080TIP3    H221186   1.023   7.441   0.381
 7081TIP3   OH221187   1.100   1.366   6.529
 7081TIP3    H121188   1.106   1.457   6.499
 7081TIP3    H221189   1.118   1.371   6.623
 7082TIP3   OH221190   1.558   1.580   3.370
 7082TIP3    H121191   1.630   1.626   3.415
 7082TIP3    H221192   1.528   1.515   3.433
 7083TIP3   OH221193   3.046   3.620   4.169
 7083TIP3    H121194   2.983   3.637   4.239
 7083TIP3    H221195   3.051   3.525   4.164
 7084TIP3   OH221196   0.173   1.134   5.890
 7084TIP3    H121197   0.184   1.185   5.971
 7084TIP3    H221198   0.088   1.092   5.900
 7085TIP3   OH221199   0.429   4.685   2.213
 7085TIP3    H121200   0.392   4.750   2.153
 7085TIP3    H221201   0.433   4.730   2.298
 7086TIP3   OH221202   2.836   4.315   5.157
 7086TIP3    H121203   2.891   4.274   5.090
 7086TIP3    H221204   2.794   4.389   5.113
 7087TIP3   OH221205   7.411   0.616   5.248
 7087TIP3    H121206   7.487   0.674   5.246
 7087TIP3    H221207   7.428   0.551   5.180
 7088TIP3   OH221208   7.694   4.079   1.611
 7088TIP3    H121209   7.731   4.043   1.531
 7088TIP3    H221210   7.748   4.042   1.681
 7089TIP3   OH221211   5.493   2.524   5.370
 7089TIP3    H121212   5.523   2.437   5.397
 7089TIP3    H221213   5.554   2.584   5.412
 7090TIP3   OH221214   5.004   5.089   3.268
 7090TIP3    H121215   5.088   5.080   3.314
 7090TIP3    H221216   4.961   5.005   3.282
 7091TIP3   OH221217   5.905   6.983   5.797
 7091TIP3    H121218   5.849   7.060   5.784
 7091TIP3    H221219   5.844   6.912   5.819
 7092TIP3   OH221220   4.693   6.705   0.856
 7092TIP3    H121221   4.603   6.739   0.857
 7092TIP3    H221222   4.687   6.619   0.897
 7093TIP3   OH221223   1.684   2.700   6.412
 7093TIP3    H121224   1.678   2.787   6.372
 7093TIP3    H221225   1.739   2.649   6.352
 7094TIP3   OH221226   0.508   1.492   3.563
 7094TIP3    H121227   0.580   1.553   3.544
 7094TIP3    H221228   0.449   1.541   3.620
 7095TIP3   OH221229   2.140   3.749   6.288
 7095TIP3    H121230   2.060   3.795   6.315
 7095TIP3    H221231   2.195   3.818   6.249
 7096TIP3   OH221232   0.491   0.085   1.546
 7096TIP3    H121233   0.407   0.054   1.579
 7096TIP3    H221234   0.509   0.165   1.595
 7097TIP3   OH221235   1.272   3.282   2.735
 7097TIP3    H121236   1.336   3.348   2.762
 7097TIP3    H221237   1.307   3.246   2.653
 7098TIP3   OH221238   0.853   2.731   3.924
 7098TIP3    H121239   0.827   2.738   4.016
 7098TIP3    H221240   0.912   2.656   3.922
 7099TIP3   OH221241   2.460   2.579   5.062
 7099TIP3    H121242   2.403   2.594   4.986
 7099TIP3    H221243   2.413   2.619   5.135
 7100TIP3   OH221244   8.075   4.000   2.832
 7100TIP3    H121245   8.158   4.046   2.817
 7100TIP3    H221246   8.080   3.970   2.923
 7101TIP3   OH221247   7.990   4.213   1.788
 7101TIP3    H121248   7.903   4.181   1.814
 7101TIP3    H221249   7.988   4.212   1.692
 7102TIP3   OH221250   6.361   3.492   5.614
 7102TIP3    H121251   6.343   3.469   5.523
 7102TIP3    H221252   6.457   3.496   5.618
 7103TIP3   OH221253   6.440   2.372   4.870
 7103TIP3    H121254   6.531   2.363   4.900
 7103TIP3    H221255   6.441   2.449   4.814
 7104TIP3   OH221256   0.977   3.826   4.806
 7104TIP3    H121257   0.936   3.909   4.830
 7104TIP3    H221258   1.017   3.794   4.887
 7105TIP3   OH221259   2.209   0.292   3.554
 7105TIP3    H121260   2.239   0.209   3.592
 7105TIP3    H221261   2.225   0.356   3.624
 7106TIP3   OH221262   2.759   1.581   2.404
 7106TIP3    H121263   2.786   1.621   2.322
 7106TIP3    H221264   2.822   1.511   2.419
 7107TIP3   OH221265   2.401   3.431   5.461
 7107TIP3    H121266   2.472   3.453   5.521
 7107TIP3    H221267   2.387   3.337   5.473
 7108TIP3   OH221268   7.600   0.544   3.611
 7108TIP3    H121269   7.513   0.531   3.574
 7108TIP3    H221270   7.660   0.535   3.536
 7109TIP3   OH221271   1.803   2.731   1.341
 7109TIP3    H121272   1.738   2.757   1.275
 7109TIP3    H221273   1.833   2.645   1.313
 7110TIP3   OH221274   5.224   1.965   5.736
 7110TIP3    H121275   5.163   1.944   5.666
 7110TIP3    H221276   5.178   1.942   5.817
 7111TIP3   OH221277   0.182   1.463   4.201
 7111TIP3    H121278   0.154   1.372   4.211
 7111TIP3    H221279   0.169   1.502   4.288
 7112TIP3   OH221280   6.260   6.792   3.316
 7112TIP3    H121281   6.291   6.811   3.228
 7112TIP3    H221282   6.292   6.704   3.335
 7113TIP3   OH221283   8.262   0.168   3.792
 7113TIP3    H121284   8.277   0.202   3.881
 7113TIP3    H221285   8.184   0.214   3.761
 7114TIP3   OH221286   0.679   4.857   1.767
 7114TIP3    H121287   0.710   4.939   1.731
 7114TIP3    H221288   0.718   4.789   1.712
 7115TIP3   OH221289   7.417   1.356   4.505
 7115TIP3    H121290   7.351   1.302   4.462
 7115TIP3    H221291   7.425   1.318   4.593
 7116TIP3   OH221292   6.914   2.624   2.562
 7116TIP3    H121293   6.944   2.533   2.572
 7116TIP3    H221294   6.821   2.620   2.584
 7117TIP3   OH221295   2.044   6.269   2.610
 7117TIP3    H121296   2.122   6.304   2.653
 7117TIP3    H221297   2.015   6.198   2.666
 7118TIP3   OH221298   1.837   6.769   0.321
 7118TIP3    H121299   1.896   6.775   0.246
 7118TIP3    H221300   1.889   6.798   0.396
 7119TIP3   OH221301   2.442   2.959   6.531
 7119TIP3    H121302   2.395   2.949   6.614
 7119TIP3    H221303   2.522   3.006   6.554
 7120TIP3   OH221304   5.959   6.902   5.187
 7120TIP3    H121305   5.973   6.984   5.140
 7120TIP3    H221306   6.023   6.841   5.150
 7121TIP3   OH221307   6.284   5.077   5.746
 7121TIP3    H121308   6.282   5.121   5.831
 7121TIP3    H221309   6.359   5.019   5.750
 7122TIP3   OH221310   4.821   4.396   0.126
 7122TIP3    H121311   4.847   4.379   0.035
 7122TIP3    H221312   4.891   4.358   0.179
 7123TIP3   OH221313   6.641   4.352   5.312
 7123TIP3    H121314   6.559   4.312   5.286
 7123TIP3    H221315   6.681   4.382   5.231
 7124TIP3   OH221316   5.692   1.712   5.279
 7124TIP3    H121317   5.671   1.688   5.188
 7124TIP3    H221318   5.786   1.699   5.286
 7125TIP3   OH221319   2.031   6.944   2.088
 7125TIP3    H121320   2.046   6.956   2.182
 7125TIP3    H221321   1.937   6.928   2.081
 7126TIP3   OH221322   4.953   4.056   1.441
 7126TIP3    H121323   4.883   3.993   1.427
 7126TIP3    H221324   4.935   4.095   1.526
 7127TIP3   OH221325   3.982   3.401   4.014
 7127TIP3    H121326   4.071   3.403   3.978
 7127TIP3    H221327   3.929   3.450   3.951
 7128TIP3   OH221328   2.001   4.919   2.290
 7128TIP3    H121329   2.062   4.915   2.364
 7128TIP3    H221330   2.017   4.839   2.241
 7129TIP3   OH221331   0.616   2.511   1.904
 7129TIP3    H121332   0.606   2.586   1.845
 7129TIP3    H221333   0.701   2.473   1.880
 7130TIP3   OH221334   1.465   3.057   4.115
 7130TIP3    H121335   1.408   3.096   4.048
 7130TIP3    H221336   1.409   3.050   4.192
 7131TIP3   OH221337   1.772   7.452   2.779
 7131TIP3    H121338   1.726   7.528   2.815
 7131TIP3    H221339   1.843   7.489   2.726
 7132TIP3   OH221340   6.895   3.967   5.635
 7132TIP3    H121341   6.848   4.024   5.574
 7132TIP3    H221342   6.974   4.016   5.658
 7133TIP3   OH221343   3.902   5.156   3.779
 7133TIP3    H121344   3.843   5.090   3.817
 7133TIP3    H221345   3.970   5.167   3.846
 7134TIP3   OH221346   4.080   2.346   4.990
 7134TIP3    H121347   4.020   2.421   4.989
 7134TIP3    H221348   4.058   2.297   4.911
 7135TIP3   OH221349   7.446   2.264   1.428
 7135TIP3    H121350   7.417   2.295   1.341
 7135TIP3    H221351   7.427   2.338   1.486
 7136TIP3   OH221352   4.039   3.210   1.118
 7136TIP3    H121353   4.027   3.282   1.056
 7136TIP3    H221354   4.048   3.132   1.062
 7137TIP3   OH221355   2.485   3.237   1.514
 7137TIP3    H121356   2.492   3.196   1.600
 7137TIP3    H221357   2.410   3.296   1.521
 7138TIP3   OH221358   6.737   2.159   5.893
 7138TIP3    H121359   6.709   2.220   5.962
 7138TIP3    H221360   6.832   2.165   5.894
 7139TIP3   OH221361   5.681   1.117   0.435
 7139TIP3    H121362   5.699   1.051   0.369
 7139TIP3    H221363   5.660   1.068   0.514
 7140TIP3   OH221364   2.536   5.882   0.352
 7140TIP3    H121365   2.539   5.812   0.286
 7140TIP3    H221366   2.470   5.942   0.320
 7141TIP3   OH221367   5.631   2.687   1.725
 7141TIP3    H121368   5.565   2.676   1.794
 7141TIP3    H221369   5.714   2.693   1.771
 7142TIP3   OH221370   1.753   1.434   4.498
 7142TIP3    H121371   1.837   1.481   4.494
 7142TIP3    H221372   1.736   1.423   4.592
 7143TIP3   OH221373   7.425   0.954   5.170
 7143TIP3    H121374   7.346   0.929   5.123
 7143TIP3    H221375   7.394   1.018   5.235
 7144TIP3   OH221376   5.009   2.142   3.685
 7144TIP3    H121377   4.927   2.104   3.652
 7144TIP3    H221378   4.993   2.159   3.777
 7145TIP3   OH221379   3.107   2.844   0.968
 7145TIP3    H121380   3.080   2.878   0.882
 7145TIP3    H221381   3.054   2.892   1.031
 7146TIP3   OH221382   1.814   2.668   4.593
 7146TIP3    H121383   1.870   2.716   4.532
 7146TIP3    H221384   1.755   2.617   4.536
 7147TIP3   OH221385   4.673   0.416   0.354
 7147TIP3    H121386   4.578   0.419   0.370
 7147TIP3    H221387   4.712   0.421   0.441
 7148TIP3   OH221388   1.101   5.782   4.973
 7148TIP3    H121389   1.010   5.776   5.003
 7148TIP3    H221390   1.096   5.768   4.878
 7149TIP3   OH221391   1.261   7.722   5.557
 7149TIP3    H121392   1.209   7.803   5.564
 7149TIP3    H221393   1.352   7.752   5.558
 7150TIP3   OH221394   3.373   2.108   3.768
 7150TIP3    H121395   3.326   2.102   3.685
 7150TIP3    H221396   3.323   2.171   3.819
 7151TIP3   OH221397   0.739   4.803   6.670
 7151TIP3    H121398   0.788   4.848   6.739
 7151TIP3    H221399   0.802   4.792   6.599
 7152TIP3   OH221400   7.842   0.220   6.149
 7152TIP3    H121401   7.803   0.230   6.236
 7152TIP3    H221402   7.770   0.190   6.094
 7153TIP3   OH221403   6.725   7.328   4.956
 7153TIP3    H121404   6.724   7.367   4.869
 7153TIP3    H221405   6.640   7.351   4.994
 7154TIP3   OH221406   0.539   2.254   0.658
 7154TIP3    H121407   0.569   2.339   0.690
 7154TIP3    H221408   0.478   2.276   0.587
 7155TIP3   OH221409   3.075   6.153   6.381
 7155TIP3    H121410   3.004   6.168   6.443
 7155TIP3    H221411   3.150   6.200   6.418
 7156TIP3   OH221412   0.777   7.655   3.072
 7156TIP3    H121413   0.712   7.603   3.119
 7156TIP3    H221414   0.728   7.731   3.040
 7157TIP3   OH221415   7.470   7.662   5.038
 7157TIP3    H121416   7.418   7.592   5.000
 7157TIP3    H221417   7.420   7.691   5.114
 7158TIP3   OH221418   6.430   5.175   5.056
 7158TIP3    H121419   6.497   5.243   5.054
 7158TIP3    H221420   6.348   5.222   5.043
 7159TIP3   OH221421   0.516   7.568   6.668
 7159TIP3    H121422   0.435   7.527   6.637
 7159TIP3    H221423   0.560   7.499   6.718
 7160TIP3   OH221424   6.371   5.489   0.679
 7160TIP3    H121425   6.278   5.506   0.697
 7160TIP3    H221426   6.405   5.574   0.650
 7161TIP3   OH221427   5.617   1.980   4.649
 7161TIP3    H121428   5.687   2.023   4.699
 7161TIP3    H221429   5.539   2.032   4.669
 7162TIP3   OH221430   6.379   6.547   4.553
 7162TIP3    H121431   6.333   6.475   4.511
 7162TIP3    H221432   6.353   6.625   4.503
 7163TIP3   OH221433   5.051   0.378   0.566
 7163TIP3    H121434   5.130   0.428   0.546
 7163TIP3    H221435   5.063   0.295   0.521
 7164TIP3   OH221436   8.073   6.240   5.145
 7164TIP3    H121437   8.129   6.181   5.195
 7164TIP3    H221438   8.093   6.327   5.179
 7165TIP3   OH221439   3.205   3.804   0.829
 7165TIP3    H121440   3.195   3.876   0.891
 7165TIP3    H221441   3.274   3.833   0.769
 7166TIP3   OH221442   4.604   4.731   2.326
 7166TIP3    H121443   4.527   4.687   2.364
 7166TIP3    H221444   4.648   4.770   2.401
 7167TIP3   OH221445   4.007   1.859   2.884
 7167TIP3    H121446   4.056   1.931   2.845
 7167TIP3    H221447   3.993   1.885   2.975
 7168TIP3   OH221448   5.976   3.777   1.292
 7168TIP3    H121449   5.961   3.780   1.198
 7168TIP3    H221450   5.967   3.867   1.321
 7169TIP3   OH221451   7.381   5.682   3.944
 7169TIP3    H121452   7.395   5.588   3.947
 7169TIP3    H221453   7.439   5.718   4.011
 7170TIP3   OH221454   6.757   4.834   5.378
 7170TIP3    H121455   6.678   4.882   5.403
 7170TIP3    H221456   6.754   4.754   5.430
 7171TIP3   OH221457   1.765   5.218   0.321
 7171TIP3    H121458   1.846   5.217   0.270
 7171TIP3    H221459   1.705   5.273   0.270
 7172TIP3   OH221460   6.299   6.446   1.271
 7172TIP3    H121461   6.304   6.531   1.315
 7172TIP3    H221462   6.207   6.419   1.281
 7173TIP3   OH221463   4.424   3.550   5.660
 7173TIP3    H121464   4.488   3.518   5.596
 7173TIP3    H221465   4.422   3.483   5.728
 7174TIP3   OH221466   5.600   5.663   4.657
 7174TIP3    H121467   5.592   5.727   4.586
 7174TIP3    H221468   5.689   5.631   4.651
 7175TIP3   OH221469   7.074   7.381   1.768
 7175TIP3    H121470   7.051   7.466   1.806
 7175TIP3    H221471   7.130   7.340   1.834
 7176TIP3   OH221472   1.795   5.361   6.241
 7176TIP3    H121473   1.774   5.447   6.278
 7176TIP3    H221474   1.772   5.368   6.148
 7177TIP3   OH221475   3.324   0.826   3.008
 7177TIP3    H121476   3.388   0.854   2.943
 7177TIP3    H221477   3.240   0.853   2.971
 7178TIP3   OH221478   3.922   2.831   6.759
 7178TIP3    H121479   4.000   2.819   6.704
 7178TIP3    H221480   3.851   2.843   6.696
 7179TIP3   OH221481   7.822   3.747   1.618
 7179TIP3    H121482   7.894   3.756   1.680
 7179TIP3    H221483   7.853   3.683   1.554
 7180TIP3   OH221484   6.428   1.298   2.364
 7180TIP3    H121485   6.460   1.304   2.274
 7180TIP3    H221486   6.374   1.376   2.376
 7181TIP3   OH221487   0.318   4.961   0.672
 7181TIP3    H121488   0.385   5.029   0.684
 7181TIP3    H221489   0.301   4.961   0.578
 7182TIP3   OH221490   1.666   0.166   2.685
 7182TIP3    H121491   1.688   0.198   2.597
 7182TIP3    H221492   1.749   0.171   2.733
 7183TIP3   OH221493   3.438   6.359   5.077
 7183TIP3    H121494   3.393   6.389   5.156
 7183TIP3    H221495   3.530   6.383   5.091
 7184TIP3   OH221496   1.779   3.668   0.273
 7184TIP3    H121497   1.793   3.611   0.348
 7184TIP3    H221498   1.859   3.720   0.266
 7185TIP3   OH221499   5.664   0.736   2.686
 7185TIP3    H121500   5.676   0.642   2.696
 7185TIP3    H221501   5.634   0.765   2.772
 7186TIP3   OH221502   4.145   1.056   3.556
 7186TIP3    H121503   4.069   1.112   3.539
 7186TIP3    H221504   4.150   1.051   3.651
 7187TIP3   OH221505   6.557   1.421   0.535
 7187TIP3    H121506   6.553   1.458   0.623
 7187TIP3    H221507   6.569   1.497   0.477
 7188TIP3   OH221508   7.451   2.584   0.558
 7188TIP3    H121509   7.405   2.501   0.543
 7188TIP3    H221510   7.438   2.634   0.477
 7189TIP3   OH221511   7.591   4.943   0.714
 7189TIP3    H121512   7.598   5.035   0.739
 7189TIP3    H221513   7.550   4.945   0.628
 7190TIP3   OH221514   2.513   2.509   2.769
 7190TIP3    H121515   2.569   2.511   2.847
 7190TIP3    H221516   2.529   2.592   2.725
 7191TIP3   OH221517   4.061   2.881   0.053
 7191TIP3    H121518   3.999   2.952   0.040
 7191TIP3    H221519   4.140   2.924   0.086
 7192TIP3   OH221520   6.857   5.837   4.713
 7192TIP3    H121521   6.775   5.801   4.679
 7192TIP3    H221522   6.874   5.787   4.793
 7193TIP3   OH221523   1.692   3.231   0.334
 7193TIP3    H121524   1.732   3.144   0.345
 7193TIP3    H221525   1.620   3.232   0.398
 7194TIP3   OH221526   1.795   5.710   2.494
 7194TIP3    H121527   1.807   5.745   2.406
 7194TIP3    H221528   1.854   5.634   2.497
 7195TIP3   OH221529   3.167   2.198   1.869
 7195TIP3    H121530   3.185   2.113   1.829
 7195TIP3    H221531   3.201   2.262   1.807
 7196TIP3   OH221532   1.878   5.197   2.290
 7196TIP3    H121533   1.971   5.220   2.300
 7196TIP3    H221534   1.836   5.234   2.368
 7197TIP3   OH221535   1.387   1.349   4.557
 7197TIP3    H121536   1.359   1.329   4.468
 7197TIP3    H221537   1.367   1.442   4.568
 7198TIP3   OH221538   5.026   5.594   1.264
 7198TIP3    H121539   5.002   5.627   1.178
 7198TIP3    H221540   5.108   5.546   1.250
 7199TIP3   OH221541   7.087   4.923   5.380
 7199TIP3    H121542   7.077   4.828   5.383
 7199TIP3    H221543   7.019   4.953   5.320
 7200TIP3   OH221544   5.698   0.633   0.459
 7200TIP3    H121545   5.734   0.600   0.541
 7200TIP3    H221546   5.659   0.556   0.416
 7201TIP3   OH221547   6.060   5.664   1.435
 7201TIP3    H121548   6.153   5.685   1.423
 7201TIP3    H221549   6.061   5.577   1.476
 7202TIP3   OH221550   2.823   6.629   0.697
 7202TIP3    H121551   2.847   6.543   0.733
 7202TIP3    H221552   2.747   6.656   0.749
 7203TIP3   OH221553   5.023   0.185   4.081
 7203TIP3    H121554   5.083   0.251   4.045
 7203TIP3    H221555   5.022   0.203   4.175
 7204TIP3   OH221556   5.122   0.452   0.958
 7204TIP3    H121557   5.113   0.540   0.995
 7204TIP3    H221558   5.086   0.394   1.024
 7205TIP3   OH221559   7.174   5.001   5.629
 7205TIP3    H121560   7.093   4.966   5.666
 7205TIP3    H221561   7.174   4.969   5.538
 7206TIP3   OH221562   0.797   3.166   6.052
 7206TIP3    H121563   0.888   3.165   6.022
 7206TIP3    H221564   0.777   3.258   6.066
 7207TIP3   OH221565   5.371   6.265   5.150
 7207TIP3    H121566   5.340   6.233   5.066
 7207TIP3    H221567   5.306   6.330   5.177
 7208TIP3   OH221568   4.007   6.132   1.577
 7208TIP3    H121569   4.060   6.205   1.607
 7208TIP3    H221570   3.928   6.172   1.541
 7209TIP3   OH221571   3.722   3.893   5.298
 7209TIP3    H121572   3.811   3.912   5.327
 7209TIP3    H221573   3.673   3.878   5.378
 7210TIP3   OH221574   6.592   3.894   2.691
 7210TIP3    H121575   6.688   3.894   2.684
 7210TIP3    H221576   6.569   3.987   2.692
 7211TIP3   OH221577   6.192   2.498   4.511
 7211TIP3    H121578   6.170   2.447   4.589
 7211TIP3    H221579   6.253   2.442   4.462
 7212TIP3   OH221580   6.484   7.762   4.883
 7212TIP3    H121581   6.561   7.815   4.863
 7212TIP3    H221582   6.467   7.779   4.975
 7213TIP3   OH221583   7.924   4.423   4.496
 7213TIP3    H121584   7.971   4.340   4.485
 7213TIP3    H221585   7.834   4.403   4.470
 7214TIP3   OH221586   1.193   5.499   1.584
 7214TIP3    H121587   1.265   5.519   1.644
 7214TIP3    H221588   1.233   5.443   1.518
 7215TIP3   OH221589   0.181   5.531   1.772
 7215TIP3    H121590   0.234   5.498   1.845
 7215TIP3    H221591   0.245   5.553   1.705
 7216TIP3   OH221592   0.249   0.669   3.546
 7216TIP3    H121593   0.239   0.584   3.503
 7216TIP3    H221594   0.160   0.700   3.558
 7217TIP3   OH221595   0.411   2.989   5.558
 7217TIP3    H121596   0.404   3.045   5.481
 7217TIP3    H221597   0.498   3.007   5.593
 7218TIP3   OH221598   2.486   1.531   4.043
 7218TIP3    H121599   2.428   1.482   3.986
 7218TIP3    H221600   2.573   1.520   4.006
 7219TIP3   OH221601   7.975   2.152   5.711
 7219TIP3    H121602   7.904   2.215   5.698
 7219TIP3    H221603   8.008   2.170   5.799
 7220TIP3   OH221604   1.455   1.054   4.035
 7220TIP3    H121605   1.366   1.075   4.008
 7220TIP3    H221606   1.454   1.058   4.130
 7221TIP3   OH221607   0.671   6.433   3.154
 7221TIP3    H121608   0.582   6.398   3.158
 7221TIP3    H221609   0.727   6.357   3.162
 7222TIP3   OH221610   7.666   1.857   0.590
 7222TIP3    H121611   7.595   1.801   0.559
 7222TIP3    H221612   7.658   1.855   0.685
 7223TIP3   OH221613   2.484   7.155   6.525
 7223TIP3    H121614   2.504   7.248   6.539
 7223TIP3    H221615   2.443   7.127   6.607
 7224TIP3   OH221616   1.244   2.007   5.206
 7224TIP3    H121617   1.328   2.030   5.167
 7224TIP3    H221618   1.261   1.928   5.257
 7225TIP3   OH221619   6.393   1.688   5.645
 7225TIP3    H121620   6.428   1.649   5.725
 7225TIP3    H221621   6.443   1.769   5.633
 7226TIP3   OH221622   3.192   4.973   4.857
 7226TIP3    H121623   3.226   4.925   4.782
 7226TIP3    H221624   3.261   5.036   4.879
 7227TIP3   OH221625   7.560   2.612   3.594
 7227TIP3    H121626   7.556   2.519   3.573
 7227TIP3    H221627   7.560   2.656   3.509
 7228TIP3   OH221628   3.905   1.831   6.051
 7228TIP3    H121629   3.865   1.747   6.028
 7228TIP3    H221630   3.921   1.825   6.145
 7229TIP3   OH221631   0.931   6.574   1.033
 7229TIP3    H121632   0.992   6.515   1.077
 7229TIP3    H221633   0.947   6.659   1.073
 7230TIP3   OH221634   2.156   2.591   3.096
 7230TIP3    H121635   2.251   2.603   3.088
 7230TIP3    H221636   2.120   2.641   3.023
 7231TIP3   OH221637   7.888   0.790   0.665
 7231TIP3    H121638   7.860   0.773   0.755
 7231TIP3    H221639   7.808   0.785   0.614
 7232TIP3   OH221640   1.069   0.855   6.007
 7232TIP3    H121641   1.091   0.947   5.991
 7232TIP3    H221642   0.974   0.854   6.017
 7233TIP3   OH221643   1.893   5.531   0.497
 7233TIP3    H121644   1.889   5.558   0.406
 7233TIP3    H221645   1.970   5.473   0.501
 7234TIP3   OH221646   6.961   7.060   5.482
 7234TIP3    H121647   6.880   7.101   5.451
 7234TIP3    H221648   6.944   6.966   5.473
 7235TIP3   OH221649   1.458   5.728   3.770
 7235TIP3    H121650   1.393   5.796   3.785
 7235TIP3    H221651   1.528   5.748   3.833
 7236TIP3   OH221652   0.083   2.588   3.601
 7236TIP3    H121653   0.151   2.626   3.657
 7236TIP3    H221654   0.033   2.532   3.660
 7237TIP3   OH221655   3.463   4.107   2.855
 7237TIP3    H121656   3.492   4.133   2.768
 7237TIP3    H221657   3.544   4.098   2.906
 7238TIP3   OH221658   1.375   6.022   4.260
 7238TIP3    H121659   1.317   5.958   4.218
 7238TIP3    H221660   1.388   5.988   4.348
 7239TIP3   OH221661   1.595   3.564   3.351
 7239TIP3    H121662   1.644   3.540   3.429
 7239TIP3    H221663   1.598   3.486   3.295
 7240TIP3   OH221664   0.844   4.927   4.398
 7240TIP3    H121665   0.922   4.920   4.343
 7240TIP3    H221666   0.830   4.839   4.432
 7241TIP3   OH221667   3.950   1.466   2.399
 7241TIP3    H121668   4.019   1.525   2.368
 7241TIP3    H221669   3.969   1.455   2.493
 7242TIP3   OH221670   4.169   3.270   3.138
 7242TIP3    H121671   4.091   3.224   3.109
 7242TIP3    H221672   4.136   3.352   3.176
 7243TIP3   OH221673   3.031   6.109   5.203
 7243TIP3    H121674   2.990   6.024   5.215
 7243TIP3    H221675   3.010   6.157   5.284
 7244TIP3   OH221676   5.379   1.784   2.387
 7244TIP3    H121677   5.442   1.783   2.459
 7244TIP3    H221678   5.310   1.723   2.415
 7245TIP3   OH221679   6.235   6.202   5.410
 7245TIP3    H121680   6.300   6.233   5.474
 7245TIP3    H221681   6.241   6.107   5.414
 7246TIP3   OH221682   4.109   6.310   4.086
 7246TIP3    H121683   4.122   6.404   4.072
 7246TIP3    H221684   4.030   6.289   4.036
 7247TIP3   OH221685   1.275   0.289   6.478
 7247TIP3    H121686   1.275   0.306   6.383
 7247TIP3    H221687   1.271   0.376   6.517
 7248TIP3   OH221688   7.953   4.599   3.359
 7248TIP3    H121689   7.926   4.637   3.443
 7248TIP3    H221690   7.917   4.510   3.361
 7249TIP3   OH221691   3.553   4.459   0.507
 7249TIP3    H121692   3.580   4.543   0.468
 7249TIP3    H221693   3.630   4.428   0.553
 7250TIP3   OH221694   7.435   3.328   1.573
 7250TIP3    H121695   7.357   3.313   1.626
 7250TIP3    H221696   7.457   3.420   1.589
 7251TIP3   OH221697   4.921   2.200   6.576
 7251TIP3    H121698   4.930   2.190   6.481
 7251TIP3    H221699   5.000   2.246   6.603
 7252TIP3   OH221700   2.883   0.719   3.166
 7252TIP3    H121701   2.792   0.747   3.172
 7252TIP3    H221702   2.927   0.765   3.237
 7253TIP3   OH221703   2.679   0.440   2.349
 7253TIP3    H121704   2.722   0.523   2.329
 7253TIP3    H221705   2.672   0.438   2.444
 7254TIP3   OH221706   6.247   6.963   1.934
 7254TIP3    H121707   6.247   6.965   1.838
 7254TIP3    H221708   6.321   6.907   1.957
 7255TIP3   OH221709   5.918   3.023   1.149
 7255TIP3    H121710   5.931   3.117   1.163
 7255TIP3    H221711   5.899   3.015   1.056
 7256TIP3   OH221712   3.847   2.609   4.695
 7256TIP3    H121713   3.915   2.658   4.649
 7256TIP3    H221714   3.770   2.616   4.639
 7257TIP3   OH221715   4.734   2.335   0.382
 7257TIP3    H121716   4.703   2.398   0.317
 7257TIP3    H221717   4.661   2.325   0.443
 7258TIP3   OH221718   4.173   6.865   0.731
 7258TIP3    H121719   4.108   6.802   0.761
 7258TIP3    H221720   4.126   6.948   0.726
 7259TIP3   OH221721   4.419   3.846   2.835
 7259TIP3    H121722   4.480   3.878   2.768
 7259TIP3    H221723   4.467   3.855   2.917
 7260TIP3   OH221724   6.264   4.427   4.292
 7260TIP3    H121725   6.358   4.421   4.311
 7260TIP3    H221726   6.253   4.377   4.212
 7261TIP3   OH221727   7.357   6.809   3.229
 7261TIP3    H121728   7.335   6.757   3.152
 7261TIP3    H221729   7.399   6.747   3.289
 7262TIP3   OH221730   2.807   3.140   0.148
 7262TIP3    H121731   2.860   3.166   0.073
 7262TIP3    H221732   2.718   3.132   0.112
 7263TIP3   OH221733   7.641   3.453   6.270
 7263TIP3    H121734   7.589   3.524   6.306
 7263TIP3    H221735   7.701   3.429   6.341
 7264TIP3   OH221736   8.203   6.001   1.812
 7264TIP3    H121737   8.242   5.914   1.815
 7264TIP3    H221738   8.207   6.032   1.902
 7265TIP3   OH221739   2.289   1.093   6.272
 7265TIP3    H121740   2.251   1.008   6.295
 7265TIP3    H221741   2.228   1.157   6.307
 7266TIP3   OH221742   7.227   4.395   2.340
 7266TIP3    H121743   7.310   4.382   2.386
 7266TIP3    H221744   7.249   4.385   2.247
 7267TIP3   OH221745   3.291   4.449   3.005
 7267TIP3    H121746   3.217   4.397   2.974
 7267TIP3    H221747   3.263   4.540   2.992
 7268TIP3   OH221748   0.478   4.972   0.969
 7268TIP3    H121749   0.478   5.067   0.955
 7268TIP3    H221750   0.517   4.936   0.890
 7269TIP3   OH221751   5.232   4.432   2.525
 7269TIP3    H121752   5.312   4.474   2.556
 7269TIP3    H221753   5.253   4.339   2.524
 7270TIP3   OH221754   4.303   2.425   6.726
 7270TIP3    H121755   4.362   2.371   6.779
 7270TIP3    H221756   4.237   2.455   6.788
 7271TIP3   OH221757   6.016   4.487   0.852
 7271TIP3    H121758   6.018   4.493   0.757
 7271TIP3    H221759   6.059   4.566   0.883
 7272TIP3   OH221760   2.167   2.136   5.143
 7272TIP3    H121761   2.251   2.170   5.173
 7272TIP3    H221762   2.111   2.214   5.134
 7273TIP3   OH221763   1.272   6.928   5.352
 7273TIP3    H121764   1.232   6.938   5.265
 7273TIP3    H221765   1.255   7.012   5.395
 7274TIP3   OH221766   0.709   5.759   2.212
 7274TIP3    H121767   0.753   5.775   2.128
 7274TIP3    H221768   0.634   5.818   2.211
 7275TIP3   OH221769   1.317   1.854   0.257
 7275TIP3    H121770   1.231   1.896   0.265
 7275TIP3    H221771   1.297   1.765   0.230
 7276TIP3   OH221772   2.607   6.257   2.733
 7276TIP3    H121773   2.544   6.270   2.804
 7276TIP3    H221774   2.632   6.345   2.707
 7277TIP3   OH221775   0.381   2.613   3.278
 7277TIP3    H121776   0.302   2.644   3.322
 7277TIP3    H221777   0.416   2.690   3.233
 7278TIP3   OH221778   7.356   1.596   4.625
 7278TIP3    H121779   7.378   1.525   4.565
 7278TIP3    H221780   7.274   1.570   4.666
 7279TIP3   OH221781   2.174   6.153   0.483
 7279TIP3    H121782   2.140   6.194   0.563
 7279TIP3    H221783   2.149   6.061   0.490
 7280TIP3   OH221784   6.670   3.195   2.635
 7280TIP3    H121785   6.618   3.186   2.715
 7280TIP3    H221786   6.759   3.209   2.667
 7281TIP3   OH221787   3.400   3.106   3.048
 7281TIP3    H121788   3.387   3.011   3.044
 7281TIP3    H221789   3.311   3.142   3.045
 7282TIP3   OH221790   5.075   3.405   3.548
 7282TIP3    H121791   4.991   3.374   3.514
 7282TIP3    H221792   5.093   3.485   3.498
 7283TIP3   OH221793   6.604   0.611   2.936
 7283TIP3    H121794   6.509   0.609   2.948
 7283TIP3    H221795   6.625   0.529   2.892
 7284TIP3   OH221796   0.865   2.129   1.739
 7284TIP3    H121797   0.951   2.116   1.777
 7284TIP3    H221798   0.879   2.189   1.666
 7285TIP3   OH221799   1.790   1.245   0.377
 7285TIP3    H121800   1.767   1.264   0.468
 7285TIP3    H221801   1.856   1.175   0.383
 7286TIP3   OH221802   2.270   3.274   3.686
 7286TIP3    H121803   2.243   3.290   3.596
 7286TIP3    H221804   2.194   3.302   3.738
 7287TIP3   OH221805   4.938   6.215   5.683
 7287TIP3    H121806   4.894   6.208   5.598
 7287TIP3    H221807   5.031   6.200   5.663
 7288TIP3   OH221808   3.971   4.734   2.733
 7288TIP3    H121809   3.951   4.673   2.661
 7288TIP3    H221810   3.908   4.712   2.801
 7289TIP3   OH221811   1.163   5.575   6.365
 7289TIP3    H121812   1.101   5.548   6.297
 7289TIP3    H221813   1.167   5.500   6.425
 7290TIP3   OH221814   2.489   4.949   4.752
 7290TIP3    H121815   2.524   4.943   4.663
 7290TIP3    H221816   2.498   4.861   4.788
 7291TIP3   OH221817   7.832   5.461   3.315
 7291TIP3    H121818   7.836   5.365   3.315
 7291TIP3    H221819   7.887   5.487   3.389
 7292TIP3   OH221820   7.605   4.675   3.021
 7292TIP3    H121821   7.543   4.634   2.962
 7292TIP3    H221822   7.636   4.604   3.077
 7293TIP3   OH221823   4.103   0.895   1.436
 7293TIP3    H121824   4.024   0.919   1.483
 7293TIP3    H221825   4.143   0.979   1.412
 7294TIP3   OH221826   0.820   5.612   3.480
 7294TIP3    H121827   0.827   5.622   3.385
 7294TIP3    H221828   0.893   5.555   3.504
 7295TIP3   OH221829   6.397   1.662   5.938
 7295TIP3    H121830   6.305   1.642   5.955
 7295TIP3    H221831   6.420   1.728   6.003
 7296TIP3   OH221832   3.483   2.617   6.642
 7296TIP3    H121833   3.478   2.680   6.571
 7296TIP3    H221834   3.556   2.559   6.618
 7297TIP3   OH221835   0.629   3.581   5.038
 7297TIP3    H121836   0.573   3.505   5.020
 7297TIP3    H221837   0.639   3.624   4.953
 7298TIP3   OH221838   3.905   1.500   0.558
 7298TIP3    H121839   3.977   1.438   0.571
 7298TIP3    H221840   3.945   1.586   0.571
 7299TIP3   OH221841   0.069   6.235   3.325
 7299TIP3    H121842   0.000   6.169   3.323
 7299TIP3    H221843   0.032   6.309   3.276
 7300TIP3   OH221844   2.964   2.478   6.551
 7300TIP3    H121845   2.930   2.526   6.475
 7300TIP3    H221846   3.042   2.527   6.577
 7301TIP3   OH221847   3.784  -0.020   2.187
 7301TIP3    H121848   3.844   0.050   2.161
 7301TIP3    H221849   3.720   0.024   2.244
 7302TIP3   OH221850   3.470   5.914   2.347
 7302TIP3    H121851   3.473   5.825   2.382
 7302TIP3    H221852   3.415   5.907   2.269
 7303TIP3   OH221853   2.175   0.308   4.896
 7303TIP3    H121854   2.177   0.270   4.808
 7303TIP3    H221855   2.192   0.401   4.881
 7304TIP3   OH221856   5.680   1.880   5.902
 7304TIP3    H121857   5.730   1.802   5.926
 7304TIP3    H221858   5.679   1.933   5.982
 7305TIP3   OH221859   7.846   3.576   1.929
 7305TIP3    H121860   7.785   3.601   1.998
 7305TIP3    H221861   7.880   3.659   1.896
 7306TIP3   OH221862   2.423   1.866   0.874
 7306TIP3    H121863   2.484   1.802   0.836
 7306TIP3    H221864   2.369   1.895   0.801
 7307TIP3   OH221865   4.383   3.718   4.851
 7307TIP3    H121866   4.370   3.631   4.813
 7307TIP3    H221867   4.320   3.722   4.924
 7308TIP3   OH221868   7.197   1.827   1.297
 7308TIP3    H121869   7.280   1.814   1.343
 7308TIP3    H221870   7.169   1.915   1.323
 7309TIP3   OH221871   6.742   2.371   0.461
 7309TIP3    H121872   6.771   2.385   0.552
 7309TIP3    H221873   6.751   2.277   0.448
 7310TIP3   OH221874   5.300   7.448   3.971
 7310TIP3    H121875   5.232   7.393   4.012
 7310TIP3    H221876   5.370   7.452   4.036
 7311TIP3   OH221877   5.290   2.431   3.788
 7311TIP3    H121878   5.321   2.402   3.874
 7311TIP3    H221879   5.283   2.351   3.737
 7312TIP3   OH221880   5.818   5.427   4.336
 7312TIP3    H121881   5.750   5.392   4.277
 7312TIP3    H221882   5.863   5.349   4.370
 7313TIP3   OH221883   0.036   6.037   6.111
 7313TIP3    H121884   0.096   6.038   6.037
 7313TIP3    H221885  -0.044   6.078   6.077
 7314TIP3   OH221886   3.094   6.148   4.187
 7314TIP3    H121887   3.124   6.057   4.189
 7314TIP3    H221888   3.000   6.143   4.176
 7315TIP3   OH221889   0.890   4.357   4.838
 7315TIP3    H121890   0.965   4.319   4.793
 7315TIP3    H221891   0.890   4.449   4.811
 7316TIP3   OH221892   1.059   5.221   4.801
 7316TIP3    H121893   1.109   5.302   4.805
 7316TIP3    H221894   1.009   5.227   4.719
 7317TIP3   OH221895   3.909   6.646   4.612
 7317TIP3    H121896   3.984   6.601   4.573
 7317TIP3    H221897   3.939   6.671   4.700
 7318TIP3   OH221898   5.494   7.727   3.674
 7318TIP3    H121899   5.421   7.740   3.613
 7318TIP3    H221900   5.496   7.808   3.726
 7319TIP3   OH221901   6.740   6.809   4.244
 7319TIP3    H121902   6.744   6.714   4.260
 7319TIP3    H221903   6.760   6.818   4.151
 7320TIP3   OH221904   2.237   5.631   5.645
 7320TIP3    H121905   2.182   5.665   5.575
 7320TIP3    H221906   2.303   5.698   5.659
 7321TIP3   OH221907   1.591   7.610   5.116
 7321TIP3    H121908   1.682   7.610   5.086
 7321TIP3    H221909   1.593   7.566   5.201
 7322TIP3   OH221910   2.147   6.766   5.546
 7322TIP3    H121911   2.230   6.806   5.575
 7322TIP3    H221912   2.172   6.711   5.472
 7323TIP3   OH221913   1.023   5.488   5.543
 7323TIP3    H121914   1.092   5.551   5.521
 7323TIP3    H221915   0.953   5.507   5.480
 7324TIP3   OH221916   2.248   0.466   0.511
 7324TIP3    H121917   2.253   0.380   0.551
 7324TIP3    H221918   2.339   0.495   0.504
 7325TIP3   OH221919   0.954   4.749   3.157
 7325TIP3    H121920   0.900   4.749   3.236
 7325TIP3    H221921   0.983   4.658   3.147
 7326TIP3   OH221922   6.017   2.667   4.663
 7326TIP3    H121923   5.936   2.617   4.660
 7326TIP3    H221924   6.072   2.629   4.594
 7327TIP3   OH221925   6.300   3.404   6.394
 7327TIP3    H121926   6.355   3.344   6.444
 7327TIP3    H221927   6.346   3.417   6.312
 7328TIP3   OH221928   5.085   1.741   4.444
 7328TIP3    H121929   5.129   1.707   4.522
 7328TIP3    H221930   5.080   1.667   4.384
 7329TIP3   OH221931   2.251   6.045   1.743
 7329TIP3    H121932   2.277   6.128   1.784
 7329TIP3    H221933   2.301   5.979   1.790
 7330TIP3   OH221934   4.954   2.783   5.721
 7330TIP3    H121935   5.027   2.785   5.660
 7330TIP3    H221936   4.877   2.766   5.667
 7331TIP3   OH221937   4.631   6.973   1.094
 7331TIP3    H121938   4.571   7.024   1.148
 7331TIP3    H221939   4.595   6.884   1.095
 7332TIP3   OH221940   7.675   1.462   4.881
 7332TIP3    H121941   7.592   1.508   4.887
 7332TIP3    H221942   7.708   1.483   4.793
 7333TIP3   OH221943   7.391   5.786   6.195
 7333TIP3    H121944   7.417   5.783   6.287
 7333TIP3    H221945   7.364   5.877   6.181
 7334TIP3   OH221946   6.899   2.926   1.790
 7334TIP3    H121947   6.973   2.868   1.808
 7334TIP3    H221948   6.828   2.867   1.765
 7335TIP3   OH221949   5.703   0.466   5.524
 7335TIP3    H121950   5.737   0.380   5.499
 7335TIP3    H221951   5.753   0.528   5.470
 7336TIP3   OH221952   6.478   2.231   3.855
 7336TIP3    H121953   6.404   2.177   3.827
 7336TIP3    H221954   6.549   2.169   3.867
 7337TIP3   OH221955   0.814   0.213   5.195
 7337TIP3    H121956   0.843   0.242   5.108
 7337TIP3    H221957   0.833   0.288   5.252
 7338TIP3   OH221958   4.445   4.075   0.893
 7338TIP3    H121959   4.349   4.077   0.882
 7338TIP3    H221960   4.471   3.993   0.852
 7339TIP3   OH221961   4.195   2.622   3.477
 7339TIP3    H121962   4.239   2.680   3.539
 7339TIP3    H221963   4.121   2.673   3.445
 7340TIP3   OH221964   7.567   2.333   4.537
 7340TIP3    H121965   7.561   2.242   4.509
 7340TIP3    H221966   7.514   2.338   4.616
 7341TIP3   OH221967   6.891   0.368   6.194
 7341TIP3    H121968   6.824   0.391   6.130
 7341TIP3    H221969   6.864   0.411   6.275
 7342TIP3   OH221970   8.045   6.962   3.850
 7342TIP3    H121971   8.076   6.969   3.940
 7342TIP3    H221972   7.975   7.027   3.845
 7343TIP3   OH221973   6.735   4.923   0.623
 7343TIP3    H121974   6.732   5.012   0.657
 7343TIP3    H221975   6.663   4.918   0.560
 7344TIP3   OH221976   2.880   1.257   2.028
 7344TIP3    H121977   2.855   1.332   1.974
 7344TIP3    H221978   2.850   1.280   2.116
 7345TIP3   OH221979   8.284   1.986   1.216
 7345TIP3    H121980   8.229   1.982   1.294
 7345TIP3    H221981   8.311   2.078   1.210
 7346TIP3   OH221982   2.824   7.648   3.708
 7346TIP3    H121983   2.820   7.615   3.618
 7346TIP3    H221984   2.900   7.604   3.746
 7347TIP3   OH221985   1.289   1.681   4.874
 7347TIP3    H121986   1.382   1.707   4.872
 7347TIP3    H221987   1.255   1.722   4.954
 7348TIP3   OH221988   2.089   5.725   2.101
 7348TIP3    H121989   2.136   5.788   2.155
 7348TIP3    H221990   2.120   5.640   2.130
 7349TIP3   OH221991   8.255   3.334   3.198
 7349TIP3    H121992   8.169   3.339   3.155
 7349TIP3    H221993   8.318   3.351   3.128
 7350TIP3   OH221994   0.910   0.719   6.311
 7350TIP3    H121995   0.917   0.635   6.357
 7350TIP3    H221996   0.970   0.777   6.358
 7351TIP3   OH221997   4.119   0.764   3.367
 7351TIP3    H121998   4.160   0.849   3.347
 7351TIP3    H221999   4.027   0.785   3.381
 7352TIP3   OH222000   5.934   6.499   3.840
 7352TIP3    H122001   5.995   6.505   3.766
 7352TIP3    H222002   5.988   6.514   3.917
 7353TIP3   OH222003   6.842   0.914   3.927
 7353TIP3    H122004   6.862   0.977   3.858
 7353TIP3    H222005   6.764   0.950   3.970
 7354TIP3   OH222006   1.636   0.723   0.183
 7354TIP3    H122007   1.689   0.643   0.187
 7354TIP3    H222008   1.607   0.737   0.273
 7355TIP3   OH222009   0.389   5.600   2.900
 7355TIP3    H122010   0.482   5.579   2.912
 7355TIP3    H222011   0.349   5.517   2.873
 7356TIP3   OH222012   1.691   1.422   3.837
 7356TIP3    H122013   1.624   1.476   3.794
 7356TIP3    H222014   1.719   1.360   3.770
 7357TIP3   OH222015   4.578   5.915   4.589
 7357TIP3    H122016   4.635   5.838   4.589
 7357TIP3    H222017   4.510   5.894   4.525
 7358TIP3   OH222018   3.800   6.578   1.794
 7358TIP3    H122019   3.794   6.662   1.749
 7358TIP3    H222020   3.756   6.593   1.878
 7359TIP3   OH222021   6.269   3.580   4.295
 7359TIP3    H122022   6.186   3.628   4.306
 7359TIP3    H222023   6.242   3.490   4.277
 7360TIP3   OH222024   5.978   4.384   3.654
 7360TIP3    H122025   6.029   4.450   3.701
 7360TIP3    H222026   5.931   4.337   3.722
 7361TIP3   OH222027   7.163   2.593   3.343
 7361TIP3    H122028   7.189   2.595   3.251
 7361TIP3    H222029   7.082   2.643   3.346
 7362TIP3   OH222030   4.118   6.656   2.251
 7362TIP3    H122031   4.049   6.701   2.202
 7362TIP3    H222032   4.199   6.679   2.206
 7363TIP3   OH222033   3.745   4.112   5.685
 7363TIP3    H122034   3.779   4.124   5.596
 7363TIP3    H222035   3.823   4.113   5.740
 7364TIP3   OH222036   5.516   2.460   2.282
 7364TIP3    H122037   5.568   2.512   2.222
 7364TIP3    H222038   5.495   2.380   2.232
 7365TIP3   OH222039   0.249   2.562   1.427
 7365TIP3    H122040   0.206   2.483   1.395
 7365TIP3    H222041   0.304   2.532   1.499
 7366TIP3   OH222042   6.424   7.465   3.124
 7366TIP3    H122043   6.410   7.385   3.072
 7366TIP3    H222044   6.502   7.505   3.086
 7367TIP3   OH222045   5.381   4.690   4.743
 7367TIP3    H122046   5.466   4.648   4.759
 7367TIP3    H222047   5.327   4.660   4.816
 7368TIP3   OH222048   0.376   0.210   5.301
 7368TIP3    H122049   0.406   0.300   5.285
 7368TIP3    H222050   0.422   0.158   5.235
 7369TIP3   OH222051   6.611   4.494   1.914
 7369TIP3    H122052   6.538   4.506   1.974
 7369TIP3    H222053   6.651   4.411   1.940
 7370TIP3   OH222054   5.650   2.051   0.041
 7370TIP3    H122055   5.645   2.147   0.044
 7370TIP3    H222056   5.685   2.031  -0.045
 7371TIP3   OH222057   6.522   2.845   4.616
 7371TIP3    H122058   6.600   2.874   4.570
 7371TIP3    H222059   6.477   2.788   4.553
 7372TIP3   OH222060   2.511   3.236   1.076
 7372TIP3    H122061   2.560   3.183   1.013
 7372TIP3    H222062   2.431   3.186   1.092
 7373TIP3   OH222063   1.263   5.939   0.177
 7373TIP3    H122064   1.219   6.007   0.228
 7373TIP3    H222065   1.309   5.886   0.242
 7374TIP3   OH222066   0.739   1.538   5.240
 7374TIP3    H122067   0.671   1.522   5.306
 7374TIP3    H222068   0.736   1.461   5.184
 7375TIP3   OH222069   6.212   0.037   6.387
 7375TIP3    H122070   6.294  -0.012   6.391
 7375TIP3    H222071   6.180   0.038   6.477
 7376TIP3   OH222072   0.980   7.600   5.460
 7376TIP3    H122073   1.035   7.677   5.466
 7376TIP3    H222074   0.896   7.633   5.428
 7377TIP3   OH222075   2.268   4.571   0.720
 7377TIP3    H122076   2.246   4.653   0.676
 7377TIP3    H222077   2.225   4.577   0.805
 7378TIP3   OH222078   3.218   7.776   1.452
 7378TIP3    H122079   3.264   7.819   1.381
 7378TIP3    H222080   3.129   7.813   1.449
 7379TIP3   OH222081   5.861   7.485   0.060
 7379TIP3    H122082   5.912   7.404   0.066
 7379TIP3    H222083   5.808   7.485   0.139
 7380TIP3   OH222084   4.819   5.611   4.085
 7380TIP3    H122085   4.838   5.690   4.135
 7380TIP3    H222086   4.880   5.614   4.011
 7381TIP3   OH222087   4.648   7.467   2.374
 7381TIP3    H122088   4.679   7.534   2.314
 7381TIP3    H222089   4.649   7.509   2.460
 7382TIP3   OH222090   1.594   7.386   6.194
 7382TIP3    H122091   1.618   7.405   6.285
 7382TIP3    H222092   1.500   7.406   6.190
 7383TIP3   OH222093   0.221   1.732   0.568
 7383TIP3    H122094   0.201   1.764   0.481
 7383TIP3    H222095   0.249   1.809   0.617
 7384TIP3   OH222096   4.630   4.180   6.097
 7384TIP3    H122097   4.563   4.172   6.029
 7384TIP3    H222098   4.711   4.198   6.048
 7385TIP3   OH222099   1.474   3.260   2.299
 7385TIP3    H122100   1.473   3.211   2.217
 7385TIP3    H222101   1.468   3.352   2.273
 7386TIP3   OH222102   0.494   0.173   4.053
 7386TIP3    H122103   0.401   0.186   4.074
 7386TIP3    H222104   0.494   0.110   3.981
 7387TIP3   OH222105   0.636   6.279   1.759
 7387TIP3    H122106   0.624   6.372   1.741
 7387TIP3    H222107   0.715   6.275   1.814
 7388TIP3   OH222108   5.512   0.488   6.184
 7388TIP3    H122109   5.540   0.548   6.254
 7388TIP3    H222110   5.546   0.528   6.104
 7389TIP3   OH222111   7.977   4.748   6.459
 7389TIP3    H122112   7.969   4.770   6.367
 7389TIP3    H222113   7.895   4.777   6.498
 7390TIP3   OH222114   2.942   2.322   5.192
 7390TIP3    H122115   2.968   2.241   5.236
 7390TIP3    H222116   2.947   2.301   5.099
 7391TIP3   OH222117   0.372   3.146   1.406
 7391TIP3    H122118   0.359   3.052   1.391
 7391TIP3    H222119   0.346   3.187   1.323
 7392TIP3   OH222120   6.274   7.191   1.336
 7392TIP3    H122121   6.198   7.145   1.373
 7392TIP3    H222122   6.241   7.233   1.257
 7393TIP3   OH222123   1.112   5.064   3.602
 7393TIP3    H122124   1.075   5.116   3.530
 7393TIP3    H222125   1.138   4.982   3.561
 7394TIP3   OH222126   0.798   3.732   5.383
 7394TIP3    H122127   0.867   3.697   5.439
 7394TIP3    H222128   0.844   3.788   5.320
 7395TIP3   OH222129   6.096   2.234   1.097
 7395TIP3    H122130   6.097   2.187   1.013
 7395TIP3    H222131   6.022   2.197   1.144
 7396TIP3   OH222132   1.202   4.169   2.583
 7396TIP3    H122133   1.225   4.122   2.503
 7396TIP3    H222134   1.286   4.185   2.627
 7397TIP3   OH222135   3.629   1.989   4.168
 7397TIP3    H122136   3.638   2.044   4.245
 7397TIP3    H222137   3.608   2.050   4.097
 7398TIP3   OH222138   7.197   3.616   4.523
 7398TIP3    H122139   7.254   3.633   4.448
 7398TIP3    H222140   7.113   3.589   4.484
 7399TIP3   OH222141   5.728   0.520   2.442
 7399TIP3    H122142   5.712   0.428   2.463
 7399TIP3    H222143   5.805   0.543   2.494
 7400TIP3   OH222144   6.987   2.877   2.672
 7400TIP3    H122145   6.968   2.792   2.631
 7400TIP3    H222146   6.903   2.909   2.702
 7401TIP3   OH222147   7.515   1.162   5.645
 7401TIP3    H122148   7.525   1.191   5.735
 7401TIP3    H222149   7.428   1.192   5.619
 7402TIP3   OH222150   5.132   2.080   4.662
 7402TIP3    H122151   5.223   2.051   4.670
 7402TIP3    H222152   5.104   2.048   4.576
 7403TIP3   OH222153   0.728   2.330   1.567
 7403TIP3    H122154   0.795   2.397   1.553
 7403TIP3    H222155   0.736   2.272   1.491
 7404TIP3   OH222156   6.537   0.141   5.434
 7404TIP3    H122157   6.557   0.216   5.490
 7404TIP3    H222158   6.505   0.180   5.353
 7405TIP3   OH222159   4.953   2.512   5.095
 7405TIP3    H122160   4.907   2.595   5.084
 7405TIP3    H222161   4.885   2.448   5.112
 7406TIP3   OH222162   0.625   4.591   1.687
 7406TIP3    H122163   0.710   4.576   1.647
 7406TIP3    H222164   0.587   4.503   1.697
 7407TIP3   OH222165   0.866   6.308   2.486
 7407TIP3    H122166   0.812   6.229   2.490
 7407TIP3    H222167   0.919   6.297   2.407
 7408TIP3   OH222168   4.123   3.755   6.105
 7408TIP3    H122169   4.116   3.661   6.086
 7408TIP3    H222170   4.034   3.782   6.127
 7409TIP3   OH222171   2.888   3.262   5.597
 7409TIP3    H122172   2.852   3.177   5.621
 7409TIP3    H222173   2.957   3.243   5.534
 7410TIP3   OH222174   7.714   1.347   3.223
 7410TIP3    H122175   7.639   1.364   3.166
 7410TIP3    H222176   7.679   1.288   3.290
 7411TIP3   OH222177   1.420   2.703   5.151
 7411TIP3    H122178   1.487   2.656   5.102
 7411TIP3    H222179   1.366   2.746   5.084
 7412TIP3   OH222180   5.990   2.634   4.023
 7412TIP3    H122181   6.049   2.559   4.030
 7412TIP3    H222182   5.959   2.649   4.113
 7413TIP3   OH222183   1.914   1.159   2.321
 7413TIP3    H122184   1.874   1.077   2.349
 7413TIP3    H222185   2.000   1.160   2.364
 7414TIP3   OH222186   0.180   0.450   2.857
 7414TIP3    H122187   0.205   0.358   2.866
 7414TIP3    H222188   0.262   0.497   2.844
 7415TIP3   OH222189   5.045   7.820   3.145
 7415TIP3    H122190   5.083   7.732   3.154
 7415TIP3    H222191   4.985   7.813   3.071
 7416TIP3   OH222192   1.432   5.172   1.485
 7416TIP3    H122193   1.396   5.094   1.444
 7416TIP3    H222194   1.392   5.245   1.439
 7417TIP3   OH222195   1.779   1.966   4.971
 7417TIP3    H122196   1.804   1.986   5.062
 7417TIP3    H222197   1.858   1.985   4.921
 7418TIP3   OH222198   0.180   1.524   5.172
 7418TIP3    H122199   0.217   1.495   5.089
 7418TIP3    H222200   0.125   1.451   5.201
 7419TIP3   OH222201   1.202   3.119   3.596
 7419TIP3    H122202   1.167   3.193   3.644
 7419TIP3    H222203   1.135   3.099   3.530
 7420TIP3   OH222204   1.008   1.809   2.644
 7420TIP3    H122205   1.041   1.878   2.586
 7420TIP3    H222206   1.080   1.793   2.705
 7421TIP3   OH222207   1.363   7.752   1.907
 7421TIP3    H122208   1.292   7.727   1.849
 7421TIP3    H222209   1.416   7.814   1.856
 7422TIP3   OH222210   6.291   4.595   3.085
 7422TIP3    H122211   6.368   4.542   3.107
 7422TIP3    H222212   6.281   4.655   3.159
 7423TIP3   OH222213   3.439   1.512   0.363
 7423TIP3    H122214   3.429   1.607   0.354
 7423TIP3    H222215   3.533   1.497   0.350
 7424TIP3   OH222216   5.234   6.777   6.724
 7424TIP3    H122217   5.279   6.703   6.683
 7424TIP3    H222218   5.147   6.743   6.745
 7425TIP3   OH222219   7.493   1.775   3.039
 7425TIP3    H122220   7.410   1.823   3.040
 7425TIP3    H222221   7.492   1.727   2.956
 7426TIP3   OH222222   0.302   4.674   5.576
 7426TIP3    H122223   0.215   4.654   5.541
 7426TIP3    H222224   0.362   4.623   5.522
 7427TIP3   OH222225   3.116   5.187   2.049
 7427TIP3    H122226   3.120   5.169   1.955
 7427TIP3    H222227   3.192   5.241   2.067
 7428TIP3   OH222228   2.561   2.183   3.476
 7428TIP3    H122229   2.539   2.202   3.385
 7428TIP3    H222230   2.479   2.195   3.523
 7429TIP3   OH222231   1.940   3.017   5.575
 7429TIP3    H122232   1.979   3.036   5.660
 7429TIP3    H222233   2.004   2.960   5.532
 7430TIP3   OH222234   5.202   1.278   2.063
 7430TIP3    H122235   5.225   1.185   2.063
 7430TIP3    H222236   5.284   1.322   2.042
 7431TIP3   OH222237   8.136   0.089   2.675
 7431TIP3    H122238   8.190   0.165   2.692
 7431TIP3    H222239   8.195   0.026   2.633
 7432TIP3   OH222240   8.116   1.588   6.706
 7432TIP3    H122241   8.120   1.513   6.765
 7432TIP3    H222242   8.054   1.562   6.638
 7433TIP3   OH222243   5.586   1.996   3.197
 7433TIP3    H122244   5.547   1.911   3.179
 7433TIP3    H222245   5.512   2.057   3.195
 7434TIP3   OH222246   1.649   6.755   4.829
 7434TIP3    H122247   1.669   6.687   4.765
 7434TIP3    H222248   1.712   6.741   4.900
 7435TIP3   OH222249   2.773   5.931   5.741
 7435TIP3    H122250   2.755   5.844   5.706
 7435TIP3    H222251   2.867   5.930   5.761
 7436TIP3   OH222252   3.767   5.974   0.852
 7436TIP3    H122253   3.805   5.894   0.888
 7436TIP3    H222254   3.719   6.013   0.925
 7437TIP3   OH222255   3.960   5.350   6.328
 7437TIP3    H122256   3.892   5.367   6.392
 7437TIP3    H222257   3.957   5.256   6.314
 7438TIP3   OH222258   2.665   1.908   4.943
 7438TIP3    H122259   2.693   1.976   5.005
 7438TIP3    H222260   2.672   1.827   4.992
 7439TIP3   OH222261   3.705   0.270   0.760
 7439TIP3    H122262   3.767   0.201   0.781
 7439TIP3    H222263   3.702   0.324   0.839
 7440TIP3   OH222264   4.203   7.248   5.696
 7440TIP3    H122265   4.244   7.173   5.651
 7440TIP3    H222266   4.274   7.287   5.747
 7441TIP3   OH222267   3.218   5.394   3.440
 7441TIP3    H122268   3.311   5.383   3.420
 7441TIP3    H222269   3.176   5.317   3.402
 7442TIP3   OH222270   1.837   1.519   3.180
 7442TIP3    H122271   1.743   1.540   3.183
 7442TIP3    H222272   1.856   1.511   3.086
 7443TIP3   OH222273   0.344   5.575   3.936
 7443TIP3    H122274   0.298   5.621   3.866
 7443TIP3    H222275   0.416   5.634   3.960
 7444TIP3   OH222276   2.882   4.657   4.003
 7444TIP3    H122277   2.808   4.685   3.948
 7444TIP3    H222278   2.843   4.637   4.088
 7445TIP3   OH222279   5.998   0.046   2.336
 7445TIP3    H122280   5.925   0.078   2.283
 7445TIP3    H222281   6.018  -0.040   2.298
 7446TIP3   OH222282   6.799   2.043   3.293
 7446TIP3    H122283   6.748   2.123   3.281
 7446TIP3    H222284   6.850   2.036   3.212
 7447TIP3   OH222285   0.620   5.096   3.481
 7447TIP3    H122286   0.601   5.189   3.468
 7447TIP3    H222287   0.565   5.070   3.556
 7448TIP3   OH222288   6.766   7.480   2.531
 7448TIP3    H122289   6.680   7.446   2.505
 7448TIP3    H222290   6.751   7.521   2.616
 7449TIP3   OH222291   2.421   7.048   0.090
 7449TIP3    H122292   2.429   7.076   0.181
 7449TIP3    H222293   2.450   7.123   0.038
 7450TIP3   OH222294   2.479   7.811   5.491
 7450TIP3    H122295   2.413   7.741   5.486
 7450TIP3    H222296   2.429   7.889   5.517
 7451TIP3   OH222297   7.170   0.867   5.525
 7451TIP3    H122298   7.107   0.905   5.465
 7451TIP3    H222299   7.171   0.774   5.504
 7452TIP3   OH222300   0.135   2.931   1.704
 7452TIP3    H122301   0.083   3.005   1.674
 7452TIP3    H222302   0.081   2.854   1.684
 7453TIP3   OH222303   0.548   6.397   5.252
 7453TIP3    H122304   0.558   6.303   5.269
 7453TIP3    H222305   0.569   6.438   5.336
 7454TIP3   OH222306   6.633   2.720   2.564
 7454TIP3    H122307   6.576   2.652   2.527
 7454TIP3    H222308   6.659   2.773   2.488
 7455TIP3   OH222309   6.853   1.468   2.191
 7455TIP3    H122310   6.817   1.402   2.250
 7455TIP3    H222311   6.920   1.512   2.242
 7456TIP3   OH222312   0.781   0.338   5.741
 7456TIP3    H122313   0.860   0.304   5.698
 7456TIP3    H222314   0.803   0.429   5.762
 7457TIP3   OH222315   7.202   3.686   5.945
 7457TIP3    H122316   7.280   3.738   5.925
 7457TIP3    H222317   7.146   3.696   5.867
 7458TIP3   OH222318   2.900   1.898   1.864
 7458TIP3    H122319   2.874   1.975   1.914
 7458TIP3    H222320   2.955   1.848   1.924
 7459TIP3   OH222321   7.208   4.482   3.117
 7459TIP3    H122322   7.280   4.428   3.083
 7459TIP3    H222323   7.250   4.548   3.172
 7460TIP3   OH222324   4.861   0.590   2.689
 7460TIP3    H122325   4.908   0.520   2.735
 7460TIP3    H222326   4.902   0.671   2.719
 7461TIP3   OH222327   1.493   2.460   1.349
 7461TIP3    H122328   1.576   2.446   1.304
 7461TIP3    H222329   1.513   2.445   1.442
 7462TIP3   OH222330   3.721   5.729   6.563
 7462TIP3    H122331   3.627   5.723   6.548
 7462TIP3    H222332   3.761   5.703   6.480
 7463TIP3   OH222333   5.035   1.839   2.926
 7463TIP3    H122334   5.018   1.746   2.912
 7463TIP3    H222335   5.012   1.881   2.843
 7464TIP3   OH222336   0.659   5.537   0.045
 7464TIP3    H122337   0.666   5.459  -0.010
 7464TIP3    H222338   0.624   5.605  -0.013
 7465TIP3   OH222339   2.351   1.511   2.921
 7465TIP3    H122340   2.408   1.582   2.892
 7465TIP3    H222341   2.284   1.505   2.853
 7466TIP3   OH222342   3.654   6.422   4.571
 7466TIP3    H122343   3.637   6.337   4.531
 7466TIP3    H222344   3.713   6.402   4.644
 7467TIP3   OH222345   1.293   0.199   3.636
 7467TIP3    H122346   1.268   0.109   3.656
 7467TIP3    H222347   1.365   0.217   3.697
 7468TIP3   OH222348   7.733   0.025   2.126
 7468TIP3    H122349   7.791   0.064   2.191
 7468TIP3    H222350   7.672   0.094   2.103
 7469TIP3   OH222351   5.430   2.199   0.402
 7469TIP3    H122352   5.433   2.119   0.350
 7469TIP3    H222353   5.343   2.199   0.442
 7470TIP3   OH222354   3.592   6.054   1.515
 7470TIP3    H122355   3.512   6.018   1.477
 7470TIP3    H222356   3.652   5.979   1.521
 7471TIP3   OH222357   1.197   6.400   4.536
 7471TIP3    H122358   1.230   6.367   4.453
 7471TIP3    H222359   1.170   6.322   4.584
 7472TIP3   OH222360   7.670   7.140   3.323
 7472TIP3    H122361   7.713   7.124   3.407
 7472TIP3    H222362   7.737   7.181   3.268
 7473TIP3   OH222363   4.796   7.469   0.055
 7473TIP3    H122364   4.740   7.544   0.072
 7473TIP3    H222365   4.882   7.494   0.088
 7474TIP3   OH222366   2.504   2.377   5.466
 7474TIP3    H122367   2.484   2.351   5.555
 7474TIP3    H222368   2.422   2.365   5.418
 7475TIP3   OH222369   4.492   4.702   2.055
 7475TIP3    H122370   4.535   4.738   2.133
 7475TIP3    H222371   4.451   4.621   2.086
 7476TIP3   OH222372   0.732   7.119   3.354
 7476TIP3    H122373   0.704   7.162   3.274
 7476TIP3    H222374   0.792   7.181   3.395
 7477TIP3   OH222375   5.082   2.034   6.000
 7477TIP3    H122376   5.140   2.074   6.065
 7477TIP3    H222377   5.052   2.108   5.947
 7478TIP3   OH222378   7.222   3.124   6.267
 7478TIP3    H122379   7.128   3.140   6.275
 7478TIP3    H222380   7.260   3.210   6.246
 7479TIP3   OH222381   7.567   2.163   5.430
 7479TIP3    H122382   7.555   2.110   5.509
 7479TIP3    H222383   7.657   2.144   5.402
 7480TIP3   OH222384   1.612   4.840   3.672
 7480TIP3    H122385   1.535   4.845   3.727
 7480TIP3    H222386   1.670   4.909   3.705
 7481TIP3   OH222387   7.129   3.874   6.271
 7481TIP3    H122388   7.138   3.961   6.233
 7481TIP3    H222389   7.157   3.884   6.362
 7482TIP3   OH222390   3.134   4.957   4.346
 7482TIP3    H122391   3.096   4.883   4.300
 7482TIP3    H222392   3.068   5.026   4.340
 7483TIP3   OH222393   4.230   3.820   4.311
 7483TIP3    H122394   4.138   3.837   4.294
 7483TIP3    H222395   4.254   3.882   4.380
 7484TIP3   OH222396   3.087   6.539   0.728
 7484TIP3    H122397   3.037   6.490   0.663
 7484TIP3    H222398   3.047   6.516   0.812
 7485TIP3   OH222399   5.792   4.603   6.137
 7485TIP3    H122400   5.767   4.695   6.146
 7485TIP3    H222401   5.754   4.560   6.214
 7486TIP3   OH222402   3.739   0.245   6.098
 7486TIP3    H122403   3.707   0.155   6.093
 7486TIP3    H222404   3.665   0.299   6.070
 7487TIP3   OH222405   8.336   5.959   2.842
 7487TIP3    H122406   8.312   5.906   2.766
 7487TIP3    H222407   8.329   5.899   2.916
 7488TIP3   OH222408   5.938   0.659   1.627
 7488TIP3    H122409   5.879   0.593   1.593
 7488TIP3    H222410   5.996   0.611   1.687
 7489TIP3   OH222411   1.307   7.541   5.349
 7489TIP3    H122412   1.401   7.539   5.364
 7489TIP3    H222413   1.273   7.598   5.419
 7490TIP3   OH222414   2.205   5.794   6.567
 7490TIP3    H122415   2.249   5.778   6.483
 7490TIP3    H222416   2.174   5.708   6.594
 7491TIP3   OH222417   7.505   5.749   5.632
 7491TIP3    H122418   7.553   5.806   5.692
 7491TIP3    H222419   7.497   5.799   5.552
 7492TIP3   OH222420   4.367   5.647   2.705
 7492TIP3    H122421   4.302   5.608   2.764
 7492TIP3    H222422   4.314   5.694   2.640
 7493TIP3   OH222423   0.870   2.698   3.599
 7493TIP3    H122424   0.939   2.656   3.649
 7493TIP3    H222425   0.792   2.692   3.654
 7494TIP3   OH222426   4.256   6.941   5.824
 7494TIP3    H122427   4.276   6.950   5.917
 7494TIP3    H222428   4.281   6.850   5.804
 7495TIP3   OH222429   7.654   3.191   2.395
 7495TIP3    H122430   7.584   3.253   2.376
 7495TIP3    H222431   7.679   3.156   2.310
 7496TIP3   OH222432   4.073   3.394   5.112
 7496TIP3    H122433   4.025   3.398   5.029
 7496TIP3    H222434   4.164   3.409   5.087
 7497TIP3   OH222435   5.116   3.800   2.042
 7497TIP3    H122436   5.074   3.839   1.966
 7497TIP3    H222437   5.131   3.875   2.101
 7498TIP3   OH222438   2.104   4.652   0.921
 7498TIP3    H122439   2.124   4.613   1.006
 7498TIP3    H222440   2.110   4.746   0.935
 7499TIP3   OH222441   8.067   5.169   0.321
 7499TIP3    H122442   8.004   5.100   0.345
 7499TIP3    H222443   8.123   5.128   0.255
 7500TIP3   OH222444   4.666   2.101   4.960
 7500TIP3    H122445   4.669   2.056   4.876
 7500TIP3    H222446   4.757   2.099   4.991
 7501TIP3   OH222447   8.270   6.456   3.056
 7501TIP3    H122448   8.216   6.535   3.059
 7501TIP3    H222449   8.207   6.385   3.041
 7502TIP3   OH222450   7.198   6.198   4.902
 7502TIP3    H122451   7.113   6.155   4.891
 7502TIP3    H222452   7.199   6.266   4.835
 7503TIP3   OH222453   3.732   5.656   2.135
 7503TIP3    H122454   3.798   5.611   2.084
 7503TIP3    H222455   3.729   5.609   2.218
 7504TIP3   OH222456   4.487   4.957   1.910
 7504TIP3    H122457   4.470   4.872   1.949
 7504TIP3    H222458   4.530   5.007   1.980
 7505TIP3   OH222459   1.293   0.706   2.108
 7505TIP3    H122460   1.199   0.715   2.097
 7505TIP3    H222461   1.330   0.719   2.021
 7506TIP3   OH222462   5.389   0.715   4.437
 7506TIP3    H122463   5.479   0.729   4.405
 7506TIP3    H222464   5.374   0.788   4.497
 7507TIP3   OH222465   4.994   5.808   0.526
 7507TIP3    H122466   5.052   5.860   0.472
 7507TIP3    H222467   5.011   5.717   0.500
 7508TIP3   OH222468   1.537   4.014   4.239
 7508TIP3    H122469   1.566   4.009   4.147
 7508TIP3    H222470   1.478   4.089   4.241
 7509TIP3   OH222471   0.320   4.728   5.971
 7509TIP3    H122472   0.344   4.697   6.058
 7509TIP3    H222473   0.256   4.664   5.940
 7510TIP3   OH222474   2.586   7.395   2.414
 7510TIP3    H122475   2.548   7.422   2.497
 7510TIP3    H222476   2.638   7.317   2.435
 7511TIP3   OH222477   7.632   7.229   1.658
 7511TIP3    H122478   7.546   7.270   1.663
 7511TIP3    H222479   7.613   7.137   1.637
 7512TIP3   OH222480   8.100   1.196   4.289
 7512TIP3    H122481   8.037   1.212   4.359
 7512TIP3    H222482   8.093   1.273   4.233
 7513TIP3   OH222483   6.934   1.793   0.493
 7513TIP3    H122484   6.997   1.857   0.461
 7513TIP3    H222485   6.964   1.710   0.456
 7514TIP3   OH222486   0.454   1.583   3.056
 7514TIP3    H122487   0.383   1.647   3.064
 7514TIP3    H222488   0.473   1.579   2.963
 7515TIP3   OH222489   7.253   0.014   3.594
 7515TIP3    H122490   7.218   0.101   3.615
 7515TIP3    H222491   7.195  -0.047   3.639
 7516TIP3   OH222492   8.034   0.601   2.558
 7516TIP3    H122493   8.076   0.520   2.528
 7516TIP3    H222494   8.070   0.615   2.646
 7517TIP3   OH222495   6.989   3.624   6.167
 7517TIP3    H122496   7.049   3.620   6.093
 7517TIP3    H222497   7.011   3.706   6.211
 7518TIP3   OH222498   0.386   5.232   6.097
 7518TIP3    H122499   0.445   5.308   6.098
 7518TIP3    H222500   0.438   5.162   6.137
 7519TIP3   OH222501   3.315   3.733   5.516
 7519TIP3    H122502   3.287   3.642   5.532
 7519TIP3    H222503   3.245   3.770   5.462
 7520TIP3   OH222504   0.171   5.354   6.227
 7520TIP3    H122505   0.233   5.294   6.186
 7520TIP3    H222506   0.126   5.396   6.154
 7521TIP3   OH222507   7.163   1.078   0.564
 7521TIP3    H122508   7.209   1.121   0.636
 7521TIP3    H222509   7.187   0.986   0.571
 7522TIP3   OH222510   2.017   4.351   1.810
 7522TIP3    H122511   2.004   4.273   1.755
 7522TIP3    H222512   2.052   4.417   1.750
 7523TIP3   OH222513   4.730   3.591   0.200
 7523TIP3    H122514   4.778   3.509   0.214
 7523TIP3    H222515   4.719   3.596   0.105
 7524TIP3   OH222516   7.744   4.693   2.608
 7524TIP3    H122517   7.792   4.615   2.638
 7524TIP3    H222518   7.748   4.753   2.683
 7525TIP3   OH222519   3.950   2.726   1.830
 7525TIP3    H122520   3.981   2.641   1.799
 7525TIP3    H222521   3.868   2.706   1.875
 7526TIP3   OH222522   1.690   6.909   2.306
 7526TIP3    H122523   1.718   6.919   2.215
 7526TIP3    H222524   1.629   6.835   2.305
 7527TIP3   OH222525   0.354   2.317   2.006
 7527TIP3    H122526   0.363   2.408   1.978
 7527TIP3    H222527   0.443   2.285   2.014
 7528TIP3   OH222528   6.774   4.185   0.115
 7528TIP3    H122529   6.775   4.096   0.080
 7528TIP3    H222530   6.775   4.174   0.210
 7529TIP3   OH222531   2.319   2.612   4.817
 7529TIP3    H122532   2.310   2.704   4.793
 7529TIP3    H222533   2.272   2.564   4.750
 7530TIP3   OH222534   7.208   5.467   2.904
 7530TIP3    H122535   7.133   5.477   2.846
 7530TIP3    H222536   7.169   5.452   2.990
 7531TIP3   OH222537   0.213   4.751   1.618
 7531TIP3    H122538   0.215   4.687   1.689
 7531TIP3    H222539   0.137   4.726   1.566
 7532TIP3   OH222540   7.610   6.762   1.559
 7532TIP3    H122541   7.556   6.752   1.637
 7532TIP3    H222542   7.564   6.714   1.491
 7533TIP3   OH222543   5.664   7.757   2.764
 7533TIP3    H122544   5.635   7.666   2.751
 7533TIP3    H222545   5.684   7.788   2.676
 7534TIP3   OH222546   5.838   5.662   5.837
 7534TIP3    H122547   5.865   5.750   5.865
 7534TIP3    H222548   5.862   5.658   5.744
 7535TIP3   OH222549   0.856   0.080   5.553
 7535TIP3    H122550   0.932   0.111   5.602
 7535TIP3    H222551   0.818   0.012   5.609
 7536TIP3   OH222552   5.973   0.750   0.202
 7536TIP3    H122553   6.013   0.821   0.153
 7536TIP3    H222554   5.933   0.792   0.278
 7537TIP3   OH222555   6.521   3.177   5.452
 7537TIP3    H122556   6.508   3.260   5.407
 7537TIP3    H222557   6.542   3.115   5.382
 7538TIP3   OH222558   4.960   4.044   3.301
 7538TIP3    H122559   4.956   4.138   3.314
 7538TIP3    H222560   5.006   4.010   3.378
 7539TIP3   OH222561   0.594   0.755   1.394
 7539TIP3    H122562   0.673   0.789   1.353
 7539TIP3    H222563   0.590   0.663   1.366
 7540TIP3   OH222564   7.393   0.630   2.232
 7540TIP3    H122565   7.320   0.631   2.295
 7540TIP3    H222566   7.358   0.675   2.155
 7541TIP3   OH222567   2.067   2.004   2.961
 7541TIP3    H122568   2.158   1.988   2.937
 7541TIP3    H222569   2.071   2.044   3.048
 7542TIP3   OH222570   3.814   6.692   2.257
 7542TIP3    H122571   3.858   6.672   2.339
 7542TIP3    H222572   3.854   6.773   2.227
 7543TIP3   OH222573   1.500   2.827   4.385
 7543TIP3    H122574   1.438   2.897   4.366
 7543TIP3    H222575   1.573   2.872   4.429
 7544TIP3   OH222576   3.766   2.656   2.255
 7544TIP3    H122577   3.837   2.688   2.311
 7544TIP3    H222578   3.787   2.564   2.241
 7545TIP3   OH222579   7.201   3.993   1.755
 7545TIP3    H122580   7.290   3.972   1.785
 7545TIP3    H222581   7.206   3.987   1.660
 7546TIP3   OH222582   1.633   0.079   0.090
 7546TIP3    H122583   1.599   0.127   0.014
 7546TIP3    H222584   1.623  -0.013   0.066
 7547TIP3   OH222585   0.490   7.149   0.777
 7547TIP3    H122586   0.558   7.127   0.841
 7547TIP3    H222587   0.416   7.094   0.802
 7548TIP3   OH222588   1.926   2.645   1.935
 7548TIP3    H122589   1.832   2.660   1.943
 7548TIP3    H222590   1.938   2.554   1.960
 7549TIP3   OH222591   5.764   3.103   5.639
 7549TIP3    H122592   5.846   3.123   5.595
 7549TIP3    H222593   5.751   3.175   5.701
 7550TIP3   OH222594   7.462   2.529   5.784
 7550TIP3    H122595   7.534   2.591   5.796
 7550TIP3    H222596   7.502   2.454   5.741
 7551TIP3   OH222597   4.513   7.365   0.084
 7551TIP3    H122598   4.606   7.388   0.091
 7551TIP3    H222599   4.513   7.276   0.047
 7552TIP3   OH222600   0.649   2.131   4.175
 7552TIP3    H122601   0.626   2.083   4.095
 7552TIP3    H222602   0.608   2.081   4.245
 7553TIP3   OH222603   1.935   5.107   3.248
 7553TIP3    H122604   2.030   5.101   3.248
 7553TIP3    H222605   1.917   5.201   3.239
 7554TIP3   OH222606   4.480   1.594   3.227
 7554TIP3    H122607   4.404   1.650   3.242
 7554TIP3    H222608   4.480   1.533   3.301
 7555TIP3   OH222609   2.348   7.508   6.027
 7555TIP3    H122610   2.274   7.481   6.081
 7555TIP3    H222611   2.311   7.522   5.940
 7556TIP3   OH222612   7.589   0.723   4.874
 7556TIP3    H122613   7.566   0.639   4.913
 7556TIP3    H222614   7.672   0.746   4.915
 7557TIP3   OH222615   8.014   6.173   1.700
 7557TIP3    H122616   8.085   6.128   1.745
 7557TIP3    H222617   8.050   6.199   1.616
 7558TIP3   OH222618   2.539   6.566   4.697
 7558TIP3    H122619   2.544   6.496   4.632
 7558TIP3    H222620   2.615   6.552   4.754
 7559TIP3   OH222621   1.050   1.847   3.547
 7559TIP3    H122622   1.011   1.850   3.634
 7559TIP3    H222623   1.008   1.773   3.504
 7560TIP3   OH222624   3.079   2.558   5.555
 7560TIP3    H122625   3.083   2.621   5.627
 7560TIP3    H222626   2.992   2.519   5.563
 7561TIP3   OH222627   6.785   3.982   6.317
 7561TIP3    H122628   6.838   4.062   6.318
 7561TIP3    H222629   6.820   3.929   6.389
 7562TIP3   OH222630   1.134   4.961   2.650
 7562TIP3    H122631   1.105   4.939   2.738
 7562TIP3    H222632   1.219   5.004   2.663
 7563TIP3   OH222633   3.081   7.056   5.879
 7563TIP3    H122634   3.045   6.993   5.941
 7563TIP3    H222635   3.165   7.019   5.853
 7564TIP3   OH222636   2.217   5.214   1.268
 7564TIP3    H122637   2.312   5.223   1.271
 7564TIP3    H222638   2.203   5.127   1.231
 7565TIP3   OH222639   6.720   6.848   4.967
 7565TIP3    H122640   6.732   6.804   4.884
 7565TIP3    H222641   6.653   6.796   5.013
 7566TIP3   OH222642   2.547   2.439   3.048
 7566TIP3    H122643   2.512   2.528   3.046
 7566TIP3    H222644   2.488   2.392   3.107
 7567TIP3   OH222645   0.802   5.895   3.709
 7567TIP3    H122646   0.735   5.924   3.647
 7567TIP3    H222647   0.844   5.821   3.666
 7568TIP3   OH222648   4.543   4.589   3.555
 7568TIP3    H122649   4.486   4.657   3.590
 7568TIP3    H222650   4.485   4.515   3.539
 7569TIP3   OH222651   3.643   2.009   4.500
 7569TIP3    H122652   3.581   2.007   4.573
 7569TIP3    H222653   3.637   2.098   4.466
 7570TIP3   OH222654   2.450   5.416   5.597
 7570TIP3    H122655   2.415   5.490   5.646
 7570TIP3    H222656   2.374   5.376   5.556
 7571TIP3   OH222657   5.923   5.452   2.679
 7571TIP3    H122658   5.894   5.411   2.597
 7571TIP3    H222659   6.000   5.504   2.654
 7572TIP3   OH222660   3.175   0.788   4.094
 7572TIP3    H122661   3.117   0.844   4.044
 7572TIP3    H222662   3.187   0.834   4.177
 7573TIP3   OH222663   1.909   5.051   2.020
 7573TIP3    H122664   1.878   5.116   2.083
 7573TIP3    H222665   1.886   4.967   2.060
 7574TIP3   OH222666   5.188   5.083   5.320
 7574TIP3    H122667   5.095   5.092   5.339
 7574TIP3    H222668   5.223   5.172   5.329
 7575TIP3   OH222669   7.764   3.633   0.059
 7575TIP3    H122670   7.807   3.717   0.043
 7575TIP3    H222671   7.699   3.627  -0.011
 7576TIP3   OH222672   0.884   3.220   2.899
 7576TIP3    H122673   0.949   3.254   2.961
 7576TIP3    H222674   0.884   3.284   2.828
 7577TIP3   OH222675   0.909   0.866   1.525
 7577TIP3    H122676   0.907   0.774   1.500
 7577TIP3    H222677   0.902   0.914   1.443
 7578TIP3   OH222678   2.965   3.938   0.630
 7578TIP3    H122679   3.032   3.929   0.697
 7578TIP3    H222680   2.897   3.876   0.655
 7579TIP3   OH222681   3.735   0.782   2.312
 7579TIP3    H122682   3.714   0.708   2.255
 7579TIP3    H222683   3.830   0.794   2.301
 7580TIP3   OH222684   2.686   0.150   0.407
 7580TIP3    H122685   2.724   0.062   0.399
 7580TIP3    H222686   2.761   0.207   0.423
 7581TIP3   OH222687   4.535   3.460   1.141
 7581TIP3    H122688   4.585   3.397   1.192
 7581TIP3    H222689   4.485   3.510   1.206
 7582TIP3   OH222690   7.009   5.658   5.939
 7582TIP3    H122691   7.098   5.649   5.906
 7582TIP3    H222692   6.961   5.585   5.900
 7583TIP3   OH222693   5.073   0.239   6.198
 7583TIP3    H122694   5.066   0.172   6.130
 7583TIP3    H222695   5.165   0.267   6.195
 7584TIP3   OH222696   7.400   4.344   3.844
 7584TIP3    H122697   7.475   4.375   3.895
 7584TIP3    H222698   7.371   4.421   3.795
 7585TIP3   OH222699   4.167   2.402   4.399
 7585TIP3    H122700   4.075   2.428   4.403
 7585TIP3    H222701   4.214   2.482   4.374
 7586TIP3   OH222702   0.884   3.445   3.820
 7586TIP3    H122703   0.811   3.498   3.786
 7586TIP3    H222704   0.916   3.495   3.895
 7587TIP3   OH222705   2.022   5.298   0.482
 7587TIP3    H122706   1.932   5.271   0.497
 7587TIP3    H222707   2.034   5.292   0.387
 7588TIP3   OH222708   1.564   2.902   5.781
 7588TIP3    H122709   1.576   2.860   5.866
 7588TIP3    H222710   1.576   2.996   5.800
 7589TIP3   OH222711   2.330   6.405   6.640
 7589TIP3    H122712   2.291   6.448   6.564
 7589TIP3    H222713   2.407   6.458   6.661
 7590TIP3   OH222714   5.825   2.971   4.196
 7590TIP3    H122715   5.845   3.008   4.282
 7590TIP3    H222716   5.886   2.897   4.188
 7591TIP3   OH222717   7.864   5.055   1.654
 7591TIP3    H122718   7.786   5.096   1.692
 7591TIP3    H222719   7.833   5.015   1.573
 7592TIP3   OH222720   3.324   4.133   0.133
 7592TIP3    H122721   3.338   4.197   0.063
 7592TIP3    H222722   3.316   4.186   0.212
 7593TIP3   OH222723   0.901   7.572   1.373
 7593TIP3    H122724   0.865   7.512   1.308
 7593TIP3    H222725   0.986   7.598   1.338
 7594TIP3   OH222726   2.210   6.092   3.654
 7594TIP3    H122727   2.161   6.111   3.574
 7594TIP3    H222728   2.144   6.091   3.723
 7595TIP3   OH222729   3.402   2.342   3.475
 7595TIP3    H122730   3.455   2.392   3.537
 7595TIP3    H222731   3.360   2.408   3.420
 7596TIP3   OH222732   5.374   2.069   2.941
 7596TIP3    H122733   5.395   1.995   2.884
 7596TIP3    H222734   5.454   2.122   2.939
 7597TIP3   OH222735   4.764   7.364   3.537
 7597TIP3    H122736   4.841   7.419   3.551
 7597TIP3    H222737   4.690   7.426   3.537
 7598TIP3   OH222738   2.850   3.319   3.233
 7598TIP3    H122739   2.796   3.388   3.273
 7598TIP3    H222740   2.853   3.250   3.300
 7599TIP3   OH222741   8.067   7.765   4.678
 7599TIP3    H122742   8.144   7.772   4.623
 7599TIP3    H222743   8.020   7.689   4.643
 7600TIP3   OH222744   8.209   0.938   4.208
 7600TIP3    H122745   8.177   1.019   4.247
 7600TIP3    H222746   8.149   0.870   4.239
 7601TIP3   OH222747   1.632   3.514   2.381
 7601TIP3    H122748   1.651   3.597   2.338
 7601TIP3    H222749   1.715   3.487   2.419
 7602TIP3   OH222750   6.034   3.836   2.577
 7602TIP3    H122751   6.006   3.746   2.596
 7602TIP3    H222752   6.076   3.865   2.658
 7603TIP3   OH222753   7.956   2.622   4.607
 7603TIP3    H122754   7.986   2.675   4.533
 7603TIP3    H222755   8.005   2.655   4.682
 7604TIP3   OH222756   2.429   0.272   2.298
 7604TIP3    H122757   2.429   0.257   2.204
 7604TIP3    H222758   2.507   0.325   2.315
 7605TIP3   OH222759   5.431   6.773   3.902
 7605TIP3    H122760   5.495   6.724   3.953
 7605TIP3    H222761   5.385   6.705   3.851
 7606TIP3   OH222762   3.002   7.216   2.523
 7606TIP3    H122763   2.997   7.296   2.575
 7606TIP3    H222764   3.026   7.148   2.586
 7607TIP3   OH222765   4.936   6.927   2.018
 7607TIP3    H122766   4.887   6.856   2.060
 7607TIP3    H222767   4.879   7.003   2.027
 7608TIP3   OH222768   0.086   2.478   5.392
 7608TIP3    H122769   0.121   2.403   5.346
 7608TIP3    H222770   0.053   2.443   5.474
 7609TIP3   OH222771   0.322   5.137   4.954
 7609TIP3    H122772   0.327   5.132   5.050
 7609TIP3    H222773   0.246   5.084   4.931
 7610TIP3   OH222774   4.684   4.088   4.324
 7610TIP3    H122775   4.664   4.054   4.411
 7610TIP3    H222776   4.744   4.024   4.286
 7611TIP3   OH222777   5.863   5.924   1.899
 7611TIP3    H122778   5.913   5.870   1.839
 7611TIP3    H222779   5.904   6.011   1.894
 7612TIP3   OH222780   2.476   0.474   5.065
 7612TIP3    H122781   2.443   0.558   5.100
 7612TIP3    H222782   2.424   0.408   5.111
 7613TIP3   OH222783   1.733   0.883   1.817
 7613TIP3    H122784   1.767   0.874   1.906
 7613TIP3    H222785   1.713   0.794   1.790
 7614TIP3   OH222786   5.501   0.020   5.559
 7614TIP3    H122787   5.566  -0.002   5.492
 7614TIP3    H222788   5.417  -0.002   5.519
 7615TIP3   OH222789   7.791   1.881   4.541
 7615TIP3    H122790   7.754   1.945   4.602
 7615TIP3    H222791   7.868   1.846   4.587
 7616TIP3   OH222792   1.283   0.248   2.246
 7616TIP3    H122793   1.304   0.157   2.267
 7616TIP3    H222794   1.241   0.282   2.326
 7617TIP3   OH222795   2.001   1.513   0.031
 7617TIP3    H122796   1.954   1.570   0.092
 7617TIP3    H222797   1.956   1.524  -0.052
 7618TIP3   OH222798   0.155   4.237   1.673
 7618TIP3    H122799   0.174   4.302   1.606
 7618TIP3    H222800   0.090   4.278   1.730
 7619TIP3   OH222801   5.559   6.518   5.787
 7619TIP3    H122802   5.555   6.595   5.843
 7619TIP3    H222803   5.596   6.449   5.843
 7620TIP3   OH222804   3.727   1.932   0.883
 7620TIP3    H122805   3.648   1.956   0.835
 7620TIP3    H222806   3.785   1.894   0.816
 7621TIP3   OH222807   6.644   0.527   4.665
 7621TIP3    H122808   6.571   0.480   4.625
 7621TIP3    H222809   6.636   0.616   4.630
 7622TIP3   OH222810   2.802   5.907   5.042
 7622TIP3    H122811   2.841   5.994   5.030
 7622TIP3    H222812   2.855   5.849   4.988
 7623TIP3   OH222813   5.713   4.842   4.861
 7623TIP3    H122814   5.676   4.887   4.938
 7623TIP3    H222815   5.669   4.757   4.859
 7624TIP3   OH222816   8.141   5.546   4.343
 7624TIP3    H122817   8.237   5.542   4.348
 7624TIP3    H222818   8.121   5.640   4.340
 7625TIP3   OH222819   4.724   4.036   0.214
 7625TIP3    H122820   4.691   3.977   0.147
 7625TIP3    H222821   4.704   4.124   0.182
 7626TIP3   OH222822   4.709   2.140   4.135
 7626TIP3    H122823   4.665   2.219   4.167
 7626TIP3    H222824   4.652   2.068   4.162
 7627TIP3   OH222825   6.297   5.916   1.728
 7627TIP3    H122826   6.204   5.909   1.751
 7627TIP3    H222827   6.319   6.008   1.746
 7628TIP3   OH222828   2.271   1.763   2.230
 7628TIP3    H122829   2.310   1.850   2.242
 7628TIP3    H222830   2.313   1.708   2.296
 7629TIP3   OH222831   7.838   6.694   3.364
 7629TIP3    H122832   7.775   6.729   3.301
 7629TIP3    H222833   7.801   6.717   3.450
 7630TIP3   OH222834   4.308   6.652   5.759
 7630TIP3    H122835   4.301   6.698   5.675
 7630TIP3    H222836   4.401   6.634   5.769
 7631TIP3   OH222837   3.369   0.154   5.018
 7631TIP3    H122838   3.378   0.065   5.053
 7631TIP3    H222839   3.341   0.206   5.093
 7632TIP3   OH222840   6.128   6.947   2.977
 7632TIP3    H122841   6.107   6.993   3.058
 7632TIP3    H222842   6.215   6.912   2.991
 7633TIP3   OH222843   3.400   6.623   1.997
 7633TIP3    H122844   3.467   6.632   2.066
 7633TIP3    H222845   3.414   6.699   1.940
 7634TIP3   OH222846   5.538   1.065   2.205
 7634TIP3    H122847   5.608   1.106   2.154
 7634TIP3    H222848   5.473   1.039   2.139
 7635TIP3   OH222849   2.523   2.365   2.182
 7635TIP3    H122850   2.496   2.388   2.271
 7635TIP3    H222851   2.614   2.335   2.192
 7636TIP3   OH222852   7.001   5.607   4.348
 7636TIP3    H122853   7.000   5.567   4.435
 7636TIP3    H222854   6.939   5.680   4.355
 7637TIP3   OH222855   4.773   7.755   3.789
 7637TIP3    H122856   4.681   7.734   3.773
 7637TIP3    H222857   4.812   7.761   3.702
 7638TIP3   OH222858   5.015   0.604   5.082
 7638TIP3    H122859   4.948   0.613   5.150
 7638TIP3    H222860   5.017   0.511   5.063
 7639TIP3   OH222861   4.589   3.779   4.015
 7639TIP3    H122862   4.559   3.749   3.929
 7639TIP3    H222863   4.618   3.699   4.059
 7640TIP3   OH222864   2.882   4.147   6.574
 7640TIP3    H122865   2.865   4.078   6.639
 7640TIP3    H222866   2.819   4.130   6.504
 7641TIP3   OH222867   2.519   7.519   3.990
 7641TIP3    H122868   2.514   7.564   3.906
 7641TIP3    H222869   2.523   7.426   3.967
 7642TIP3   OH222870   6.718   2.527   2.830
 7642TIP3    H122871   6.786   2.594   2.837
 7642TIP3    H222872   6.636   2.574   2.841
 7643TIP3   OH222873   0.068   2.705   4.866
 7643TIP3    H122874  -0.020   2.741   4.862
 7643TIP3    H222875   0.058   2.619   4.907
 7644TIP3   OH222876   7.256   3.295   2.550
 7644TIP3    H122877   7.221   3.382   2.572
 7644TIP3    H222878   7.318   3.276   2.620
 7645TIP3   OH222879   0.381   4.760   3.851
 7645TIP3    H122880   0.351   4.816   3.780
 7645TIP3    H222881   0.457   4.715   3.815
 7646TIP3   OH222882   3.767   1.772   1.605
 7646TIP3    H122883   3.842   1.783   1.664
 7646TIP3    H222884   3.698   1.735   1.661
 7647TIP3   OH222885   5.964   5.996   1.182
 7647TIP3    H122886   5.923   6.050   1.250
 7647TIP3    H222887   5.997   6.059   1.118
 7648TIP3   OH222888   5.913   1.643   1.093
 7648TIP3    H122889   5.908   1.674   1.184
 7648TIP3    H222890   5.929   1.722   1.042
 7649TIP3   OH222891   2.505   5.874   3.329
 7649TIP3    H122892   2.455   5.870   3.247
 7649TIP3    H222893   2.582   5.821   3.314
 7650TIP3   OH222894   5.890   0.838   2.914
 7650TIP3    H122895   5.851   0.822   3.000
 7650TIP3    H222896   5.819   0.821   2.852
 7651TIP3   OH222897   4.822   1.485   5.766
 7651TIP3    H122898   4.867   1.565   5.791
 7651TIP3    H222899   4.834   1.427   5.841
 7652TIP3   OH222900   4.063   0.376   5.943
 7652TIP3    H122901   3.970   0.393   5.927
 7652TIP3    H222902   4.109   0.440   5.889
 7653TIP3   OH222903   6.753   7.771   1.807
 7653TIP3    H122904   6.687   7.735   1.865
 7653TIP3    H222905   6.715   7.852   1.774
 7654TIP3   OH222906   3.189   1.295   0.209
 7654TIP3    H122907   3.219   1.228   0.147
 7654TIP3    H222908   3.094   1.288   0.207
 7655TIP3   OH222909   0.641   5.637   3.718
 7655TIP3    H122910   0.589   5.711   3.686
 7655TIP3    H222911   0.718   5.635   3.662
 7656TIP3   OH222912   1.916   7.222   6.753
 7656TIP3    H122913   1.951   7.199   6.667
 7656TIP3    H222914   1.925   7.142   6.805
 7657TIP3   OH222915   4.287   6.773   5.525
 7657TIP3    H122916   4.280   6.869   5.527
 7657TIP3    H222917   4.334   6.755   5.444
 7658TIP3   OH222918   8.224   6.431   5.312
 7658TIP3    H122919   8.301   6.392   5.272
 7658TIP3    H222920   8.250   6.449   5.402
 7659TIP3   OH222921   1.975   2.627   1.086
 7659TIP3    H122922   2.041   2.574   1.131
 7659TIP3    H222923   2.020   2.661   1.009
 7660TIP3   OH222924   8.174   7.448   5.860
 7660TIP3    H122925   8.158   7.520   5.922
 7660TIP3    H222926   8.100   7.388   5.873
 7661TIP3   OH222927   7.252   1.186   4.366
 7661TIP3    H122928   7.284   1.181   4.276
 7661TIP3    H222929   7.251   1.095   4.396
 7662TIP3   OH222930   5.234   7.165   2.430
 7662TIP3    H122931   5.270   7.208   2.352
 7662TIP3    H222932   5.281   7.081   2.435
 7663TIP3   OH222933   4.941   5.400   2.989
 7663TIP3    H122934   4.935   5.313   2.950
 7663TIP3    H222935   4.948   5.384   3.083
 7664TIP3   OH222936   7.992   2.271   5.211
 7664TIP3    H122937   8.078   2.263   5.168
 7664TIP3    H222938   7.934   2.215   5.159
 7665TIP3   OH222939   1.941   6.551   0.715
 7665TIP3    H122940   1.944   6.519   0.805
 7665TIP3    H222941   1.972   6.642   0.721
 7666TIP3   OH222942   7.373   3.275   2.797
 7666TIP3    H122943   7.357   3.348   2.857
 7666TIP3    H222944   7.297   3.218   2.809
 7667TIP3   OH222945   7.343   3.151   3.439
 7667TIP3    H122946   7.318   3.062   3.412
 7667TIP3    H222947   7.272   3.206   3.408
 7668TIP3   OH222948   2.462   0.087   1.513
 7668TIP3    H122949   2.502   0.174   1.505
 7668TIP3    H222950   2.479   0.045   1.429
 7669TIP3   OH222951   7.255   6.727   5.982
 7669TIP3    H122952   7.209   6.661   5.930
 7669TIP3    H222953   7.236   6.810   5.938
 7670TIP3   OH222954   3.293   0.447   3.264
 7670TIP3    H122955   3.310   0.513   3.332
 7670TIP3    H222956   3.250   0.496   3.194
 7671TIP3   OH222957   0.110   5.473   4.339
 7671TIP3    H122958   0.161   5.421   4.400
 7671TIP3    H222959   0.112   5.424   4.257
 7672TIP3   OH222960   7.715   7.755   0.676
 7672TIP3    H122961   7.781   7.771   0.743
 7672TIP3    H222962   7.703   7.660   0.676
 7673TIP3   OH222963   5.167   5.692   5.585
 7673TIP3    H122964   5.229   5.754   5.546
 7673TIP3    H222965   5.130   5.645   5.510
 7674TIP3   OH222966   5.733   5.701   3.576
 7674TIP3    H122967   5.733   5.628   3.639
 7674TIP3    H222968   5.762   5.776   3.627
 7675TIP3   OH222969   3.329   5.244   2.670
 7675TIP3    H122970   3.363   5.261   2.583
 7675TIP3    H222971   3.239   5.276   2.668
 7676TIP3   OH222972   6.469   0.788   6.355
 7676TIP3    H122973   6.513   0.729   6.293
 7676TIP3    H222974   6.540   0.829   6.404
 7677TIP3   OH222975   1.821   2.462   1.606
 7677TIP3    H122976   1.881   2.463   1.532
 7677TIP3    H222977   1.864   2.515   1.673
 7678TIP3   OH222978   8.293   7.354   4.819
 7678TIP3    H122979   8.296   7.447   4.839
 7678TIP3    H222980   8.273   7.312   4.903
 7679TIP3   OH222981   6.818   1.840   6.743
 7679TIP3    H122982   6.799   1.914   6.800
 7679TIP3    H222983   6.854   1.880   6.664
 7680TIP3   OH222984   4.118   2.582   3.819
 7680TIP3    H122985   4.196   2.628   3.789
 7680TIP3    H222986   4.141   2.489   3.812
 7681TIP3   OH222987   0.366   3.655   5.542
 7681TIP3    H122988   0.432   3.620   5.482
 7681TIP3    H222989   0.409   3.656   5.627
 7682TIP3   OH222990   4.986   1.451   2.123
 7682TIP3    H122991   5.069   1.406   2.107
 7682TIP3    H222992   4.941   1.397   2.188
 7683TIP3   OH222993   6.880   1.964   6.483
 7683TIP3    H122994   6.804   2.020   6.471
 7683TIP3    H222995   6.858   1.883   6.436
 7684TIP3   OH222996   1.191   5.685   0.956
 7684TIP3    H122997   1.119   5.732   0.997
 7684TIP3    H222998   1.269   5.737   0.975
 7685TIP3   OH222999   0.593   6.509   0.621
 7685TIP3    H123000   0.542   6.428   0.624
 7685TIP3    H223001   0.667   6.489   0.564
 7686TIP3   OH223002   2.756   6.702   4.028
 7686TIP3    H123003   2.663   6.679   4.035
 7686TIP3    H223004   2.798   6.652   4.098
 7687TIP3   OH223005   0.121   1.512   0.716
 7687TIP3    H123006   0.157   1.587   0.669
 7687TIP3    H223007   0.034   1.499   0.678
 7688TIP3   OH223008   7.874   6.147   5.727
 7688TIP3    H123009   7.897   6.054   5.726
 7688TIP3    H223010   7.927   6.184   5.797
 7689TIP3   OH223011   3.847  -0.022   4.873
 7689TIP3    H123012   3.857   0.070   4.848
 7689TIP3    H223013   3.787  -0.021   4.948
 7690TIP3   OH223014   8.237   4.931   2.992
 7690TIP3    H123015   8.244   4.838   2.972
 7690TIP3    H223016   8.158   4.960   2.947
 7691TIP3   OH223017   7.590   4.351   0.878
 7691TIP3    H123018   7.535   4.429   0.885
 7691TIP3    H223019   7.539   4.290   0.825
 7692TIP3   OH223020   8.158   6.873   3.405
 7692TIP3    H123021   8.252   6.873   3.389
 7692TIP3    H223022   8.121   6.829   3.328
 7693TIP3   OH223023   1.504   2.635   0.612
 7693TIP3    H123024   1.584   2.600   0.571
 7693TIP3    H223025   1.435   2.576   0.582
 7694TIP3   OH223026   2.142   5.280   2.594
 7694TIP3    H123027   2.190   5.198   2.606
 7694TIP3    H223028   2.204   5.339   2.551
 7695TIP3   OH223029   2.477   4.326   5.556
 7695TIP3    H123030   2.391   4.297   5.527
 7695TIP3    H223031   2.535   4.308   5.481
 7696TIP3   OH223032   1.527   7.585   6.662
 7696TIP3    H123033   1.483   7.670   6.660
 7696TIP3    H223034   1.496   7.543   6.742
 7697TIP3   OH223035   5.267   4.761   0.432
 7697TIP3    H123036   5.350   4.772   0.479
 7697TIP3    H223037   5.268   4.669   0.404
 7698TIP3   OH223038   5.538   4.321   2.575
 7698TIP3    H123039   5.570   4.374   2.648
 7698TIP3    H223040   5.485   4.253   2.616
 7699TIP3   OH223041   0.889   3.357   2.636
 7699TIP3    H123042   0.882   3.323   2.547
 7699TIP3    H223043   0.809   3.407   2.649
 7700TIP3   OH223044   0.076   7.612   4.596
 7700TIP3    H123045   0.021   7.679   4.555
 7700TIP3    H223046   0.158   7.658   4.616
 7701TIP3   OH223047   7.472   1.038   6.243
 7701TIP3    H123048   7.558   1.079   6.253
 7701TIP3    H223049   7.465   0.977   6.316
 7702TIP3   OH223050   0.513   3.269   6.554
 7702TIP3    H123051   0.492   3.362   6.541
 7702TIP3    H223052   0.428   3.225   6.551
 7703TIP3   OH223053   3.187   3.643   0.120
 7703TIP3    H123054   3.211   3.614   0.208
 7703TIP3    H223055   3.140   3.568   0.082
 7704TIP3   OH223056   5.610   0.902   6.042
 7704TIP3    H123057   5.643   0.817   6.012
 7704TIP3    H223058   5.657   0.919   6.124
 7705TIP3   OH223059   2.579   5.088   5.001
 7705TIP3    H123060   2.498   5.037   4.988
 7705TIP3    H223061   2.627   5.040   5.068
 7706TIP3   OH223062   4.351   0.752   1.935
 7706TIP3    H123063   4.330   0.816   1.868
 7706TIP3    H223064   4.268   0.735   1.979
 7707TIP3   OH223065   5.742   4.454   1.895
 7707TIP3    H123066   5.677   4.472   1.962
 7707TIP3    H223067   5.809   4.522   1.908
 7708TIP3   OH223068   1.700   0.493   3.695
 7708TIP3    H123069   1.668   0.580   3.717
 7708TIP3    H223070   1.787   0.488   3.734
 7709TIP3   OH223071   7.476   1.040   1.560
 7709TIP3    H123072   7.555   1.075   1.602
 7709TIP3    H223073   7.467   0.952   1.596
 7710TIP3   OH223074   7.780   4.601   4.192
 7710TIP3    H123075   7.710   4.585   4.129
 7710TIP3    H223076   7.840   4.660   4.146
 7711TIP3   OH223077   6.889   1.837   4.533
 7711TIP3    H123078   6.983   1.851   4.545
 7711TIP3    H223079   6.879   1.817   4.440
 7712TIP3   OH223080   0.793   2.099   5.756
 7712TIP3    H123081   0.888   2.097   5.770
 7712TIP3    H223082   0.759   2.150   5.829
 7713TIP3   OH223083   1.441   1.576   2.785
 7713TIP3    H123084   1.444   1.512   2.713
 7713TIP3    H223085   1.476   1.528   2.860
 7714TIP3   OH223086   2.683   4.017   3.217
 7714TIP3    H123087   2.773   3.987   3.230
 7714TIP3    H223088   2.691   4.095   3.163
 7715TIP3   OH223089   2.579   2.733   4.674
 7715TIP3    H123090   2.625   2.808   4.636
 7715TIP3    H223091   2.588   2.745   4.769
 7716TIP3   OH223092   1.814   4.559   4.545
 7716TIP3    H123093   1.858   4.496   4.601
 7716TIP3    H223094   1.792   4.510   4.466
 7717TIP3   OH223095   5.365   0.843   3.082
 7717TIP3    H123096   5.318   0.761   3.094
 7717TIP3    H223097   5.369   0.882   3.169
 7718TIP3   OH223098   2.533   4.298   6.605
 7718TIP3    H123099   2.537   4.220   6.661
 7718TIP3    H223100   2.582   4.274   6.527
 7719TIP3   OH223101   6.810   4.172   3.544
 7719TIP3    H123102   6.871   4.226   3.595
 7719TIP3    H223103   6.853   4.086   3.539
 7720TIP3   OH223104   7.505   2.961   3.234
 7720TIP3    H123105   7.478   3.019   3.163
 7720TIP3    H223106   7.598   2.979   3.246
 7721TIP3   OH223107   4.541   2.478   6.041
 7721TIP3    H123108   4.581   2.404   6.085
 7721TIP3    H223109   4.479   2.513   6.105
 7722TIP3   OH223110   5.364   4.453   3.050
 7722TIP3    H123111   5.362   4.437   3.145
 7722TIP3    H223112   5.364   4.365   3.011
 7723TIP3   OH223113   7.926   1.769   5.045
 7723TIP3    H123114   7.888   1.753   4.959
 7723TIP3    H223115   7.853   1.764   5.106
 7724TIP3   OH223116   2.544   4.369   0.408
 7724TIP3    H123117   2.478   4.362   0.477
 7724TIP3    H223118   2.596   4.289   0.416
 7725TIP3   OH223119   1.247   7.601   6.044
 7725TIP3    H123120   1.160   7.580   6.078
 7725TIP3    H223121   1.230   7.634   5.955
 7726TIP3   OH223122   7.883   2.557   1.031
 7726TIP3    H123123   7.916   2.485   1.086
 7726TIP3    H223124   7.904   2.530   0.942
 7727TIP3   OH223125   7.616   6.270   4.817
 7727TIP3    H123126   7.698   6.306   4.852
 7727TIP3    H223127   7.639   6.238   4.730
 7728TIP3   OH223128   2.492   3.106   1.753
 7728TIP3    H123129   2.485   3.144   1.841
 7728TIP3    H223130   2.441   3.025   1.758
 7729TIP3   OH223131   5.327   4.688   5.702
 7729TIP3    H123132   5.317   4.629   5.777
 7729TIP3    H223133   5.316   4.776   5.740
 7730TIP3   OH223134   1.229   5.390   6.566
 7730TIP3    H123135   1.183   5.318   6.609
 7730TIP3    H223136   1.304   5.348   6.523
 7731TIP3   OH223137   0.395   5.943   4.113
 7731TIP3    H123138   0.449   5.902   4.180
 7731TIP3    H223139   0.427   5.906   4.031
 7732TIP3   OH223140   3.280   3.916   2.986
 7732TIP3    H123141   3.197   3.930   2.939
 7732TIP3    H223142   3.347   3.952   2.928
 7733TIP3   OH223143   4.704   7.048   0.174
 7733TIP3    H123144   4.674   6.958   0.158
 7733TIP3    H223145   4.799   7.041   0.183
 7734TIP3   OH223146   7.745   3.504   0.859
 7734TIP3    H123147   7.683   3.530   0.791
 7734TIP3    H223148   7.816   3.567   0.852
 7735TIP3   OH223149   4.373   4.160   0.065
 7735TIP3    H123150   4.455   4.202   0.091
 7735TIP3    H223151   4.395   4.109  -0.012
 7736TIP3   OH223152   4.242   5.358   5.500
 7736TIP3    H123153   4.324   5.396   5.532
 7736TIP3    H223154   4.269   5.276   5.458
 7737TIP3   OH223155   7.794   1.148   5.926
 7737TIP3    H123156   7.756   1.061   5.921
 7737TIP3    H223157   7.865   1.148   5.861
 7738TIP3   OH223158   7.693   6.471   2.546
 7738TIP3    H123159   7.779   6.444   2.579
 7738TIP3    H223160   7.694   6.566   2.550
 7739TIP3   OH223161   2.480   0.240   6.746
 7739TIP3    H123162   2.487   0.224   6.840
 7739TIP3    H223163   2.408   0.302   6.737
 7740TIP3   OH223164   4.000   5.370   2.100
 7740TIP3    H123165   3.977   5.278   2.114
 7740TIP3    H223166   3.944   5.398   2.028
 7741TIP3   OH223167   6.997   0.211   3.283
 7741TIP3    H123168   6.936   0.254   3.343
 7741TIP3    H223169   6.969   0.239   3.196
 7742TIP3   OH223170   0.534   0.683   0.415
 7742TIP3    H123171   0.569   0.601   0.379
 7742TIP3    H223172   0.607   0.745   0.409
 7743TIP3   OH223173   5.915   5.096   3.647
 7743TIP3    H123174   5.917   5.155   3.723
 7743TIP3    H223175   5.963   5.018   3.676
 7744TIP3   OH223176   5.639   5.268   1.736
 7744TIP3    H123177   5.682   5.335   1.683
 7744TIP3    H223178   5.650   5.188   1.685
 7745TIP3   OH223179   5.372   3.524   3.747
 7745TIP3    H123180   5.447   3.467   3.767
 7745TIP3    H223181   5.409   3.592   3.691
 7746TIP3   OH223182   8.006   6.113   6.291
 7746TIP3    H123183   7.938   6.058   6.252
 7746TIP3    H223184   8.081   6.054   6.301
 7747TIP3   OH223185   1.778   1.237   3.682
 7747TIP3    H123186   1.740   1.245   3.594
 7747TIP3    H223187   1.781   1.143   3.698
 7748TIP3   OH223188   2.004   7.705   0.520
 7748TIP3    H123189   2.083   7.697   0.467
 7748TIP3    H223190   1.996   7.798   0.539
 7749TIP3   OH223191   3.579   1.802   3.242
 7749TIP3    H123192   3.563   1.732   3.178
 7749TIP3    H223193   3.562   1.883   3.193
 7750TIP3   OH223194   1.253   0.931   5.421
 7750TIP3    H123195   1.183   0.869   5.401
 7750TIP3    H223196   1.307   0.885   5.486
 7751TIP3   OH223197   1.250   1.559   1.769
 7751TIP3    H123198   1.328   1.545   1.822
 7751TIP3    H223199   1.216   1.471   1.752
 7752TIP3   OH223200   0.513   6.854   1.323
 7752TIP3    H123201   0.456   6.883   1.252
 7752TIP3    H223202   0.478   6.898   1.401
 7753TIP3   OH223203   3.162   7.761   2.040
 7753TIP3    H123204   3.253   7.783   2.022
 7753TIP3    H223205   3.121   7.845   2.061
 7754TIP3   OH223206   2.370   3.700   5.644
 7754TIP3    H123207   2.334   3.669   5.561
 7754TIP3    H223208   2.326   3.784   5.660
 7755TIP3   OH223209   3.292   2.228   2.127
 7755TIP3    H123210   3.237   2.180   2.189
 7755TIP3    H223211   3.259   2.203   2.041
 7756TIP3   OH223212   7.892   4.521   5.390
 7756TIP3    H123213   7.852   4.599   5.430
 7756TIP3    H223214   7.886   4.536   5.296
 7757TIP3   OH223215   5.673   2.236   5.232
 7757TIP3    H123216   5.611   2.235   5.306
 7757TIP3    H223217   5.680   2.329   5.208
 7758TIP3   OH223218   5.546   0.723   6.352
 7758TIP3    H123219   5.553   0.790   6.420
 7758TIP3    H223220   5.507   0.768   6.278
 7759TIP3   OH223221   3.278   7.253   1.633
 7759TIP3    H123222   3.355   7.259   1.689
 7759TIP3    H223223   3.239   7.169   1.653
 7760TIP3   OH223224   0.684   5.208   1.180
 7760TIP3    H123225   0.601   5.241   1.146
 7760TIP3    H223226   0.659   5.151   1.253
 7761TIP3   OH223227   1.700   2.975   5.111
 7761TIP3    H123228   1.718   2.882   5.092
 7761TIP3    H223229   1.731   2.987   5.201
 7762TIP3   OH223230   6.843   1.555   4.727
 7762TIP3    H123231   6.778   1.491   4.755
 7762TIP3    H223232   6.895   1.509   4.661
 7763TIP3   OH223233   3.562   1.243   5.108
 7763TIP3    H123234   3.568   1.338   5.119
 7763TIP3    H223235   3.645   1.218   5.068
 7764TIP3   OH223236   0.007   1.584   5.782
 7764TIP3    H123237  -0.003   1.679   5.782
 7764TIP3    H223238   0.023   1.562   5.691
 7765TIP3   OH223239   1.044   7.361   2.379
 7765TIP3    H123240   1.102   7.309   2.324
 7765TIP3    H223241   1.103   7.413   2.435
 7766TIP3   OH223242   7.970   2.540   3.891
 7766TIP3    H123243   7.875   2.544   3.888
 7766TIP3    H223244   7.996   2.625   3.927
 7767TIP3   OH223245   1.002   7.614   4.435
 7767TIP3    H123246   1.037   7.692   4.392
 7767TIP3    H223247   0.908   7.629   4.438
 7768TIP3   OH223248   5.710   0.166   4.063
 7768TIP3    H123249   5.671   0.090   4.020
 7768TIP3    H223250   5.773   0.199   4.000
 7769TIP3   OH223251   0.018   0.304   2.701
 7769TIP3    H123252   0.064   0.383   2.732
 7769TIP3    H223253  -0.011   0.327   2.612
 7770TIP3   OH223254   0.004   0.863   5.016
 7770TIP3    H123255   0.086   0.861   5.067
 7770TIP3    H223256  -0.017   0.955   5.007
 7771TIP3   OH223257   6.981   3.681   2.192
 7771TIP3    H123258   6.966   3.775   2.192
 7771TIP3    H223259   7.043   3.667   2.120
 7772TIP3   OH223260   2.751   6.791   2.933
 7772TIP3    H123261   2.839   6.787   2.970
 7772TIP3    H223262   2.758   6.741   2.851
 7773TIP3   OH223263   5.618   2.275   5.759
 7773TIP3    H123264   5.555   2.207   5.780
 7773TIP3    H223265   5.568   2.340   5.710
 7774TIP3   OH223266   3.665   0.574   1.123
 7774TIP3    H123267   3.612   0.649   1.148
 7774TIP3    H223268   3.755   0.605   1.130
 7775TIP3   OH223269   5.730   6.003   5.391
 7775TIP3    H123270   5.700   5.921   5.431
 7775TIP3    H223271   5.657   6.032   5.337
 7776TIP3   OH223272   7.711   3.302   1.910
 7776TIP3    H123273   7.787   3.359   1.917
 7776TIP3    H223274   7.636   3.360   1.923
 7777TIP3   OH223275   3.611   7.739   5.502
 7777TIP3    H123276   3.678   7.805   5.521
 7777TIP3    H223277   3.591   7.751   5.410
 7778TIP3   OH223278   4.328   5.669   2.331
 7778TIP3    H123279   4.376   5.734   2.280
 7778TIP3    H223280   4.290   5.719   2.404
 7779TIP3   OH223281   6.150   4.678   2.878
 7779TIP3    H123282   6.228   4.709   2.833
 7779TIP3    H223283   6.184   4.629   2.953
 7780TIP3   OH223284   2.730   4.272   3.137
 7780TIP3    H123285   2.771   4.233   3.060
 7780TIP3    H223286   2.784   4.349   3.155
 7781TIP3   OH223287   6.098   0.716   5.755
 7781TIP3    H123288   6.051   0.643   5.716
 7781TIP3    H223289   6.102   0.782   5.686
 7782TIP3   OH223290   0.199   5.017   1.578
 7782TIP3    H123291   0.105   4.998   1.575
 7782TIP3    H223292   0.241   4.931   1.573
 7783TIP3   OH223293   4.076   4.130   5.206
 7783TIP3    H123294   4.053   4.127   5.113
 7783TIP3    H223295   4.079   4.039   5.233
 7784TIP3   OH223296   4.144   7.844   4.937
 7784TIP3    H123297   4.114   7.780   4.872
 7784TIP3    H223298   4.166   7.791   5.014
 7785TIP3   OH223299   4.534   1.742   2.039
 7785TIP3    H123300   4.471   1.670   2.029
 7785TIP3    H223301   4.554   1.743   2.133
 7786TIP3   OH223302   1.954   3.396   1.698
 7786TIP3    H123303   2.030   3.437   1.655
 7786TIP3    H223304   1.922   3.332   1.634
 7787TIP3   OH223305   5.413   3.761   5.640
 7787TIP3    H123306   5.430   3.832   5.703
 7787TIP3    H223307   5.430   3.681   5.690
 7788TIP3   OH223308   4.151   1.403   2.969
 7788TIP3    H123309   4.156   1.478   2.909
 7788TIP3    H223310   4.079   1.424   3.028
 7789TIP3   OH223311   2.587   0.665   0.222
 7789TIP3    H123312   2.576   0.647   0.316
 7789TIP3    H223313   2.537   0.596   0.179
 7790TIP3   OH223314   1.995   2.634   0.344
 7790TIP3    H123315   1.982   2.567   0.411
 7790TIP3    H223316   2.048   2.701   0.387
 7791TIP3   OH223317   3.255   2.748   4.050
 7791TIP3    H123318   3.329   2.780   3.999
 7791TIP3    H223319   3.238   2.661   4.015
 7792TIP3   OH223320   0.286   1.610   5.411
 7792TIP3    H123321   0.265   1.558   5.334
 7792TIP3    H223322   0.203   1.618   5.458
 7793TIP3   OH223323   1.626   2.925   6.222
 7793TIP3    H123324   1.567   2.851   6.206
 7793TIP3    H223325   1.584   2.999   6.180
 7794TIP3   OH223326   3.787   6.916   2.462
 7794TIP3    H123327   3.815   6.976   2.531
 7794TIP3    H223328   3.817   6.830   2.491
 7795TIP3   OH223329   6.485   2.527   0.489
 7795TIP3    H123330   6.424   2.527   0.415
 7795TIP3    H223331   6.555   2.467   0.463
 7796TIP3   OH223332   7.384   2.985   1.031
 7796TIP3    H123333   7.296   3.023   1.024
 7796TIP3    H223334   7.415   3.013   1.117
 7797TIP3   OH223335   5.661   6.156   2.979
 7797TIP3    H123336   5.667   6.236   2.927
 7797TIP3    H223337   5.591   6.105   2.938
 7798TIP3   OH223338   4.120   4.444   2.008
 7798TIP3    H123339   4.096   4.412   1.921
 7798TIP3    H223340   4.076   4.529   2.016
 7799TIP3   OH223341   7.658   1.066   2.875
 7799TIP3    H123342   7.600   1.074   2.799
 7799TIP3    H223343   7.732   1.122   2.855
 7800TIP3   OH223344   1.148   7.305   0.341
 7800TIP3    H123345   1.178   7.341   0.424
 7800TIP3    H223346   1.202   7.227   0.327
 7801TIP3   OH223347   8.031   1.694   2.588
 7801TIP3    H123348   8.115   1.728   2.618
 7801TIP3    H223349   8.023   1.609   2.631
 7802TIP3   OH223350   3.674   3.943   0.056
 7802TIP3    H123351   3.635   4.021   0.096
 7802TIP3    H223352   3.725   3.977  -0.017
 7803TIP3   OH223353   4.670   7.650   1.895
 7803TIP3    H123354   4.739   7.712   1.868
 7803TIP3    H223355   4.609   7.649   1.821
 7804TIP3   OH223356   7.398   6.495   0.621
 7804TIP3    H123357   7.465   6.441   0.578
 7804TIP3    H223358   7.401   6.467   0.713
 7805TIP3   OH223359   6.504   5.365   3.559
 7805TIP3    H123360   6.511   5.390   3.467
 7805TIP3    H223361   6.592   5.377   3.594
 7806TIP3   OH223362   5.679   7.754   4.216
 7806TIP3    H123363   5.665   7.678   4.272
 7806TIP3    H223364   5.774   7.761   4.208
 7807TIP3   OH223365   1.483   2.099   5.404
 7807TIP3    H123366   1.403   2.051   5.426
 7807TIP3    H223367   1.456   2.191   5.403
 7808TIP3   OH223368   3.627   7.560   3.863
 7808TIP3    H123369   3.542   7.605   3.863
 7808TIP3    H223370   3.627   7.509   3.943
 7809TIP3   OH223371   6.276   6.695   1.380
 7809TIP3    H123372   6.240   6.738   1.303
 7809TIP3    H223373   6.227   6.732   1.453
 7810TIP3   OH223374   0.686   4.138   3.455
 7810TIP3    H123375   0.748   4.166   3.523
 7810TIP3    H223376   0.602   4.176   3.481
 7811TIP3   OH223377   8.107   5.243   4.189
 7811TIP3    H123378   8.030   5.188   4.206
 7811TIP3    H223379   8.161   5.191   4.130
 7812TIP3   OH223380   4.335   3.340   3.574
 7812TIP3    H123381   4.312   3.257   3.615
 7812TIP3    H223382   4.428   3.332   3.554
 7813TIP3   OH223383   2.778   4.194   4.046
 7813TIP3    H123384   2.826   4.271   4.014
 7813TIP3    H223385   2.841   4.147   4.101
 7814TIP3   OH223386   3.281   4.492   0.992
 7814TIP3    H123387   3.353   4.534   1.040
 7814TIP3    H223388   3.314   4.481   0.903
 7815TIP3   OH223389   5.699   7.129   0.743
 7815TIP3    H123390   5.784   7.086   0.752
 7815TIP3    H223391   5.660   7.088   0.665
 7816TIP3   OH223392   5.313   0.519   2.847
 7816TIP3    H123393   5.313   0.426   2.821
 7816TIP3    H223394   5.323   0.516   2.942
 7817TIP3   OH223395   6.130   1.073   2.103
 7817TIP3    H123396   6.221   1.044   2.095
 7817TIP3    H223397   6.137   1.166   2.124
 7818TIP3   OH223398   2.349   1.105   1.181
 7818TIP3    H123399   2.287   1.033   1.194
 7818TIP3    H223400   2.418   1.090   1.244
 7819TIP3   OH223401   3.350   3.201   0.541
 7819TIP3    H123402   3.394   3.239   0.617
 7819TIP3    H223403   3.419   3.156   0.493
 7820TIP3   OH223404   8.039   4.110   3.846
 7820TIP3    H123405   7.976   4.051   3.805
 7820TIP3    H223406   8.109   4.119   3.781
 7821TIP3   OH223407   1.050   1.016   3.533
 7821TIP3    H123408   1.013   0.976   3.612
 7821TIP3    H223409   1.131   0.966   3.517
 7822TIP3   OH223410   5.871   3.467   0.662
 7822TIP3    H123411   5.897   3.494   0.574
 7822TIP3    H223412   5.829   3.381   0.649
 7823TIP3   OH223413   2.474   3.646   1.437
 7823TIP3    H123414   2.406   3.710   1.455
 7823TIP3    H223415   2.497   3.611   1.523
 7824TIP3   OH223416   7.205   1.358   2.566
 7824TIP3    H123417   7.203   1.263   2.577
 7824TIP3    H223418   7.269   1.388   2.631
 7825TIP3   OH223419   7.065   6.099   5.240
 7825TIP3    H123420   7.108   6.173   5.197
 7825TIP3    H223421   7.070   6.028   5.176
 7826TIP3   OH223422   1.731   4.195   1.618
 7826TIP3    H123423   1.715   4.287   1.597
 7826TIP3    H223424   1.814   4.196   1.665
 7827TIP3   OH223425   5.395   5.340   2.077
 7827TIP3    H123426   5.487   5.316   2.085
 7827TIP3    H223427   5.359   5.326   2.165
 7828TIP3   OH223428   6.670   6.850   1.647
 7828TIP3    H123429   6.600   6.786   1.652
 7828TIP3    H223430   6.740   6.813   1.701
 7829TIP3   OH223431   6.449   3.819   5.619
 7829TIP3    H123432   6.403   3.764   5.682
 7829TIP3    H223433   6.383   3.879   5.586
 7830TIP3   OH223434   0.112   5.618   5.332
 7830TIP3    H123435   0.085   5.565   5.257
 7830TIP3    H223436   0.184   5.672   5.299
 7831TIP3   OH223437   6.515   6.535   0.107
 7831TIP3    H123438   6.481   6.450   0.077
 7831TIP3    H223439   6.497   6.595   0.035
 7832TIP3   OH223440   2.892   4.789   5.912
 7832TIP3    H123441   2.821   4.847   5.884
 7832TIP3    H223442   2.962   4.849   5.939
 7833TIP3   OH223443   5.652   6.329   4.934
 7833TIP3    H123444   5.618   6.417   4.916
 7833TIP3    H223445   5.662   6.327   5.029
 7834TIP3   OH223446   6.775   3.528   4.722
 7834TIP3    H123447   6.725   3.584   4.663
 7834TIP3    H223448   6.740   3.548   4.809
 7835TIP3   OH223449   4.751   5.462   1.339
 7835TIP3    H123450   4.820   5.453   1.404
 7835TIP3    H223451   4.751   5.555   1.315
 7836TIP3   OH223452   3.742   4.747   3.849
 7836TIP3    H123453   3.794   4.763   3.928
 7836TIP3    H223454   3.671   4.691   3.879
 7837TIP3   OH223455   2.787   3.749   4.069
 7837TIP3    H123456   2.823   3.754   4.157
 7837TIP3    H223457   2.862   3.763   4.011
 7838TIP3   OH223458   4.852   7.288   6.266
 7838TIP3    H123459   4.903   7.337   6.331
 7838TIP3    H223460   4.900   7.206   6.256
 7839TIP3   OH223461   7.371   5.875   4.902
 7839TIP3    H123462   7.356   5.944   4.838
 7839TIP3    H223463   7.404   5.801   4.851
 7840TIP3   OH223464  -0.006   5.267   6.437
 7840TIP3    H123465  -0.013   5.175   6.411
 7840TIP3    H223466   0.050   5.306   6.371
 7841TIP3   OH223467   5.481   7.749   5.078
 7841TIP3    H123468   5.458   7.811   5.008
 7841TIP3    H223469   5.411   7.683   5.075
 7842TIP3   OH223470   2.398   4.511   1.727
 7842TIP3    H123471   2.432   4.550   1.807
 7842TIP3    H223472   2.432   4.567   1.657
 7843TIP3   OH223473   6.719   2.694   1.746
 7843TIP3    H123474   6.696   2.634   1.818
 7843TIP3    H223475   6.638   2.702   1.696
 7844TIP3   OH223476   6.824   5.734   6.457
 7844TIP3    H123477   6.883   5.671   6.414
 7844TIP3    H223478   6.875   5.767   6.531
 7845TIP3   OH223479   7.228   1.444   3.428
 7845TIP3    H123480   7.148   1.424   3.380
 7845TIP3    H223481   7.272   1.511   3.375
 7846TIP3   OH223482   7.070   0.249   5.387
 7846TIP3    H123483   6.985   0.210   5.363
 7846TIP3    H223484   7.070   0.247   5.483
 7847TIP3   OH223485   1.749   2.242   4.764
 7847TIP3    H123486   1.739   2.335   4.746
 7847TIP3    H223487   1.660   2.207   4.758
 7848TIP3   OH223488   7.787   3.452   6.546
 7848TIP3    H123489   7.751   3.516   6.608
 7848TIP3    H223490   7.858   3.498   6.502
 7849TIP3   OH223491   3.286   2.686   2.712
 7849TIP3    H123492   3.220   2.624   2.682
 7849TIP3    H223493   3.237   2.750   2.764
 7850TIP3   OH223494   5.278   7.461   2.891
 7850TIP3    H123495   5.371   7.437   2.882
 7850TIP3    H223496   5.278   7.556   2.898
 7851TIP3   OH223497   0.514   6.423   1.449
 7851TIP3    H123498   0.440   6.372   1.481
 7851TIP3    H223499   0.563   6.363   1.393
 7852TIP3   OH223500   6.811   0.843   6.213
 7852TIP3    H123501   6.756   0.765   6.215
 7852TIP3    H223502   6.829   0.857   6.120
 7853TIP3   OH223503   7.282   0.889   1.250
 7853TIP3    H123504   7.217   0.899   1.319
 7853TIP3    H223505   7.359   0.854   1.294
 7854TIP3   OH223506   6.777   1.541   1.917
 7854TIP3    H123507   6.821   1.516   1.998
 7854TIP3    H223508   6.684   1.544   1.941
 7855TIP3   OH223509   7.826   0.468   4.852
 7855TIP3    H123510   7.832   0.561   4.828
 7855TIP3    H223511   7.817   0.469   4.948
 7856TIP3   OH223512   1.682   2.658   3.749
 7856TIP3    H123513   1.691   2.739   3.798
 7856TIP3    H223514   1.620   2.605   3.800
 7857TIP3   OH223515   5.028   2.014   1.693
 7857TIP3    H123516   5.123   2.023   1.687
 7857TIP3    H223517   5.014   1.933   1.740
 7858TIP3   OH223518   3.553   6.372   6.407
 7858TIP3    H123519   3.606   6.423   6.468
 7858TIP3    H223520   3.542   6.430   6.331
 7859TIP3   OH223521   4.555   3.431   4.692
 7859TIP3    H123522   4.466   3.397   4.703
 7859TIP3    H223523   4.549   3.490   4.616
 7860TIP3   OH223524   0.821   1.740   3.899
 7860TIP3    H123525   0.797   1.830   3.878
 7860TIP3    H223526   0.914   1.745   3.924
 7861TIP3   OH223527   3.952   7.599   6.722
 7861TIP3    H123528   3.993   7.551   6.794
 7861TIP3    H223529   3.869   7.555   6.707
 7862TIP3   OH223530   6.621   2.888   0.164
 7862TIP3    H123531   6.565   2.815   0.139
 7862TIP3    H223532   6.608   2.897   0.259
 7863TIP3   OH223533   7.601   4.077   4.400
 7863TIP3    H123534   7.614   3.985   4.377
 7863TIP3    H223535   7.511   4.081   4.432
 7864TIP3   OH223536   1.427   0.465   3.004
 7864TIP3    H123537   1.449   0.512   3.084
 7864TIP3    H223538   1.384   0.530   2.948
 7865TIP3   OH223539   6.721   7.641   2.798
 7865TIP3    H123540   6.725   7.629   2.893
 7865TIP3    H223541   6.659   7.713   2.786
 7866TIP3   OH223542   0.869   3.328   2.352
 7866TIP3    H123543   0.908   3.413   2.331
 7866TIP3    H223544   0.805   3.313   2.283
 7867TIP3   OH223545   7.378   4.292   5.686
 7867TIP3    H123546   7.319   4.328   5.620
 7867TIP3    H223547   7.412   4.369   5.732
 7868TIP3   OH223548   3.684   1.283   0.523
 7868TIP3    H123549   3.658   1.307   0.612
 7868TIP3    H223550   3.771   1.323   0.512
 7869TIP3   OH223551   5.227   3.793   0.650
 7869TIP3    H123552   5.307   3.835   0.681
 7869TIP3    H223553   5.185   3.860   0.596
 7870TIP3   OH223554   7.448   7.056   5.557
 7870TIP3    H123555   7.401   7.074   5.476
 7870TIP3    H223556   7.522   7.117   5.557
 7871TIP3   OH223557   0.184   3.698   3.248
 7871TIP3    H123558   0.114   3.699   3.183
 7871TIP3    H223559   0.258   3.659   3.203
 7872TIP3   OH223560   0.368   7.716   0.700
 7872TIP3    H123561   0.353   7.804   0.733
 7872TIP3    H223562   0.387   7.728   0.607
 7873TIP3   OH223563   5.600   6.395   6.259
 7873TIP3    H123564   5.630   6.355   6.177
 7873TIP3    H223565   5.505   6.403   6.249
 7874TIP3   OH223566   6.189   6.601   5.583
 7874TIP3    H123567   6.151   6.530   5.634
 7874TIP3    H223568   6.121   6.669   5.583
 7875TIP3   OH223569   2.245   3.684   0.733
 7875TIP3    H123570   2.292   3.741   0.794
 7875TIP3    H223571   2.282   3.597   0.748
 7876TIP3   OH223572   2.893   0.531   5.435
 7876TIP3    H123573   2.978   0.574   5.424
 7876TIP3    H223574   2.871   0.544   5.527
 7877TIP3   OH223575   3.004   0.963   4.881
 7877TIP3    H123576   3.028   1.039   4.830
 7877TIP3    H223577   3.036   0.888   4.831
 7878TIP3   OH223578   0.932   2.139   2.809
 7878TIP3    H123579   0.875   2.185   2.747
 7878TIP3    H223580   0.920   2.187   2.891
 7879TIP3   OH223581   4.896   5.986   2.413
 7879TIP3    H123582   4.923   5.894   2.415
 7879TIP3    H223583   4.947   6.025   2.342
 7880TIP3   OH223584   1.750   7.034   4.616
 7880TIP3    H123585   1.793   6.950   4.600
 7880TIP3    H223586   1.822   7.095   4.634
 7881TIP3   OH223587   5.466   5.483   3.890
 7881TIP3    H123588   5.403   5.505   3.821
 7881TIP3    H223589   5.453   5.550   3.957
 7882TIP3   OH223590   3.528   5.373   0.086
 7882TIP3    H123591   3.576   5.443   0.131
 7882TIP3    H223592   3.593   5.303   0.075
 7883TIP3   OH223593   1.430   1.139   5.819
 7883TIP3    H123594   1.433   1.157   5.725
 7883TIP3    H223595   1.338   1.117   5.837
 7884TIP3   OH223596   1.761   3.119   4.709
 7884TIP3    H123597   1.829   3.096   4.645
 7884TIP3    H223598   1.745   3.039   4.757
 7885TIP3   OH223599   0.781   3.680   2.011
 7885TIP3    H123600   0.748   3.765   1.982
 7885TIP3    H223601   0.731   3.616   1.961
 7886TIP3   OH223602   3.087   7.566   2.209
 7886TIP3    H123603   3.115   7.635   2.149
 7886TIP3    H223604   3.069   7.491   2.153
 7887TIP3   OH223605   0.316   0.612   4.857
 7887TIP3    H123606   0.311   0.703   4.828
 7887TIP3    H223607   0.409   0.600   4.879
 7888TIP3   OH223608   4.747   7.714   5.643
 7888TIP3    H123609   4.822   7.744   5.593
 7888TIP3    H223610   4.676   7.709   5.579
 7889TIP3   OH223611   8.009   3.284   1.127
 7889TIP3    H123612   8.063   3.363   1.130
 7889TIP3    H223613   8.005   3.262   1.034
 7890TIP3   OH223614   6.442   4.163   1.801
 7890TIP3    H123615   6.442   4.238   1.860
 7890TIP3    H223616   6.473   4.090   1.855
 7891TIP3   OH223617   4.072   7.149   6.657
 7891TIP3    H123618   4.150   7.112   6.614
 7891TIP3    H223619   4.047   7.083   6.721
 7892TIP3   OH223620   2.804   7.650   3.032
 7892TIP3    H123621   2.832   7.714   2.966
 7892TIP3    H223622   2.713   7.672   3.050
 7893TIP3   OH223623   2.238   3.508   1.236
 7893TIP3    H123624   2.287   3.510   1.318
 7893TIP3    H223625   2.300   3.541   1.171
 7894TIP3   OH223626   5.472   7.703   5.371
 7894TIP3    H123627   5.557   7.748   5.373
 7894TIP3    H223628   5.447   7.702   5.279
 7895TIP3   OH223629   3.010   3.411   5.113
 7895TIP3    H123630   2.947   3.340   5.099
 7895TIP3    H223631   3.049   3.426   5.027
 7896TIP3   OH223632   0.830   1.542   3.212
 7896TIP3    H123633   0.785   1.626   3.224
 7896TIP3    H223634   0.808   1.515   3.123
 7897TIP3   OH223635   0.927   7.189   0.468
 7897TIP3    H123636   0.997   7.234   0.421
 7897TIP3    H223637   0.972   7.118   0.514
 7898TIP3   OH223638   0.246   7.703   5.486
 7898TIP3    H123639   0.228   7.641   5.416
 7898TIP3    H223640   0.218   7.658   5.566
 7899TIP3   OH223641   2.254   2.285   4.299
 7899TIP3    H123642   2.276   2.253   4.211
 7899TIP3    H223643   2.264   2.209   4.356
 7900TIP3   OH223644   0.372   5.808   2.606
 7900TIP3    H123645   0.324   5.761   2.675
 7900TIP3    H223646   0.431   5.743   2.568
 7901TIP3   OH223647   1.894   0.205   3.459
 7901TIP3    H123648   1.810   0.215   3.415
 7901TIP3    H223649   1.872   0.188   3.550
 7902TIP3   OH223650   6.101   1.591   0.763
 7902TIP3    H123651   6.109   1.506   0.719
 7902TIP3    H223652   6.009   1.595   0.789
 7903TIP3   OH223653   2.636   5.602   5.360
 7903TIP3    H123654   2.681   5.518   5.358
 7903TIP3    H223655   2.546   5.582   5.338
 7904TIP3   OH223656   5.650   6.653   2.604
 7904TIP3    H123657   5.595   6.575   2.606
 7904TIP3    H223658   5.734   6.622   2.571
 7905TIP3   OH223659   5.967   3.785   1.025
 7905TIP3    H123660   5.988   3.725   0.953
 7905TIP3    H223661   6.032   3.855   1.017
 7906TIP3   OH223662   2.918   0.509   5.752
 7906TIP3    H123663   2.889   0.595   5.720
 7906TIP3    H223664   2.859   0.490   5.825
 7907TIP3   OH223665   5.961   6.287   2.436
 7907TIP3    H123666   5.945   6.207   2.486
 7907TIP3    H223667   5.943   6.262   2.345
 7908TIP3   OH223668   4.937   0.048   2.988
 7908TIP3    H123669   4.947   0.114   3.057
 7908TIP3    H223670   5.024   0.040   2.949
 7909TIP3   OH223671   4.756   5.585   3.116
 7909TIP3    H123672   4.686   5.594   3.052
 7909TIP3    H223673   4.820   5.528   3.074
 7910TIP3   OH223674   6.267   0.090   1.024
 7910TIP3    H123675   6.243   0.065   0.935
 7910TIP3    H223676   6.257   0.009   1.075
 7911TIP3   OH223677   6.739   6.548   5.633
 7911TIP3    H123678   6.643   6.555   5.630
 7911TIP3    H223679   6.758   6.521   5.723
 7912TIP3   OH223680   8.215   0.659   4.824
 7912TIP3    H123681   8.201   0.586   4.884
 7912TIP3    H223682   8.247   0.730   4.881
 7913TIP3   OH223683   4.345   4.965   6.233
 7913TIP3    H123684   4.403   5.022   6.184
 7913TIP3    H223685   4.290   5.024   6.284
 7914TIP3   OH223686   4.571   6.854   3.093
 7914TIP3    H123687   4.504   6.862   3.161
 7914TIP3    H223688   4.522   6.863   3.011
 7915TIP3   OH223689   0.007   2.439   5.953
 7915TIP3    H123690   0.084   2.473   5.909
 7915TIP3    H223691   0.011   2.477   6.041
 7916TIP3   OH223692   4.380   4.402   3.827
 7916TIP3    H123693   4.340   4.352   3.898
 7916TIP3    H223694   4.452   4.348   3.796
 7917TIP3   OH223695   7.178   0.714   6.648
 7917TIP3    H123696   7.099   0.701   6.701
 7917TIP3    H223697   7.218   0.793   6.684
 7918TIP3   OH223698   2.325   2.292   2.793
 7918TIP3    H123699   2.388   2.349   2.750
 7918TIP3    H223700   2.240   2.333   2.777
 7919TIP3   OH223701   3.372   0.863   4.630
 7919TIP3    H123702   3.334   0.781   4.659
 7919TIP3    H223703   3.300   0.926   4.631
 7920TIP3   OH223704   7.179   7.781   1.918
 7920TIP3    H123705   7.206   7.714   1.981
 7920TIP3    H223706   7.247   7.778   1.851
 7921TIP3   OH223707   2.730   7.191   2.532
 7921TIP3    H123708   2.714   7.144   2.614
 7921TIP3    H223709   2.824   7.207   2.531
 7922TIP3   OH223710   5.806   2.584   1.390
 7922TIP3    H123711   5.830   2.585   1.297
 7922TIP3    H223712   5.719   2.626   1.392
 7923TIP3   OH223713   5.011   1.150   2.825
 7923TIP3    H123714   4.973   1.177   2.909
 7923TIP3    H223715   5.054   1.067   2.844
 7924TIP3   OH223716   1.343   7.170   6.226
 7924TIP3    H123717   1.340   7.232   6.153
 7924TIP3    H223718   1.318   7.221   6.303
 7925TIP3   OH223719   6.826   7.456   2.076
 7925TIP3    H123720   6.801   7.535   2.125
 7925TIP3    H223721   6.882   7.488   2.006
 7926TIP3   OH223722   5.661   3.977   1.901
 7926TIP3    H123723   5.574   3.995   1.864
 7926TIP3    H223724   5.653   4.005   1.993
 7927TIP3   OH223725   3.179   3.221   3.539
 7927TIP3    H123726   3.230   3.285   3.490
 7927TIP3    H223727   3.208   3.136   3.504
 7928TIP3   OH223728   5.301   5.518   3.667
 7928TIP3    H123729   5.241   5.443   3.665
 7928TIP3    H223730   5.266   5.579   3.603
 7929TIP3   OH223731   1.977   7.166   4.198
 7929TIP3    H123732   1.957   7.133   4.110
 7929TIP3    H223733   2.025   7.248   4.183
 7930TIP3   OH223734   3.555   2.565   3.610
 7930TIP3    H123735   3.646   2.580   3.584
 7930TIP3    H223736   3.512   2.649   3.600
 7931TIP3   OH223737   4.641   3.279   0.230
 7931TIP3    H123738   4.706   3.224   0.188
 7931TIP3    H223739   4.575   3.218   0.263
 7932TIP3   OH223740   1.872   1.606   0.941
 7932TIP3    H123741   1.943   1.552   0.977
 7932TIP3    H223742   1.871   1.586   0.848
 7933TIP3   OH223743   6.893   6.845   2.698
 7933TIP3    H123744   6.847   6.880   2.621
 7933TIP3    H223745   6.827   6.845   2.767
 7934TIP3   OH223746   7.317   6.189   0.710
 7934TIP3    H123747   7.226   6.218   0.714
 7934TIP3    H223748   7.323   6.137   0.630
 7935TIP3   OH223749   1.409   5.926   4.522
 7935TIP3    H123750   1.347   5.954   4.589
 7935TIP3    H223751   1.404   5.830   4.523
 7936TIP3   OH223752   7.646   7.559   1.924
 7936TIP3    H123753   7.655   7.472   1.962
 7936TIP3    H223754   7.735   7.582   1.895
 7937TIP3   OH223755   6.259   2.137   0.688
 7937TIP3    H123756   6.279   2.197   0.759
 7937TIP3    H223757   6.272   2.189   0.608
 7938TIP3   OH223758   5.217   5.551   4.915
 7938TIP3    H123759   5.307   5.521   4.902
 7938TIP3    H223760   5.223   5.646   4.911
 7939TIP3   OH223761   3.693   6.425   2.803
 7939TIP3    H123762   3.713   6.335   2.778
 7939TIP3    H223763   3.624   6.452   2.744
 7940TIP3   OH223764   8.234   6.018   0.528
 7940TIP3    H123765   8.237   6.036   0.434
 7940TIP3    H223766   8.147   5.979   0.542
 7941TIP3   OH223767   4.384   7.284   4.930
 7941TIP3    H123768   4.305   7.267   4.877
 7941TIP3    H223769   4.389   7.379   4.935
 7942TIP3   OH223770   0.830   2.346   1.157
 7942TIP3    H123771   0.785   2.302   1.230
 7942TIP3    H223772   0.803   2.437   1.164
 7943TIP3   OH223773   5.386   5.376   2.391
 7943TIP3    H123774   5.304   5.413   2.357
 7943TIP3    H223775   5.436   5.452   2.420
 7944TIP3   OH223776   2.793   4.678   3.575
 7944TIP3    H123777   2.799   4.717   3.487
 7944TIP3    H223778   2.751   4.745   3.628
 7945TIP3   OH223779   2.215   1.292   6.477
 7945TIP3    H123780   2.292   1.300   6.421
 7945TIP3    H223781   2.226   1.359   6.544
 7946TIP3   OH223782   4.246   7.629   5.093
 7946TIP3    H123783   4.191   7.550   5.085
 7946TIP3    H223784   4.247   7.648   5.187
 7947TIP3   OH223785   3.789   2.182   2.934
 7947TIP3    H123786   3.867   2.218   2.892
 7947TIP3    H223787   3.774   2.099   2.889
 7948TIP3   OH223788   6.913   1.108   4.965
 7948TIP3    H123789   6.902   1.013   4.970
 7948TIP3    H223790   6.975   1.122   4.893
 7949TIP3   OH223791   3.438   0.510   4.738
 7949TIP3    H123792   3.474   0.446   4.800
 7949TIP3    H223793   3.506   0.577   4.731
 7950TIP3   OH223794   2.760   3.053   1.804
 7950TIP3    H123795   2.769   3.141   1.768
 7950TIP3    H223796   2.672   3.026   1.777
 7951TIP3   OH223797   6.009   5.656   3.583
 7951TIP3    H123798   5.944   5.718   3.552
 7951TIP3    H223799   6.093   5.701   3.572
 7952TIP3   OH223800   4.151   2.510   0.347
 7952TIP3    H123801   4.072   2.542   0.303
 7952TIP3    H223802   4.222   2.564   0.312
 7953TIP3   OH223803   0.230   6.354   3.039
 7953TIP3    H123804   0.182   6.277   3.009
 7953TIP3    H223805   0.162   6.421   3.051
 7954TIP3   OH223806   7.471   7.695   0.875
 7954TIP3    H123807   7.439   7.695   0.784
 7954TIP3    H223808   7.473   7.602   0.900
 7955TIP3   OH223809   1.920   7.771   2.887
 7955TIP3    H123810   2.004   7.799   2.922
 7955TIP3    H223811   1.940   7.736   2.800
 7956TIP3   OH223812   2.470   2.511   3.702
 7956TIP3    H123813   2.483   2.543   3.791
 7956TIP3    H223814   2.463   2.416   3.711
 7957TIP3   OH223815   2.344   1.955   6.504
 7957TIP3    H123816   2.406   1.989   6.569
 7957TIP3    H223817   2.304   2.034   6.467
 7958TIP3   OH223818   2.582   6.162   6.344
 7958TIP3    H123819   2.507   6.131   6.395
 7958TIP3    H223820   2.575   6.258   6.348
 7959TIP3   OH223821   6.422   1.872   3.856
 7959TIP3    H123822   6.416   1.843   3.947
 7959TIP3    H223823   6.515   1.890   3.843
 7960TIP3   OH223824   2.742   4.849   1.548
 7960TIP3    H123825   2.733   4.858   1.643
 7960TIP3    H223826   2.741   4.939   1.515
 7961TIP3   OH223827   2.361   4.623   5.579
 7961TIP3    H123828   2.288   4.649   5.523
 7961TIP3    H223829   2.361   4.527   5.576
 7962TIP3   OH223830   6.029   4.140   2.319
 7962TIP3    H123831   6.065   4.052   2.320
 7962TIP3    H223832   6.104   4.196   2.342
 7963TIP3   OH223833   1.176   2.640   0.587
 7963TIP3    H123834   1.154   2.698   0.514
 7963TIP3    H223835   1.234   2.574   0.549
 7964TIP3   OH223836   2.623   0.974   5.340
 7964TIP3    H123837   2.651   0.987   5.249
 7964TIP3    H223838   2.575   1.054   5.361
 7965TIP3   OH223839   5.390   4.023   5.478
 7965TIP3    H123840   5.406   3.929   5.477
 7965TIP3    H223841   5.399   4.049   5.570
 7966TIP3   OH223842   7.590   3.655   1.484
 7966TIP3    H123843   7.632   3.616   1.561
 7966TIP3    H223844   7.649   3.725   1.457
 7967TIP3   OH223845   0.807   2.580   4.860
 7967TIP3    H123846   0.880   2.535   4.904
 7967TIP3    H223847   0.756   2.617   4.932
 7968TIP3   OH223848   3.310   2.753   3.286
 7968TIP3    H123849   3.379   2.760   3.352
 7968TIP3    H223850   3.291   2.660   3.281
 7969TIP3   OH223851   5.767   5.669   4.949
 7969TIP3    H123852   5.811   5.676   5.033
 7969TIP3    H223853   5.826   5.618   4.894
 7970TIP3   OH223854   6.905   2.490   4.962
 7970TIP3    H123855   6.969   2.456   4.900
 7970TIP3    H223856   6.879   2.575   4.927
 7971TIP3   OH223857   6.040   2.701   1.257
 7971TIP3    H123858   6.090   2.619   1.258
 7971TIP3    H223859   6.054   2.738   1.343
 7972TIP3   OH223860   2.503   1.572   0.488
 7972TIP3    H123861   2.479   1.613   0.405
 7972TIP3    H223862   2.520   1.481   0.465
 7973TIP3   OH223863   2.172   7.297   3.176
 7973TIP3    H123864   2.185   7.343   3.259
 7973TIP3    H223865   2.182   7.204   3.198
 7974TIP3   OH223866   2.662   4.858   4.099
 7974TIP3    H123867   2.579   4.859   4.147
 7974TIP3    H223868   2.685   4.950   4.088
 7975TIP3   OH223869   5.911   5.415   1.432
 7975TIP3    H123870   5.941   5.324   1.432
 7975TIP3    H223871   5.898   5.436   1.339
 7976TIP3   OH223872   7.316   0.954   2.128
 7976TIP3    H123873   7.343   1.001   2.049
 7976TIP3    H223874   7.256   1.014   2.172
 7977TIP3   OH223875   6.953   4.700   2.351
 7977TIP3    H123876   6.868   4.743   2.345
 7977TIP3    H223877   6.956   4.643   2.274
 7978TIP3   OH223878   5.122   2.004   3.372
 7978TIP3    H123879   5.153   1.944   3.305
 7978TIP3    H223880   5.200   2.026   3.423
 7979TIP3   OH223881   5.293   0.602   3.366
 7979TIP3    H123882   5.350   0.617   3.441
 7979TIP3    H223883   5.205   0.615   3.400
 7980TIP3   OH223884   6.882   3.808   1.424
 7980TIP3    H123885   6.899   3.723   1.463
 7980TIP3    H223886   6.951   3.865   1.458
 7981TIP3   OH223887   5.787   3.618   4.794
 7981TIP3    H123888   5.848   3.652   4.860
 7981TIP3    H223889   5.702   3.619   4.838
 7982TIP3   OH223890   7.725   1.855   1.714
 7982TIP3    H123891   7.751   1.795   1.784
 7982TIP3    H223892   7.725   1.800   1.635
 7983TIP3   OH223893   6.888   3.810   0.660
 7983TIP3    H123894   6.944   3.851   0.593
 7983TIP3    H223895   6.858   3.729   0.619
 7984TIP3   OH223896   5.535   7.114   4.808
 7984TIP3    H123897   5.441   7.126   4.790
 7984TIP3    H223898   5.579   7.169   4.743
 7985TIP3   OH223899   2.746   6.592   1.628
 7985TIP3    H123900   2.770   6.684   1.639
 7985TIP3    H223901   2.793   6.546   1.697
 7986TIP3   OH223902   7.720   2.459   0.606
 7986TIP3    H123903   7.778   2.521   0.649
 7986TIP3    H223904   7.632   2.494   0.620
 7987TIP3   OH223905   5.325   1.905   0.915
 7987TIP3    H123906   5.342   1.977   0.854
 7987TIP3    H223907   5.278   1.840   0.863
 7988TIP3   OH223908   1.027   0.538   6.061
 7988TIP3    H123909   0.952   0.579   6.105
 7988TIP3    H223910   1.041   0.594   5.984
 7989TIP3   OH223911   8.057   5.456   6.436
 7989TIP3    H123912   8.137   5.405   6.443
 7989TIP3    H223913   8.050   5.476   6.342
 7990TIP3   OH223914   6.514   4.320   0.879
 7990TIP3    H123915   6.433   4.301   0.832
 7990TIP3    H223916   6.507   4.413   0.901
 7991TIP3   OH223917   0.168   4.760   4.043
 7991TIP3    H123918   0.087   4.769   3.993
 7991TIP3    H223919   0.237   4.757   3.976
 7992TIP3   OH223920   6.302   7.081   5.328
 7992TIP3    H123921   6.292   7.072   5.233
 7992TIP3    H223922   6.222   7.043   5.364
 7993TIP3   OH223923   4.933   2.393   2.470
 7993TIP3    H123924   4.954   2.446   2.394
 7993TIP3    H223925   4.923   2.304   2.436
 7994TIP3   OH223926   3.156   5.816   4.686
 7994TIP3    H123927   3.085   5.842   4.627
 7994TIP3    H223928   3.235   5.852   4.645
 7995TIP3   OH223929   7.489   2.458   5.108
 7995TIP3    H123930   7.466   2.368   5.130
 7995TIP3    H223931   7.485   2.505   5.191
 7996TIP3   OH223932   4.957   3.732   2.468
 7996TIP3    H123933   4.893   3.722   2.398
 7996TIP3    H223934   4.961   3.826   2.484
 7997TIP3   OH223935   2.103   2.228   4.031
 7997TIP3    H123936   2.195   2.202   4.039
 7997TIP3    H223937   2.054   2.153   4.064
 7998TIP3   OH223938   1.672   7.724   2.982
 7998TIP3    H123939   1.761   7.758   2.970
 7998TIP3    H223940   1.680   7.660   3.052
 7999TIP3   OH223941   6.009   2.118   0.854
 7999TIP3    H123942   6.071   2.118   0.781
 7999TIP3    H223943   5.932   2.162   0.820
 8000TIP3   OH223944   4.082   7.204   5.389
 8000TIP3    H123945   4.025   7.133   5.417
 8000TIP3    H223946   4.062   7.276   5.449
 8001TIP3   OH223947   6.818   7.829   2.396
 8001TIP3    H123948   6.787   7.865   2.479
 8001TIP3    H223949   6.867   7.750   2.421
 8002TIP3   OH223950   4.767   0.187   4.155
 8002TIP3    H123951   4.851   0.194   4.109
 8002TIP3    H223952   4.732   0.102   4.127
 8003TIP3   OH223953   8.124   6.381   6.202
 8003TIP3    H123954   8.215   6.404   6.223
 8003TIP3    H223955   8.107   6.301   6.251
 8004TIP3   OH223956   7.554   3.341   3.056
 8004TIP3    H123957   7.577   3.322   3.147
 8004TIP3    H223958   7.480   3.284   3.037
 8005TIP3   OH223959   1.020   0.771  -0.021
 8005TIP3    H123960   1.097   0.823   0.004
 8005TIP3    H223961   0.954   0.792   0.045
 8006TIP3   OH223962   1.634   1.062   4.832
 8006TIP3    H123963   1.647   1.101   4.918
 8006TIP3    H223964   1.692   0.985   4.832
 8007TIP3   OH223965   1.262   6.824   4.500
 8007TIP3    H123966   1.284   6.761   4.568
 8007TIP3    H223967   1.340   6.880   4.492
 8008TIP3   OH223968   2.352   7.160   3.618
 8008TIP3    H123969   2.346   7.077   3.570
 8008TIP3    H223970   2.286   7.153   3.686
 8009TIP3   OH223971   2.727   7.633   1.268
 8009TIP3    H123972   2.752   7.719   1.301
 8009TIP3    H223973   2.721   7.644   1.173
 8010TIP3   OH223974   8.089   1.414   5.087
 8010TIP3    H123975   8.173   1.378   5.118
 8010TIP3    H223976   8.031   1.407   5.162
 8011TIP3   OH223977   4.735   6.139   5.879
 8011TIP3    H123978   4.805   6.157   5.816
 8011TIP3    H223979   4.703   6.052   5.855
 8012TIP3   OH223980   2.829   6.676   1.913
 8012TIP3    H123981   2.755   6.615   1.907
 8012TIP3    H223982   2.791   6.758   1.944
 8013TIP3   OH223983   6.796   1.336   6.383
 8013TIP3    H123984   6.881   1.328   6.426
 8013TIP3    H223985   6.812   1.389   6.306
 8014TIP3   OH223986   5.889   4.233   6.768
 8014TIP3    H123987   5.951   4.162   6.757
 8014TIP3    H223988   5.885   4.275   6.682
 8015TIP3   OH223989   7.300   4.905   2.914
 8015TIP3    H123990   7.386   4.923   2.875
 8015TIP3    H223991   7.273   4.823   2.873
 8016TIP3   OH223992   3.140   3.339   2.269
 8016TIP3    H123993   3.188   3.352   2.187
 8016TIP3    H223994   3.197   3.283   2.321
 8017TIP3   OH223995   6.021   5.593   0.508
 8017TIP3    H123996   5.985   5.523   0.563
 8017TIP3    H223997   6.033   5.552   0.422
 8018TIP3   OH223998   2.115   0.707   2.939
 8018TIP3    H123999   2.125   0.793   2.898
 8018TIP3    H224000   2.048   0.719   3.006
 8019TIP3   OH224001   1.806   4.428   4.323
 8019TIP3    H124002   1.896   4.458   4.313
 8019TIP3    H224003   1.793   4.365   4.251
 8020TIP3   OH224004   3.806   1.778   4.141
 8020TIP3    H124005   3.730   1.830   4.117
 8020TIP3    H224006   3.850   1.759   4.058
 8021TIP3   OH224007   3.285   1.237   4.901
 8021TIP3    H124008   3.318   1.254   4.813
 8021TIP3    H224009   3.363   1.238   4.956
 8022TIP3   OH224010   5.376   1.204   4.306
 8022TIP3    H124011   5.442   1.210   4.375
 8022TIP3    H224012   5.369   1.292   4.271
 8023TIP3   OH224013   6.992   5.262   4.695
 8023TIP3    H124014   7.082   5.266   4.661
 8023TIP3    H224015   6.985   5.174   4.732
 8024TIP3   OH224016   5.108   4.554   1.033
 8024TIP3    H124017   5.116   4.471   0.985
 8024TIP3    H224018   5.186   4.558   1.088
 8025TIP3   OH224019   3.191   1.353   5.124
 8025TIP3    H124020   3.196   1.302   5.044
 8025TIP3    H224021   3.248   1.428   5.109
 8026TIP3   OH224022   2.099   4.173   2.727
 8026TIP3    H124023   2.108   4.168   2.631
 8026TIP3    H224024   2.176   4.222   2.755
 8027TIP3   OH224025   1.348   5.413   3.456
 8027TIP3    H124026   1.338   5.391   3.549
 8027TIP3    H224027   1.262   5.446   3.430
 8028TIP3   OH224028   3.932   6.876   6.764
 8028TIP3    H124029   3.840   6.884   6.737
 8028TIP3    H224030   3.967   6.805   6.710
 8029TIP3   OH224031   8.186   0.310   1.232
 8029TIP3    H124032   8.219   0.285   1.146
 8029TIP3    H224033   8.255   0.282   1.293
 8030TIP3   OH224034   7.526   1.150   3.381
 8030TIP3    H124035   7.604   1.104   3.411
 8030TIP3    H224036   7.480   1.175   3.461
 8031TIP3   OH224037   0.624   1.961   5.045
 8031TIP3    H124038   0.695   2.016   5.078
 8031TIP3    H224039   0.659   1.872   5.047
 8032TIP3   OH224040   8.161   2.419   3.102
 8032TIP3    H124041   8.112   2.468   3.168
 8032TIP3    H224042   8.098   2.407   3.030
 8033TIP3   OH224043   4.749   5.917   0.736
 8033TIP3    H124044   4.724   5.826   0.719
 8033TIP3    H224045   4.744   5.959   0.650
 8034TIP3   OH224046   5.358   0.803   6.161
 8034TIP3    H124047   5.293   0.771   6.099
 8034TIP3    H224048   5.410   0.866   6.111
 8035TIP3   OH224049   4.909   7.754   0.813
 8035TIP3    H124050   4.917   7.817   0.742
 8035TIP3    H224051   4.916   7.669   0.770
 8036TIP3   OH224052   6.941   6.417   0.494
 8036TIP3    H124053   6.874   6.366   0.447
 8036TIP3    H224054   7.018   6.412   0.437
 8037TIP3   OH224055   2.225   3.271   5.916
 8037TIP3    H124056   2.131   3.254   5.903
 8037TIP3    H224057   2.239   3.358   5.878
 8038TIP3   OH224058   2.576   4.700   1.050
 8038TIP3    H124059   2.545   4.643   0.979
 8038TIP3    H224060   2.498   4.714   1.104
 8039TIP3   OH224061   6.634   2.940   4.254
 8039TIP3    H124062   6.616   2.973   4.342
 8039TIP3    H224063   6.727   2.958   4.240
 8040TIP3   OH224064   7.360   2.478   1.576
 8040TIP3    H124065   7.324   2.461   1.663
 8040TIP3    H224066   7.387   2.570   1.579
 8041TIP3   OH224067   6.183   0.821   3.256
 8041TIP3    H124068   6.090   0.836   3.274
 8041TIP3    H224069   6.187   0.809   3.161
 8042TIP3   OH224070   2.649   1.981   3.664
 8042TIP3    H124071   2.672   2.018   3.578
 8042TIP3    H224072   2.560   1.949   3.653
 8043TIP3   OH224073   6.387   4.885   6.755
 8043TIP3    H124074   6.424   4.841   6.678
 8043TIP3    H224075   6.303   4.841   6.769
 8044TIP3   OH224076   2.043   3.306   1.249
 8044TIP3    H124077   2.119   3.363   1.237
 8044TIP3    H224078   2.035   3.294   1.344
 8045TIP3   OH224079   1.874   2.146   0.341
 8045TIP3    H124080   1.950   2.129   0.285
 8045TIP3    H224081   1.887   2.089   0.417
 8046TIP3   OH224082   1.664   7.643   4.097
 8046TIP3    H124083   1.679   7.565   4.151
 8046TIP3    H224084   1.645   7.608   4.010
 8047TIP3   OH224085   4.332   5.920   4.161
 8047TIP3    H124086   4.371   5.954   4.080
 8047TIP3    H224087   4.406   5.897   4.216
 8048TIP3   OH224088   4.607   7.041   1.902
 8048TIP3    H124089   4.684   7.086   1.936
 8048TIP3    H224090   4.542   7.110   1.888
 8049TIP3   OH224091   4.158   2.766   1.383
 8049TIP3    H124092   4.242   2.731   1.414
 8049TIP3    H224093   4.122   2.697   1.327
 8050TIP3   OH224094   7.889   3.115   5.136
 8050TIP3    H124095   7.854   3.041   5.088
 8050TIP3    H224096   7.872   3.191   5.080
 8051TIP3   OH224097   5.822   1.620   0.803
 8051TIP3    H124098   5.758   1.594   0.737
 8051TIP3    H224099   5.777   1.607   0.886
 8052TIP3   OH224100   0.669   3.079   2.566
 8052TIP3    H124101   0.679   3.048   2.655
 8052TIP3    H224102   0.754   3.063   2.524
 8053TIP3   OH224103   3.798   7.204   5.878
 8053TIP3    H124104   3.810   7.211   5.783
 8053TIP3    H224105   3.886   7.213   5.914
 8054TIP3   OH224106   5.875   6.579   5.827
 8054TIP3    H124107   5.880   6.546   5.738
 8054TIP3    H224108   5.848   6.504   5.879
 8055TIP3   OH224109   6.920   6.193   2.778
 8055TIP3    H124110   6.920   6.203   2.683
 8055TIP3    H224111   7.004   6.230   2.806
 8056TIP3   OH224112   5.673   3.775   1.044
 8056TIP3    H124113   5.763   3.801   1.063
 8056TIP3    H224114   5.629   3.775   1.129
 8057TIP3   OH224115   5.826   5.384   0.886
 8057TIP3    H124116   5.790   5.351   0.804
 8057TIP3    H224117   5.799   5.319   0.951
 8058TIP3   OH224118   5.032   1.137   0.856
 8058TIP3    H124119   5.101   1.196   0.886
 8058TIP3    H224120   4.956   1.194   0.842
 8059TIP3   OH224121   1.300   0.385   5.118
 8059TIP3    H124122   1.379   0.391   5.172
 8059TIP3    H224123   1.332   0.357   5.032
 8060TIP3   OH224124   5.994   1.582   4.321
 8060TIP3    H124125   5.950   1.498   4.334
 8060TIP3    H224126   5.957   1.615   4.239
 8061TIP3   OH224127   4.698   3.593   4.183
 8061TIP3    H124128   4.780   3.546   4.200
 8061TIP3    H224129   4.658   3.604   4.269
 8062TIP3   OH224130   4.631   3.117   6.175
 8062TIP3    H124131   4.628   3.022   6.163
 8062TIP3    H224132   4.720   3.141   6.150
 8063TIP3   OH224133   5.088   1.592   5.545
 8063TIP3    H124134   5.046   1.644   5.476
 8063TIP3    H224135   5.099   1.653   5.618
 8064TIP3   OH224136   7.269   6.798   1.036
 8064TIP3    H124137   7.350   6.817   1.083
 8064TIP3    H224138   7.296   6.748   0.959
 8065TIP3   OH224139   3.369   0.283   6.303
 8065TIP3    H124140   3.454   0.245   6.325
 8065TIP3    H224141   3.389   0.370   6.268
 8066TIP3   OH224142   7.694   3.237   1.073
 8066TIP3    H124143   7.666   3.272   1.158
 8066TIP3    H224144   7.789   3.234   1.078
 8067TIP3   OH224145   1.408   2.310   1.943
 8067TIP3    H124146   1.439   2.220   1.929
 8067TIP3    H224147   1.318   2.309   1.912
 8068TIP3   OH224148   7.353   2.126   4.896
 8068TIP3    H124149   7.349   2.033   4.922
 8068TIP3    H224150   7.381   2.171   4.975
 8069TIP3   OH224151   4.326   0.465   2.229
 8069TIP3    H124152   4.364   0.530   2.289
 8069TIP3    H224153   4.232   0.477   2.238
 8070TIP3   OH224154   1.344   3.905   1.545
 8070TIP3    H124155   1.330   3.903   1.450
 8070TIP3    H224156   1.435   3.878   1.556
 8071TIP3   OH224157   2.222   5.205   0.865
 8071TIP3    H124158   2.274   5.259   0.924
 8071TIP3    H224159   2.261   5.220   0.779
 8072TIP3   OH224160   0.613   1.166   2.478
 8072TIP3    H124161   0.556   1.243   2.470
 8072TIP3    H224162   0.552   1.091   2.477
 8073TIP3   OH224163   2.154   4.802   1.465
 8073TIP3    H124164   2.239   4.839   1.441
 8073TIP3    H224165   2.139   4.833   1.554
 8074TIP3   OH224166   0.239   1.402   3.875
 8074TIP3    H124167   0.244   1.397   3.971
 8074TIP3    H224168   0.195   1.486   3.858
 8075TIP3   OH224169   7.139   3.850   0.552
 8075TIP3    H124170   7.198   3.893   0.490
 8075TIP3    H224171   7.152   3.898   0.634
 8076TIP3   OH224172   2.405   7.034   0.598
 8076TIP3    H124173   2.404   6.973   0.524
 8076TIP3    H224174   2.314   7.039   0.626
 8077TIP3   OH224175   6.186   5.696   5.705
 8077TIP3    H124176   6.204   5.735   5.790
 8077TIP3    H224177   6.165   5.770   5.648
 8078TIP3   OH224178   6.201   6.769   4.449
 8078TIP3    H124179   6.111   6.752   4.422
 8078TIP3    H224180   6.201   6.861   4.475
 8079TIP3   OH224181   4.162   5.965   6.506
 8079TIP3    H124182   4.180   6.037   6.567
 8079TIP3    H224183   4.104   5.906   6.555
 8080TIP3   OH224184   3.542   2.830   1.894
 8080TIP3    H124185   3.536   2.770   1.820
 8080TIP3    H224186   3.522   2.916   1.857
 8081TIP3   OH224187   2.324   3.942   6.213
 8081TIP3    H124188   2.310   4.018   6.270
 8081TIP3    H224189   2.393   3.892   6.256
 8082TIP3   OH224190   0.537   3.229   0.907
 8082TIP3    H124191   0.500   3.313   0.933
 8082TIP3    H224192   0.574   3.246   0.819
 8083TIP3   OH224193   4.370   0.434   1.929
 8083TIP3    H124194   4.320   0.516   1.933
 8083TIP3    H224195   4.365   0.398   2.018
 8084TIP3   OH224196   3.285   5.756   5.068
 8084TIP3    H124197   3.336   5.813   5.126
 8084TIP3    H224198   3.348   5.724   5.003
 8085TIP3   OH224199   3.726   7.433   4.409
 8085TIP3    H124200   3.737   7.339   4.425
 8085TIP3    H224201   3.633   7.449   4.419
 8086TIP3   OH224202   3.118   0.300   2.906
 8086TIP3    H124203   3.071   0.370   2.953
 8086TIP3    H224204   3.049   0.245   2.871
 8087TIP3   OH224205   0.191   6.894   4.201
 8087TIP3    H124206   0.169   6.891   4.108
 8087TIP3    H224207   0.233   6.979   4.213
 8088TIP3   OH224208   6.036   3.729   4.893
 8088TIP3    H124209   6.056   3.798   4.830
 8088TIP3    H224210   6.031   3.774   4.977
 8089TIP3   OH224211   1.706   7.137   1.641
 8089TIP3    H124212   1.708   7.230   1.619
 8089TIP3    H224213   1.797   7.110   1.641
 8090TIP3   OH224214   3.667   6.620   3.400
 8090TIP3    H124215   3.583   6.630   3.356
 8090TIP3    H224216   3.722   6.689   3.361
 8091TIP3   OH224217   4.953   2.047   0.525
 8091TIP3    H124218   4.876   2.058   0.580
 8091TIP3    H224219   4.974   2.135   0.495
 8092TIP3   OH224220   1.974   2.762   6.324
 8092TIP3    H124221   1.991   2.677   6.365
 8092TIP3    H224222   1.960   2.822   6.397
 8093TIP3   OH224223   2.741   7.590   0.342
 8093TIP3    H124224   2.751   7.683   0.362
 8093TIP3    H224225   2.823   7.566   0.299
 8094TIP3   OH224226   1.284   2.766   3.753
 8094TIP3    H124227   1.336   2.688   3.736
 8094TIP3    H224228   1.222   2.769   3.680
 8095TIP3   OH224229   6.097   3.076   2.704
 8095TIP3    H124230   6.129   3.138   2.770
 8095TIP3    H224231   6.159   3.084   2.632
 8096TIP3   OH224232   5.814   2.692   1.918
 8096TIP3    H124233   5.816   2.787   1.912
 8096TIP3    H224234   5.903   2.667   1.942
 8097TIP3   OH224235   7.930   2.350   6.390
 8097TIP3    H124236   7.995   2.283   6.368
 8097TIP3    H224237   7.970   2.399   6.462
 8098TIP3   OH224238   6.709   7.686   5.221
 8098TIP3    H124239   6.617   7.709   5.211
 8098TIP3    H224240   6.737   7.731   5.301
 8099TIP3   OH224241   4.759   2.233   1.485
 8099TIP3    H124242   4.731   2.260   1.572
 8099TIP3    H224243   4.764   2.314   1.435
 8100TIP3   OH224244   6.627   6.891   0.887
 8100TIP3    H124245   6.654   6.850   0.970
 8100TIP3    H224246   6.544   6.933   0.907
 8101TIP3   OH224247   7.208   4.127   6.146
 8101TIP3    H124248   7.239   4.170   6.226
 8101TIP3    H224249   7.206   4.198   6.081
 8102TIP3   OH224250   4.765   4.375   3.996
 8102TIP3    H124251   4.740   4.378   3.904
 8102TIP3    H224252   4.787   4.465   4.019
 8103TIP3   OH224253   3.304   7.778   5.828
 8103TIP3    H124254   3.254   7.755   5.907
 8103TIP3    H224255   3.320   7.694   5.785
 8104TIP3   OH224256   6.165   5.113   4.262
 8104TIP3    H124257   6.189   5.093   4.171
 8104TIP3    H224258   6.122   5.198   4.257
 8105TIP3   OH224259   3.217   4.448   2.245
 8105TIP3    H124260   3.214   4.543   2.230
 8105TIP3    H224261   3.282   4.416   2.183
 8106TIP3   OH224262   2.131   5.662   4.908
 8106TIP3    H124263   2.040   5.680   4.883
 8106TIP3    H224264   2.173   5.747   4.911
 8107TIP3   OH224265   2.744   0.534   3.899
 8107TIP3    H124266   2.830   0.547   3.940
 8107TIP3    H224267   2.704   0.621   3.899
 8108TIP3   OH224268   7.705   7.309   4.739
 8108TIP3    H124269   7.676   7.268   4.821
 8108TIP3    H224270   7.626   7.347   4.702
 8109TIP3   OH224271   2.021   6.068   0.229
 8109TIP3    H124272   2.048   6.115   0.308
 8109TIP3    H224273   2.092   6.005   0.213
 8110TIP3   OH224274   6.851   1.533   0.882
 8110TIP3    H124275   6.876   1.546   0.974
 8110TIP3    H224276   6.935   1.532   0.835
 8111TIP3   OH224277   0.148   1.008   6.534
 8111TIP3    H124278   0.053   1.011   6.523
 8111TIP3    H224279   0.183   1.056   6.460
 8112TIP3   OH224280   0.191   4.922   5.496
 8112TIP3    H124281   0.210   4.828   5.502
 8112TIP3    H224282   0.277   4.963   5.495
 8113TIP3   OH224283   6.389   5.870   0.927
 8113TIP3    H124284   6.431   5.953   0.905
 8113TIP3    H224285   6.304   5.894   0.961
 8114TIP3   OH224286   1.372   0.030   6.435
 8114TIP3    H124287   1.289   0.015   6.390
 8114TIP3    H224288   1.367   0.120   6.466
 8115TIP3   OH224289   1.901   7.782   4.855
 8115TIP3    H124290   1.860   7.711   4.806
 8115TIP3    H224291   1.909   7.747   4.944
 8116TIP3   OH224292   2.422   6.345   0.139
 8116TIP3    H124293   2.490   6.401   0.103
 8116TIP3    H224294   2.360   6.405   0.180
 8117TIP3   OH224295   5.096   1.157   3.289
 8117TIP3    H124296   5.012   1.140   3.247
 8117TIP3    H224297   5.108   1.252   3.281
 8118TIP3   OH224298   0.559   1.193   1.610
 8118TIP3    H124299   0.468   1.203   1.581
 8118TIP3    H224300   0.566   1.249   1.687
 8119TIP3   OH224301   1.514   4.495   4.911
 8119TIP3    H124302   1.518   4.430   4.840
 8119TIP3    H224303   1.453   4.561   4.879
 8120TIP3   OH224304   2.016   5.747   1.030
 8120TIP3    H124305   1.989   5.674   0.974
 8120TIP3    H224306   2.018   5.710   1.118
 8121TIP3   OH224307   4.745   0.645   0.092
 8121TIP3    H124308   4.720   0.606   0.176
 8121TIP3    H224309   4.778   0.732   0.115
 8122TIP3   OH224310   7.319   4.577   4.028
 8122TIP3    H124311   7.385   4.580   3.958
 8122TIP3    H224312   7.264   4.653   4.013
 8123TIP3   OH224313   2.063   5.102   4.047
 8123TIP3    H124314   2.057   5.190   4.083
 8123TIP3    H224315   2.091   5.048   4.121
 8124TIP3   OH224316   5.297   1.467   5.161
 8124TIP3    H124317   5.220   1.522   5.152
 8124TIP3    H224318   5.359   1.521   5.211
 8125TIP3   OH224319   8.007   2.924   5.802
 8125TIP3    H124320   7.958   2.964   5.731
 8125TIP3    H224321   8.055   2.852   5.761
 8126TIP3   OH224322   3.343   7.799   4.842
 8126TIP3    H124323   3.362   7.872   4.784
 8126TIP3    H224324   3.269   7.754   4.801
 8127TIP3   OH224325   4.682   2.777   2.391
 8127TIP3    H124326   4.704   2.722   2.317
 8127TIP3    H224327   4.709   2.726   2.468
 8128TIP3   OH224328   4.349   5.527   0.318
 8128TIP3    H124329   4.377   5.514   0.408
 8128TIP3    H224330   4.407   5.471   0.266
 8129TIP3   OH224331   8.116   4.871   0.563
 8129TIP3    H124332   8.159   4.819   0.495
 8129TIP3    H224333   8.175   4.945   0.578
 8130TIP3   OH224334   7.235   1.986   2.160
 8130TIP3    H124335   7.311   2.041   2.137
 8130TIP3    H224336   7.248   1.966   2.252
 8131TIP3   OH224337   6.565   1.648   3.111
 8131TIP3    H124338   6.595   1.719   3.168
 8131TIP3    H224339   6.518   1.692   3.040
 8132TIP3   OH224340   7.876   4.568   5.828
 8132TIP3    H124341   7.804   4.610   5.876
 8132TIP3    H224342   7.835   4.534   5.748
 8133TIP3   OH224343   1.111   6.195   1.214
 8133TIP3    H124344   1.078   6.127   1.272
 8133TIP3    H224345   1.205   6.199   1.231
 8134TIP3   OH224346   2.756   0.687   4.159
 8134TIP3    H124347   2.763   0.612   4.219
 8134TIP3    H224348   2.825   0.747   4.187
 8135TIP3   OH224349   7.755   7.021   3.848
 8135TIP3    H124350   7.727   6.934   3.877
 8135TIP3    H224351   7.798   7.059   3.925
 8136TIP3   OH224352   5.207   7.454   6.746
 8136TIP3    H124353   5.198   7.383   6.809
 8136TIP3    H224354   5.176   7.416   6.663
 8137TIP3   OH224355   2.446   3.435   6.113
 8137TIP3    H124356   2.400   3.509   6.153
 8137TIP3    H224357   2.376   3.374   6.089
 8138TIP3   OH224358   5.258   2.529   2.091
 8138TIP3    H124359   5.324   2.489   2.147
 8138TIP3    H224360   5.183   2.469   2.096
 8139TIP3   OH224361   1.607   1.063   3.821
 8139TIP3    H124362   1.541   1.061   3.890
 8139TIP3    H224363   1.563   1.102   3.746
 8140TIP3   OH224364   1.816   6.230   1.490
 8140TIP3    H124365   1.850   6.175   1.419
 8140TIP3    H224366   1.892   6.277   1.524
 8141TIP3   OH224367   2.844   5.433   4.559
 8141TIP3    H124368   2.918   5.402   4.505
 8141TIP3    H224369   2.884   5.496   4.618
 8142TIP3   OH224370   3.616   4.437   5.241
 8142TIP3    H124371   3.702   4.477   5.255
 8142TIP3    H224372   3.586   4.414   5.329
 8143TIP3   OH224373   4.683   0.806   2.250
 8143TIP3    H124374   4.630   0.811   2.330
 8143TIP3    H224375   4.762   0.759   2.276
 8144TIP3   OH224376   1.623   2.449   0.099
 8144TIP3    H124377   1.604   2.358   0.123
 8144TIP3    H224378   1.695   2.475   0.158
 8145TIP3   OH224379   4.054   3.564   2.120
 8145TIP3    H124380   4.020   3.482   2.085
 8145TIP3    H224381   4.048   3.554   2.215
 8146TIP3   OH224382   8.012   5.485   5.111
 8146TIP3    H124383   7.996   5.567   5.158
 8146TIP3    H224384   8.082   5.506   5.050
 8147TIP3   OH224385   7.048   1.634   6.604
 8147TIP3    H124386   6.960   1.629   6.567
 8147TIP3    H224387   7.047   1.573   6.678
 8148TIP3   OH224388   3.480   4.713   2.915
 8148TIP3    H124389   3.509   4.802   2.894
 8148TIP3    H224390   3.405   4.699   2.857
 8149TIP3   OH224391   0.681   4.806   5.687
 8149TIP3    H124392   0.760   4.788   5.737
 8149TIP3    H224393   0.612   4.817   5.753
 8150TIP3   OH224394   0.837   4.625   5.528
 8150TIP3    H124395   0.756   4.649   5.573
 8150TIP3    H224396   0.807   4.586   5.446
 8151TIP3   OH224397   2.055   1.484   2.211
 8151TIP3    H124398   2.008   1.559   2.247
 8151TIP3    H224399   2.018   1.473   2.123
 8152TIP3   OH224400   2.509   6.980   4.416
 8152TIP3    H124401   2.464   6.941   4.491
 8152TIP3    H224402   2.473   6.935   4.340
 8153TIP3   OH224403   0.727   7.290   3.120
 8153TIP3    H124404   0.812   7.284   3.077
 8153TIP3    H224405   0.677   7.351   3.065
 8154TIP3   OH224406   0.144   7.594   0.554
 8154TIP3    H124407   0.149   7.524   0.619
 8154TIP3    H224408   0.227   7.588   0.507
 8155TIP3   OH224409   6.513   4.560   3.810
 8155TIP3    H124410   6.568   4.524   3.741
 8155TIP3    H224411   6.441   4.498   3.819
 8156TIP3   OH224412   6.579   0.036   1.411
 8156TIP3    H124413   6.521   0.092   1.359
 8156TIP3    H224414   6.523  -0.035   1.440
 8157TIP3   OH224415   0.134   0.385   0.730
 8157TIP3    H124416   0.228   0.398   0.717
 8157TIP3    H224417   0.093   0.435   0.659
 8158TIP3   OH224418   5.841   4.712   2.238
 8158TIP3    H124419   5.779   4.753   2.299
 8158TIP3    H224420   5.807   4.623   2.227
 8159TIP3   OH224421   2.701   0.697   5.936
 8159TIP3    H124422   2.752   0.705   6.016
 8159TIP3    H224423   2.633   0.633   5.957
 8160TIP3   OH224424   1.208   0.512   4.462
 8160TIP3    H124425   1.122   0.554   4.459
 8160TIP3    H224426   1.209   0.468   4.547
 8161TIP3   OH224427   6.470   6.980   4.818
 8161TIP3    H124428   6.440   7.050   4.876
 8161TIP3    H224429   6.562   6.969   4.840
 8162TIP3   OH224430   4.716   0.779   5.332
 8162TIP3    H124431   4.726   0.727   5.412
 8162TIP3    H224432   4.621   0.790   5.323
 8163TIP3   OH224433   0.823   0.497   1.762
 8163TIP3    H124434   0.883   0.496   1.688
 8163TIP3    H224435   0.738   0.473   1.725
 8164TIP3   OH224436   6.586   5.062   2.911
 8164TIP3    H124437   6.547   4.995   2.966
 8164TIP3    H224438   6.680   5.056   2.928
 8165TIP3   OH224439   4.551   7.407   5.213
 8165TIP3    H124440   4.551   7.317   5.180
 8165TIP3    H224441   4.643   7.433   5.206
 8166TIP3   OH224442   2.005   6.798   2.709
 8166TIP3    H124443   1.958   6.848   2.775
 8166TIP3    H224444   1.947   6.798   2.633
 8167TIP3   OH224445   6.921   6.782   1.778
 8167TIP3    H124446   6.978   6.849   1.816
 8167TIP3    H224447   6.955   6.768   1.690
 8168TIP3   OH224448   5.835   6.047   3.152
 8168TIP3    H124449   5.765   6.060   3.088
 8168TIP3    H224450   5.905   6.004   3.103
 8169TIP3   OH224451   6.488   0.703   2.621
 8169TIP3    H124452   6.499   0.609   2.640
 8169TIP3    H224453   6.556   0.746   2.673
 8170TIP3   OH224454   5.104   4.154   5.922
 8170TIP3    H124455   5.121   4.064   5.949
 8170TIP3    H224456   5.028   4.148   5.863
 8171TIP3   OH224457   5.158   2.173   2.265
 8171TIP3    H124458   5.139   2.089   2.225
 8171TIP3    H224459   5.118   2.238   2.207
 8172TIP3   OH224460   6.217   3.491   1.524
 8172TIP3    H124461   6.273   3.421   1.556
 8172TIP3    H224462   6.258   3.518   1.441
 8173TIP3   OH224463   5.430   1.258   3.351
 8173TIP3    H124464   5.432   1.217   3.264
 8173TIP3    H224465   5.357   1.215   3.395
 8174TIP3   OH224466   2.443   1.822   3.362
 8174TIP3    H124467   2.393   1.762   3.307
 8174TIP3    H224468   2.382   1.892   3.385
 8175TIP3   OH224469   2.415   2.708   3.080
 8175TIP3    H124470   2.376   2.770   3.019
 8175TIP3    H224471   2.421   2.757   3.162
 8176TIP3   OH224472   2.740   2.871   4.373
 8176TIP3    H124473   2.671   2.841   4.314
 8176TIP3    H224474   2.804   2.913   4.316
 8177TIP3   OH224475   4.563   7.296   3.037
 8177TIP3    H124476   4.633   7.313   3.100
 8177TIP3    H224477   4.545   7.381   2.997
 8178TIP3   OH224478   5.298   4.731   6.624
 8178TIP3    H124479   5.294   4.743   6.719
 8178TIP3    H224480   5.206   4.725   6.598
 8179TIP3   OH224481   3.302   0.227   0.286
 8179TIP3    H124482   3.232   0.289   0.266
 8179TIP3    H224483   3.382   0.273   0.259
 8180TIP3   OH224484   8.215   7.731   3.230
 8180TIP3    H124485   8.258   7.765   3.152
 8180TIP3    H224486   8.266   7.654   3.254
 8181TIP3   OH224487   1.383   1.115   5.252
 8181TIP3    H124488   1.365   1.035   5.201
 8181TIP3    H224489   1.372   1.087   5.343
 8182TIP3   OH224490   4.589   7.571   3.524
 8182TIP3    H124491   4.501   7.533   3.522
 8182TIP3    H224492   4.574   7.665   3.534
 8183TIP3   OH224493   2.694   1.443   5.277
 8183TIP3    H124494   2.679   1.517   5.337
 8183TIP3    H224495   2.739   1.378   5.331
 8184TIP3   OH224496   7.981   6.239   0.494
 8184TIP3    H124497   7.986   6.145   0.480
 8184TIP3    H224498   7.932   6.248   0.576
 8185TIP3   OH224499   7.657   2.520   4.347
 8185TIP3    H124500   7.612   2.489   4.269
 8185TIP3    H224501   7.608   2.482   4.420
 8186TIP3   OH224502   0.462   3.731   4.664
 8186TIP3    H124503   0.415   3.774   4.735
 8186TIP3    H224504   0.419   3.762   4.584
 8187TIP3   OH224505   0.720   0.449   6.594
 8187TIP3    H124506   0.719   0.355   6.578
 8187TIP3    H224507   0.641   0.465   6.646
 8188TIP3   OH224508   4.109   1.247   0.499
 8188TIP3    H124509   4.069   1.223   0.583
 8188TIP3    H224510   4.140   1.163   0.463
 8189TIP3   OH224511   5.361   1.057   5.529
 8189TIP3    H124512   5.323   1.118   5.466
 8189TIP3    H224513   5.434   1.016   5.482
 8190TIP3   OH224514   7.977   5.004   3.799
 8190TIP3    H124515   8.027   5.081   3.771
 8190TIP3    H224516   8.044   4.937   3.813
 8191TIP3   OH224517   1.381   7.212   4.361
 8191TIP3    H124518   1.450   7.147   4.370
 8191TIP3    H224519   1.334   7.186   4.282
 8192TIP3   OH224520   2.878   5.093   3.751
 8192TIP3    H124521   2.973   5.079   3.745
 8192TIP3    H224522   2.868   5.188   3.743
 8193TIP3   OH224523   5.119   1.936   2.134
 8193TIP3    H124524   5.115   1.859   2.192
 8193TIP3    H224525   5.033   1.938   2.092
 8194TIP3   OH224526   7.972   1.714   5.759
 8194TIP3    H124527   8.020   1.722   5.841
 8194TIP3    H224528   8.002   1.788   5.706
 8195TIP3   OH224529   3.054   1.568   1.983
 8195TIP3    H124530   3.143   1.538   1.967
 8195TIP3    H224531   3.014   1.572   1.896
 8196TIP3   OH224532   4.414   0.319   1.696
 8196TIP3    H124533   4.394   0.375   1.771
 8196TIP3    H224534   4.361   0.355   1.624
 8197TIP3   OH224535   4.994   4.556   1.542
 8197TIP3    H124536   4.985   4.488   1.474
 8197TIP3    H224537   4.913   4.549   1.592
 8198TIP3   OH224538   6.470   7.236   2.923
 8198TIP3    H124539   6.450   7.279   2.840
 8198TIP3    H224540   6.455   7.143   2.906
 8199TIP3   OH224541   7.987   1.313   4.548
 8199TIP3    H124542   8.007   1.335   4.639
 8199TIP3    H224543   7.922   1.243   4.554
 8200TIP3   OH224544   0.282   2.336   3.606
 8200TIP3    H124545   0.283   2.284   3.686
 8200TIP3    H224546   0.298   2.426   3.636
 8201TIP3   OH224547   4.418   2.235   6.223
 8201TIP3    H124548   4.414   2.190   6.307
 8201TIP3    H224549   4.466   2.175   6.165
 8202TIP3   OH224550   0.646   2.085   5.537
 8202TIP3    H124551   0.714   2.150   5.527
 8202TIP3    H224552   0.651   2.058   5.629
 8203TIP3   OH224553   3.675   0.921   3.589
 8203TIP3    H124554   3.746   0.859   3.603
 8203TIP3    H224555   3.658   0.958   3.676
 8204TIP3   OH224556   1.484   5.672   0.788
 8204TIP3    H124557   1.402   5.668   0.740
 8204TIP3    H224558   1.550   5.643   0.725
 8205TIP3   OH224559   1.383   5.298   4.871
 8205TIP3    H124560   1.322   5.309   4.943
 8205TIP3    H224561   1.372   5.208   4.842
 8206TIP3   OH224562   6.659   5.944   3.530
 8206TIP3    H124563   6.713   5.964   3.606
 8206TIP3    H224564   6.663   6.024   3.477
 8207TIP3   OH224565   1.759   5.616   5.107
 8207TIP3    H124566   1.798   5.609   5.194
 8207TIP3    H224567   1.701   5.540   5.102
 8208TIP3   OH224568   0.099   6.207   2.763
 8208TIP3    H124569   0.048   6.132   2.792
 8208TIP3    H224570   0.169   6.170   2.709
 8209TIP3   OH224571   0.603   2.660   4.643
 8209TIP3    H124572   0.646   2.600   4.582
 8209TIP3    H224573   0.655   2.655   4.723
 8210TIP3   OH224574   3.428   7.730   2.051
 8210TIP3    H124575   3.464   7.652   2.095
 8210TIP3    H224576   3.480   7.803   2.086
 8211TIP3   OH224577   4.764   3.456   2.000
 8211TIP3    H124578   4.690   3.451   1.939
 8211TIP3    H224579   4.725   3.443   2.086
 8212TIP3   OH224580   6.543   7.499   6.027
 8212TIP3    H124581   6.478   7.434   6.000
 8212TIP3    H224582   6.623   7.475   5.979
 8213TIP3   OH224583   8.068   7.753   1.285
 8213TIP3    H124584   8.117   7.765   1.204
 8213TIP3    H224585   8.133   7.760   1.355
 8214TIP3   OH224586   0.089   6.395   0.135
 8214TIP3    H124587   0.109   6.303   0.150
 8214TIP3    H224588   0.172   6.441   0.150
 8215TIP3   OH224589   1.382   2.274   0.767
 8215TIP3    H124590   1.359   2.276   0.860
 8215TIP3    H224591   1.461   2.328   0.761
 8216TIP3   OH224592   5.742   6.207   5.706
 8216TIP3    H124593   5.777   6.119   5.719
 8216TIP3    H224594   5.734   6.243   5.794
 8217TIP3   OH224595   3.556   3.083   4.496
 8217TIP3    H124596   3.491   3.139   4.538
 8217TIP3    H224597   3.629   3.141   4.478
 8218TIP3   OH224598   5.760   2.218   5.999
 8218TIP3    H124599   5.705   2.273   6.054
 8218TIP3    H224600   5.729   2.233   5.910
 8219TIP3   OH224601   5.566   0.043   1.378
 8219TIP3    H124602   5.644   0.040   1.323
 8219TIP3    H224603   5.562   0.134   1.409
 8220TIP3   OH224604   3.450   0.352   3.621
 8220TIP3    H124605   3.468   0.427   3.678
 8220TIP3    H224606   3.364   0.321   3.649
 8221TIP3   OH224607   0.815   4.018   5.975
 8221TIP3    H124608   0.901   3.979   5.958
 8221TIP3    H224609   0.832   4.088   6.038
 8222TIP3   OH224610   3.363   5.863   5.750
 8222TIP3    H124611   3.340   5.790   5.692
 8222TIP3    H224612   3.309   5.936   5.719
 8223TIP3   OH224613   3.670   5.879   3.895
 8223TIP3    H124614   3.726   5.881   3.973
 8223TIP3    H224615   3.617   5.959   3.902
 8224TIP3   OH224616   7.065   4.994   0.886
 8224TIP3    H124617   7.040   4.928   0.952
 8224TIP3    H224618   7.038   5.077   0.925
 8225TIP3   OH224619   7.689   5.774   4.614
 8225TIP3    H124620   7.705   5.750   4.706
 8225TIP3    H224621   7.765   5.827   4.590
 8226TIP3   OH224622   6.367   6.803   1.115
 8226TIP3    H124623   6.389   6.823   1.206
 8226TIP3    H224624   6.371   6.887   1.070
 8227TIP3   OH224625   5.813   0.563   0.074
 8227TIP3    H124626   5.808   0.526   0.162
 8227TIP3    H224627   5.865   0.643   0.085
 8228TIP3   OH224628   1.919   7.225   2.226
 8228TIP3    H124629   1.946   7.214   2.135
 8228TIP3    H224630   1.847   7.288   2.223
 8229TIP3   OH224631   7.222   1.717   6.387
 8229TIP3    H124632   7.298   1.659   6.393
 8229TIP3    H224633   7.160   1.682   6.451
 8230TIP3   OH224634   5.005   0.548   6.566
 8230TIP3    H124635   5.026   0.536   6.473
 8230TIP3    H224636   4.914   0.519   6.575
 8231TIP3   OH224637   0.984   6.529   2.232
 8231TIP3    H124638   0.927   6.562   2.300
 8231TIP3    H224639   1.001   6.605   2.176
 8232TIP3   OH224640   3.869   6.407   5.657
 8232TIP3    H124641   3.938   6.434   5.717
 8232TIP3    H224642   3.915   6.380   5.578
 8233TIP3   OH224643   0.339   6.315   4.555
 8233TIP3    H124644   0.383   6.315   4.640
 8233TIP3    H224645   0.357   6.402   4.519
 8234TIP3   OH224646   7.824   6.527   0.709
 8234TIP3    H124647   7.737   6.492   0.727
 8234TIP3    H224648   7.844   6.582   0.784
 8235TIP3   OH224649   1.129   1.562   2.326
 8235TIP3    H124650   1.086   1.645   2.302
 8235TIP3    H224651   1.205   1.589   2.378
 8236TIP3   OH224652   3.615   1.324   1.110
 8236TIP3    H124653   3.543   1.313   1.172
 8236TIP3    H224654   3.618   1.418   1.092
 8237TIP3   OH224655   6.460   5.762   0.634
 8237TIP3    H124656   6.510   5.843   0.643
 8237TIP3    H224657   6.369   5.789   0.647
 8238TIP3   OH224658   6.932   2.066   2.474
 8238TIP3    H124659   7.021   2.100   2.460
 8238TIP3    H224660   6.945   1.980   2.512
 8239TIP3   OH224661   6.134   6.974   6.704
 8239TIP3    H124662   6.060   6.934   6.750
 8239TIP3    H224663   6.151   7.056   6.751
 8240TIP3   OH224664   7.142   2.048   3.298
 8240TIP3    H124665   7.121   2.110   3.367
 8240TIP3    H224666   7.093   2.080   3.221
 8241TIP3   OH224667   6.644   7.356   0.907
 8241TIP3    H124668   6.664   7.356   0.813
 8241TIP3    H224669   6.668   7.444   0.936
 8242TIP3   OH224670   6.506   2.172   5.127
 8242TIP3    H124671   6.518   2.207   5.215
 8242TIP3    H224672   6.574   2.213   5.075
 8243TIP3   OH224673   5.401   0.698   2.025
 8243TIP3    H124674   5.462   0.624   2.022
 8243TIP3    H224675   5.316   0.659   2.044
 8244TIP3   OH224676   2.759   7.539   2.028
 8244TIP3    H124677   2.734   7.574   2.113
 8244TIP3    H224678   2.851   7.513   2.038
 8245TIP3   OH224679   1.480   3.645   0.243
 8245TIP3    H124680   1.458   3.560   0.206
 8245TIP3    H224681   1.572   3.660   0.219
 8246TIP3   OH224682   4.196   6.677   2.702
 8246TIP3    H124683   4.107   6.642   2.700
 8246TIP3    H224684   4.241   6.634   2.630
 8247TIP3   OH224685   1.572   7.238   3.155
 8247TIP3    H124686   1.518   7.159   3.158
 8247TIP3    H224687   1.657   7.210   3.189
 8248TIP3   OH224688   8.072   4.449   4.144
 8248TIP3    H124689   7.990   4.461   4.194
 8248TIP3    H224690   8.137   4.499   4.194
 8249TIP3   OH224691   4.107   7.194   3.832
 8249TIP3    H124692   4.113   7.212   3.926
 8249TIP3    H224693   4.076   7.104   3.827
 8250TIP3   OH224694   5.016   4.720   6.490
 8250TIP3    H124695   4.981   4.735   6.402
 8250TIP3    H224696   4.939   4.713   6.546
 8251TIP3   OH224697   6.282   1.351   5.159
 8251TIP3    H124698   6.203   1.374   5.110
 8251TIP3    H224699   6.275   1.398   5.241
 8252TIP3   OH224700   7.211   7.370   2.575
 8252TIP3    H124701   7.291   7.420   2.558
 8252TIP3    H224702   7.163   7.422   2.639
 8253TIP3   OH224703   6.909   2.303   6.439
 8253TIP3    H124704   6.814   2.313   6.448
 8253TIP3    H224705   6.940   2.289   6.529
 8254TIP3   OH224706   2.966   3.822   3.659
 8254TIP3    H124707   2.870   3.814   3.656
 8254TIP3    H224708   2.992   3.764   3.730
 8255TIP3   OH224709   6.626   5.937   5.064
 8255TIP3    H124710   6.601   5.983   4.984
 8255TIP3    H224711   6.681   5.999   5.111
 8256TIP3   OH224712   0.589   5.970   1.622
 8256TIP3    H124713   0.517   5.992   1.681
 8256TIP3    H224714   0.624   6.054   1.594
 8257TIP3   OH224715   3.842   0.825   5.335
 8257TIP3    H124716   3.843   0.917   5.360
 8257TIP3    H224717   3.761   0.815   5.285
 8258TIP3   OH224718   2.332   5.840   3.677
 8258TIP3    H124719   2.284   5.922   3.682
 8258TIP3    H224720   2.421   5.865   3.653
 8259TIP3   OH224721   2.572   6.565   1.862
 8259TIP3    H124722   2.593   6.629   1.794
 8259TIP3    H224723   2.554   6.484   1.814
 8260TIP3   OH224724   8.109   2.273   4.363
 8260TIP3    H124725   8.106   2.301   4.454
 8260TIP3    H224726   8.092   2.352   4.312
 8261TIP3   OH224727   3.574   4.422   2.859
 8261TIP3    H124728   3.560   4.452   2.770
 8261TIP3    H224729   3.489   4.432   2.902
 8262TIP3   OH224730   2.919   0.789   5.655
 8262TIP3    H124731   2.937   0.804   5.562
 8262TIP3    H224732   2.845   0.846   5.675
 8263TIP3   OH224733   0.048   3.156   0.959
 8263TIP3    H124734  -0.016   3.227   0.952
 8263TIP3    H224735   0.124   3.188   0.911
 8264TIP3   OH224736   7.049   0.879   3.637
 8264TIP3    H124737   7.062   0.931   3.716
 8264TIP3    H224738   7.129   0.893   3.586
 8265TIP3   OH224739   2.838   4.175   0.863
 8265TIP3    H124740   2.864   4.223   0.941
 8265TIP3    H224741   2.806   4.091   0.895
 8266TIP3   OH224742   2.200   4.813   4.125
 8266TIP3    H124743   2.238   4.856   4.049
 8266TIP3    H224744   2.144   4.744   4.088
 8267TIP3   OH224745   4.775   5.010   0.377
 8267TIP3    H124746   4.758   4.975   0.464
 8267TIP3    H224747   4.704   5.073   0.363
 8268TIP3   OH224748   7.101   6.997   0.801
 8268TIP3    H124749   7.110   6.996   0.706
 8268TIP3    H224750   7.010   7.021   0.817
 8269TIP3   OH224751   6.929   1.425   5.769
 8269TIP3    H124752   6.854   1.464   5.724
 8269TIP3    H224753   6.893   1.386   5.848
 8270TIP3   OH224754   1.491   6.450   4.358
 8270TIP3    H124755   1.408   6.404   4.345
 8270TIP3    H224756   1.503   6.501   4.278
 8271TIP3   OH224757   3.636   3.407   3.732
 8271TIP3    H124758   3.692   3.471   3.775
 8271TIP3    H224759   3.696   3.358   3.676
 8272TIP3   OH224760   1.154   3.270   5.289
 8272TIP3    H124761   1.060   3.261   5.276
 8272TIP3    H224762   1.178   3.347   5.237
 8273TIP3   OH224763   1.888   1.837   4.680
 8273TIP3    H124764   1.888   1.890   4.600
 8273TIP3    H224765   1.932   1.891   4.745
 8274TIP3   OH224766   4.098   5.851   4.419
 8274TIP3    H124767   4.109   5.935   4.374
 8274TIP3    H224768   4.054   5.873   4.501
 8275TIP3   OH224769   7.845   1.319   1.203
 8275TIP3    H124770   7.845   1.241   1.258
 8275TIP3    H224771   7.856   1.391   1.266
 8276TIP3   OH224772   6.136   1.865   6.037
 8276TIP3    H124773   6.100   1.953   6.044
 8276TIP3    H224774   6.105   1.832   5.953
 8277TIP3   OH224775   4.382   6.415   0.760
 8277TIP3    H124776   4.326   6.363   0.702
 8277TIP3    H224777   4.471   6.384   0.742
 8278TIP3   OH224778   1.970   5.142   5.348
 8278TIP3    H124779   2.023   5.170   5.422
 8278TIP3    H224780   2.011   5.061   5.318
 8279TIP3   OH224781   4.172   5.214   0.535
 8279TIP3    H124782   4.234   5.266   0.586
 8279TIP3    H224783   4.205   5.125   0.539
 8280TIP3   OH224784   7.959   5.118   4.493
 8280TIP3    H124785   7.881   5.114   4.437
 8280TIP3    H224786   7.931   5.077   4.575
 8281TIP3   OH224787   7.214   2.338   0.814
 8281TIP3    H124788   7.197   2.382   0.731
 8281TIP3    H224789   7.128   2.302   0.839
 8282TIP3   OH224790   4.591   4.230   5.532
 8282TIP3    H124791   4.530   4.242   5.605
 8282TIP3    H224792   4.580   4.139   5.506
 8283TIP3   OH224793   6.029   6.736   5.995
 8283TIP3    H124794   6.085   6.763   5.923
 8283TIP3    H224795   5.962   6.682   5.954
 8284TIP3   OH224796   2.214   4.871   4.587
 8284TIP3    H124797   2.207   4.962   4.618
 8284TIP3    H224798   2.306   4.848   4.602
 8285TIP3   OH224799   0.037   6.122   0.290
 8285TIP3    H124800   0.026   6.092   0.200
 8285TIP3    H224801   0.131   6.132   0.301
 8286TIP3   OH224802   7.844   1.082   1.397
 8286TIP3    H124803   7.767   1.044   1.353
 8286TIP3    H224804   7.817   1.088   1.489
 8287TIP3   OH224805   0.059   3.526   5.260
 8287TIP3    H124806   0.010   3.607   5.251
 8287TIP3    H224807   0.028   3.488   5.342
 8288TIP3   OH224808   3.213   0.344   6.506
 8288TIP3    H124809   3.258   0.311   6.428
 8288TIP3    H224810   3.265   0.310   6.579
 8289TIP3   OH224811   3.869   2.095   5.993
 8289TIP3    H124812   3.868   2.000   6.008
 8289TIP3    H224813   3.777   2.117   5.976
 8290TIP3   OH224814   2.364   6.433   2.534
 8290TIP3    H124815   2.336   6.520   2.504
 8290TIP3    H224816   2.347   6.433   2.628
 8291TIP3   OH224817   3.985   4.184   1.788
 8291TIP3    H124818   3.975   4.190   1.693
 8291TIP3    H224819   4.079   4.193   1.803
 8292TIP3   OH224820   2.266   7.263   2.840
 8292TIP3    H124821   2.172   7.247   2.847
 8292TIP3    H224822   2.294   7.208   2.767
 8293TIP3   OH224823   2.604   5.308   2.121
 8293TIP3    H124824   2.602   5.362   2.042
 8293TIP3    H224825   2.697   5.297   2.140
 8294TIP3   OH224826   6.510   7.003   6.092
 8294TIP3    H124827   6.590   7.052   6.112
 8294TIP3    H224828   6.524   6.971   6.003
 8295TIP3   OH224829   7.079   4.503   3.374
 8295TIP3    H124830   7.150   4.476   3.316
 8295TIP3    H224831   7.107   4.589   3.407
 8296TIP3   OH224832   7.831   4.052   2.715
 8296TIP3    H124833   7.905   4.017   2.764
 8296TIP3    H224834   7.870   4.086   2.634
 8297TIP3   OH224835   4.017   5.029   5.022
 8297TIP3    H124836   3.953   5.016   5.093
 8297TIP3    H224837   4.071   5.102   5.052
 8298TIP3   OH224838   1.516   4.134   6.333
 8298TIP3    H124839   1.554   4.171   6.413
 8298TIP3    H224840   1.562   4.177   6.262
 8299TIP3   OH224841   7.529   3.955   6.239
 8299TIP3    H124842   7.588   4.022   6.206
 8299TIP3    H224843   7.458   4.003   6.281
 8300TIP3   OH224844   7.709   6.157   0.141
 8300TIP3    H124845   7.677   6.188   0.056
 8300TIP3    H224846   7.804   6.161   0.134
 8301TIP3   OH224847   3.061   0.847   5.886
 8301TIP3    H124848   3.000   0.824   5.816
 8301TIP3    H224849   3.139   0.879   5.841
 8302TIP3   OH224850   0.910   1.579   0.322
 8302TIP3    H124851   0.902   1.541   0.410
 8302TIP3    H224852   0.852   1.655   0.324
 8303TIP3   OH224853   0.034   5.720   5.912
 8303TIP3    H124854   0.023   5.770   5.993
 8303TIP3    H224855  -0.052   5.723   5.870
 8304TIP3   OH224856   6.337   0.591   2.973
 8304TIP3    H124857   6.259   0.618   3.022
 8304TIP3    H224858   6.302   0.541   2.899
 8305TIP3   OH224859   7.673   1.298   0.035
 8305TIP3    H124860   7.739   1.342  -0.019
 8305TIP3    H224861   7.718   1.280   0.117
 8306TIP3   OH224862   2.893   3.565   1.750
 8306TIP3    H124863   2.828   3.631   1.725
 8306TIP3    H224864   2.973   3.592   1.706
 8307TIP3   OH224865   6.927   1.805   6.206
 8307TIP3    H124866   6.904   1.717   6.175
 8307TIP3    H224867   6.989   1.837   6.141
 8308TIP3   OH224868   6.765   1.005   0.187
 8308TIP3    H124869   6.739   1.083   0.235
 8308TIP3    H224870   6.860   1.002   0.196
 8309TIP3   OH224871   7.287   0.926   3.534
 8309TIP3    H124872   7.347   0.873   3.482
 8309TIP3    H224873   7.336   1.005   3.555
 8310TIP3   OH224874   7.056   0.263   5.047
 8310TIP3    H124875   6.990   0.257   5.116
 8310TIP3    H224876   7.012   0.229   4.969
 8311TIP3   OH224877   7.255   5.955   1.939
 8311TIP3    H124878   7.257   5.964   1.843
 8311TIP3    H224879   7.162   5.961   1.961
 8312TIP3   OH224880   0.314   0.328   2.045
 8312TIP3    H124881   0.384   0.382   2.009
 8312TIP3    H224882   0.235   0.381   2.034
 8313TIP3   OH224883   5.615   6.596   0.675
 8313TIP3    H124884   5.586   6.625   0.762
 8313TIP3    H224885   5.569   6.513   0.661
 8314TIP3   OH224886   7.063   3.937   3.859
 8314TIP3    H124887   7.155   3.964   3.859
 8314TIP3    H224888   7.048   3.902   3.771
 8315TIP3   OH224889   5.672   3.468   5.305
 8315TIP3    H124890   5.636   3.556   5.294
 8315TIP3    H224891   5.686   3.437   5.216
 8316TIP3   OH224892   4.975   4.320   2.487
 8316TIP3    H124893   5.024   4.314   2.569
 8316TIP3    H224894   4.976   4.413   2.465
 8317TIP3   OH224895   3.756   0.723   1.515
 8317TIP3    H124896   3.790   0.729   1.425
 8317TIP3    H224897   3.664   0.747   1.508
 8318TIP3   OH224898   2.195   1.966   5.358
 8318TIP3    H124899   2.147   2.018   5.294
 8318TIP3    H224900   2.127   1.925   5.411
 8319TIP3   OH224901   0.871   7.500   6.103
 8319TIP3    H124902   0.789   7.454   6.119
 8319TIP3    H224903   0.862   7.583   6.150
 8320TIP3   OH224904   0.518   6.656   5.496
 8320TIP3    H124905   0.461   6.721   5.456
 8320TIP3    H224906   0.477   6.636   5.580
 8321TIP3   OH224907   5.314   7.134   4.605
 8321TIP3    H124908   5.292   7.197   4.536
 8321TIP3    H224909   5.291   7.049   4.568
 8322TIP3   OH224910   3.099   4.526   4.700
 8322TIP3    H124911   3.050   4.482   4.631
 8322TIP3    H224912   3.038   4.527   4.775
 8323TIP3   OH224913   5.490   2.045   5.781
 8323TIP3    H124914   5.524   1.968   5.826
 8323TIP3    H224915   5.399   2.023   5.761
 8324TIP3   OH224916   0.320   1.594   4.656
 8324TIP3    H124917   0.304   1.662   4.721
 8324TIP3    H224918   0.413   1.605   4.632
 8325TIP3   OH224919   3.244   0.523   4.114
 8325TIP3    H124920   3.232   0.618   4.125
 8325TIP3    H224921   3.301   0.498   4.186
 8326TIP3   OH224922   8.146   6.549   4.560
 8326TIP3    H124923   8.209   6.489   4.600
 8326TIP3    H224924   8.163   6.633   4.602
 8327TIP3   OH224925   8.211   4.210   4.022
 8327TIP3    H124926   8.159   4.137   3.988
 8327TIP3    H224927   8.146   4.278   4.042
 8328TIP3   OH224928   2.131   7.140   0.090
 8328TIP3    H124929   2.102   7.175   0.006
 8328TIP3    H224930   2.224   7.123   0.078
 8329TIP3   OH224931   5.665   3.576   0.883
 8329TIP3    H124932   5.676   3.664   0.919
 8329TIP3    H224933   5.746   3.559   0.835
 8330TIP3   OH224934   1.761   2.521   6.208
 8330TIP3    H124935   1.777   2.529   6.114
 8330TIP3    H224936   1.845   2.491   6.244
 8331TIP3   OH224937   6.396   5.976   1.481
 8331TIP3    H124938   6.344   5.959   1.559
 8331TIP3    H224939   6.483   5.943   1.501
 8332TIP3   OH224940   0.480   1.269   2.032
 8332TIP3    H124941   0.493   1.345   1.975
 8332TIP3    H224942   0.405   1.292   2.086
 8333TIP3   OH224943   5.983   5.276   3.851
 8333TIP3    H124944   5.935   5.247   3.928
 8333TIP3    H224945   6.009   5.366   3.872
 8334TIP3   OH224946   7.698   0.196   4.832
 8334TIP3    H124947   7.603   0.211   4.826
 8334TIP3    H224948   7.736   0.283   4.833
 8335TIP3   OH224949   5.550   5.211   2.856
 8335TIP3    H124950   5.455   5.208   2.869
 8335TIP3    H224951   5.575   5.298   2.886
 8336TIP3   OH224952   8.246   2.239   0.815
 8336TIP3    H124953   8.178   2.247   0.883
 8336TIP3    H224954   8.220   2.303   0.749
 8337TIP3   OH224955   4.549   3.854   6.407
 8337TIP3    H124956   4.528   3.938   6.365
 8337TIP3    H224957   4.603   3.879   6.483
 8338TIP3   OH224958   0.077   0.417   5.790
 8338TIP3    H124959   0.063   0.436   5.883
 8338TIP3    H224960   0.165   0.450   5.772
 8339TIP3   OH224961   6.601   1.476   6.508
 8339TIP3    H124962   6.680   1.446   6.462
 8339TIP3    H224963   6.593   1.569   6.485
 8340TIP3   OH224964   0.536   6.511   0.280
 8340TIP3    H124965   0.610   6.461   0.246
 8340TIP3    H224966   0.554   6.602   0.254
 8341TIP3   OH224967   6.306   2.232   6.015
 8341TIP3    H124968   6.335   2.303   5.958
 8341TIP3    H224969   6.378   2.221   6.077
 8342TIP3   OH224970   7.849   6.034   4.143
 8342TIP3    H124971   7.772   6.028   4.087
 8342TIP3    H224972   7.922   6.051   4.084
 8343TIP3   OH224973   0.495   0.040   0.716
 8343TIP3    H124974   0.573  -0.009   0.691
 8343TIP3    H224975   0.515   0.076   0.803
 8344TIP3   OH224976   5.939   2.407   3.186
 8344TIP3    H124977   5.916   2.344   3.118
 8344TIP3    H224978   5.876   2.478   3.176
 8345TIP3   OH224979   0.422   6.737   0.485
 8345TIP3    H124980   0.459   6.652   0.458
 8345TIP3    H224981   0.410   6.729   0.580
 8346TIP3   OH224982   4.644   5.567   3.633
 8346TIP3    H124983   4.621   5.534   3.546
 8346TIP3    H224984   4.726   5.614   3.620
 8347TIP3   OH224985   5.464   4.595   6.206
 8347TIP3    H124986   5.415   4.613   6.287
 8347TIP3    H224987   5.417   4.524   6.164
 8348TIP3   OH224988   4.061   0.769   6.400
 8348TIP3    H124989   3.966   0.770   6.388
 8348TIP3    H224990   4.096   0.754   6.312
 8349TIP3   OH224991   2.413   3.395   3.148
 8349TIP3    H124992   2.322   3.375   3.127
 8349TIP3    H224993   2.441   3.454   3.078
 8350TIP3   OH224994   7.017   4.052   1.529
 8350TIP3    H124995   7.090   4.086   1.477
 8350TIP3    H224996   6.945   4.111   1.510
 8351TIP3   OH224997   0.438   3.730   1.506
 8351TIP3    H124998   0.351   3.767   1.488
 8351TIP3    H224999   0.421   3.641   1.536
 8352TIP3   OH225000   5.292   4.828   1.653
 8352TIP3    H125001   5.356   4.883   1.699
 8352TIP3    H225002   5.346   4.767   1.602
 8353TIP3   OH225003   1.868   6.782   3.986
 8353TIP3    H125004   1.832   6.722   4.052
 8353TIP3    H225005   1.886   6.727   3.910
 8354TIP3   OH225006   6.134   5.487   0.834
 8354TIP3    H125007   6.135   5.393   0.850
 8354TIP3    H225008   6.043   5.512   0.845
 8355TIP3   OH225009   2.255   7.068   6.265
 8355TIP3    H125010   2.173   7.114   6.247
 8355TIP3    H225011   2.245   7.035   6.354
 8356TIP3   OH225012   2.935   1.620   1.234
 8356TIP3    H125013   2.875   1.605   1.161
 8356TIP3    H225014   2.980   1.702   1.213
 8357TIP3   OH225015   5.278   4.885   0.909
 8357TIP3    H125016   5.306   4.882   0.818
 8357TIP3    H225017   5.333   4.821   0.953
 8358TIP3   OH225018   2.927   6.263   0.373
 8358TIP3    H125019   2.945   6.295   0.284
 8358TIP3    H225020   2.885   6.178   0.359
 8359TIP3   OH225021   7.914   2.204   1.152
 8359TIP3    H125022   7.820   2.194   1.136
 8359TIP3    H225023   7.955   2.171   1.073
 8360TIP3   OH225024   0.889   2.921   1.229
 8360TIP3    H125025   0.809   2.965   1.201
 8360TIP3    H225026   0.952   2.991   1.243
 8361TIP3   OH225027   5.614   5.596   2.719
 8361TIP3    H125028   5.661   5.674   2.689
 8361TIP3    H225029   5.547   5.631   2.778
 8362TIP3   OH225030   0.404   4.342   5.672
 8362TIP3    H125031   0.403   4.378   5.761
 8362TIP3    H225032   0.475   4.278   5.673
 8363TIP3   OH225033   4.801   2.614   3.400
 8363TIP3    H125034   4.839   2.529   3.376
 8363TIP3    H225035   4.877   2.668   3.421
 8364TIP3   OH225036   6.943   4.084   2.934
 8364TIP3    H125037   6.948   4.000   2.890
 8364TIP3    H225038   6.853   4.113   2.919
 8365TIP3   OH225039   4.233   1.706   3.227
 8365TIP3    H125040   4.185   1.682   3.306
 8365TIP3    H225041   4.177   1.678   3.155
 8366TIP3   OH225042   1.428   4.342   2.954
 8366TIP3    H125043   1.447   4.343   3.048
 8366TIP3    H225044   1.509   4.370   2.912
 8367TIP3   OH225045   3.561   1.501   6.788
 8367TIP3    H125046   3.626   1.462   6.728
 8367TIP3    H225047   3.477   1.469   6.755
 8368TIP3   OH225048   0.575   6.026   1.020
 8368TIP3    H125049   0.524   6.107   1.020
 8368TIP3    H225050   0.665   6.055   1.037
 8369TIP3   OH225051   0.527   5.754   0.616
 8369TIP3    H125052   0.510   5.721   0.704
 8369TIP3    H225053   0.574   5.683   0.572
 8370TIP3   OH225054   3.290   2.206   1.140
 8370TIP3    H125055   3.304   2.227   1.232
 8370TIP3    H225056   3.373   2.225   1.097
 8371TIP3   OH225057   1.753   3.866   5.214
 8371TIP3    H125058   1.671   3.817   5.208
 8371TIP3    H225059   1.813   3.807   5.259
 8372TIP3   OH225060   2.598   3.617   4.531
 8372TIP3    H125061   2.567   3.528   4.548
 8372TIP3    H225062   2.659   3.634   4.603
 8373TIP3   OH225063   5.616   4.574   4.826
 8373TIP3    H125064   5.674   4.537   4.893
 8373TIP3    H225065   5.639   4.528   4.746
 8374TIP3   OH225066   2.452   7.215   0.357
 8374TIP3    H125067   2.542   7.228   0.386
 8374TIP3    H225068   2.409   7.172   0.431
 8375TIP3   OH225069   6.693   6.114   5.634
 8375TIP3    H125070   6.739   6.171   5.573
 8375TIP3    H225071   6.757   6.095   5.702
 8376TIP3   OH225072   2.326   5.356   6.637
 8376TIP3    H125073   2.275   5.376   6.558
 8376TIP3    H225074   2.410   5.325   6.604
 8377TIP3   OH225075   4.002   4.712   0.430
 8377TIP3    H125076   3.944   4.642   0.459
 8377TIP3    H225077   4.011   4.769   0.506
 8378TIP3   OH225078   3.343   1.168   2.648
 8378TIP3    H125079   3.332   1.096   2.586
 8378TIP3    H225080   3.423   1.148   2.695
 8379TIP3   OH225081   5.152   2.187   4.246
 8379TIP3    H125082   5.190   2.139   4.173
 8379TIP3    H225083   5.103   2.120   4.295
 8380TIP3   OH225084   2.251   4.924   5.927
 8380TIP3    H125085   2.238   4.954   6.017
 8380TIP3    H225086   2.324   4.863   5.933
 8381TIP3   OH225087   3.825   1.580   5.965
 8381TIP3    H125088   3.837   1.562   5.872
 8381TIP3    H225089   3.778   1.504   5.999
 8382TIP3   OH225090   7.447   6.483   4.857
 8382TIP3    H125091   7.485   6.396   4.852
 8382TIP3    H225092   7.462   6.511   4.947
 8383TIP3   OH225093   5.580   1.572   5.744
 8383TIP3    H125094   5.550   1.484   5.720
 8383TIP3    H225095   5.660   1.556   5.794
 8384TIP3   OH225096   4.531   0.018   2.547
 8384TIP3    H125097   4.452   0.071   2.552
 8384TIP3    H225098   4.600   0.080   2.523
 8385TIP3   OH225099   2.486   1.161   3.350
 8385TIP3    H125100   2.500   1.149   3.256
 8385TIP3    H225101   2.497   1.255   3.364
 8386TIP3   OH225102   0.198   7.609   6.096
 8386TIP3    H125103   0.169   7.635   6.184
 8386TIP3    H225104   0.233   7.520   6.108
 8387TIP3   OH225105   5.697   2.347   0.533
 8387TIP3    H125106   5.647   2.429   0.537
 8387TIP3    H225107   5.705   2.329   0.439
 8388TIP3   OH225108   2.998   3.061   1.103
 8388TIP3    H125109   3.001   3.095   1.014
 8388TIP3    H225110   3.038   3.130   1.157
 8389TIP3   OH225111   6.976   4.758   1.631
 8389TIP3    H125112   6.974   4.852   1.653
 8389TIP3    H225113   7.049   4.750   1.570
 8390TIP3   OH225114   7.853   6.440   3.500
 8390TIP3    H125115   7.912   6.491   3.556
 8390TIP3    H225116   7.843   6.493   3.421
 8391TIP3   OH225117   1.042   4.520   6.680
 8391TIP3    H125118   1.028   4.610   6.651
 8391TIP3    H225119   0.998   4.466   6.615
 8392TIP3   OH225120   1.495   5.298   4.539
 8392TIP3    H125121   1.570   5.342   4.580
 8392TIP3    H225122   1.421   5.355   4.557
 8393TIP3   OH225123   3.721   0.423   1.427
 8393TIP3    H125124   3.734   0.438   1.333
 8393TIP3    H225125   3.665   0.495   1.455
 8394TIP3   OH225126   0.607   7.530   3.272
 8394TIP3    H125127   0.568   7.578   3.345
 8394TIP3    H225128   0.674   7.474   3.312
 8395TIP3   OH225129   5.721   5.381   4.026
 8395TIP3    H125130   5.670   5.301   4.023
 8395TIP3    H225131   5.668   5.442   4.078
 8396TIP3   OH225132   6.659   6.896   3.185
 8396TIP3    H125133   6.719   6.926   3.117
 8396TIP3    H225134   6.688   6.941   3.264
 8397TIP3   OH225135   1.821   5.557   4.098
 8397TIP3    H125136   1.808   5.473   4.141
 8397TIP3    H225137   1.858   5.614   4.166
 8398TIP3   OH225138   3.635   1.593   1.066
 8398TIP3    H125139   3.646   1.619   0.975
 8398TIP3    H225140   3.630   1.675   1.114
 8399TIP3   OH225141   3.923   3.676   3.405
 8399TIP3    H125142   3.905   3.769   3.390
 8399TIP3    H225143   3.863   3.631   3.345
 8400TIP3   OH225144   3.211   5.478   4.839
 8400TIP3    H125145   3.283   5.523   4.796
 8400TIP3    H225146   3.252   5.433   4.913
 8401TIP3   OH225147   4.309   5.509   6.574
 8401TIP3    H125148   4.297   5.499   6.668
 8401TIP3    H225149   4.245   5.450   6.535
 8402TIP3   OH225150   7.882   4.814   4.985
 8402TIP3    H125151   7.799   4.804   4.939
 8402TIP3    H225152   7.948   4.801   4.917
 8403TIP3   OH225153   1.040   4.967   5.692
 8403TIP3    H125154   1.096   5.033   5.732
 8403TIP3    H225155   0.960   5.015   5.667
 8404TIP3   OH225156   4.147   3.110   3.377
 8404TIP3    H125157   4.189   3.119   3.292
 8404TIP3    H225158   4.074   3.172   3.374
 8405TIP3   OH225159   1.074   2.598   3.808
 8405TIP3    H125160   1.097   2.505   3.809
 8405TIP3    H225161   1.158   2.643   3.802
 8406TIP3   OH225162   7.637   0.454   3.360
 8406TIP3    H125163   7.604   0.493   3.279
 8406TIP3    H225164   7.646   0.361   3.340
 8407TIP3   OH225165   3.738   2.445   3.018
 8407TIP3    H125166   3.697   2.367   2.981
 8407TIP3    H225167   3.820   2.413   3.056
 8408TIP3   OH225168   1.940   3.982   5.026
 8408TIP3    H125169   1.847   3.959   5.034
 8408TIP3    H225170   1.986   3.905   5.058
 8409TIP3   OH225171   1.565   1.930   1.234
 8409TIP3    H125172   1.524   1.846   1.258
 8409TIP3    H225173   1.628   1.906   1.166
 8410TIP3   OH225174   7.120   2.759   1.823
 8410TIP3    H125175   7.200   2.748   1.772
 8410TIP3    H225176   7.146   2.744   1.913
 8411TIP3   OH225177   1.821   1.604   6.386
 8411TIP3    H125178   1.788   1.651   6.309
 8411TIP3    H225179   1.916   1.607   6.376
 8412TIP3   OH225180   7.330   7.760   5.243
 8412TIP3    H125181   7.236   7.743   5.239
 8412TIP3    H225182   7.358   7.723   5.327
 8413TIP3   OH225183   6.981   2.155   5.990
 8413TIP3    H125184   7.061   2.112   5.960
 8413TIP3    H225185   7.011   2.234   6.035
 8414TIP3   OH225186   5.917   5.247   2.883
 8414TIP3    H125187   5.932   5.309   2.811
 8414TIP3    H225188   5.832   5.272   2.918
 8415TIP3   OH225189   3.594   4.964   4.269
 8415TIP3    H125190   3.631   5.051   4.256
 8415TIP3    H225191   3.564   4.964   4.359
 8416TIP3   OH225192   7.222   3.892   3.344
 8416TIP3    H125193   7.162   3.862   3.411
 8416TIP3    H225194   7.167   3.906   3.267
 8417TIP3   OH225195   1.957   1.685   2.667
 8417TIP3    H125196   1.899   1.753   2.631
 8417TIP3    H225197   1.898   1.620   2.703
 8418TIP3   OH225198   4.651   0.224   4.938
 8418TIP3    H125199   4.733   0.257   4.974
 8418TIP3    H225200   4.675   0.139   4.900
 8419TIP3   OH225201   4.414   1.436   4.972
 8419TIP3    H125202   4.457   1.479   5.045
 8419TIP3    H225203   4.462   1.354   4.961
 8420TIP3   OH225204   2.584   1.854   4.030
 8420TIP3    H125205   2.583   1.868   4.125
 8420TIP3    H225206   2.583   1.942   3.994
 8421TIP3   OH225207   4.946   5.356   6.339
 8421TIP3    H125208   4.999   5.307   6.277
 8421TIP3    H225209   4.955   5.309   6.422
 8422TIP3   OH225210   4.608   5.205   0.507
 8422TIP3    H125211   4.608   5.196   0.602
 8422TIP3    H225212   4.537   5.267   0.489
 8423TIP3   OH225213   6.515   0.544   0.985
 8423TIP3    H125214   6.501   0.628   1.030
 8423TIP3    H225215   6.590   0.506   1.030
 8424TIP3   OH225216   6.091   5.000   1.164
 8424TIP3    H125217   6.184   5.020   1.152
 8424TIP3    H225218   6.090   4.919   1.215
 8425TIP3   OH225219   4.327   6.071   5.125
 8425TIP3    H125220   4.321   5.978   5.106
 8425TIP3    H225221   4.318   6.114   5.040
 8426TIP3   OH225222   1.412   5.588   0.462
 8426TIP3    H125223   1.329   5.627   0.491
 8426TIP3    H225224   1.401   5.578   0.367
 8427TIP3   OH225225   1.654   5.346   3.517
 8427TIP3    H125226   1.661   5.267   3.463
 8427TIP3    H225227   1.586   5.399   3.473
 8428TIP3   OH225228   1.789   1.876   2.592
 8428TIP3    H125229   1.805   1.920   2.508
 8428TIP3    H225230   1.781   1.948   2.655
 8429TIP3   OH225231   1.964   5.129   5.854
 8429TIP3    H125232   2.014   5.156   5.931
 8429TIP3    H225233   2.028   5.085   5.799
 8430TIP3   OH225234   1.136   7.815   1.705
 8430TIP3    H125235   1.071   7.783   1.767
 8430TIP3    H225236   1.117   7.908   1.697
 8431TIP3   OH225237   5.781   5.518   5.317
 8431TIP3    H125238   5.792   5.517   5.412
 8431TIP3    H225239   5.845   5.583   5.287
 8432TIP3   OH225240   5.164   7.808   6.537
 8432TIP3    H125241   5.082   7.761   6.553
 8432TIP3    H225242   5.217   7.747   6.486
 8433TIP3   OH225243   1.789   5.874   0.870
 8433TIP3    H125244   1.842   5.848   0.946
 8433TIP3    H225245   1.818   5.814   0.801
 8434TIP3   OH225246   3.456   6.573   4.899
 8434TIP3    H125247   3.415   6.506   4.955
 8434TIP3    H225248   3.505   6.628   4.959
 8435TIP3   OH225249   3.372   3.411   3.698
 8435TIP3    H125250   3.468   3.414   3.691
 8435TIP3    H225251   3.341   3.421   3.608
 8436TIP3   OH225252   2.753   1.604   2.825
 8436TIP3    H125253   2.706   1.681   2.793
 8436TIP3    H225254   2.800   1.635   2.902
 8437TIP3   OH225255   0.436   3.952   5.673
 8437TIP3    H125256   0.481   3.886   5.620
 8437TIP3    H225257   0.421   4.025   5.612
 8438TIP3   OH225258   1.371   5.532   0.095
 8438TIP3    H125259   1.301   5.468   0.099
 8438TIP3    H225260   1.339   5.599   0.034
 8439TIP3   OH225261   5.563   5.173   3.958
 8439TIP3    H125262   5.491   5.224   3.921
 8439TIP3    H225263   5.568   5.095   3.903
 8440TIP3   OH225264   5.297   6.414   3.611
 8440TIP3    H125265   5.386   6.390   3.588
 8440TIP3    H225266   5.245   6.393   3.533
 8441TIP3   OH225267   6.246   4.251   0.784
 8441TIP3    H125268   6.225   4.204   0.864
 8441TIP3    H225269   6.173   4.312   0.772
 8442TIP3   OH225270   2.306   2.086   4.499
 8442TIP3    H125271   2.401   2.077   4.496
 8442TIP3    H225272   2.274   1.999   4.524
 8443TIP3   OH225273   3.728   4.029   6.537
 8443TIP3    H125274   3.634   4.014   6.528
 8443TIP3    H225275   3.736   4.124   6.549
 8444TIP3   OH225276   0.270   7.669   4.034
 8444TIP3    H125277   0.358   7.633   4.043
 8444TIP3    H225278   0.236   7.672   4.124
 8445TIP3   OH225279   4.424   4.704   0.506
 8445TIP3    H125280   4.391   4.747   0.585
 8445TIP3    H225281   4.424   4.773   0.440
 8446TIP3   OH225282   4.962   1.616   0.884
 8446TIP3    H125283   4.926   1.528   0.895
 8446TIP3    H225284   5.048   1.603   0.845
 8447TIP3   OH225285   4.548   4.669   3.172
 8447TIP3    H125286   4.586   4.716   3.099
 8447TIP3    H225287   4.496   4.735   3.218
 8448TIP3   OH225288   3.617   5.333   4.580
 8448TIP3    H125289   3.542   5.380   4.543
 8448TIP3    H225290   3.672   5.313   4.504
 8449TIP3   OH225291   8.172   1.523   3.210
 8449TIP3    H125292   8.189   1.534   3.303
 8449TIP3    H225293   8.244   1.468   3.179
 8450TIP3   OH225294   5.210   6.734   0.574
 8450TIP3    H125295   5.149   6.762   0.505
 8450TIP3    H225296   5.189   6.790   0.649
 8451TIP3   OH225297   5.761   5.617   3.287
 8451TIP3    H125298   5.777   5.655   3.373
 8451TIP3    H225299   5.665   5.607   3.282
 8452TIP3   OH225300   7.530   3.104   5.283
 8452TIP3    H125301   7.580   3.022   5.286
 8452TIP3    H225302   7.597   3.172   5.278
 8453TIP3   OH225303   6.705   4.813   2.292
 8453TIP3    H125304   6.617   4.823   2.328
 8453TIP3    H225305   6.704   4.866   2.212
 8454TIP3   OH225306   3.940   2.824   1.576
 8454TIP3    H125307   3.999   2.786   1.511
 8454TIP3    H225308   3.983   2.810   1.660
 8455TIP3   OH225309   2.249   2.526   0.404
 8455TIP3    H125310   2.284   2.524   0.493
 8455TIP3    H225311   2.172   2.470   0.407
 8456TIP3   OH225312   7.059   6.317   1.978
 8456TIP3    H125313   7.107   6.395   1.950
 8456TIP3    H225314   7.007   6.292   1.902
 8457TIP3   OH225315   1.865   7.418   3.907
 8457TIP3    H125316   1.818   7.399   3.989
 8457TIP3    H225317   1.797   7.415   3.840
 8458TIP3   OH225318   3.689   6.421   5.135
 8458TIP3    H125319   3.709   6.408   5.227
 8458TIP3    H225320   3.759   6.479   5.104
 8459TIP3   OH225321   0.663   7.330   6.186
 8459TIP3    H125322   0.666   7.235   6.196
 8459TIP3    H225323   0.575   7.354   6.214
 8460TIP3   OH225324   8.207   2.332   4.745
 8460TIP3    H125325   8.254   2.385   4.680
 8460TIP3    H225326   8.220   2.379   4.827
 8461TIP3   OH225327   0.749   4.651   2.609
 8461TIP3    H125328   0.759   4.697   2.525
 8461TIP3    H225329   0.838   4.631   2.636
 8462TIP3   OH225330   7.643   4.746   4.630
 8462TIP3    H125331   7.558   4.786   4.646
 8462TIP3    H225332   7.647   4.737   4.534
 8463TIP3   OH225333   2.713   5.697   3.264
 8463TIP3    H125334   2.799   5.735   3.282
 8463TIP3    H225335   2.724   5.603   3.279
 8464TIP3   OH225336   6.589   3.200   1.826
 8464TIP3    H125337   6.540   3.183   1.745
 8464TIP3    H225338   6.524   3.234   1.887
 8465TIP3   OH225339   3.444   0.629   6.237
 8465TIP3    H125340   3.384   0.683   6.186
 8465TIP3    H225341   3.401   0.618   6.322
 8466TIP3   OH225342   2.872   1.187   5.400
 8466TIP3    H125343   2.922   1.173   5.481
 8466TIP3    H225344   2.783   1.206   5.430
 8467TIP3   OH225345   2.785   2.352   2.117
 8467TIP3    H125346   2.817   2.316   2.035
 8467TIP3    H225347   2.816   2.443   2.118
 8468TIP3   OH225348   1.193   3.322   4.559
 8468TIP3    H125349   1.238   3.240   4.576
 8468TIP3    H225350   1.134   3.303   4.486
 8469TIP3   OH225351   4.392   6.287   3.922
 8469TIP3    H125352   4.313   6.316   3.875
 8469TIP3    H225353   4.388   6.192   3.920
 8470TIP3   OH225354   2.304   1.356   3.884
 8470TIP3    H125355   2.229   1.299   3.864
 8470TIP3    H225356   2.282   1.440   3.843
 8471TIP3   OH225357   4.452   6.896   3.463
 8471TIP3    H125358   4.412   6.958   3.402
 8471TIP3    H225359   4.396   6.819   3.459
 8472TIP3   OH225360   5.280   2.424   3.283
 8472TIP3    H125361   5.197   2.382   3.306
 8472TIP3    H225362   5.256   2.494   3.223
 8473TIP3   OH225363   8.072   3.651   1.698
 8473TIP3    H125364   8.135   3.621   1.631
 8473TIP3    H225365   8.077   3.746   1.694
 8474TIP3   OH225366   4.572   3.376   6.278
 8474TIP3    H125367   4.599   3.304   6.221
 8474TIP3    H225368   4.618   3.359   6.360
 8475TIP3   OH225369   4.810   2.346   3.471
 8475TIP3    H125370   4.817   2.361   3.566
 8475TIP3    H225371   4.716   2.338   3.456
 8476TIP3   OH225372   2.912   6.468   0.924
 8476TIP3    H125373   2.882   6.509   1.005
 8476TIP3    H225374   2.920   6.375   0.946
 8477TIP3   OH225375   1.619   5.936   6.675
 8477TIP3    H125376   1.668   6.007   6.634
 8477TIP3    H225377   1.555   5.980   6.731
 8478TIP3   OH225378   3.896   1.734   4.808
 8478TIP3    H125379   3.915   1.708   4.718
 8478TIP3    H225380   3.921   1.659   4.861
 8479TIP3   OH225381   4.329   0.725   2.311
 8479TIP3    H125382   4.348   0.749   2.402
 8479TIP3    H225383   4.235   0.707   2.311
 8480TIP3   OH225384   7.181   0.708   5.109
 8480TIP3    H125385   7.138   0.628   5.139
 8480TIP3    H225386   7.273   0.697   5.132
 8481TIP3   OH225387   4.873   0.808   4.496
 8481TIP3    H125388   4.907   0.828   4.409
 8481TIP3    H225389   4.869   0.893   4.540
 8482TIP3   OH225390   3.430   5.005   3.594
 8482TIP3    H125391   3.481   5.071   3.546
 8482TIP3    H225392   3.476   4.996   3.678
 8483TIP3   OH225393   6.953   3.217   3.293
 8483TIP3    H125394   6.964   3.129   3.257
 8483TIP3    H225395   7.018   3.224   3.362
 8484TIP3   OH225396   3.853   1.869   4.413
 8484TIP3    H125397   3.865   1.864   4.318
 8484TIP3    H225398   3.759   1.882   4.424
 8485TIP3   OH225399   4.050   5.578   1.743
 8485TIP3    H125400   4.050   5.668   1.777
 8485TIP3    H225401   4.138   5.567   1.706
 8486TIP3   OH225402   5.612   2.117   5.003
 8486TIP3    H125403   5.574   2.041   5.046
 8486TIP3    H225404   5.631   2.179   5.074
 8487TIP3   OH225405   7.445   5.677   1.711
 8487TIP3    H125406   7.353   5.685   1.739
 8487TIP3    H225407   7.492   5.657   1.792
 8488TIP3   OH225408   1.339   2.432   0.500
 8488TIP3    H125409   1.407   2.372   0.531
 8488TIP3    H225410   1.350   2.433   0.405
 8489TIP3   OH225411   0.920   2.115   4.927
 8489TIP3    H125412   0.987   2.127   4.860
 8489TIP3    H225413   0.894   2.023   4.920
 8490TIP3   OH225414   0.113   3.646   5.646
 8490TIP3    H125415   0.114   3.687   5.732
 8490TIP3    H225416   0.191   3.681   5.601
 8491TIP3   OH225417   6.365   7.430   3.394
 8491TIP3    H125418   6.440   7.440   3.453
 8491TIP3    H225419   6.402   7.439   3.306
 8492TIP3   OH225420   3.042   5.368   1.298
 8492TIP3    H125421   3.070   5.448   1.342
 8492TIP3    H225422   2.954   5.389   1.264
 8493TIP3   OH225423   1.718   5.436   1.824
 8493TIP3    H125424   1.803   5.472   1.799
 8493TIP3    H225425   1.685   5.496   1.891
 8494TIP3   OH225426   2.497   4.884   5.622
 8494TIP3    H125427   2.417   4.845   5.658
 8494TIP3    H225428   2.553   4.810   5.603
 8495TIP3   OH225429   6.052   0.348   1.996
 8495TIP3    H125430   6.091   0.285   1.935
 8495TIP3    H225431   6.075   0.314   2.083
 8496TIP3   OH225432   5.536  -0.011   2.153
 8496TIP3    H125433   5.577  -0.053   2.228
 8496TIP3    H225434   5.512   0.076   2.184
 8497TIP3   OH225435   7.120   3.600   1.505
 8497TIP3    H125436   7.110   3.529   1.442
 8497TIP3    H225437   7.151   3.674   1.453
 8498TIP3   OH225438   2.235   2.622   1.181
 8498TIP3    H125439   2.255   2.688   1.248
 8498TIP3    H225440   2.205   2.546   1.230
 8499TIP3   OH225441   2.174   2.299   0.004
 8499TIP3    H125442   2.110   2.361   0.037
 8499TIP3    H225443   2.241   2.353  -0.038
 8500TIP3   OH225444   3.775   3.549   1.742
 8500TIP3    H125445   3.695   3.526   1.789
 8500TIP3    H225446   3.820   3.609   1.801
 8501TIP3   OH225447   4.847   6.290   3.633
 8501TIP3    H125448   4.941   6.279   3.617
 8501TIP3    H225449   4.825   6.372   3.588
 8502TIP3   OH225450   5.650   5.655   1.942
 8502TIP3    H125451   5.676   5.572   1.982
 8502TIP3    H225452   5.721   5.715   1.964
 8503TIP3   OH225453   6.167   6.036   4.242
 8503TIP3    H125454   6.132   6.124   4.228
 8503TIP3    H225455   6.262   6.048   4.241
 8504TIP3   OH225456   0.699   2.750   3.174
 8504TIP3    H125457   0.769   2.757   3.108
 8504TIP3    H225458   0.717   2.821   3.235
 8505TIP3   OH225459   5.452   4.239   6.667
 8505TIP3    H125460   5.451   4.318   6.722
 8505TIP3    H225461   5.416   4.170   6.722
 8506TIP3   OH225462   3.272   2.621   1.012
 8506TIP3    H125463   3.232   2.547   0.968
 8506TIP3    H225464   3.210   2.693   1.000
 8507TIP3   OH225465   5.402   2.740   3.119
 8507TIP3    H125466   5.325   2.710   3.167
 8507TIP3    H225467   5.403   2.687   3.040
 8508TIP3   OH225468   1.923   2.146   3.259
 8508TIP3    H125469   1.944   2.177   3.348
 8508TIP3    H225470   1.880   2.221   3.218
 8509TIP3   OH225471   0.322   7.037   3.767
 8509TIP3    H125472   0.390   6.980   3.803
 8509TIP3    H225473   0.371   7.114   3.734
 8510TIP3   OH225474   1.547   0.294   1.511
 8510TIP3    H125475   1.463   0.339   1.521
 8510TIP3    H225476   1.528   0.219   1.456
 8511TIP3   OH225477   1.941   5.107   4.810
 8511TIP3    H125478   1.894   5.024   4.811
 8511TIP3    H225479   1.915   5.151   4.890
 8512TIP3   OH225480   3.765   4.719   4.737
 8512TIP3    H125481   3.853   4.755   4.726
 8512TIP3    H225482   3.735   4.702   4.647
 8513TIP3   OH225483   1.798   3.462   4.447
 8513TIP3    H125484   1.857   3.497   4.380
 8513TIP3    H225485   1.737   3.533   4.466
 8514TIP3   OH225486   3.813   3.804   5.028
 8514TIP3    H125487   3.742   3.832   4.971
 8514TIP3    H225488   3.784   3.828   5.116
 8515TIP3   OH225489   2.112   5.565   3.146
 8515TIP3    H125490   2.079   5.551   3.234
 8515TIP3    H225491   2.065   5.642   3.114
 8516TIP3   OH225492   1.786   7.069   6.027
 8516TIP3    H125493   1.726   7.029   5.964
 8516TIP3    H225494   1.729   7.099   6.098
 8517TIP3   OH225495   4.617   2.565   6.376
 8517TIP3    H125496   4.544   2.517   6.414
 8517TIP3    H225497   4.660   2.502   6.318
 8518TIP3   OH225498   4.749   0.428   6.550
 8518TIP3    H125499   4.665   0.433   6.596
 8518TIP3    H225500   4.752   0.340   6.514
 8519TIP3   OH225501   5.288   7.437   6.265
 8519TIP3    H125502   5.228   7.366   6.241
 8519TIP3    H225503   5.365   7.423   6.210
 8520TIP3   OH225504   2.718   1.962   0.953
 8520TIP3    H125505   2.635   1.947   0.909
 8520TIP3    H225506   2.708   2.047   0.996
 8521TIP3   OH225507   0.791   0.395   2.013
 8521TIP3    H125508   0.849   0.419   2.085
 8521TIP3    H225509   0.829   0.436   1.935
 8522TIP3   OH225510   6.879   0.631   6.720
 8522TIP3    H125511   6.783   0.627   6.715
 8522TIP3    H225512   6.902   0.564   6.784
 8523TIP3   OH225513   6.346   2.360   0.841
 8523TIP3    H125514   6.374   2.443   0.803
 8523TIP3    H225515   6.306   2.385   0.924
 8524TIP3   OH225516   6.570   4.041   4.779
 8524TIP3    H125517   6.504   4.055   4.711
 8524TIP3    H225518   6.534   4.083   4.857
 8525TIP3   OH225519   4.098   2.458   2.072
 8525TIP3    H125520   4.097   2.493   1.983
 8525TIP3    H225521   4.011   2.419   2.082
 8526TIP3   OH225522   1.588   2.299   2.327
 8526TIP3    H125523   1.496   2.321   2.315
 8526TIP3    H225524   1.611   2.250   2.247
 8527TIP3   OH225525   5.853   7.750   1.708
 8527TIP3    H125526   5.860   7.693   1.785
 8527TIP3    H225527   5.786   7.814   1.732
 8528TIP3   OH225528   0.569   2.168   3.869
 8528TIP3    H125529   0.573   2.260   3.843
 8528TIP3    H225530   0.491   2.134   3.825
 8529TIP3   OH225531   0.361   6.792   5.336
 8529TIP3    H125532   0.326   6.878   5.311
 8529TIP3    H225533   0.356   6.740   5.255
 8530TIP3   OH225534   2.080   4.639   6.480
 8530TIP3    H125535   2.042   4.595   6.404
 8530TIP3    H225536   2.144   4.700   6.443
 8531TIP3   OH225537   3.630   4.722   0.435
 8531TIP3    H125538   3.641   4.759   0.348
 8531TIP3    H225539   3.621   4.798   0.493
 8532TIP3   OH225540   6.965   4.056   4.566
 8532TIP3    H125541   7.034   4.014   4.515
 8532TIP3    H225542   6.884   4.016   4.534
 8533TIP3   OH225543   5.583   5.902   1.140
 8533TIP3    H125544   5.559   5.904   1.233
 8533TIP3    H225545   5.665   5.854   1.137
 8534TIP3   OH225546   2.786   2.951   3.361
 8534TIP3    H125547   2.834   2.885   3.411
 8534TIP3    H225548   2.797   3.032   3.411
 8535TIP3   OH225549   2.653   1.822   2.648
 8535TIP3    H125550   2.605   1.898   2.615
 8535TIP3    H225551   2.735   1.823   2.600
 8536TIP3   OH225552   0.501   2.774   2.046
 8536TIP3    H125553   0.424   2.774   1.989
 8536TIP3    H225554   0.576   2.780   1.987
 8537TIP3   OH225555   5.874   3.236   4.057
 8537TIP3    H125556   5.822   3.158   4.074
 8537TIP3    H225557   5.905   3.263   4.144
 8538TIP3   OH225558   3.288   1.058   5.836
 8538TIP3    H125559   3.344   0.986   5.865
 8538TIP3    H225560   3.311   1.070   5.744
 8539TIP3   OH225561   3.719   1.576   5.645
 8539TIP3    H125562   3.646   1.623   5.686
 8539TIP3    H225563   3.777   1.645   5.613
 8540TIP3   OH225564   5.549   5.874   3.290
 8540TIP3    H125565   5.627   5.927   3.306
 8540TIP3    H225566   5.557   5.800   3.350
 8541TIP3   OH225567   2.837   2.611   2.917
 8541TIP3    H125568   2.930   2.634   2.914
 8541TIP3    H225569   2.791   2.695   2.925
 8542TIP3   OH225570   5.034   0.914   1.405
 8542TIP3    H125571   4.967   0.960   1.353
 8542TIP3    H225572   4.988   0.887   1.485
 8543TIP3   OH225573   4.086   5.136   5.672
 8543TIP3    H125574   4.108   5.219   5.630
 8543TIP3    H225575   4.006   5.108   5.627
 8544TIP3   OH225576   6.872   0.229   0.292
 8544TIP3    H125577   6.920   0.270   0.364
 8544TIP3    H225578   6.901   0.276   0.214
 8545TIP3   OH225579   6.651   7.130   1.898
 8545TIP3    H125580   6.741   7.161   1.909
 8545TIP3    H225581   6.617   7.123   1.987
 8546TIP3   OH225582   1.193   6.991   1.658
 8546TIP3    H125583   1.156   7.033   1.736
 8546TIP3    H225584   1.166   7.047   1.585
 8547TIP3   OH225585   5.643   3.313   3.252
 8547TIP3    H125586   5.664   3.238   3.308
 8547TIP3    H225587   5.557   3.294   3.217
 8548TIP3   OH225588   5.221   0.983   5.738
 8548TIP3    H125589   5.262   1.016   5.659
 8548TIP3    H225590   5.261   0.897   5.752
 8549TIP3   OH225591   4.971   2.987   2.620
 8549TIP3    H125592   4.937   3.052   2.558
 8549TIP3    H225593   4.996   3.039   2.697
 8550TIP3   OH225594   1.235   4.382   1.797
 8550TIP3    H125595   1.324   4.412   1.815
 8550TIP3    H225596   1.240   4.342   1.710
 8551TIP3   OH225597   5.441   5.692   0.357
 8551TIP3    H125598   5.482   5.778   0.362
 8551TIP3    H225599   5.513   5.630   0.348
 8552TIP3   OH225600   5.686   2.189   4.358
 8552TIP3    H125601   5.635   2.161   4.282
 8552TIP3    H225602   5.631   2.254   4.401
 8553TIP3   OH225603   0.558   6.174   5.651
 8553TIP3    H125604   0.609   6.111   5.600
 8553TIP3    H225605   0.533   6.125   5.730
 8554TIP3   OH225606   4.148   3.337   2.854
 8554TIP3    H125607   4.209   3.382   2.912
 8554TIP3    H225608   4.070   3.322   2.908
 8555TIP3   OH225609   6.935   1.342   3.549
 8555TIP3    H125610   6.871   1.409   3.525
 8555TIP3    H225611   6.989   1.332   3.470
 8556TIP3   OH225612   3.870   2.664   5.269
 8556TIP3    H125613   3.842   2.598   5.206
 8556TIP3    H225614   3.957   2.635   5.298
 8557TIP3   OH225615   3.402   5.532   2.710
 8557TIP3    H125616   3.308   5.528   2.723
 8557TIP3    H225617   3.423   5.625   2.718
 8558TIP3   OH225618   2.819   3.004   6.176
 8558TIP3    H125619   2.846   3.012   6.084
 8558TIP3    H225620   2.868   3.071   6.222
 8559TIP3   OH225621   3.617   1.836   6.248
 8559TIP3    H125622   3.552   1.788   6.300
 8559TIP3    H225623   3.700   1.794   6.271
 8560TIP3   OH225624   1.170   5.586   4.409
 8560TIP3    H125625   1.263   5.601   4.422
 8560TIP3    H225626   1.158   5.587   4.314
 8561TIP3   OH225627   8.020   3.402   5.580
 8561TIP3    H125628   7.999   3.440   5.666
 8561TIP3    H225629   7.949   3.340   5.565
 8562TIP3   OH225630   5.069   3.212   3.112
 8562TIP3    H125631   5.009   3.225   3.185
 8562TIP3    H225632   5.068   3.117   3.096
 8563TIP3   OH225633   7.954   4.932   2.448
 8563TIP3    H125634   7.997   4.996   2.392
 8563TIP3    H225635   7.947   4.976   2.533
 8564TIP3   OH225636   0.242   3.318   3.384
 8564TIP3    H125637   0.199   3.351   3.305
 8564TIP3    H225638   0.318   3.270   3.351
 8565TIP3   OH225639   6.771   6.905   2.458
 8565TIP3    H125640   6.709   6.968   2.495
 8565TIP3    H225641   6.724   6.821   2.461
 8566TIP3   OH225642   2.856   6.141   3.505
 8566TIP3    H125643   2.884   6.053   3.529
 8566TIP3    H225644   2.931   6.197   3.529
 8567TIP3   OH225645   8.248   2.220   5.128
 8567TIP3    H125646   8.304   2.206   5.205
 8567TIP3    H225647   8.211   2.133   5.110
 8568TIP3   OH225648   2.404   3.576   4.891
 8568TIP3    H125649   2.362   3.546   4.810
 8568TIP3    H225650   2.364   3.661   4.909
 8569TIP3   OH225651   1.993   3.151   1.482
 8569TIP3    H125652   1.979   3.079   1.421
 8569TIP3    H225653   2.070   3.125   1.534
 8570TIP3   OH225654   6.941   7.337   0.887
 8570TIP3    H125655   6.863   7.349   0.942
 8570TIP3    H225656   7.015   7.342   0.948
 8571TIP3   OH225657   2.509   4.494   0.841
 8571TIP3    H125658   2.423   4.502   0.799
 8571TIP3    H225659   2.561   4.443   0.779
 8572TIP3   OH225660   3.178   6.439   4.161
 8572TIP3    H125661   3.265   6.457   4.125
 8572TIP3    H225662   3.157   6.351   4.128
 8573TIP3   OH225663   1.949   4.995   6.466
 8573TIP3    H125664   2.005   4.996   6.543
 8573TIP3    H225665   1.865   4.961   6.498
 8574TIP3   OH225666   6.388   2.971   5.928
 8574TIP3    H125667   6.464   2.934   5.881
 8574TIP3    H225668   6.343   3.024   5.862
 8575TIP3   OH225669   0.527   0.497   1.896
 8575TIP3    H125670   0.501   0.586   1.870
 8575TIP3    H225671   0.612   0.509   1.937
 8576TIP3   OH225672   7.273   0.465   1.550
 8576TIP3    H125673   7.234   0.386   1.513
 8576TIP3    H225674   7.286   0.445   1.642
 8577TIP3   OH225675   1.520   5.085   2.906
 8577TIP3    H125676   1.452   5.028   2.941
 8577TIP3    H225677   1.585   5.025   2.869
 8578TIP3   OH225678   7.589   4.456   6.632
 8578TIP3    H125679   7.680   4.429   6.630
 8578TIP3    H225680   7.583   4.515   6.706
 8579TIP3   OH225681   6.661   3.470   0.997
 8579TIP3    H125682   6.571   3.440   0.988
 8579TIP3    H225683   6.665   3.509   1.084
 8580TIP3   OH225684   6.256   4.163   0.124
 8580TIP3    H125685   6.320   4.094   0.142
 8580TIP3    H225686   6.245   4.161   0.029
 8581TIP3   OH225687   2.893   6.780   3.287
 8581TIP3    H125688   2.834   6.853   3.305
 8581TIP3    H225689   2.840   6.702   3.301
 8582TIP3   OH225690   2.176   4.835   0.068
 8582TIP3    H125691   2.217   4.918   0.044
 8582TIP3    H225692   2.155   4.795  -0.016
 8583TIP3   OH225693   0.573   4.193   6.276
 8583TIP3    H125694   0.632   4.250   6.227
 8583TIP3    H225695   0.492   4.244   6.285
 8584TIP3   OH225696   8.261   1.942   1.501
 8584TIP3    H125697   8.251   2.009   1.568
 8584TIP3    H225698   8.190   1.879   1.518
 8585TIP3   OH225699   5.459   4.218   4.119
 8585TIP3    H125700   5.412   4.138   4.094
 8585TIP3    H225701   5.435   4.232   4.210
 8586TIP3   OH225702   1.565   4.054   2.355
 8586TIP3    H125703   1.472   4.073   2.349
 8586TIP3    H225704   1.573   3.988   2.423
 8587TIP3   OH225705   3.600   7.782   5.205
 8587TIP3    H125706   3.601   7.697   5.161
 8587TIP3    H225707   3.691   7.813   5.201
 8588TIP3   OH225708   0.329   3.921   4.802
 8588TIP3    H125709   0.297   3.986   4.865
 8588TIP3    H225710   0.250   3.874   4.774
 8589TIP3   OH225711   0.719   6.058   0.107
 8589TIP3    H125712   0.697   6.047   0.199
 8589TIP3    H225713   0.797   6.114   0.107
 8590TIP3   OH225714   1.671   5.418   0.643
 8590TIP3    H125715   1.650   5.365   0.565
 8590TIP3    H225716   1.726   5.489   0.610
 8591TIP3   OH225717   7.937   4.323   3.327
 8591TIP3    H125718   8.015   4.305   3.380
 8591TIP3    H225719   7.936   4.254   3.261
 8592TIP3   OH225720   0.271   2.176   1.556
 8592TIP3    H125721   0.205   2.112   1.529
 8592TIP3    H225722   0.320   2.195   1.476
 8593TIP3   OH225723   3.089   4.314   2.836
 8593TIP3    H125724   3.024   4.247   2.856
 8593TIP3    H225725   3.038   4.389   2.806
 8594TIP3   OH225726   7.001   7.023   2.384
 8594TIP3    H125727   6.983   7.107   2.342
 8594TIP3    H225728   6.920   7.003   2.431
 8595TIP3   OH225729   4.075   4.270   4.275
 8595TIP3    H125730   4.111   4.258   4.363
 8595TIP3    H225731   4.037   4.185   4.253
 8596TIP3   OH225732   4.711   4.919   6.774
 8596TIP3    H125733   4.654   4.898   6.848
 8596TIP3    H225734   4.692   5.011   6.755
 8597TIP3   OH225735   3.022   0.977   0.476
 8597TIP3    H125736   2.953   0.947   0.417
 8597TIP3    H225737   3.103   0.949   0.434
 8598TIP3   OH225738   2.251   3.707   1.834
 8598TIP3    H125739   2.305   3.734   1.759
 8598TIP3    H225740   2.297   3.631   1.870
 8599TIP3   OH225741   8.201   0.177   2.251
 8599TIP3    H125742   8.127   0.120   2.228
 8599TIP3    H225743   8.199   0.246   2.185
 8600TIP3   OH225744   5.883   0.600   0.692
 8600TIP3    H125745   5.965   0.561   0.663
 8600TIP3    H225746   5.910   0.665   0.757
 8601TIP3   OH225747   1.960   4.423   0.598
 8601TIP3    H125748   1.993   4.338   0.568
 8601TIP3    H225749   1.910   4.403   0.677
 8602TIP3   OH225750   3.082   1.429   1.093
 8602TIP3    H125751   3.053   1.497   1.154
 8602TIP3    H225752   3.176   1.445   1.081
 8603TIP3   OH225753   7.046   1.328   5.547
 8603TIP3    H125754   6.973   1.298   5.494
 8603TIP3    H225755   7.005   1.367   5.625
 8604TIP3   OH225756   3.469   3.434   3.188
 8604TIP3    H125757   3.462   3.501   3.120
 8604TIP3    H225758   3.387   3.440   3.237
 8605TIP3   OH225759   2.415   1.429   5.482
 8605TIP3    H125760   2.388   1.408   5.393
 8605TIP3    H225761   2.372   1.364   5.537
 8606TIP3   OH225762   2.464   1.434   2.353
 8606TIP3    H125763   2.551   1.472   2.361
 8606TIP3    H225764   2.438   1.451   2.262
 8607TIP3   OH225765   1.582   1.221   5.059
 8607TIP3    H125766   1.531   1.181   5.130
 8607TIP3    H225767   1.523   1.288   5.023
 8608TIP3   OH225768   6.420   6.915   0.596
 8608TIP3    H125769   6.332   6.913   0.633
 8608TIP3    H225770   6.406   6.925   0.502
 8609TIP3   OH225771   5.701   4.133   6.559
 8609TIP3    H125772   5.638   4.188   6.606
 8609TIP3    H225773   5.710   4.055   6.613
 8610TIP3   OH225774   2.468   2.128   2.032
 8610TIP3    H125775   2.440   2.204   2.082
 8610TIP3    H225776   2.388   2.091   1.995
 8611TIP3   OH225777   6.470   0.483   2.071
 8611TIP3    H125778   6.514   0.525   1.998
 8611TIP3    H225779   6.481   0.390   2.056
 8612TIP3   OH225780   8.112   3.955   4.719
 8612TIP3    H125781   8.079   3.952   4.808
 8612TIP3    H225782   8.048   4.007   4.671
 8613TIP3   OH225783   4.127   6.815   1.903
 8613TIP3    H125784   4.144   6.757   1.828
 8613TIP3    H225785   4.081   6.890   1.865
 8614TIP3   OH225786   7.002   1.415   3.300
 8614TIP3    H125787   6.938   1.356   3.262
 8614TIP3    H225788   6.985   1.500   3.258
 8615TIP3   OH225789   1.124   2.465   5.624
 8615TIP3    H125790   1.140   2.447   5.532
 8615TIP3    H225791   1.094   2.556   5.626
 8616TIP3   OH225792   3.079   2.851   2.570
 8616TIP3    H125793   3.091   2.761   2.598
 8616TIP3    H225794   3.161   2.874   2.526
 8617TIP3   OH225795   4.335   2.575   6.211
 8617TIP3    H125796   4.251   2.566   6.165
 8617TIP3    H225797   4.321   2.528   6.293
 8618TIP3   OH225798   1.240   6.638   1.047
 8618TIP3    H125799   1.221   6.580   1.120
 8618TIP3    H225800   1.272   6.719   1.089
 8619TIP3   OH225801   0.950   0.432   2.611
 8619TIP3    H125802   0.995   0.425   2.695
 8619TIP3    H225803   0.870   0.481   2.631
 8620TIP3   OH225804   1.767   7.681   0.311
 8620TIP3    H125805   1.801   7.724   0.389
 8620TIP3    H225806   1.676   7.709   0.305
 8621TIP3   OH225807   1.816   3.300   5.180
 8621TIP3    H125808   1.878   3.251   5.125
 8621TIP3    H225809   1.867   3.371   5.217
 8622TIP3   OH225810   1.237   7.775   4.237
 8622TIP3    H125811   1.331   7.767   4.254
 8622TIP3    H225812   1.223   7.868   4.221
 8623TIP3   OH225813   1.332   6.322   6.110
 8623TIP3    H125814   1.254   6.266   6.112
 8623TIP3    H225815   1.347   6.345   6.202
 8624TIP3   OH225816   6.527   3.181   1.309
 8624TIP3    H125817   6.506   3.249   1.244
 8624TIP3    H225818   6.486   3.102   1.275
 8625TIP3   OH225819   2.006   1.967   4.092
 8625TIP3    H125820   2.041   1.904   4.156
 8625TIP3    H225821   1.954   1.913   4.032
 8626TIP3   OH225822   4.695   2.911   5.077
 8626TIP3    H125823   4.634   2.837   5.084
 8626TIP3    H225824   4.647   2.976   5.025
 8627TIP3   OH225825   5.686   3.449   4.405
 8627TIP3    H125826   5.612   3.507   4.426
 8627TIP3    H225827   5.763   3.497   4.437
 8628TIP3   OH225828   2.263   2.447   3.316
 8628TIP3    H125829   2.218   2.409   3.391
 8628TIP3    H225830   2.193   2.468   3.254
 8629TIP3   OH225831   2.026   2.743   5.210
 8629TIP3    H125832   1.942   2.701   5.191
 8629TIP3    H225833   2.024   2.826   5.163
 8630TIP3   OH225834   7.891   5.962   4.873
 8630TIP3    H125835   7.810   5.997   4.910
 8630TIP3    H225836   7.880   5.867   4.877
 8631TIP3   OH225837   7.930   2.400   6.115
 8631TIP3    H125838   7.932   2.396   6.211
 8631TIP3    H225839   7.897   2.487   6.095
 8632TIP3   OH225840   1.929   0.152   2.810
 8632TIP3    H125841   1.991   0.081   2.824
 8632TIP3    H225842   1.976   0.231   2.839
 8633TIP3   OH225843   2.283   5.589   3.567
 8633TIP3    H125844   2.317   5.674   3.594
 8633TIP3    H225845   2.245   5.551   3.646
 8634TIP3   OH225846   8.164   0.873   0.052
 8634TIP3    H125847   8.143   0.797  -0.002
 8634TIP3    H225848   8.221   0.838   0.121
 8635TIP3   OH225849   6.100   5.508   3.877
 8635TIP3    H125850   6.106   5.540   3.787
 8635TIP3    H225851   6.173   5.447   3.886
 8636TIP3   OH225852   6.344   3.210   2.006
 8636TIP3    H125853   6.276   3.265   2.044
 8636TIP3    H225854   6.310   3.185   1.920
 8637TIP3   OH225855   5.074   0.780   6.715
 8637TIP3    H125856   5.161   0.798   6.681
 8637TIP3    H225857   5.054   0.691   6.685
 8638TIP3   OH225858   4.196   3.981   1.635
 8638TIP3    H125859   4.259   4.048   1.608
 8638TIP3    H225860   4.250   3.906   1.660
 8639TIP3   OH225861   3.806   2.928   3.163
 8639TIP3    H125862   3.814   2.884   3.078
 8639TIP3    H225863   3.874   2.890   3.217
 8640TIP3   OH225864   3.101   5.550   6.592
 8640TIP3    H125865   3.093   5.615   6.522
 8640TIP3    H225866   3.191   5.560   6.623
 8641TIP3   OH225867   0.249   5.438   1.212
 8641TIP3    H125868   0.200   5.483   1.281
 8641TIP3    H225869   0.222   5.481   1.131
 8642TIP3   OH225870   0.842   2.927   4.833
 8642TIP3    H125871   0.777   2.996   4.843
 8642TIP3    H225872   0.857   2.895   4.922
 8643TIP3   OH225873   5.559   7.334   2.092
 8643TIP3    H125874   5.629   7.287   2.138
 8643TIP3    H225875   5.595   7.353   2.006
 8644TIP3   OH225876   3.461   5.490   4.408
 8644TIP3    H125877   3.413   5.523   4.332
 8644TIP3    H225878   3.539   5.546   4.412
 8645TIP3   OH225879   2.000   3.879   1.437
 8645TIP3    H125880   1.914   3.913   1.411
 8645TIP3    H225881   2.038   3.845   1.356
 8646TIP3   OH225882   3.857   4.433   6.643
 8646TIP3    H125883   3.857   4.514   6.694
 8646TIP3    H225884   3.799   4.450   6.570
 8647TIP3   OH225885   7.014   1.219   3.067
 8647TIP3    H125886   6.940   1.278   3.084
 8647TIP3    H225887   7.059   1.212   3.151
 8648TIP3   OH225888   6.088   6.748   6.274
 8648TIP3    H125889   6.131   6.816   6.325
 8648TIP3    H225890   6.073   6.787   6.188
 8649TIP3   OH225891   7.914   3.589   5.369
 8649TIP3    H125892   7.852   3.516   5.361
 8649TIP3    H225893   7.957   3.575   5.453
 8650TIP3   OH225894   0.740   1.276   3.379
 8650TIP3    H125895   0.785   1.192   3.376
 8650TIP3    H225896   0.759   1.317   3.295
 8651TIP3   OH225897   7.239   2.401   0.529
 8651TIP3    H125898   7.160   2.441   0.492
 8651TIP3    H225899   7.273   2.345   0.459
 8652TIP3   OH225900   1.710   6.372   3.840
 8652TIP3    H125901   1.696   6.328   3.756
 8652TIP3    H225902   1.632   6.352   3.892
 8653TIP3   OH225903   7.434   4.136   5.297
 8653TIP3    H125904   7.528   4.143   5.307
 8653TIP3    H225905   7.419   4.044   5.273
 8654TIP3   OH225906   5.640   4.688   6.703
 8654TIP3    H125907   5.597   4.628   6.764
 8654TIP3    H225908   5.645   4.639   6.621
 8655TIP3   OH225909   6.549   5.716   5.188
 8655TIP3    H125910   6.467   5.733   5.235
 8655TIP3    H225911   6.557   5.788   5.126
 8656TIP3   OH225912   6.988   3.166   4.623
 8656TIP3    H125913   7.062   3.204   4.575
 8656TIP3    H225914   7.015   3.170   4.715
 8657TIP3   OH225915   8.257   1.915   6.068
 8657TIP3    H125916   8.301   2.000   6.071
 8657TIP3    H225917   8.252   1.894   5.975
 8658TIP3   OH225918   0.436   5.264   1.096
 8658TIP3    H125919   0.408   5.257   1.005
 8658TIP3    H225920   0.359   5.294   1.143
 8659TIP3   OH225921   0.204   6.931   3.438
 8659TIP3    H125922   0.279   6.908   3.494
 8659TIP3    H225923   0.212   6.873   3.363
 8660TIP3   OH225924   4.753   4.130   2.632
 8660TIP3    H125925   4.723   4.214   2.597
 8660TIP3    H225926   4.768   4.147   2.725
 8661TIP3   OH225927   0.427   4.777   2.489
 8661TIP3    H125928   0.405   4.821   2.572
 8661TIP3    H225929   0.467   4.694   2.516
 8662TIP3   OH225930   1.385   3.514   2.226
 8662TIP3    H125931   1.438   3.559   2.290
 8662TIP3    H225932   1.378   3.576   2.153
 8663TIP3   OH225933   3.071   6.908   4.261
 8663TIP3    H125934   3.089   6.969   4.333
 8663TIP3    H225935   3.113   6.826   4.289
 8664TIP3   OH225936   5.511   5.411   5.568
 8664TIP3    H125937   5.484   5.448   5.653
 8664TIP3    H225938   5.606   5.420   5.567
 8665TIP3   OH225939   7.729   6.750   2.575
 8665TIP3    H125940   7.729   6.772   2.668
 8665TIP3    H225941   7.692   6.827   2.532
 8666TIP3   OH225942   3.997   6.437   1.213
 8666TIP3    H125943   3.912   6.425   1.256
 8666TIP3    H225944   3.976   6.444   1.120
 8667TIP3   OH225945   1.475   6.170   4.933
 8667TIP3    H125946   1.546   6.235   4.928
 8667TIP3    H225947   1.467   6.150   5.026
 8668TIP3   OH225948   5.738   4.188   4.183
 8668TIP3    H125949   5.650   4.202   4.148
 8668TIP3    H225950   5.789   4.262   4.151
 8669TIP3   OH225951   6.441   3.420   5.353
 8669TIP3    H125952   6.406   3.439   5.266
 8669TIP3    H225953   6.517   3.477   5.361
 8670TIP3   OH225954   3.460   2.391   2.705
 8670TIP3    H125955   3.524   2.458   2.679
 8670TIP3    H225956   3.422   2.361   2.622
 8671TIP3   OH225957   2.519   5.080   2.931
 8671TIP3    H125958   2.446   5.035   2.973
 8671TIP3    H225959   2.594   5.022   2.946
 8672TIP3   OH225960   1.830   0.571   4.204
 8672TIP3    H125961   1.858   0.657   4.172
 8672TIP3    H225962   1.856   0.570   4.296
 8673TIP3   OH225963   3.821   3.408   5.480
 8673TIP3    H125964   3.889   3.449   5.534
 8673TIP3    H225965   3.796   3.329   5.528
 8674TIP3   OH225966   2.038   6.186   4.159
 8674TIP3    H125967   2.097   6.184   4.234
 8674TIP3    H225968   1.950   6.177   4.196
 8675TIP3   OH225969   6.566   0.725   4.938
 8675TIP3    H125970   6.607   0.757   4.857
 8675TIP3    H225971   6.489   0.677   4.907
 8676TIP3   OH225972   7.249   0.179   5.892
 8676TIP3    H125973   7.219   0.177   5.983
 8676TIP3    H225974   7.267   0.088   5.870
 8677TIP3   OH225975   0.987   6.687   4.792
 8677TIP3    H125976   0.925   6.635   4.842
 8677TIP3    H225977   1.058   6.627   4.769
 8678TIP3   OH225978   4.885   2.570   6.488
 8678TIP3    H125979   4.940   2.506   6.442
 8678TIP3    H225980   4.830   2.608   6.420
 8679TIP3   OH225981   3.489   2.268   2.956
 8679TIP3    H125982   3.495   2.324   2.879
 8679TIP3    H225983   3.480   2.329   3.029
 8680TIP3   OH225984   7.198   3.404   4.070
 8680TIP3    H125985   7.124   3.345   4.060
 8680TIP3    H225986   7.230   3.419   3.981
 8681TIP3   OH225987   6.995   6.011   3.480
 8681TIP3    H125988   6.934   6.028   3.552
 8681TIP3    H225989   6.952   5.945   3.426
 8682TIP3   OH225990   0.168   2.852   6.435
 8682TIP3    H125991   0.096   2.869   6.496
 8682TIP3    H225992   0.219   2.782   6.477
 8683TIP3   OH225993   2.777   3.326   1.667
 8683TIP3    H125994   2.824   3.291   1.591
 8683TIP3    H225995   2.831   3.398   1.698
 8684TIP3   OH225996   4.035   3.732   6.565
 8684TIP3    H125997   4.030   3.642   6.598
 8684TIP3    H225998   4.124   3.739   6.529
 8685TIP3   OH225999   3.555   1.429   0.059
 8685TIP3    H126000   3.626   1.493   0.058
 8685TIP3    H226001   3.595   1.348   0.026
 8686TIP3   OH226002   2.881   7.632   0.669
 8686TIP3    H126003   2.935   7.586   0.606
 8686TIP3    H226004   2.898   7.588   0.752
 8687TIP3   OH226005   5.821   6.710   1.713
 8687TIP3    H126006   5.752   6.772   1.689
 8687TIP3    H226007   5.879   6.760   1.771
 8688TIP3   OH226008   3.387   3.462   1.321
 8688TIP3    H126009   3.428   3.469   1.407
 8688TIP3    H226010   3.381   3.367   1.306
 8689TIP3   OH226011   7.931   6.876   5.501
 8689TIP3    H126012   7.880   6.803   5.536
 8689TIP3    H226013   7.915   6.947   5.563
 8690TIP3   OH226014   6.074   7.771   3.029
 8690TIP3    H126015   6.073   7.676   3.042
 8690TIP3    H226016   5.988   7.791   2.992
 8691TIP3   OH226017   5.732   7.801   5.425
 8691TIP3    H126018   5.776   7.872   5.378
 8691TIP3    H226019   5.783   7.791   5.506
 8692TIP3   OH226020   5.932   3.958   1.935
 8692TIP3    H126021   5.935   4.054   1.934
 8692TIP3    H226022   5.839   3.937   1.933
 8693TIP3   OH226023   4.990   3.017   0.470
 8693TIP3    H126024   4.898   3.003   0.493
 8693TIP3    H226025   4.988   3.037   0.377
 8694TIP3   OH226026   0.464   0.219   3.764
 8694TIP3    H126027   0.473   0.210   3.669
 8694TIP3    H226028   0.480   0.312   3.780
 8695TIP3   OH226029   5.775   7.056   6.655
 8695TIP3    H126030   5.765   7.034   6.563
 8695TIP3    H226031   5.750   6.976   6.701
 8696TIP3   OH226032   5.343   5.126   5.029
 8696TIP3    H126033   5.279   5.193   5.002
 8696TIP3    H226034   5.425   5.156   4.991
 8697TIP3   OH226035   4.327   2.572   1.883
 8697TIP3    H126036   4.336   2.482   1.915
 8697TIP3    H226037   4.380   2.624   1.944
 8698TIP3   OH226038   6.920   6.870   5.157
 8698TIP3    H126039   6.867   6.907   5.228
 8698TIP3    H226040   6.881   6.905   5.077
 8699TIP3   OH226041   3.102   2.872   0.682
 8699TIP3    H126042   3.055   2.954   0.665
 8699TIP3    H226043   3.039   2.803   0.658
 8700TIP3   OH226044   7.845   4.330   6.616
 8700TIP3    H126045   7.841   4.246   6.569
 8700TIP3    H226046   7.913   4.379   6.572
 8701TIP3   OH226047   3.767   6.968   0.128
 8701TIP3    H126048   3.824   6.900   0.164
 8701TIP3    H226049   3.825   7.021   0.073
 8702TIP3   OH226050   6.562   1.732   6.665
 8702TIP3    H126051   6.503   1.807   6.675
 8702TIP3    H226052   6.649   1.771   6.655
 8703TIP3   OH226053   6.739   5.454   4.997
 8703TIP3    H126054   6.764   5.384   5.058
 8703TIP3    H226055   6.736   5.411   4.911
 8704TIP3   OH226056   3.033   5.025   5.854
 8704TIP3    H126057   3.040   5.120   5.858
 8704TIP3    H226058   3.124   4.994   5.855
 8705TIP3   OH226059   6.166   0.741   1.406
 8705TIP3    H126060   6.205   0.735   1.493
 8705TIP3    H226061   6.081   0.699   1.415
 8706TIP3   OH226062   6.403   7.709   1.150
 8706TIP3    H126063   6.371   7.633   1.198
 8706TIP3    H226064   6.414   7.677   1.060
 8707TIP3   OH226065   1.368   3.664   2.527
 8707TIP3    H126066   1.273   3.658   2.528
 8707TIP3    H226067   1.394   3.651   2.618
 8708TIP3   OH226068   5.052   5.778   0.792
 8708TIP3    H126069   5.033   5.804   0.702
 8708TIP3    H226070   5.109   5.847   0.825
 8709TIP3   OH226071   7.491   7.773   2.050
 8709TIP3    H126072   7.508   7.694   1.999
 8709TIP3    H226073   7.546   7.764   2.128
 8710TIP3   OH226074   5.531   2.563   0.518
 8710TIP3    H126075   5.455   2.583   0.573
 8710TIP3    H226076   5.595   2.630   0.541
 8711TIP3   OH226077   6.703   4.428   2.994
 8711TIP3    H126078   6.764   4.397   3.061
 8711TIP3    H226079   6.708   4.523   2.999
 8712TIP3   OH226080   5.398   2.812   3.801
 8712TIP3    H126081   5.422   2.874   3.733
 8712TIP3    H226082   5.321   2.851   3.843
 8713TIP3   OH226083   3.683   6.299   4.114
 8713TIP3    H126084   3.676   6.225   4.176
 8713TIP3    H226085   3.617   6.361   4.144
 8714TIP3   OH226086   7.997   1.796   3.699
 8714TIP3    H126087   7.996   1.703   3.676
 8714TIP3    H226088   7.938   1.838   3.636
 8715TIP3   OH226089   2.998   3.846   4.846
 8715TIP3    H126090   3.071   3.784   4.854
 8715TIP3    H226091   2.930   3.810   4.903
 8716TIP3   OH226092   3.720   4.252   3.360
 8716TIP3    H126093   3.666   4.245   3.439
 8716TIP3    H226094   3.662   4.293   3.295
 8717TIP3   OH226095   6.143   3.700   0.542
 8717TIP3    H126096   6.220   3.755   0.553
 8717TIP3    H226097   6.070   3.755   0.572
 8718TIP3   OH226098   2.383   1.294   1.525
 8718TIP3    H126099   2.441   1.252   1.461
 8718TIP3    H226100   2.355   1.223   1.582
 8719TIP3   OH226101   4.650   6.520   0.381
 8719TIP3    H126102   4.606   6.589   0.431
 8719TIP3    H226103   4.737   6.556   0.363
 8720TIP3   OH226104   3.562   1.124   5.606
 8720TIP3    H126105   3.528   1.036   5.622
 8720TIP3    H226106   3.650   1.123   5.643
 8721TIP3   OH226107   0.422   0.933   3.796
 8721TIP3    H126108   0.405   0.990   3.720
 8721TIP3    H226109   0.335   0.909   3.827
 8722TIP3   OH226110   3.453   5.833   1.374
 8722TIP3    H126111   3.409   5.769   1.320
 8722TIP3    H226112   3.536   5.850   1.329
 8723TIP3   OH226113   0.470   2.227   5.387
 8723TIP3    H126114   0.455   2.183   5.303
 8723TIP3    H226115   0.545   2.181   5.425
 8724TIP3   OH226116   5.859   0.354   3.896
 8724TIP3    H126117   5.791   0.393   3.841
 8724TIP3    H226118   5.941   0.392   3.865
 8725TIP3   OH226119   1.829   2.648   4.108
 8725TIP3    H126120   1.782   2.706   4.048
 8725TIP3    H226121   1.859   2.576   4.053
 8726TIP3   OH226122   3.983   7.795   5.411
 8726TIP3    H126123   3.972   7.770   5.503
 8726TIP3    H226124   3.910   7.854   5.393
 8727TIP3   OH226125   7.411   2.807   1.266
 8727TIP3    H126126   7.459   2.727   1.244
 8727TIP3    H226127   7.479   2.867   1.299
 8728TIP3   OH226128   7.544   4.446   5.062
 8728TIP3    H126129   7.468   4.492   5.024
 8728TIP3    H226130   7.612   4.454   4.996
 8729TIP3   OH226131   2.849   2.123   2.309
 8729TIP3    H126132   2.865   2.216   2.295
 8729TIP3    H226133   2.769   2.105   2.260
 8730TIP3   OH226134   3.397   7.101   6.103
 8730TIP3    H126135   3.476   7.129   6.056
 8730TIP3    H226136   3.392   7.007   6.085
 8731TIP3   OH226137   2.830   7.378   5.969
 8731TIP3    H126138   2.921   7.372   5.940
 8731TIP3    H226139   2.779   7.377   5.888
 8732TIP3   OH226140   6.199   4.311   3.470
 8732TIP3    H126141   6.130   4.300   3.535
 8732TIP3    H226142   6.239   4.395   3.491
 8733TIP3   OH226143   0.657   4.379   6.695
 8733TIP3    H126144   0.693   4.419   6.774
 8733TIP3    H226145   0.706   4.420   6.623
 8734TIP3   OH226146   5.713   6.804   5.830
 8734TIP3    H126147   5.683   6.790   5.740
 8734TIP3    H226148   5.754   6.721   5.855
 8735TIP3   OH226149   7.355   4.382   2.081
 8735TIP3    H126150   7.269   4.349   2.056
 8735TIP3    H226151   7.412   4.357   2.008
 8736TIP3   OH226152   8.246   3.894   2.130
 8736TIP3    H126153   8.241   3.799   2.124
 8736TIP3    H226154   8.160   3.920   2.164
 8737TIP3   OH226155   5.493   7.727   6.036
 8737TIP3    H126156   5.484   7.820   6.054
 8737TIP3    H226157   5.477   7.719   5.942
 8738TIP3   OH226158   6.470   3.730   0.341
 8738TIP3    H126159   6.446   3.660   0.280
 8738TIP3    H226160   6.421   3.806   0.311
 8739TIP3   OH226161   5.836   0.155   1.648
 8739TIP3    H126162   5.830   0.174   1.554
 8739TIP3    H226163   5.775   0.216   1.689
 8740TIP3   OH226164   0.398   0.020   1.301
 8740TIP3    H126165   0.429   0.032   1.391
 8740TIP3    H226166   0.341   0.096   1.286
 8741TIP3   OH226167   6.226   4.373   1.227
 8741TIP3    H126168   6.154   4.362   1.164
 8741TIP3    H226169   6.240   4.286   1.262
 8742TIP3   OH226170   4.226   2.641   4.304
 8742TIP3    H126171   4.306   2.678   4.267
 8742TIP3    H226172   4.157   2.662   4.240
 8743TIP3   OH226173   4.506   7.399   3.896
 8743TIP3    H126174   4.536   7.335   3.831
 8743TIP3    H226175   4.566   7.389   3.970
 8744TIP3   OH226176   7.639   0.429   4.271
 8744TIP3    H126177   7.546   0.434   4.251
 8744TIP3    H226178   7.654   0.336   4.289
 8745TIP3   OH226179   2.373   2.205   4.051
 8745TIP3    H126180   2.431   2.143   4.006
 8745TIP3    H226181   2.428   2.282   4.067
 8746TIP3   OH226182   2.233   6.905   4.002
 8746TIP3    H126183   2.307   6.905   4.063
 8746TIP3    H226184   2.157   6.885   4.056
 8747TIP3   OH226185   6.884   3.932   1.117
 8747TIP3    H126186   6.819   4.002   1.109
 8747TIP3    H226187   6.853   3.879   1.191
 8748TIP3   OH226188   3.952   5.849   6.650
 8748TIP3    H126189   3.913   5.789   6.587
 8748TIP3    H226190   3.899   5.838   6.730
 8749TIP3   OH226191   6.896   1.440   4.104
 8749TIP3    H126192   6.966   1.504   4.115
 8749TIP3    H226193   6.890   1.395   4.188
 8750TIP3   OH226194   3.262   3.225   5.252
 8750TIP3    H126195   3.214   3.257   5.175
 8750TIP3    H226196   3.249   3.130   5.251
 8751TIP3   OH226197   6.373   7.481   1.836
 8751TIP3    H126198   6.344   7.431   1.760
 8751TIP3    H226199   6.463   7.450   1.852
 8752TIP3   OH226200   8.008   3.101   1.613
 8752TIP3    H126201   8.034   3.102   1.705
 8752TIP3    H226202   8.090   3.093   1.565
 8753TIP3   OH226203   0.435   7.700   2.438
 8753TIP3    H126204   0.425   7.618   2.389
 8753TIP3    H226205   0.445   7.767   2.371
 8754TIP3   OH226206   4.777   6.635   6.331
 8754TIP3    H126207   4.740   6.683   6.258
 8754TIP3    H226208   4.834   6.698   6.375
 8755TIP3   OH226209   0.467   3.449   3.853
 8755TIP3    H126210   0.444   3.361   3.826
 8755TIP3    H226211   0.394   3.504   3.822
 8756TIP3   OH226212   1.168   4.030   6.515
 8756TIP3    H126213   1.201   4.073   6.594
 8756TIP3    H226214   1.247   4.000   6.470
 8757TIP3   OH226215   3.348   2.401   2.443
 8757TIP3    H126216   3.399   2.482   2.438
 8757TIP3    H226217   3.281   2.411   2.375
 8758TIP3   OH226218   5.750   1.554   3.352
 8758TIP3    H126219   5.816   1.485   3.349
 8758TIP3    H226220   5.799   1.634   3.334
 8759TIP3   OH226221   3.154   4.179   5.555
 8759TIP3    H126222   3.127   4.241   5.488
 8759TIP3    H226223   3.230   4.134   5.517
 8760TIP3   OH226224   7.221   2.298   4.473
 8760TIP3    H126225   7.265   2.370   4.428
 8760TIP3    H226226   7.289   2.259   4.528
 8761TIP3   OH226227   4.730   2.212   4.633
 8761TIP3    H126228   4.643   2.187   4.602
 8761TIP3    H226229   4.712   2.269   4.708
 8762TIP3   OH226230   3.145   3.603   5.944
 8762TIP3    H126231   3.136   3.538   5.874
 8762TIP3    H226232   3.131   3.553   6.025
 8763TIP3   OH226233   5.966   4.412   5.954
 8763TIP3    H126234   5.887   4.439   6.001
 8763TIP3    H226235   5.965   4.316   5.958
 8764TIP3   OH226236   4.252   7.827   0.803
 8764TIP3    H126237   4.203   7.746   0.790
 8764TIP3    H226238   4.281   7.852   0.716
 8765TIP3   OH226239   6.376   1.547   6.258
 8765TIP3    H126240   6.294   1.586   6.228
 8765TIP3    H226241   6.414   1.506   6.180
 8766TIP3   OH226242   7.416   6.624   2.988
 8766TIP3    H126243   7.481   6.677   2.941
 8766TIP3    H226244   7.466   6.550   3.021
 8767TIP3   OH226245   6.232   0.179   4.340
 8767TIP3    H126246   6.280   0.260   4.323
 8767TIP3    H226247   6.168   0.173   4.270
 8768TIP3   OH226248   2.115   7.042   3.265
 8768TIP3    H126249   2.189   7.005   3.314
 8768TIP3    H226250   2.038   7.016   3.315
 8769TIP3   OH226251   4.888   4.270   2.033
 8769TIP3    H126252   4.935   4.290   2.114
 8769TIP3    H226253   4.820   4.337   2.027
 8770TIP3   OH226254   3.926   3.910   2.999
 8770TIP3    H126255   4.021   3.899   2.995
 8770TIP3    H226256   3.910   3.952   3.083
 8771TIP3   OH226257   2.229   1.079   3.319
 8771TIP3    H126258   2.202   1.135   3.246
 8771TIP3    H226259   2.323   1.096   3.328
 8772TIP3   OH226260   6.632   5.852   1.494
 8772TIP3    H126261   6.659   5.818   1.409
 8772TIP3    H226262   6.714   5.871   1.539
 8773TIP3   OH226263   0.354   7.599   1.811
 8773TIP3    H126264   0.381   7.680   1.769
 8773TIP3    H226265   0.412   7.532   1.774
 8774TIP3   OH226266   1.860   7.337   4.397
 8774TIP3    H126267   1.893   7.262   4.346
 8774TIP3    H226268   1.932   7.360   4.455
 8775TIP3   OH226269   0.558   3.587   5.338
 8775TIP3    H126270   0.643   3.632   5.343
 8775TIP3    H226271   0.570   3.521   5.270
 8776TIP3   OH226272   6.060   2.971   5.015
 8776TIP3    H126273   6.013   3.049   4.986
 8776TIP3    H226274   6.097   2.934   4.934
 8777TIP3   OH226275   5.875   1.541   5.740
 8777TIP3    H126276   5.846   1.605   5.675
 8777TIP3    H226277   5.951   1.499   5.700
 8778TIP3   OH226278   0.326   4.016   2.641
 8778TIP3    H126279   0.327   3.921   2.654
 8778TIP3    H226280   0.401   4.034   2.585
 8779TIP3   OH226281   6.734   0.697   1.259
 8779TIP3    H126282   6.744   0.753   1.335
 8779TIP3    H226283   6.823   0.673   1.235
 8780TIP3   OH226284   4.947   1.613   3.714
 8780TIP3    H126285   4.991   1.690   3.680
 8780TIP3    H226286   5.011   1.571   3.772
 8781TIP3   OH226287   6.559   1.920   4.973
 8781TIP3    H126288   6.514   2.004   4.984
 8781TIP3    H226289   6.643   1.933   5.016
 8782TIP3   OH226290   0.627   1.180   0.838
 8782TIP3    H126291   0.647   1.263   0.795
 8782TIP3    H226292   0.537   1.160   0.811
 8783TIP3   OH226293   4.199   1.614   5.020
 8783TIP3    H126294   4.129   1.553   4.996
 8783TIP3    H226295   4.275   1.560   5.036
 8784TIP3   OH226296   4.336   7.353   5.372
 8784TIP3    H126297   4.390   7.396   5.306
 8784TIP3    H226298   4.246   7.366   5.341
 8785TIP3   OH226299   4.550   0.871   4.436
 8785TIP3    H126300   4.617   0.920   4.388
 8785TIP3    H226301   4.475   0.930   4.440
 8786TIP3   OH226302   6.898   0.526   4.212
 8786TIP3    H126303   6.910   0.451   4.270
 8786TIP3    H226304   6.919   0.602   4.267
 8787TIP3   OH226305   5.735   3.922   5.657
 8787TIP3    H126306   5.695   3.921   5.744
 8787TIP3    H226307   5.739   3.830   5.632
 8788TIP3   OH226308   0.859   1.603   6.058
 8788TIP3    H126309   0.846   1.694   6.034
 8788TIP3    H226310   0.954   1.592   6.061
 8789TIP3   OH226311   1.748   6.814   6.480
 8789TIP3    H126312   1.662   6.828   6.440
 8789TIP3    H226313   1.808   6.804   6.406
 8790TIP3   OH226314   7.704   1.503   2.863
 8790TIP3    H126315   7.752   1.446   2.803
 8790TIP3    H226316   7.739   1.483   2.949
 8791TIP3   OH226317   6.968   2.162   0.069
 8791TIP3    H126318   6.989   2.247   0.107
 8791TIP3    H226319   6.872   2.159   0.068
 8792TIP3   OH226320   2.472   2.314   1.476
 8792TIP3    H126321   2.536   2.383   1.461
 8792TIP3    H226322   2.507   2.265   1.551
 8793TIP3   OH226323   4.836   7.645   4.374
 8793TIP3    H126324   4.832   7.697   4.454
 8793TIP3    H226325   4.763   7.678   4.321
 8794TIP3   OH226326   2.758   3.372   0.518
 8794TIP3    H126327   2.798   3.298   0.564
 8794TIP3    H226328   2.830   3.412   0.470
 8795TIP3   OH226329   4.258   3.655   6.355
 8795TIP3    H126330   4.266   3.568   6.396
 8795TIP3    H226331   4.341   3.666   6.308
 8796TIP3   OH226332   7.385   0.986   2.936
 8796TIP3    H126333   7.477   1.010   2.923
 8796TIP3    H226334   7.365   1.013   3.025
 8797TIP3   OH226335   5.134   2.189   2.983
 8797TIP3    H126336   5.071   2.118   2.967
 8797TIP3    H226337   5.219   2.146   2.978
 8798TIP3   OH226338   7.046   3.511   4.793
 8798TIP3    H126339   7.049   3.600   4.828
 8798TIP3    H226340   6.953   3.491   4.784
 8799TIP3   OH226341   4.846   1.173   3.895
 8799TIP3    H126342   4.765   1.156   3.846
 8799TIP3    H226343   4.845   1.268   3.910
 8800TIP3   OH226344   6.669   2.583   3.796
 8800TIP3    H126345   6.764   2.584   3.801
 8800TIP3    H226346   6.640   2.646   3.863
 8801TIP3   OH226347   5.798   7.685   2.975
 8801TIP3    H126348   5.797   7.590   2.962
 8801TIP3    H226349   5.749   7.720   2.901
 8802TIP3   OH226350   0.399   6.130   2.024
 8802TIP3    H126351   0.403   6.099   1.933
 8802TIP3    H226352   0.384   6.224   2.017
 8803TIP3   OH226353   0.748   1.075   4.932
 8803TIP3    H126354   0.801   0.995   4.934
 8803TIP3    H226355   0.700   1.070   4.850
 8804TIP3   OH226356   6.575   0.896   3.525
 8804TIP3    H126357   6.665   0.919   3.546
 8804TIP3    H226358   6.569   0.904   3.429
 8805TIP3   OH226359   1.500   1.920   3.706
 8805TIP3    H126360   1.579   1.944   3.657
 8805TIP3    H226361   1.431   1.915   3.640
 8806TIP3   OH226362   6.422   3.421   6.151
 8806TIP3    H126363   6.487   3.492   6.157
 8806TIP3    H226364   6.391   3.425   6.061
 8807TIP3   OH226365   1.132   3.016   6.064
 8807TIP3    H126366   1.192   3.090   6.071
 8807TIP3    H226367   1.088   3.014   6.149
 8808TIP3   OH226368   6.371   7.120   4.298
 8808TIP3    H126369   6.295   7.135   4.242
 8808TIP3    H226370   6.337   7.126   4.387
 8809TIP3   OH226371   0.809   2.498   6.004
 8809TIP3    H126372   0.882   2.451   5.963
 8809TIP3    H226373   0.758   2.429   6.047
 8810TIP3   OH226374   0.856   5.732   4.446
 8810TIP3    H126375   0.772   5.707   4.485
 8810TIP3    H226376   0.888   5.653   4.404
 8811TIP3   OH226377   4.388   1.404   6.298
 8811TIP3    H126378   4.346   1.414   6.212
 8811TIP3    H226379   4.390   1.492   6.334
 8812TIP3   OH226380   6.912   7.606   0.783
 8812TIP3    H126381   6.929   7.595   0.689
 8812TIP3    H226382   6.897   7.517   0.815
 8813TIP3   OH226383   1.005   0.602   0.581
 8813TIP3    H126384   1.090   0.591   0.538
 8813TIP3    H226385   1.026   0.638   0.667
 8814TIP3   OH226386   5.672   2.445   1.582
 8814TIP3    H126387   5.652   2.516   1.643
 8814TIP3    H226388   5.733   2.483   1.520
 8815TIP3   OH226389   7.718   5.420   4.600
 8815TIP3    H126390   7.812   5.423   4.619
 8815TIP3    H226391   7.711   5.436   4.506
 8816TIP3   OH226392   3.794   6.391   4.827
 8816TIP3    H126393   3.835   6.442   4.897
 8816TIP3    H226394   3.779   6.304   4.867
 8817TIP3   OH226395   7.639   0.128   4.277
 8817TIP3    H126396   7.677   0.051   4.235
 8817TIP3    H226397   7.545   0.122   4.256
 8818TIP3   OH226398   0.130   7.534   3.207
 8818TIP3    H126399   0.079   7.508   3.130
 8818TIP3    H226400   0.217   7.553   3.173
 8819TIP3   OH226401   4.858   6.707   0.621
 8819TIP3    H126402   4.768   6.737   0.605
 8819TIP3    H226403   4.863   6.696   0.716
 8820TIP3   OH226404   6.772   1.527   2.687
 8820TIP3    H126405   6.688   1.487   2.710
 8820TIP3    H226406   6.764   1.547   2.594
 8821TIP3   OH226407   3.590   2.346   4.094
 8821TIP3    H126408   3.635   2.412   4.041
 8821TIP3    H226409   3.578   2.272   4.036
 8822TIP3   OH226410   7.849   0.878   6.316
 8822TIP3    H126411   7.902   0.934   6.259
 8822TIP3    H226412   7.900   0.797   6.325
 8823TIP3   OH226413   6.723   2.148   2.255
 8823TIP3    H126414   6.739   2.118   2.344
 8823TIP3    H226415   6.717   2.243   2.262
 8824TIP3   OH226416   3.264   3.771   6.187
 8824TIP3    H126417   3.272   3.823   6.107
 8824TIP3    H226418   3.175   3.736   6.184
 8825TIP3   OH226419   6.953   2.539   1.703
 8825TIP3    H126420   7.031   2.585   1.733
 8825TIP3    H226421   6.882   2.602   1.715
 8826TIP3   OH226422   2.393   6.801   4.211
 8826TIP3    H126423   2.450   6.725   4.216
 8826TIP3    H226424   2.304   6.765   4.206
 8827TIP3   OH226425   4.450   6.850   6.449
 8827TIP3    H126426   4.416   6.783   6.390
 8827TIP3    H226427   4.484   6.800   6.524
 8828TIP3   OH226428   7.690   6.055   1.257
 8828TIP3    H126429   7.607   6.007   1.258
 8828TIP3    H226430   7.742   6.011   1.190
 8829TIP3   OH226431   3.945   5.278   3.321
 8829TIP3    H126432   3.867   5.321   3.356
 8829TIP3    H226433   3.910   5.207   3.266
 8830TIP3   OH226434   5.476   6.950   0.835
 8830TIP3    H126435   5.570   6.965   0.822
 8830TIP3    H226436   5.437   7.037   0.827
 8831TIP3   OH226437   8.114   2.589   5.310
 8831TIP3    H126438   8.173   2.545   5.370
 8831TIP3    H226439   8.168   2.609   5.233
 8832TIP3   OH226440   8.121   3.351   6.404
 8832TIP3    H126441   8.195   3.409   6.420
 8832TIP3    H226442   8.161   3.269   6.375
 8833TIP3   OH226443   4.156   5.294   2.979
 8833TIP3    H126444   4.193   5.272   2.894
 8833TIP3    H226445   4.151   5.210   3.025
 8834TIP3   OH226446   3.593   5.958   4.992
 8834TIP3    H126447   3.680   5.997   5.002
 8834TIP3    H226448   3.576   5.914   5.075
 8835TIP3   OH226449   6.754   2.971   4.543
 8835TIP3    H126450   6.834   2.919   4.540
 8835TIP3    H226451   6.775   3.045   4.598
 8836TIP3   OH226452   4.256   6.596   1.748
 8836TIP3    H126453   4.260   6.644   1.666
 8836TIP3    H226454   4.325   6.531   1.742
 8837TIP3   OH226455   3.645   6.144   1.762
 8837TIP3    H126456   3.610   6.115   1.678
 8837TIP3    H226457   3.712   6.208   1.741
 8838TIP3   OH226458   3.983   5.914   2.683
 8838TIP3    H126459   3.964   5.852   2.754
 8838TIP3    H226460   3.900   5.924   2.637
 8839TIP3   OH226461   4.506   6.409   4.144
 8839TIP3    H126462   4.543   6.488   4.104
 8839TIP3    H226463   4.465   6.363   4.070
 8840TIP3   OH226464   7.441   4.847   1.757
 8840TIP3    H126465   7.383   4.790   1.808
 8840TIP3    H226466   7.399   4.933   1.761
 8841TIP3   OH226467   7.278   0.620   4.424
 8841TIP3    H126468   7.354   0.650   4.376
 8841TIP3    H226469   7.290   0.525   4.431
 8842TIP3   OH226470   2.336   6.782   6.191
 8842TIP3    H126471   2.309   6.873   6.185
 8842TIP3    H226472   2.315   6.746   6.104
 8843TIP3   OH226473   6.886   6.703   2.129
 8843TIP3    H126474   6.943   6.715   2.205
 8843TIP3    H226475   6.945   6.709   2.054
 8844TIP3   OH226476   6.757   6.944   3.763
 8844TIP3    H126477   6.832   6.978   3.716
 8844TIP3    H226478   6.683   6.995   3.730
 8845TIP3   OH226479   4.982   5.774   3.150
 8845TIP3    H126480   4.938   5.842   3.201
 8845TIP3    H226481   4.911   5.727   3.107
 8846TIP3   OH226482   5.531   4.672   0.630
 8846TIP3    H126483   5.548   4.711   0.544
 8846TIP3    H226484   5.617   4.649   0.664
 8847TIP3   OH226485   0.628   5.207   5.901
 8847TIP3    H126486   0.620   5.295   5.937
 8847TIP3    H226487   0.585   5.151   5.966
 8848TIP3   OH226488   3.249   4.182   3.637
 8848TIP3    H126489   3.259   4.262   3.687
 8848TIP3    H226490   3.267   4.112   3.699
 8849TIP3   OH226491   4.983   5.191   2.816
 8849TIP3    H126492   4.974   5.229   2.729
 8849TIP3    H226493   5.056   5.130   2.809
 8850TIP3   OH226494   1.521   0.599   1.767
 8850TIP3    H126495   1.475   0.676   1.801
 8850TIP3    H226496   1.456   0.528   1.772
 8851TIP3   OH226497   6.430   5.162   0.175
 8851TIP3    H126498   6.395   5.248   0.152
 8851TIP3    H226499   6.473   5.131   0.095
 8852TIP3   OH226500   3.991   0.658   3.070
 8852TIP3    H126501   3.903   0.638   3.039
 8852TIP3    H226502   3.988   0.750   3.094
 8853TIP3   OH226503   1.198   4.986   3.976
 8853TIP3    H126504   1.137   4.979   3.902
 8853TIP3    H226505   1.180   4.909   4.029
 8854TIP3   OH226506   2.712   6.789   6.677
 8854TIP3    H126507   2.760   6.794   6.759
 8854TIP3    H226508   2.638   6.848   6.689
 8855TIP3   OH226509   8.134   2.933   3.815
 8855TIP3    H126510   8.119   3.023   3.785
 8855TIP3    H226511   8.229   2.925   3.822
 8856TIP3   OH226512   7.578   0.659   4.613
 8856TIP3    H126513   7.505   0.606   4.644
 8856TIP3    H226514   7.615   0.698   4.692
 8857TIP3   OH226515   3.161   2.756   4.671
 8857TIP3    H126516   3.135   2.735   4.581
 8857TIP3    H226517   3.216   2.834   4.663
 8858TIP3   OH226518   8.263   1.575   3.452
 8858TIP3    H126519   8.280   1.523   3.531
 8858TIP3    H226520   8.347   1.614   3.431
 8859TIP3   OH226521   5.038   5.064   6.743
 8859TIP3    H126522   4.980   5.111   6.682
 8859TIP3    H226523   5.080   4.998   6.688
 8860TIP3   OH226524   1.172   2.675   4.247
 8860TIP3    H126525   1.240   2.740   4.227
 8860TIP3    H226526   1.102   2.726   4.288
 8861TIP3   OH226527   7.540   0.298   5.267
 8861TIP3    H126528   7.502   0.322   5.352
 8861TIP3    H226529   7.558   0.204   5.275
 8862TIP3   OH226530   6.825   1.820   1.962
 8862TIP3    H126531   6.755   1.881   1.985
 8862TIP3    H226532   6.783   1.734   1.967
 8863TIP3   OH226533   6.114   4.776   1.310
 8863TIP3    H126534   6.195   4.727   1.322
 8863TIP3    H226535   6.072   4.775   1.396
 8864TIP3   OH226536   6.679   0.212   2.335
 8864TIP3    H126537   6.639   0.157   2.402
 8864TIP3    H226538   6.693   0.154   2.261
 8865TIP3   OH226539   7.551   6.209   6.746
 8865TIP3    H126540   7.635   6.220   6.702
 8865TIP3    H226541   7.486   6.225   6.678
 8866TIP3   OH226542   2.970   1.448   5.683
 8866TIP3    H126543   2.878   1.469   5.667
 8866TIP3    H226544   2.975   1.353   5.668
 8867TIP3   OH226545   2.263   5.607   0.776
 8867TIP3    H126546   2.179   5.644   0.749
 8867TIP3    H226547   2.303   5.675   0.831
 8868TIP3   OH226548   1.348   6.512   5.880
 8868TIP3    H126549   1.378   6.436   5.929
 8868TIP3    H226550   1.254   6.518   5.899
 8869TIP3   OH226551   2.488   2.566   1.895
 8869TIP3    H126552   2.424   2.510   1.940
 8869TIP3    H226553   2.564   2.566   1.954
 8870TIP3   OH226554   1.994   7.373   0.857
 8870TIP3    H126555   1.969   7.302   0.916
 8870TIP3    H226556   2.088   7.381   0.867
 8871TIP3   OH226557   2.210   4.131   1.917
 8871TIP3    H126558   2.256   4.178   1.847
 8871TIP3    H226559   2.117   4.145   1.897
 8872TIP3   OH226560   8.161   1.310   1.784
 8872TIP3    H126561   8.113   1.367   1.843
 8872TIP3    H226562   8.239   1.360   1.758
 8873TIP3   OH226563   1.587   0.518   2.568
 8873TIP3    H126564   1.591   0.602   2.523
 8873TIP3    H226565   1.675   0.506   2.604
 8874TIP3   OH226566   7.768   4.065   1.903
 8874TIP3    H126567   7.677   4.036   1.911
 8874TIP3    H226568   7.820   3.987   1.922
 8875TIP3   OH226569   4.484   5.595   4.292
 8875TIP3    H126570   4.554   5.530   4.298
 8875TIP3    H226571   4.403   5.544   4.297
 8876TIP3   OH226572   4.228   7.387   0.199
 8876TIP3    H126573   4.316   7.400   0.165
 8876TIP3    H226574   4.193   7.476   0.210
 8877TIP3   OH226575   4.721   2.994   3.599
 8877TIP3    H126576   4.642   2.940   3.606
 8877TIP3    H226577   4.715   3.034   3.513
 8878TIP3   OH226578   4.936   1.474   4.359
 8878TIP3    H126579   5.030   1.470   4.380
 8878TIP3    H226580   4.893   1.448   4.440
 8879TIP3   OH226581   0.157   6.330   2.129
 8879TIP3    H126582   0.239   6.352   2.085
 8879TIP3    H226583   0.184   6.278   2.205
 8880TIP3   OH226584   7.023   4.570   6.281
 8880TIP3    H126585   6.944   4.622   6.298
 8880TIP3    H226586   7.012   4.540   6.190
 8881TIP3   OH226587   6.113   1.948   2.854
 8881TIP3    H126588   6.097   1.923   2.945
 8881TIP3    H226589   6.062   2.028   2.841
 8882TIP3   OH226590   3.310   7.129   0.171
 8882TIP3    H126591   3.377   7.094   0.230
 8882TIP3    H226592   3.356   7.143   0.089
 8883TIP3   OH226593   3.869   5.136   2.155
 8883TIP3    H126594   3.932   5.067   2.175
 8883TIP3    H226595   3.840   5.167   2.241
 8884TIP3   OH226596   5.318   5.340   0.494
 8884TIP3    H126597   5.290   5.313   0.581
 8884TIP3    H226598   5.241   5.328   0.439
 8885TIP3   OH226599   1.803   6.996   1.272
 8885TIP3    H126600   1.826   6.946   1.350
 8885TIP3    H226601   1.867   7.067   1.270
 8886TIP3   OH226602   6.530   1.955   5.606
 8886TIP3    H126603   6.587   2.006   5.549
 8886TIP3    H226604   6.513   2.012   5.681
 8887TIP3   OH226605   7.229   1.180   6.202
 8887TIP3    H126606   7.305   1.123   6.218
 8887TIP3    H226607   7.167   1.124   6.155
 8888TIP3   OH226608   6.628   2.812   1.062
 8888TIP3    H126609   6.674   2.894   1.048
 8888TIP3    H226610   6.698   2.747   1.075
 8889TIP3   OH226611   6.439   4.204   4.999
 8889TIP3    H126612   6.444   4.298   4.981
 8889TIP3    H226613   6.358   4.194   5.048
 8890TIP3   OH226614   3.238   0.447   2.008
 8890TIP3    H126615   3.145   0.442   2.030
 8890TIP3    H226616   3.245   0.402   1.924
 8891TIP3   OH226617   0.383   7.542   3.104
 8891TIP3    H126618   0.454   7.526   3.167
 8891TIP3    H226619   0.411   7.497   3.025
 8892TIP3   OH226620   5.824   0.245   1.385
 8892TIP3    H126621   5.887   0.312   1.357
 8892TIP3    H226622   5.850   0.166   1.336
 8893TIP3   OH226623   4.761   3.109   4.188
 8893TIP3    H126624   4.813   3.166   4.131
 8893TIP3    H226625   4.825   3.061   4.240
 8894TIP3   OH226626   2.520   3.658   1.919
 8894TIP3    H126627   2.578   3.622   1.986
 8894TIP3    H226628   2.541   3.609   1.840
 8895TIP3   OH226629   6.794   2.089   0.454
 8895TIP3    H126630   6.782   2.065   0.362
 8895TIP3    H226631   6.878   2.050   0.478
 8896TIP3   OH226632   1.786   7.570   0.617
 8896TIP3    H126633   1.797   7.488   0.569
 8896TIP3    H226634   1.870   7.615   0.607
 8897TIP3   OH226635   1.501   2.034   5.085
 8897TIP3    H126636   1.556   2.009   5.159
 8897TIP3    H226637   1.525   1.973   5.016
 8898TIP3   OH226638   7.052   7.068   1.782
 8898TIP3    H126639   7.041   7.064   1.687
 8898TIP3    H226640   7.146   7.058   1.796
 8899TIP3   OH226641   6.693  -0.031   6.175
 8899TIP3    H126642   6.621   0.033   6.175
 8899TIP3    H226643   6.772   0.022   6.180
 8900TIP3   OH226644   5.753   1.336   4.172
 8900TIP3    H126645   5.810   1.384   4.113
 8900TIP3    H226646   5.691   1.401   4.205
 8901TIP3   OH226647   6.288   2.239   0.445
 8901TIP3    H126648   6.381   2.250   0.425
 8901TIP3    H226649   6.252   2.196   0.367
 8902TIP3   OH226650   2.589   6.599   4.222
 8902TIP3    H126651   2.654   6.577   4.288
 8902TIP3    H226652   2.573   6.517   4.175
 8903TIP3   OH226653   2.992   4.448   1.025
 8903TIP3    H126654   2.962   4.492   0.945
 8903TIP3    H226655   3.086   4.465   1.027
 8904TIP3   OH226656   1.326   3.936   1.261
 8904TIP3    H126657   1.245   3.956   1.214
 8904TIP3    H226658   1.395   3.970   1.204
 8905TIP3   OH226659   2.588   7.782   3.542
 8905TIP3    H126660   2.522   7.851   3.544
 8905TIP3    H226661   2.671   7.828   3.551
 8906TIP3   OH226662   3.711   6.016   4.716
 8906TIP3    H126663   3.788   6.068   4.696
 8906TIP3    H226664   3.655   6.075   4.767
 8907TIP3   OH226665   4.612   4.194   0.497
 8907TIP3    H126666   4.532   4.145   0.478
 8907TIP3    H226667   4.605   4.273   0.443
 8908TIP3   OH226668   4.246   5.672   1.197
 8908TIP3    H126669   4.215   5.749   1.148
 8908TIP3    H226670   4.341   5.675   1.188
 8909TIP3   OH226671   0.939   6.097   4.875
 8909TIP3    H126672   0.948   6.185   4.912
 8909TIP3    H226673   1.029   6.066   4.865
 8910TIP3   OH226674   0.244   2.580   4.701
 8910TIP3    H126675   0.244   2.621   4.614
 8910TIP3    H226676   0.181   2.630   4.752
 8911TIP3   OH226677   1.801   3.086   3.029
 8911TIP3    H126678   1.825   3.078   2.937
 8911TIP3    H226679   1.827   3.003   3.068
 8912TIP3   OH226680   0.035   4.491   6.714
 8912TIP3    H126681   0.012   4.564   6.656
 8912TIP3    H226682   0.129   4.502   6.730
 8913TIP3   OH226683   4.804   0.475   3.863
 8913TIP3    H126684   4.861   0.549   3.884
 8913TIP3    H226685   4.728   0.515   3.821
 8914TIP3   OH226686   7.328   2.558   6.026
 8914TIP3    H126687   7.349   2.556   5.932
 8914TIP3    H226688   7.404   2.516   6.068
 8915TIP3   OH226689   6.627   2.254   3.321
 8915TIP3    H126690   6.561   2.250   3.390
 8915TIP3    H226691   6.581   2.228   3.241
 8916TIP3   OH226692   1.109   3.567   2.600
 8916TIP3    H126693   1.027   3.518   2.594
 8916TIP3    H226694   1.165   3.513   2.656
 8917TIP3   OH226695   3.509   2.478   0.537
 8917TIP3    H126696   3.500   2.391   0.498
 8917TIP3    H226697   3.426   2.522   0.518
 8918TIP3   OH226698   3.165   7.038   2.653
 8918TIP3    H126699   3.203   7.126   2.658
 8918TIP3    H226700   3.122   7.026   2.738
 8919TIP3   OH226701   7.275   0.372   0.300
 8919TIP3    H126702   7.271   0.419   0.217
 8919TIP3    H226703   7.366   0.343   0.307
 8920TIP3   OH226704   7.193   1.982   0.208
 8920TIP3    H126705   7.136   1.915   0.170
 8920TIP3    H226706   7.168   2.063   0.163
 8921TIP3   OH226707   0.157   7.066   5.350
 8921TIP3    H126708   0.227   7.060   5.285
 8921TIP3    H226709   0.083   7.019   5.311
 8922TIP3   OH226710   4.412   2.857   3.382
 8922TIP3    H126711   4.336   2.911   3.404
 8922TIP3    H226712   4.439   2.888   3.296
 8923TIP3   OH226713   5.633   6.618   0.055
 8923TIP3    H126714   5.647   6.543   0.113
 8923TIP3    H226715   5.676   6.691   0.100
 8924TIP3   OH226716   2.969   2.229   4.937
 8924TIP3    H126717   3.049   2.233   4.884
 8924TIP3    H226718   2.965   2.138   4.966
 8925TIP3   OH226719   7.092   3.551   2.408
 8925TIP3    H126720   7.072   3.624   2.349
 8925TIP3    H226721   7.119   3.480   2.351
 8926TIP3   OH226722   0.018   3.038   2.992
 8926TIP3    H126723   0.035   2.975   3.062
 8926TIP3    H226724   0.059   3.119   3.023
 8927TIP3   OH226725   6.120   2.665   5.231
 8927TIP3    H126726   6.181   2.736   5.250
 8927TIP3    H226727   6.171   2.603   5.179
 8928TIP3   OH226728   7.444   4.009   1.379
 8928TIP3    H126729   7.497   4.031   1.303
 8928TIP3    H226730   7.408   4.092   1.408
 8929TIP3   OH226731   3.527   7.014   1.471
 8929TIP3    H126732   3.487   6.927   1.470
 8929TIP3    H226733   3.589   7.011   1.543
 8930TIP3   OH226734   0.445   0.258   6.263
 8930TIP3    H126735   0.397   0.205   6.199
 8930TIP3    H226736   0.378   0.315   6.301
 8931TIP3   OH226737   7.811   2.724   6.393
 8931TIP3    H126738   7.750   2.796   6.406
 8931TIP3    H226739   7.759   2.654   6.353
 8932TIP3   OH226740   4.651   1.304   6.314
 8932TIP3    H126741   4.712   1.375   6.333
 8932TIP3    H226742   4.565   1.347   6.310
 8933TIP3   OH226743   4.147   4.502   5.277
 8933TIP3    H126744   4.167   4.412   5.305
 8933TIP3    H226745   4.155   4.500   5.182
 8934TIP3   OH226746   5.123   5.978   0.352
 8934TIP3    H126747   5.157   5.951   0.267
 8934TIP3    H226748   5.051   6.038   0.331
 8935TIP3   OH226749   7.639   4.191   5.015
 8935TIP3    H126750   7.677   4.176   5.101
 8935TIP3    H226751   7.553   4.228   5.033
 8936TIP3   OH226752   5.867   3.570   1.461
 8936TIP3    H126753   5.794   3.543   1.406
 8936TIP3    H226754   5.915   3.633   1.407
 8937TIP3   OH226755   7.848   0.197   2.368
 8937TIP3    H126756   7.912   0.262   2.395
 8937TIP3    H226757   7.836   0.141   2.445
 8938TIP3   OH226758   0.296   6.678   5.080
 8938TIP3    H126759   0.240   6.742   5.036
 8938TIP3    H226760   0.238   6.603   5.097
 8939TIP3   OH226761   5.242   4.711   3.543
 8939TIP3    H126762   5.268   4.637   3.598
 8939TIP3    H226763   5.316   4.724   3.484
 8940TIP3   OH226764   0.976   4.302   5.103
 8940TIP3    H126765   0.988   4.359   5.027
 8940TIP3    H226766   1.051   4.322   5.159
 8941TIP3   OH226767   1.091   7.768   0.103
 8941TIP3    H126768   1.168   7.727   0.143
 8941TIP3    H226769   1.044   7.695   0.062
 8942TIP3   OH226770   5.224   1.741   0.722
 8942TIP3    H126771   5.201   1.785   0.640
 8942TIP3    H226772   5.234   1.649   0.697
 8943TIP3   OH226773   7.842   1.667   6.275
 8943TIP3    H126774   7.802   1.599   6.220
 8943TIP3    H226775   7.936   1.655   6.263
 8944TIP3   OH226776   6.333   0.911   6.086
 8944TIP3    H126777   6.311   0.819   6.075
 8944TIP3    H226778   6.267   0.959   6.036
 8945TIP3   OH226779   3.233   1.103   5.269
 8945TIP3    H126780   3.272   1.061   5.192
 8945TIP3    H226781   3.230   1.196   5.247
 8946TIP3   OH226782   1.545   0.834   0.403
 8946TIP3    H126783   1.497   0.823   0.486
 8946TIP3    H226784   1.551   0.928   0.392
 8947TIP3   OH226785   3.238   3.252   4.282
 8947TIP3    H126786   3.197   3.256   4.368
 8947TIP3    H226787   3.270   3.162   4.275
 8948TIP3   OH226788   6.894   4.479   2.170
 8948TIP3    H126789   6.844   4.486   2.088
 8948TIP3    H226790   6.839   4.425   2.227
 8949TIP3   OH226791   1.303   4.810   3.672
 8949TIP3    H126792   1.317   4.733   3.726
 8949TIP3    H226793   1.238   4.783   3.607
 8950TIP3   OH226794   6.222   7.577   4.444
 8950TIP3    H126795   6.214   7.627   4.362
 8950TIP3    H226796   6.276   7.632   4.501
 8951TIP3   OH226797   7.367   5.810   3.445
 8951TIP3    H126798   7.407   5.897   3.445
 8951TIP3    H226799   7.377   5.779   3.534
 8952TIP3   OH226800   1.960   1.754   3.005
 8952TIP3    H126801   1.966   1.707   2.922
 8952TIP3    H226802   2.001   1.839   2.988
 8953TIP3   OH226803   3.003   2.463   2.417
 8953TIP3    H126804   2.931   2.527   2.410
 8953TIP3    H226805   3.058   2.481   2.341
 8954TIP3   OH226806   0.466   1.840   2.204
 8954TIP3    H126807   0.481   1.888   2.286
 8954TIP3    H226808   0.382   1.872   2.173
 8955TIP3   OH226809   1.213   2.402   4.889
 8955TIP3    H126810   1.206   2.495   4.912
 8955TIP3    H226811   1.279   2.367   4.950
 8956TIP3   OH226812   6.228   1.208   4.499
 8956TIP3    H126813   6.317   1.177   4.483
 8956TIP3    H226814   6.239   1.284   4.556
 8957TIP3   OH226815   3.187   0.034   1.703
 8957TIP3    H126816   3.274   0.035   1.664
 8957TIP3    H226817   3.140   0.106   1.659
 8958TIP3   OH226818   6.585   0.247   3.480
 8958TIP3    H126819   6.508   0.300   3.460
 8958TIP3    H226820   6.651   0.276   3.419
 8959TIP3   OH226821   2.401   5.366   4.283
 8959TIP3    H126822   2.341   5.403   4.348
 8959TIP3    H226823   2.453   5.441   4.253
 8960TIP3   OH226824   4.230   4.490   4.203
 8960TIP3    H126825   4.175   4.424   4.246
 8960TIP3    H226826   4.318   4.452   4.206
 8961TIP3   OH226827   1.517   1.595   4.076
 8961TIP3    H126828   1.573   1.612   4.000
 8961TIP3    H226829   1.462   1.522   4.049
 8962TIP3   OH226830   1.430   1.097   2.253
 8962TIP3    H126831   1.515   1.096   2.298
 8962TIP3    H226832   1.384   1.170   2.292
 8963TIP3   OH226833   4.973   7.601   6.751
 8963TIP3    H126834   4.945   7.544   6.680
 8963TIP3    H226835   5.064   7.577   6.766
 8964TIP3   OH226836   7.571   2.103   0.052
 8964TIP3    H126837   7.641   2.164   0.076
 8964TIP3    H226838   7.491   2.143   0.085
 8965TIP3   OH226839   3.438   5.293   2.908
 8965TIP3    H126840   3.373   5.327   2.969
 8965TIP3    H226841   3.388   5.267   2.831
 8966TIP3   OH226842   1.090   6.168   5.460
 8966TIP3    H126843   1.126   6.117   5.532
 8966TIP3    H226844   1.070   6.253   5.498
 8967TIP3   OH226845   5.099   7.349   6.522
 8967TIP3    H126846   5.055   7.422   6.478
 8967TIP3    H226847   5.030   7.285   6.538
 8968TIP3   OH226848   1.798   3.573   6.296
 8968TIP3    H126849   1.828   3.536   6.213
 8968TIP3    H226850   1.761   3.658   6.272
 8969TIP3   OH226851   3.009   4.562   3.184
 8969TIP3    H126852   2.959   4.508   3.244
 8969TIP3    H226853   2.948   4.580   3.111
 8970TIP3   OH226854   4.431   0.349   3.406
 8970TIP3    H126855   4.481   0.403   3.344
 8970TIP3    H226856   4.359   0.405   3.434
 8971TIP3   OH226857   6.786   4.682   4.330
 8971TIP3    H126858   6.881   4.680   4.330
 8971TIP3    H226859   6.762   4.662   4.421
 8972TIP3   OH226860   3.768   3.416   2.666
 8972TIP3    H126861   3.714   3.448   2.738
 8972TIP3    H226862   3.736   3.463   2.589
 8973TIP3   OH226863   0.211   2.873   4.244
 8973TIP3    H126864   0.307   2.872   4.242
 8973TIP3    H226865   0.187   2.963   4.219
 8974TIP3   OH226866   4.628   5.021   3.424
 8974TIP3    H126867   4.586   5.026   3.510
 8974TIP3    H226868   4.577   4.955   3.376
 8975TIP3   OH226869   7.314   6.117   3.269
 8975TIP3    H126870   7.395   6.107   3.319
 8975TIP3    H226871   7.255   6.166   3.327
 8976TIP3   OH226872   6.396   7.286   6.661
 8976TIP3    H126873   6.361   7.279   6.573
 8976TIP3    H226874   6.325   7.255   6.718
 8977TIP3   OH226875   1.511   6.704   2.321
 8977TIP3    H126876   1.472   6.669   2.401
 8977TIP3    H226877   1.452   6.677   2.251
 8978TIP3   OH226878   5.507   4.409   3.943
 8978TIP3    H126879   5.484   4.337   4.002
 8978TIP3    H226880   5.559   4.468   3.997
 8979TIP3   OH226881   0.771   2.564   5.691
 8979TIP3    H126882   0.771   2.580   5.785
 8979TIP3    H226883   0.688   2.518   5.675
 8980TIP3   OH226884   7.214   1.412   2.136
 8980TIP3    H126885   7.283   1.449   2.191
 8980TIP3    H226886   7.184   1.485   2.082
 8981TIP3   OH226887   1.144   3.283   4.953
 8981TIP3    H126888   1.218   3.337   4.927
 8981TIP3    H226889   1.180   3.221   5.017
 8982TIP3   OH226890   7.785   1.416   4.153
 8982TIP3    H126891   7.751   1.350   4.214
 8982TIP3    H226892   7.851   1.464   4.203
 8983TIP3   OH226893   1.349   5.258   4.174
 8983TIP3    H126894   1.328   5.168   4.200
 8983TIP3    H226895   1.424   5.281   4.228
 8984TIP3   OH226896   3.006   1.130   1.103
 8984TIP3    H126897   3.039   1.211   1.064
 8984TIP3    H226898   3.049   1.060   1.053
 8985TIP3   OH226899   5.650   7.405   3.399
 8985TIP3    H126900   5.599   7.355   3.336
 8985TIP3    H226901   5.707   7.461   3.346
 8986TIP3   OH226902   2.572   4.107   4.216
 8986TIP3    H126903   2.633   4.125   4.144
 8986TIP3    H226904   2.542   4.193   4.244
 8987TIP3   OH226905   0.023   3.387   3.541
 8987TIP3    H126906  -0.027   3.464   3.514
 8987TIP3    H226907   0.075   3.364   3.464
 8988TIP3   OH226908   0.089   3.833   0.784
 8988TIP3    H126909   0.028   3.839   0.857
 8988TIP3    H226910   0.079   3.744   0.751
 8989TIP3   OH226911   2.062   0.437   0.278
 8989TIP3    H126912   2.097   0.350   0.261
 8989TIP3    H226913   2.102   0.463   0.361
 8990TIP3   OH226914   6.928   1.551   0.322
 8990TIP3    H126915   6.981   1.471   0.321
 8990TIP3    H226916   6.844   1.523   0.360
 8991TIP3   OH226917   7.201   5.851   3.792
 8991TIP3    H126918   7.229   5.806   3.872
 8991TIP3    H226919   7.282   5.868   3.745
 8992TIP3   OH226920   4.493   5.795   5.483
 8992TIP3    H126921   4.526   5.761   5.399
 8992TIP3    H226922   4.409   5.751   5.495
 8993TIP3   OH226923   5.375   2.057   3.400
 8993TIP3    H126924   5.451   2.028   3.450
 8993TIP3    H226925   5.410   2.122   3.339
 8994TIP3   OH226926   2.228   2.100   3.477
 8994TIP3    H126927   2.132   2.095   3.484
 8994TIP3    H226928   2.246   2.076   3.386
 8995TIP3   OH226929   1.644   5.927   0.269
 8995TIP3    H126930   1.725   5.877   0.259
 8995TIP3    H226931   1.672   6.011   0.305
 8996TIP3   OH226932   6.231   0.057   3.541
 8996TIP3    H126933   6.314   0.096   3.570
 8996TIP3    H226934   6.252  -0.035   3.525
 8997TIP3   OH226935   6.291   3.115   2.526
 8997TIP3    H126936   6.368   3.172   2.519
 8997TIP3    H226937   6.264   3.101   2.435
 8998TIP3   OH226938   4.117   6.161   3.746
 8998TIP3    H126939   4.182   6.091   3.740
 8998TIP3    H226940   4.040   6.119   3.784
 8999TIP3   OH226941   2.158   4.668   1.957
 8999TIP3    H126942   2.185   4.760   1.959
 8999TIP3    H226943   2.223   4.625   1.901
 9000TIP3   OH226944   6.345   1.386   1.507
 9000TIP3    H126945   6.297   1.363   1.587
 9000TIP3    H226946   6.343   1.307   1.453
 9001TIP3   OH226947   1.473   5.648   4.221
 9001TIP3    H126948   1.526   5.666   4.143
 9001TIP3    H226949   1.499   5.559   4.247
 9002TIP3   OH226950   4.278   5.335   3.435
 9002TIP3    H126951   4.371   5.314   3.439
 9002TIP3    H226952   4.273   5.429   3.451
 9003TIP3   OH226953   2.299   7.039   5.192
 9003TIP3    H126954   2.366   6.971   5.195
 9003TIP3    H226955   2.217   6.992   5.180
 9004TIP3   OH226956   2.231   4.638   3.231
 9004TIP3    H126957   2.207   4.581   3.158
 9004TIP3    H226958   2.153   4.692   3.246
 9005TIP3   OH226959   6.576   4.698   1.702
 9005TIP3    H126960   6.596   4.623   1.757
 9005TIP3    H226961   6.482   4.714   1.716
 9006TIP3   OH226962   4.090   4.553   0.772
 9006TIP3    H126963   4.067   4.573   0.862
 9006TIP3    H226964   4.182   4.528   0.776
 9007TIP3   OH226965   7.750   5.531   1.188
 9007TIP3    H126966   7.811   5.470   1.230
 9007TIP3    H226967   7.760   5.613   1.236
 9008TIP3   OH226968   2.916   5.639   2.848
 9008TIP3    H126969   2.835   5.680   2.878
 9008TIP3    H226970   2.957   5.604   2.927
 9009TIP3   OH226971   7.019   4.435   1.328
 9009TIP3    H126972   6.992   4.462   1.416
 9009TIP3    H226973   7.098   4.383   1.342
 9010TIP3   OH226974   5.795   2.180   1.484
 9010TIP3    H126975   5.708   2.143   1.478
 9010TIP3    H226976   5.784   2.261   1.535
 9011TIP3   OH226977   2.987   3.102   5.406
 9011TIP3    H126978   3.037   3.021   5.410
 9011TIP3    H226979   2.914   3.082   5.348
 9012TIP3   OH226980   6.714   3.574   1.251
 9012TIP3    H126981   6.773   3.585   1.325
 9012TIP3    H226982   6.652   3.646   1.258
 9013TIP3   OH226983   1.970   7.372   5.594
 9013TIP3    H126984   1.917   7.305   5.637
 9013TIP3    H226985   2.018   7.324   5.526
 9014TIP3   OH226986   4.757   6.765   3.586
 9014TIP3    H126987   4.702   6.751   3.663
 9014TIP3    H226988   4.759   6.680   3.542
 9015TIP3   OH226989   1.009   4.145   2.805
 9015TIP3    H126990   0.965   4.062   2.786
 9015TIP3    H226991   1.073   4.155   2.734
 9016TIP3   OH226992   5.527   1.251   1.028
 9016TIP3    H126993   5.439   1.228   0.999
 9016TIP3    H226994   5.560   1.309   0.959
 9017TIP3   OH226995   5.995   1.906   5.444
 9017TIP3    H126996   5.911   1.909   5.491
 9017TIP3    H226997   6.006   1.994   5.408
 9018TIP3   OH226998   8.183   4.549   2.495
 9018TIP3    H126999   8.257   4.593   2.536
 9018TIP3    H227000   8.121   4.534   2.567
 9019TIP3   OH227001   4.712   3.030   5.334
 9019TIP3    H127002   4.804   3.055   5.348
 9019TIP3    H227003   4.705   3.019   5.239
 9020TIP3   OH227004   4.211   2.102   5.059
 9020TIP3    H127005   4.153   2.177   5.064
 9020TIP3    H227006   4.171   2.044   4.995
 9021TIP3   OH227007   3.610   4.714   1.543
 9021TIP3    H127008   3.643   4.670   1.464
 9021TIP3    H227009   3.679   4.776   1.567
 9022TIP3   OH227010   1.790   6.603   4.198
 9022TIP3    H127011   1.807   6.516   4.234
 9022TIP3    H227012   1.696   6.604   4.179
 9023TIP3   OH227013   0.075   7.326   5.484
 9023TIP3    H127014   0.148   7.273   5.452
 9023TIP3    H227015   0.001   7.265   5.487
 9024TIP3   OH227016   3.083   2.244   2.551
 9024TIP3    H127017   3.074   2.325   2.500
 9024TIP3    H227018   3.143   2.267   2.622
 9025TIP3   OH227019   6.242   5.470   4.352
 9025TIP3    H127020   6.177   5.517   4.404
 9025TIP3    H227021   6.197   5.451   4.269
 9026TIP3   OH227022   3.072   4.884   1.541
 9026TIP3    H127023   3.066   4.928   1.456
 9026TIP3    H227024   3.163   4.858   1.548
 9027TIP3   OH227025   6.379   5.814   2.693
 9027TIP3    H127026   6.286   5.791   2.694
 9027TIP3    H227027   6.410   5.798   2.782
 9028TIP3   OH227028   0.838   3.535   4.380
 9028TIP3    H127029   0.782   3.613   4.376
 9028TIP3    H227030   0.778   3.464   4.403
 9029TIP3   OH227031   7.207   1.914   5.517
 9029TIP3    H127032   7.130   1.860   5.534
 9029TIP3    H227033   7.238   1.886   5.431
 9030TIP3   OH227034   1.698   2.413   1.183
 9030TIP3    H127035   1.677   2.334   1.233
 9030TIP3    H227036   1.727   2.381   1.098
 9031TIP3   OH227037   6.148   5.371   2.949
 9031TIP3    H127038   6.169   5.386   3.041
 9031TIP3    H227039   6.075   5.309   2.951
 9032TIP3   OH227040   7.528   1.857   1.095
 9032TIP3    H127041   7.496   1.846   1.184
 9032TIP3    H227042   7.619   1.829   1.097
 9033TIP3   OH227043   0.281   4.122   4.460
 9033TIP3    H127044   0.293   4.039   4.506
 9033TIP3    H227045   0.194   4.115   4.422
 9034TIP3   OH227046   5.652   3.131   2.225
 9034TIP3    H127047   5.615   3.042   2.229
 9034TIP3    H227048   5.715   3.133   2.297
 9035TIP3   OH227049   2.483   5.025   2.180
 9035TIP3    H127050   2.420   5.034   2.251
 9035TIP3    H227051   2.524   5.111   2.173
 9036TIP3   OH227052   0.648   5.565   4.188
 9036TIP3    H127053   0.620   5.473   4.187
 9036TIP3    H227054   0.736   5.563   4.226
 9037TIP3   OH227055   0.917   3.888   5.704
 9037TIP3    H127056   0.853   3.863   5.771
 9037TIP3    H227057   0.903   3.982   5.693
 9038TIP3   OH227058   0.975   0.476   2.178
 9038TIP3    H127059   0.936   0.558   2.209
 9038TIP3    H227060   1.020   0.440   2.255
 9039TIP3   OH227061   0.889   6.666   3.832
 9039TIP3    H127062   0.918   6.745   3.787
 9039TIP3    H227063   0.954   6.600   3.809
 9040TIP3   OH227064   0.480   0.935   2.848
 9040TIP3    H127065   0.489   1.029   2.862
 9040TIP3    H227066   0.385   0.921   2.843
 9041TIP3   OH227067   2.253   5.727   0.371
 9041TIP3    H127068   2.224   5.772   0.291
 9041TIP3    H227069   2.299   5.650   0.338
 9042TIP3   OH227070   1.156   3.499   0.394
 9042TIP3    H127071   1.119   3.529   0.477
 9042TIP3    H227072   1.196   3.415   0.415
 9043TIP3   OH227073   7.462   1.218   5.952
 9043TIP3    H127074   7.501   1.277   6.016
 9043TIP3    H227075   7.374   1.253   5.938
 9044TIP3   OH227076   6.861   2.995   2.458
 9044TIP3    H127077   6.936   2.953   2.499
 9044TIP3    H227078   6.875   3.088   2.472
 9045TIP3   OH227079   3.202   5.711   2.834
 9045TIP3    H127080   3.254   5.781   2.795
 9045TIP3    H227081   3.132   5.695   2.772
 9046TIP3   OH227082   6.222   1.996   5.729
 9046TIP3    H127083   6.173   2.067   5.771
 9046TIP3    H227084   6.308   1.999   5.770
 9047TIP3   OH227085   6.541   4.763   0.149
 9047TIP3    H127086   6.466   4.786   0.204
 9047TIP3    H227087   6.549   4.668   0.158
 9048TIP3   OH227088   6.724   2.294   6.827
 9048TIP3    H127089   6.810   2.259   6.801
 9048TIP3    H227090   6.695   2.344   6.751
 9049TIP3   OH227091   1.716   5.990  -0.005
 9049TIP3    H127092   1.673   5.947   0.069
 9049TIP3    H227093   1.689   5.939  -0.081
 9050TIP3   OH227094   0.766   3.422   6.149
 9050TIP3    H127095   0.820   3.492   6.114
 9050TIP3    H227096   0.679   3.438   6.113
 9051TIP3   OH227097   8.002   1.413   2.647
 9051TIP3    H127098   7.925   1.379   2.599
 9051TIP3    H227099   8.049   1.334   2.674
 9052TIP3   OH227100   5.239   3.655   5.459
 9052TIP3    H127101   5.242   3.709   5.380
 9052TIP3    H227102   5.271   3.713   5.528
 9053TIP3   OH227103   1.881   6.996   4.892
 9053TIP3    H127104   1.932   7.066   4.852
 9053TIP3    H227105   1.792   7.031   4.899
 9054TIP3   OH227106   7.773   5.134   6.749
 9054TIP3    H127107   7.862   5.102   6.765
 9054TIP3    H227108   7.762   5.125   6.654
 9055TIP3   OH227109   1.078   2.674   6.782
 9055TIP3    H127110   1.016   2.642   6.716
 9055TIP3    H227111   1.143   2.604   6.790
 9056TIP3   OH227112   2.166   1.433   2.441
 9056TIP3    H127113   2.099   1.447   2.374
 9056TIP3    H227114   2.185   1.339   2.436
 9057TIP3   OH227115   0.633   5.635   6.485
 9057TIP3    H127116   0.585   5.678   6.415
 9057TIP3    H227117   0.593   5.667   6.566
 9058TIP3   OH227118   3.564   3.196   0.747
 9058TIP3    H127119   3.564   3.124   0.810
 9058TIP3    H227120   3.515   3.266   0.791
 9059TIP3   OH227121   6.372   4.437   2.657
 9059TIP3    H127122   6.460   4.455   2.691
 9059TIP3    H227123   6.350   4.352   2.692
 9060TIP3   OH227124   1.296   3.533   4.908
 9060TIP3    H127125   1.349   3.567   4.836
 9060TIP3    H227126   1.219   3.590   4.909
 9061TIP3   OH227127   3.960   1.503   0.914
 9061TIP3    H127128   3.892   1.556   0.872
 9061TIP3    H227129   3.994   1.559   0.984
 9062TIP3   OH227130   2.894   4.893   0.408
 9062TIP3    H127131   2.838   4.871   0.333
 9062TIP3    H227132   2.833   4.919   0.477
 9063TIP3   OH227133   6.610   1.959   2.075
 9063TIP3    H127134   6.578   2.007   1.998
 9063TIP3    H227135   6.634   2.027   2.137
 9064TIP3   OH227136   4.187   5.574   2.875
 9064TIP3    H127137   4.105   5.624   2.875
 9064TIP3    H227138   4.168   5.498   2.931
 9065TIP3   OH227139   0.612   2.020   1.657
 9065TIP3    H127140   0.696   2.057   1.685
 9065TIP3    H227141   0.559   2.018   1.737
 9066TIP3   OH227142   0.195   4.520   5.795
 9066TIP3    H127143   0.231   4.596   5.750
 9066TIP3    H227144   0.170   4.460   5.724
 9067TIP3   OH227145   7.383   0.253   2.571
 9067TIP3    H127146   7.330   0.319   2.616
 9067TIP3    H227147   7.459   0.301   2.539
 9068TIP3   OH227148   4.727   4.875   5.939
 9068TIP3    H127149   4.788   4.812   5.977
 9068TIP3    H227150   4.778   4.922   5.874
 9069TIP3   OH227151   7.657   7.481   0.617
 9069TIP3    H127152   7.581   7.424   0.624
 9069TIP3    H227153   7.673   7.489   0.523
 9070TIP3   OH227154   5.549   2.371   2.541
 9070TIP3    H127155   5.533   2.382   2.448
 9070TIP3    H227156   5.642   2.392   2.552
 9071TIP3   OH227157   5.544   0.382   4.842
 9071TIP3    H127158   5.627   0.358   4.800
 9071TIP3    H227159   5.482   0.317   4.810
 9072TIP3   OH227160   0.991   5.883   0.133
 9072TIP3    H127161   0.948   5.932   0.063
 9072TIP3    H227162   1.085   5.896   0.117
 9073TIP3   OH227163   3.321   4.910   3.083
 9073TIP3    H127164   3.278   4.876   3.162
 9073TIP3    H227165   3.400   4.857   3.074
 9074TIP3   OH227166   6.992   1.794   0.139
 9074TIP3    H127167   6.978   1.718   0.195
 9074TIP3    H227168   6.937   1.778   0.063
 9075TIP3   OH227169   1.185   1.450   5.994
 9075TIP3    H127170   1.278   1.434   5.980
 9075TIP3    H227171   1.145   1.363   5.988
 9076TIP3   OH227172   0.997   6.790   6.067
 9076TIP3    H127173   1.043   6.861   6.112
 9076TIP3    H227174   0.922   6.833   6.025
 9077TIP3   OH227175   5.754   6.792   5.331
 9077TIP3    H127176   5.713   6.733   5.268
 9077TIP3    H227177   5.824   6.835   5.282
 9078TIP3   OH227178   4.032   4.765   4.622
 9078TIP3    H127179   4.086   4.808   4.556
 9078TIP3    H227180   4.083   4.774   4.703
 9079TIP3   OH227181   0.101   5.604   1.395
 9079TIP3    H127182   0.050   5.676   1.432
 9079TIP3    H227183   0.067   5.526   1.440
 9080TIP3   OH227184   6.038   6.700   0.647
 9080TIP3    H127185   6.093   6.703   0.569
 9080TIP3    H227186   6.096   6.725   0.719
 9081TIP3   OH227187   5.511   7.524   0.785
 9081TIP3    H127188   5.546   7.582   0.853
 9081TIP3    H227189   5.580   7.520   0.718
 9082TIP3   OH227190   6.870   4.132   4.937
 9082TIP3    H127191   6.816   4.110   5.013
 9082TIP3    H227192   6.841   4.071   4.869
 9083TIP3   OH227193   6.095   2.770   3.077
 9083TIP3    H127194   6.161   2.833   3.106
 9083TIP3    H227195   6.143   2.689   3.063
 9084TIP3   OH227196   4.758   0.731   1.296
 9084TIP3    H127197   4.756   0.783   1.377
 9084TIP3    H227198   4.674   0.750   1.254
 9085TIP3   OH227199   1.939   0.781   3.147
 9085TIP3    H127200   1.944   0.709   3.211
 9085TIP3    H227201   1.958   0.859   3.199
 9086TIP3   OH227202   4.075   7.426   5.177
 9086TIP3    H127203   4.064   7.335   5.147
 9086TIP3    H227204   4.019   7.433   5.253
 9087TIP3   OH227205   3.721   1.342   4.901
 9087TIP3    H127206   3.683   1.294   4.827
 9087TIP3    H227207   3.660   1.415   4.916
 9088TIP3   OH227208   4.941   7.463   2.503
 9088TIP3    H127209   4.950   7.367   2.506
 9088TIP3    H227210   4.927   7.483   2.411
 9089TIP3   OH227211   6.637   4.568   6.365
 9089TIP3    H127212   6.579   4.497   6.391
 9089TIP3    H227213   6.634   4.566   6.269
 9090TIP3   OH227214   3.284   2.597   1.748
 9090TIP3    H127215   3.353   2.605   1.813
 9090TIP3    H227216   3.293   2.508   1.713
 9091TIP3   OH227217   2.274   3.861   1.504
 9091TIP3    H127218   2.283   3.932   1.439
 9091TIP3    H227219   2.333   3.886   1.574
 9092TIP3   OH227220   3.267   1.628   6.262
 9092TIP3    H127221   3.251   1.658   6.352
 9092TIP3    H227222   3.229   1.696   6.207
 9093TIP3   OH227223   3.456   4.091   4.245
 9093TIP3    H127224   3.484   4.143   4.170
 9093TIP3    H227225   3.423   4.154   4.309
 9094TIP3   OH227226   0.126   1.260   0.463
 9094TIP3    H127227   0.055   1.207   0.425
 9094TIP3    H227228   0.137   1.225   0.552
 9095TIP3   OH227229   1.739   3.243   1.539
 9095TIP3    H127230   1.817   3.215   1.492
 9095TIP3    H227231   1.721   3.171   1.600
 9096TIP3   OH227232   1.555   7.227   5.158
 9096TIP3    H127233   1.534   7.134   5.166
 9096TIP3    H227234   1.591   7.251   5.243
 9097TIP3   OH227235   7.734   5.203   3.363
 9097TIP3    H127236   7.734   5.197   3.458
 9097TIP3    H227237   7.641   5.214   3.340
 9098TIP3   OH227238   5.616   0.648   4.853
 9098TIP3    H127239   5.638   0.679   4.765
 9098TIP3    H227240   5.600   0.554   4.843
 9099TIP3   OH227241   6.716   1.594   2.424
 9099TIP3    H127242   6.777   1.554   2.361
 9099TIP3    H227243   6.670   1.661   2.373
 9100TIP3   OH227244   5.791   6.052   6.432
 9100TIP3    H127245   5.765   6.142   6.451
 9100TIP3    H227246   5.711   6.001   6.441
 9101TIP3   OH227247   2.878   4.400   6.719
 9101TIP3    H127248   2.959   4.450   6.729
 9101TIP3    H227249   2.903   4.324   6.667
 9102TIP3   OH227250   5.406   0.412   2.367
 9102TIP3    H127251   5.354   0.373   2.437
 9102TIP3    H227252   5.457   0.481   2.411
 9103TIP3   OH227253   5.774   3.704   3.651
 9103TIP3    H127254   5.839   3.661   3.595
 9103TIP3    H227255   5.808   3.792   3.665
 9104TIP3   OH227256   6.902   1.251   6.063
 9104TIP3    H127257   6.949   1.171   6.039
 9104TIP3    H227258   6.812   1.236   6.037
 9105TIP3   OH227259   3.607   2.905   2.239
 9105TIP3    H127260   3.673   2.967   2.207
 9105TIP3    H227261   3.656   2.823   2.252
 9106TIP3   OH227262   6.965   1.007   2.060
 9106TIP3    H127263   7.036   1.066   2.085
 9106TIP3    H227264   6.990   0.923   2.098
 9107TIP3   OH227265   6.669   7.257   0.244
 9107TIP3    H127266   6.715   7.184   0.285
 9107TIP3    H227267   6.687   7.247   0.151
 9108TIP3   OH227268   7.991   3.446   2.129
 9108TIP3    H127269   7.954   3.484   2.049
 9108TIP3    H227270   7.923   3.459   2.195
 9109TIP3   OH227271   7.500   2.702   2.179
 9109TIP3    H127272   7.462   2.781   2.218
 9109TIP3    H227273   7.457   2.630   2.224
 9110TIP3   OH227274   1.124   2.381   0.796
 9110TIP3    H127275   1.207   2.387   0.748
 9110TIP3    H227276   1.082   2.303   0.760
 9111TIP3   OH227277   3.407   5.978   0.389
 9111TIP3    H127278   3.314   5.976   0.408
 9111TIP3    H227279   3.417   5.925   0.310
 9112TIP3   OH227280   6.521   1.813   2.319
 9112TIP3    H127281   6.443   1.855   2.353
 9112TIP3    H227282   6.549   1.869   2.247
 9113TIP3   OH227283   7.881   1.900   3.942
 9113TIP3    H127284   7.958   1.879   3.889
 9113TIP3    H227285   7.918   1.927   4.027
 9114TIP3   OH227286   5.006   7.567   6.344
 9114TIP3    H127287   5.081   7.610   6.303
 9114TIP3    H227288   4.936   7.632   6.342
 9115TIP3   OH227289   2.177   5.558   2.764
 9115TIP3    H127290   2.140   5.478   2.802
 9115TIP3    H227291   2.268   5.535   2.745
 9116TIP3   OH227292   4.601   5.146   6.572
 9116TIP3    H127293   4.530   5.157   6.636
 9116TIP3    H227294   4.622   5.236   6.545
 9117TIP3   OH227295   0.407   4.081   0.193
 9117TIP3    H127296   0.356   4.142   0.247
 9117TIP3    H227297   0.384   4.104   0.103
 9118TIP3   OH227298   0.951   2.019   4.226
 9118TIP3    H127299   0.940   2.032   4.321
 9118TIP3    H227300   0.979   1.928   4.217
 9119TIP3   OH227301   7.766   3.953   0.551
 9119TIP3    H127302   7.768   4.035   0.600
 9119TIP3    H227303   7.858   3.929   0.541
 9120TIP3   OH227304   3.328   3.454   3.428
 9120TIP3    H127305   3.395   3.514   3.461
 9120TIP3    H227306   3.246   3.504   3.434
 9121TIP3   OH227307   2.603   5.653   1.033
 9121TIP3    H127308   2.653   5.600   1.094
 9121TIP3    H227309   2.575   5.729   1.084
 9122TIP3   OH227310   4.034   1.754   5.168
 9122TIP3    H127311   4.106   1.726   5.111
 9122TIP3    H227312   4.003   1.836   5.130
 9123TIP3   OH227313   5.884   3.091   2.372
 9123TIP3    H127314   5.879   3.026   2.441
 9123TIP3    H227315   5.943   3.052   2.307
 9124TIP3   OH227316   5.339   0.426   6.506
 9124TIP3    H127317   5.308   0.510   6.472
 9124TIP3    H227318   5.426   0.444   6.540
 9125TIP3   OH227319   2.618   1.896   5.386
 9125TIP3    H127320   2.633   1.979   5.430
 9125TIP3    H227321   2.670   1.902   5.305
 9126TIP3   OH227322   3.143   5.509   4.573
 9126TIP3    H127323   3.152   5.602   4.594
 9126TIP3    H227324   3.148   5.466   4.658
 9127TIP3   OH227325   7.512   0.676   5.489
 9127TIP3    H127326   7.471   0.759   5.514
 9127TIP3    H227327   7.442   0.627   5.446
 9128TIP3   OH227328   1.221   0.249   2.992
 9128TIP3    H127329   1.251   0.159   2.977
 9128TIP3    H227330   1.302   0.300   2.997
 9129TIP3   OH227331   0.868   1.796   5.376
 9129TIP3    H127332   0.933   1.863   5.398
 9129TIP3    H227333   0.785   1.842   5.373
 9130TIP3   OH227334   4.369   4.982   1.275
 9130TIP3    H127335   4.442   5.021   1.322
 9130TIP3    H227336   4.358   4.896   1.315
 9131TIP3   OH227337   3.479   2.787   6.436
 9131TIP3    H127338   3.422   2.861   6.414
 9131TIP3    H227339   3.528   2.769   6.356
 9132TIP3   OH227340   4.929   1.717   2.130
 9132TIP3    H127341   4.841   1.716   2.167
 9132TIP3    H227342   4.949   1.625   2.114
 9133TIP3   OH227343   8.192   4.530   4.914
 9133TIP3    H127344   8.112   4.515   4.863
 9133TIP3    H227345   8.166   4.516   5.005
 9134TIP3   OH227346   7.163   3.349   3.426
 9134TIP3    H127347   7.113   3.401   3.488
 9134TIP3    H227348   7.206   3.413   3.369
 9135TIP3   OH227349   4.024   4.500   4.621
 9135TIP3    H127350   4.001   4.591   4.605
 9135TIP3    H227351   4.109   4.504   4.665
 9136TIP3   OH227352   0.241   7.226   2.910
 9136TIP3    H127353   0.260   7.180   2.992
 9136TIP3    H227354   0.308   7.196   2.850
 9137TIP3   OH227355   6.481   1.088   2.078
 9137TIP3    H127356   6.503   1.173   2.038
 9137TIP3    H227357   6.547   1.028   2.044
 9138TIP3   OH227358   1.697   2.677   3.218
 9138TIP3    H127359   1.684   2.684   3.123
 9138TIP3    H227360   1.613   2.647   3.251
 9139TIP3   OH227361   8.290   3.683   3.428
 9139TIP3    H127362   8.379   3.662   3.400
 9139TIP3    H227363   8.250   3.727   3.353
 9140TIP3   OH227364   2.350   1.659   3.160
 9140TIP3    H127365   2.392   1.657   3.075
 9140TIP3    H227366   2.296   1.580   3.164
 9141TIP3   OH227367   5.693   3.816   1.581
 9141TIP3    H127368   5.653   3.741   1.626
 9141TIP3    H227369   5.710   3.785   1.493
 9142TIP3   OH227370   4.604   2.828   4.351
 9142TIP3    H127371   4.689   2.869   4.334
 9142TIP3    H227372   4.623   2.758   4.414
 9143TIP3   OH227373   6.681   4.417   1.251
 9143TIP3    H127374   6.747   4.450   1.191
 9143TIP3    H227375   6.697   4.465   1.333
 9144TIP3   OH227376   3.251   2.720   4.326
 9144TIP3    H127377   3.267   2.731   4.232
 9144TIP3    H227378   3.312   2.651   4.353
 9145TIP3   OH227379   7.150   4.881   6.709
 9145TIP3    H127380   7.225   4.866   6.651
 9145TIP3    H227381   7.074   4.877   6.651
 9146TIP3   OH227382   5.697   6.873   2.791
 9146TIP3    H127383   5.662   6.787   2.770
 9146TIP3    H227384   5.792   6.859   2.797
 9147TIP3   OH227385   5.639   3.643   0.582
 9147TIP3    H127386   5.627   3.590   0.660
 9147TIP3    H227387   5.570   3.615   0.522
 9148TIP3   OH227388   5.379   4.944   0.664
 9148TIP3    H127389   5.384   5.032   0.700
 9148TIP3    H227390   5.454   4.938   0.604
 9149TIP3   OH227391   0.393   3.138   1.834
 9149TIP3    H127392   0.363   3.171   1.749
 9149TIP3    H227393   0.414   3.046   1.818
 9150TIP3   OH227394   3.130   6.083   3.532
 9150TIP3    H127395   3.143   6.079   3.437
 9150TIP3    H227396   3.051   6.031   3.548
 9151TIP3   OH227397   6.941   4.928   4.488
 9151TIP3    H127398   6.953   4.853   4.546
 9151TIP3    H227399   6.852   4.958   4.504
 9152TIP3   OH227400   6.776   3.127   0.031
 9152TIP3    H127401   6.743   3.048   0.073
 9152TIP3    H227402   6.867   3.107   0.009
 9153TIP3   OH227403   5.049   1.211   6.061
 9153TIP3    H127404   5.078   1.302   6.057
 9153TIP3    H227405   5.065   1.176   5.973
 9154TIP3   OH227406   2.307   7.443   4.139
 9154TIP3    H127407   2.284   7.400   4.056
 9154TIP3    H227408   2.376   7.505   4.116
 9155TIP3   OH227409   6.386   7.487   4.835
 9155TIP3    H127410   6.439   7.565   4.818
 9155TIP3    H227411   6.418   7.454   4.919
 9156TIP3   OH227412   6.942   7.189   4.035
 9156TIP3    H127413   6.859   7.237   4.035
 9156TIP3    H227414   6.982   7.208   4.120
 9157TIP3   OH227415   0.093   4.993   2.536
 9157TIP3    H127416   0.181   5.026   2.515
 9157TIP3    H227417   0.058   4.966   2.451
 9158TIP3   OH227418   2.254   0.466   2.181
 9158TIP3    H127419   2.165   0.502   2.182
 9158TIP3    H227420   2.260   0.416   2.263
 9159TIP3   OH227421   1.572   7.585   1.381
 9159TIP3    H127422   1.615   7.547   1.458
 9159TIP3    H227423   1.506   7.521   1.356
 9160TIP3   OH227424   1.230   7.602   5.094
 9160TIP3    H127425   1.252   7.597   5.187
 9160TIP3    H227426   1.261   7.688   5.067
 9161TIP3   OH227427   4.111   0.626   4.654
 9161TIP3    H127428   4.142   0.537   4.672
 9161TIP3    H227429   4.171   0.660   4.588
 9162TIP3   OH227430   4.651   5.927   5.691
 9162TIP3    H127431   4.625   5.857   5.631
 9162TIP3    H227432   4.666   6.002   5.635
 9163TIP3   OH227433   8.055   4.012   5.008
 9163TIP3    H127434   8.035   4.105   4.994
 9163TIP3    H227435   8.077   4.006   5.101
 9164TIP3   OH227436   7.403   6.422   0.240
 9164TIP3    H127437   7.461   6.352   0.272
 9164TIP3    H227438   7.461   6.493   0.215
 9165TIP3   OH227439   0.753   6.588   4.891
 9165TIP3    H127440   0.686   6.589   4.960
 9165TIP3    H227441   0.703   6.577   4.810
 9166TIP3   OH227442   6.334   6.175   1.877
 9166TIP3    H127443   6.425   6.201   1.860
 9166TIP3    H227444   6.288   6.258   1.891
 9167TIP3   OH227445   0.454   1.156   6.437
 9167TIP3    H127446   0.397   1.084   6.410
 9167TIP3    H227447   0.534   1.145   6.386
 9168TIP3   OH227448   0.263   5.495   0.537
 9168TIP3    H127449   0.342   5.490   0.591
 9168TIP3    H227450   0.296   5.486   0.447
 9169TIP3   OH227451   1.455   5.941   3.017
 9169TIP3    H127452   1.449   5.854   3.057
 9169TIP3    H227453   1.486   5.998   3.086
 9170TIP3   OH227454   3.101   6.990   3.430
 9170TIP3    H127455   3.153   6.923   3.387
 9170TIP3    H227456   3.079   7.052   3.360
 9171TIP3   OH227457   8.258   4.737   0.315
 9171TIP3    H127458   8.351   4.752   0.294
 9171TIP3    H227459   8.217   4.724   0.229
 9172TIP3   OH227460   3.867   6.995   0.582
 9172TIP3    H127461   3.925   6.987   0.507
 9172TIP3    H227462   3.920   7.040   0.648
 9173TIP3   OH227463   4.455   7.811   1.119
 9173TIP3    H127464   4.415   7.755   1.186
 9173TIP3    H227465   4.386   7.872   1.095
 9174TIP3   OH227466   7.254   3.408   3.807
 9174TIP3    H127467   7.327   3.350   3.786
 9174TIP3    H227468   7.243   3.462   3.729
 9175TIP3   OH227469   3.643   6.831   1.723
 9175TIP3    H127470   3.717   6.879   1.762
 9175TIP3    H227471   3.579   6.825   1.794
 9176TIP3   OH227472   0.125   1.447   1.973
 9176TIP3    H127473   0.059   1.442   2.042
 9176TIP3    H227474   0.136   1.541   1.957
 9177TIP3   OH227475   6.912   4.238   6.341
 9177TIP3    H127476   6.999   4.218   6.377
 9177TIP3    H227477   6.868   4.287   6.410
 9178TIP3   OH227478   1.328   2.099   2.201
 9178TIP3    H127479   1.265   2.052   2.256
 9178TIP3    H227480   1.287   2.185   2.187
 9179TIP3   OH227481   4.751   0.901   6.530
 9179TIP3    H127482   4.771   0.839   6.600
 9179TIP3    H227483   4.685   0.960   6.568
 9180TIP3   OH227484   1.626   1.982   0.453
 9180TIP3    H127485   1.712   2.024   0.461
 9180TIP3    H227486   1.577   2.040   0.395
 9181TIP3   OH227487   7.983   7.709   6.316
 9181TIP3    H127488   7.927   7.756   6.255
 9181TIP3    H227489   7.968   7.617   6.296
 9182TIP3   OH227490   7.999   7.453   0.304
 9182TIP3    H127491   8.074   7.502   0.338
 9182TIP3    H227492   8.021   7.361   0.319
 9183TIP3   OH227493   5.184   3.686   3.186
 9183TIP3    H127494   5.250   3.747   3.154
 9183TIP3    H227495   5.185   3.615   3.122
 9184TIP3   OH227496   5.187   2.266   2.712
 9184TIP3    H127497   5.172   2.356   2.685
 9184TIP3    H227498   5.169   2.265   2.806
 9185TIP3   OH227499   3.808   4.994   4.001
 9185TIP3    H127500   3.778   5.067   4.055
 9185TIP3    H227501   3.827   4.924   4.064
 9186TIP3   OH227502   5.328   3.371   5.349
 9186TIP3    H127503   5.351   3.299   5.407
 9186TIP3    H227504   5.301   3.442   5.408
 9187TIP3   OH227505   5.485   4.351   0.284
 9187TIP3    H127506   5.507   4.385   0.371
 9187TIP3    H227507   5.483   4.429   0.228
 9188TIP3   OH227508   8.030   1.873   4.698
 9188TIP3    H127509   8.038   1.957   4.741
 9188TIP3    H227510   8.120   1.845   4.681
 9189TIP3   OH227511   0.618   4.303   4.709
 9189TIP3    H127512   0.619   4.207   4.711
 9189TIP3    H227513   0.620   4.329   4.801
 9190TIP3   OH227514   2.146   3.082   2.739
 9190TIP3    H127515   2.060   3.044   2.757
 9190TIP3    H227516   2.150   3.159   2.796
 9191TIP3   OH227517   4.066   2.226   2.456
 9191TIP3    H127518   4.047   2.319   2.469
 9191TIP3    H227519   4.120   2.202   2.531
 9192TIP3   OH227520   7.576   1.457   6.079
 9192TIP3    H127521   7.498   1.491   6.035
 9192TIP3    H227522   7.646   1.466   6.014
 9193TIP3   OH227523   2.696   3.462   0.133
 9193TIP3    H127524   2.699   3.477   0.038
 9193TIP3    H227525   2.681   3.368   0.142
 9194TIP3   OH227526   2.165   5.767   2.561
 9194TIP3    H127527   2.150   5.814   2.644
 9194TIP3    H227528   2.174   5.676   2.587
 9195TIP3   OH227529   5.756   3.641   5.619
 9195TIP3    H127530   5.694   3.578   5.655
 9195TIP3    H227531   5.806   3.592   5.554
 9196TIP3   OH227532   5.501   1.646   6.325
 9196TIP3    H127533   5.453   1.646   6.243
 9196TIP3    H227534   5.586   1.609   6.303
 9197TIP3   OH227535   8.066   7.569   0.736
 9197TIP3    H127536   8.031   7.538   0.819
 9197TIP3    H227537   8.068   7.665   0.744
 9198TIP3   OH227538   7.386   1.216   5.279
 9198TIP3    H127539   7.362   1.276   5.209
 9198TIP3    H227540   7.349   1.255   5.358
 9199TIP3   OH227541   4.578   4.869   2.613
 9199TIP3    H127542   4.531   4.942   2.654
 9199TIP3    H227543   4.547   4.791   2.660
 9200TIP3   OH227544   5.459   5.079   5.284
 9200TIP3    H127545   5.392   5.077   5.353
 9200TIP3    H227546   5.410   5.080   5.203
 9201TIP3   OH227547   4.898   2.661   1.493
 9201TIP3    H127548   4.824   2.600   1.489
 9201TIP3    H227549   4.942   2.651   1.408
 9202TIP3   OH227550   5.019   1.425   3.281
 9202TIP3    H127551   4.995   1.517   3.273
 9202TIP3    H227552   4.971   1.395   3.358
 9203TIP3   OH227553   6.322   2.950   0.078
 9203TIP3    H127554   6.351   3.034   0.041
 9203TIP3    H227555   6.266   2.974   0.151
 9204TIP3   OH227556   7.743   0.797   6.588
 9204TIP3    H127557   7.806   0.806   6.515
 9204TIP3    H227558   7.791   0.747   6.654
 9205TIP3   OH227559   7.962   0.942   4.383
 9205TIP3    H127560   7.888   0.978   4.335
 9205TIP3    H227561   7.925   0.920   4.469
 9206TIP3   OH227562   1.824   5.037   1.495
 9206TIP3    H127563   1.816   5.040   1.590
 9206TIP3    H227564   1.820   4.944   1.473
 9207TIP3   OH227565   1.925   2.966   6.078
 9207TIP3    H127566   2.020   2.963   6.085
 9207TIP3    H227567   1.893   2.918   6.154
 9208TIP3   OH227568   5.388   1.767   2.105
 9208TIP3    H127569   5.379   1.771   2.200
 9208TIP3    H227570   5.347   1.848   2.074
 9209TIP3   OH227571   6.588   1.572   0.754
 9209TIP3    H127572   6.671   1.539   0.791
 9209TIP3    H227573   6.602   1.666   0.746
 9210TIP3   OH227574   7.756   2.551   4.782
 9210TIP3    H127575   7.831   2.573   4.727
 9210TIP3    H227576   7.681   2.551   4.721
 9211TIP3   OH227577   1.806   2.024   2.315
 9211TIP3    H127578   1.859   2.101   2.333
 9211TIP3    H227579   1.757   2.046   2.236
 9212TIP3   OH227580   2.139   1.902   1.068
 9212TIP3    H127581   2.198   1.887   0.994
 9212TIP3    H227582   2.148   1.824   1.122
 9213TIP3   OH227583   7.180   3.115   0.265
 9213TIP3    H127584   7.167   3.210   0.266
 9213TIP3    H227585   7.271   3.103   0.237
 9214TIP3   OH227586   0.400   0.554   2.396
 9214TIP3    H127587   0.389   0.608   2.474
 9214TIP3    H227588   0.493   0.562   2.374
 9215TIP3   OH227589   0.766   1.616   1.841
 9215TIP3    H127590   0.753   1.661   1.924
 9215TIP3    H227591   0.822   1.541   1.863
 9216TIP3   OH227592   4.673   2.638   1.147
 9216TIP3    H127593   4.614   2.709   1.169
 9216TIP3    H227594   4.760   2.677   1.147
 9217TIP3   OH227595   4.928   7.152   4.101
 9217TIP3    H127596   5.006   7.165   4.047
 9217TIP3    H227597   4.910   7.058   4.097
 9218TIP3   OH227598   2.582   3.030   2.274
 9218TIP3    H127599   2.527   2.989   2.206
 9218TIP3    H227600   2.531   3.106   2.303
 9219TIP3   OH227601   0.550   2.433   0.977
 9219TIP3    H127602   0.538   2.348   1.018
 9219TIP3    H227603   0.636   2.464   1.007
 9220TIP3   OH227604   2.399   6.793   5.641
 9220TIP3    H127605   2.416   6.701   5.617
 9220TIP3    H227606   2.479   6.839   5.616
 9221TIP3   OH227607   6.495   2.835   3.479
 9221TIP3    H127608   6.459   2.845   3.567
 9221TIP3    H227609   6.487   2.741   3.460
 9222TIP3   OH227610   3.007   3.732   1.010
 9222TIP3    H127611   3.103   3.726   1.003
 9222TIP3    H227612   2.976   3.647   0.981
 9223TIP3   OH227613   7.933   6.962   5.216
 9223TIP3    H127614   7.974   6.937   5.299
 9223TIP3    H227615   7.993   7.027   5.179
 9224TIP3   OH227616   2.287   5.293   0.591
 9224TIP3    H127617   2.214   5.265   0.535
 9224TIP3    H227618   2.365   5.269   0.541
 9225TIP3   OH227619   2.479   6.296   2.994
 9225TIP3    H127620   2.493   6.335   3.080
 9225TIP3    H227621   2.412   6.230   3.008
 9226TIP3   OH227622   7.744   2.435   6.664
 9226TIP3    H127623   7.654   2.408   6.649
 9226TIP3    H227624   7.792   2.353   6.678
 9227TIP3   OH227625   1.785   7.036   5.308
 9227TIP3    H127626   1.850   6.968   5.328
 9227TIP3    H227627   1.710   6.987   5.275
 9228TIP3   OH227628   2.908   4.480   0.534
 9228TIP3    H127629   2.828   4.450   0.576
 9228TIP3    H227630   2.937   4.406   0.480
 9229TIP3   OH227631   4.691   0.409   1.802
 9229TIP3    H127632   4.598   0.388   1.804
 9229TIP3    H227633   4.697   0.488   1.748
 9230TIP3   OH227634   7.237   2.076   1.169
 9230TIP3    H127635   7.279   2.020   1.105
 9230TIP3    H227636   7.280   2.161   1.159
 9231TIP3   OH227637   0.639   5.899   4.251
 9231TIP3    H127638   0.699   5.892   4.177
 9231TIP3    H227639   0.658   5.822   4.305
 9232TIP3   OH227640   1.960   2.159   3.553
 9232TIP3    H127641   1.906   2.114   3.619
 9232TIP3    H227642   1.995   2.235   3.599
 9233TIP3   OH227643   2.897   3.382   2.162
 9233TIP3    H127644   2.977   3.374   2.213
 9233TIP3    H227645   2.883   3.295   2.125
 9234TIP3   OH227646   5.701   5.490   3.762
 9234TIP3    H127647   5.756   5.439   3.821
 9234TIP3    H227648   5.615   5.492   3.805
 9235TIP3   OH227649   3.052   1.520   0.344
 9235TIP3    H127650   2.975   1.514   0.400
 9235TIP3    H227651   3.108   1.447   0.372
 9236TIP3   OH227652   4.339   0.103   1.829
 9236TIP3    H127653   4.342   0.183   1.775
 9236TIP3    H227654   4.412   0.113   1.890
 9237TIP3   OH227655   4.697   2.313   1.948
 9237TIP3    H127656   4.784   2.352   1.939
 9237TIP3    H227657   4.703   2.231   1.898
 9238TIP3   OH227658   4.791   1.055   1.347
 9238TIP3    H127659   4.831   1.041   1.261
 9238TIP3    H227660   4.698   1.036   1.333
 9239TIP3   OH227661   2.922   4.520   5.907
 9239TIP3    H127662   2.945   4.612   5.920
 9239TIP3    H227663   2.966   4.495   5.826
 9240TIP3   OH227664   4.888   4.897   3.523
 9240TIP3    H127665   4.877   4.844   3.444
 9240TIP3    H227666   4.820   4.964   3.517
 9241TIP3   OH227667   0.676   1.115   5.742
 9241TIP3    H127668   0.681   1.020   5.752
 9241TIP3    H227669   0.719   1.132   5.658
 9242TIP3   OH227670   5.646   1.406   1.614
 9242TIP3    H127671   5.608   1.474   1.559
 9242TIP3    H227672   5.655   1.446   1.701
 9243TIP3   OH227673   6.084   5.123   3.134
 9243TIP3    H127674   6.134   5.190   3.182
 9243TIP3    H227675   6.012   5.100   3.192
 9244TIP3   OH227676   4.219   0.344   4.680
 9244TIP3    H127677   4.250   0.265   4.725
 9244TIP3    H227678   4.207   0.316   4.589
 9245TIP3   OH227679   6.972   2.594   3.050
 9245TIP3    H127680   7.066   2.577   3.045
 9245TIP3    H227681   6.936   2.518   3.094
 9246TIP3   OH227682   0.029   6.025   1.140
 9246TIP3    H127683  -0.020   6.067   1.069
 9246TIP3    H227684   0.117   6.062   1.134
 9247TIP3   OH227685   1.758   0.683   1.157
 9247TIP3    H127686   1.729   0.654   1.243
 9247TIP3    H227687   1.677   0.686   1.105
 9248TIP3   OH227688   6.822   0.886   1.762
 9248TIP3    H127689   6.740   0.870   1.715
 9248TIP3    H227690   6.805   0.963   1.816
 9249TIP3   OH227691   7.645   4.544   0.233
 9249TIP3    H127692   7.682   4.464   0.269
 9249TIP3    H227693   7.628   4.599   0.309
 9250TIP3   OH227694   2.122   7.503   0.235
 9250TIP3    H127695   2.199   7.447   0.230
 9250TIP3    H227696   2.156   7.590   0.256
 9251TIP3   OH227697   7.043   7.811   4.145
 9251TIP3    H127698   7.123   7.815   4.197
 9251TIP3    H227699   7.074   7.790   4.057
 9252TIP3   OH227700   0.698   0.929   1.716
 9252TIP3    H127701   0.760   0.933   1.643
 9252TIP3    H227702   0.657   1.015   1.718
 9253TIP3   OH227703   0.952   4.768   2.025
 9253TIP3    H127704   0.930   4.676   2.008
 9253TIP3    H227705   0.928   4.782   2.116
 9254TIP3   OH227706   3.105   1.292   1.690
 9254TIP3    H127707   3.095   1.300   1.785
 9254TIP3    H227708   3.015   1.290   1.657
 9255TIP3   OH227709   5.507   0.103   5.146
 9255TIP3    H127710   5.557   0.109   5.065
 9255TIP3    H227711   5.538   0.023   5.188
 9256TIP3   OH227712   0.479   7.446   0.170
 9256TIP3    H127713   0.457   7.361   0.131
 9256TIP3    H227714   0.562   7.429   0.216
 9257TIP3   OH227715   4.674   4.178   3.289
 9257TIP3    H127716   4.606   4.244   3.277
 9257TIP3    H227717   4.745   4.225   3.332
 9258TIP3   OH227718   4.197   0.243   4.430
 9258TIP3    H127719   4.285   0.205   4.425
 9258TIP3    H227720   4.139   0.167   4.444
 9259TIP3   OH227721   1.107   2.088   1.861
 9259TIP3    H127722   1.175   2.022   1.876
 9259TIP3    H227723   1.091   2.126   1.947
 9260TIP3   OH227724   7.516   7.404   3.312
 9260TIP3    H127725   7.521   7.350   3.391
 9260TIP3    H227726   7.593   7.461   3.316
 9261TIP3   OH227727   2.050   6.299   0.723
 9261TIP3    H127728   2.007   6.384   0.715
 9261TIP3    H227729   1.978   6.235   0.723
 9262TIP3   OH227730   3.263   3.993   3.270
 9262TIP3    H127731   3.267   3.910   3.317
 9262TIP3    H227732   3.277   3.970   3.179
 9263TIP3   OH227733   1.259   5.352   3.025
 9263TIP3    H127734   1.284   5.429   2.974
 9263TIP3    H227735   1.340   5.302   3.034
 9264TIP3   OH227736   3.675   2.464   6.405
 9264TIP3    H127737   3.705   2.440   6.318
 9264TIP3    H227738   3.754   2.490   6.452
 9265TIP3   OH227739   1.762   5.638   3.213
 9265TIP3    H127740   1.681   5.597   3.180
 9265TIP3    H227741   1.780   5.593   3.295
 9266TIP3   OH227742   7.157   5.865   4.345
 9266TIP3    H127743   7.126   5.903   4.427
 9266TIP3    H227744   7.252   5.858   4.357
 9267TIP3   OH227745   0.557   1.082   4.385
 9267TIP3    H127746   0.564   0.992   4.351
 9267TIP3    H227747   0.545   1.070   4.479
 9268TIP3   OH227748   7.725   3.366   3.795
 9268TIP3    H127749   7.643   3.324   3.767
 9268TIP3    H227750   7.712   3.385   3.887
 9269TIP3   OH227751   5.901   5.053   5.622
 9269TIP3    H127752   5.986   5.049   5.577
 9269TIP3    H227753   5.923   5.059   5.715
 9270TIP3   OH227754   5.973   4.173   0.432
 9270TIP3    H127755   6.014   4.093   0.465
 9270TIP3    H227756   5.977   4.164   0.337
 9271TIP3   OH227757   5.191   5.563   6.109
 9271TIP3    H127758   5.268   5.553   6.164
 9271TIP3    H227759   5.219   5.622   6.039
 9272TIP3   OH227760   2.642   1.064   6.382
 9272TIP3    H127761   2.597   1.112   6.312
 9272TIP3    H227762   2.606   1.099   6.463
 9273TIP3   OH227763   1.809   2.791   0.933
 9273TIP3    H127764   1.844   2.713   0.976
 9273TIP3    H227765   1.854   2.864   0.976
 9274TIP3   OH227766   5.894   2.946   2.141
 9274TIP3    H127767   5.946   3.004   2.086
 9274TIP3    H227768   5.813   2.995   2.157
 9275TIP3   OH227769   6.395   0.877   3.730
 9275TIP3    H127770   6.428   0.860   3.818
 9275TIP3    H227771   6.469   0.854   3.673
 9276TIP3   OH227772   1.833   5.829   6.400
 9276TIP3    H127773   1.921   5.867   6.397
 9276TIP3    H227774   1.777   5.897   6.361
 9277TIP3   OH227775   6.663   4.200   4.540
 9277TIP3    H127776   6.744   4.200   4.489
 9277TIP3    H227777   6.660   4.287   4.580
 9278TIP3   OH227778   4.513   3.001   4.157
 9278TIP3    H127779   4.592   3.054   4.159
 9278TIP3    H227780   4.533   2.927   4.216
 9279TIP3   OH227781   5.845   2.734   5.064
 9279TIP3    H127782   5.935   2.736   5.095
 9279TIP3    H227783   5.829   2.823   5.032
 9280TIP3   OH227784   1.952   1.582   4.122
 9280TIP3    H127785   1.990   1.585   4.210
 9280TIP3    H227786   1.944   1.488   4.103
 9281TIP3   OH227787   3.384   2.549   5.989
 9281TIP3    H127788   3.469   2.590   5.969
 9281TIP3    H227789   3.398   2.504   6.073
 9282TIP3   OH227790   1.342   5.451   5.291
 9282TIP3    H127791   1.414   5.416   5.239
 9282TIP3    H227792   1.364   5.426   5.381
 9283TIP3   OH227793   7.522   4.413   6.370
 9283TIP3    H127794   7.552   4.464   6.445
 9283TIP3    H227795   7.432   4.443   6.355
 9284TIP3   OH227796   5.661   3.479   6.509
 9284TIP3    H127797   5.640   3.399   6.556
 9284TIP3    H227798   5.576   3.512   6.479
 9285TIP3   OH227799   0.925   6.484   4.476
 9285TIP3    H127800   0.925   6.570   4.436
 9285TIP3    H227801   1.012   6.474   4.513
 9286TIP3   OH227802   3.191   5.916   1.814
 9286TIP3    H127803   3.224   5.896   1.726
 9286TIP3    H227804   3.144   5.999   1.804
 9287TIP3   OH227805   2.931   6.534   4.196
 9287TIP3    H127806   3.018   6.504   4.223
 9287TIP3    H227807   2.874   6.512   4.270
 9288TIP3   OH227808   4.197   2.487   5.439
 9288TIP3    H127809   4.122   2.447   5.395
 9288TIP3    H227810   4.160   2.558   5.490
 9289TIP3   OH227811   2.156   5.205   2.267
 9289TIP3    H127812   2.146   5.118   2.230
 9289TIP3    H227813   2.204   5.191   2.349
 9290TIP3   OH227814   6.277   4.759   3.319
 9290TIP3    H127815   6.302   4.685   3.375
 9290TIP3    H227816   6.272   4.834   3.380
 9291TIP3   OH227817   2.816   3.522   1.192
 9291TIP3    H127818   2.764   3.444   1.209
 9291TIP3    H227819   2.898   3.489   1.155
 9292TIP3   OH227820   4.376   3.710   5.360
 9292TIP3    H127821   4.444   3.649   5.389
 9292TIP3    H227822   4.302   3.693   5.419
 9293TIP3   OH227823   4.830   6.915   2.828
 9293TIP3    H127824   4.804   6.959   2.909
 9293TIP3    H227825   4.877   6.981   2.779
 9294TIP3   OH227826   4.935   0.269   4.548
 9294TIP3    H127827   4.960   0.226   4.630
 9294TIP3    H227828   4.930   0.362   4.570
 9295TIP3   OH227829   4.605   6.383   3.800
 9295TIP3    H127830   4.552   6.336   3.864
 9295TIP3    H227831   4.574   6.351   3.715
 9296TIP3   OH227832   0.687   4.339   3.177
 9296TIP3    H127833   0.638   4.265   3.142
 9296TIP3    H227834   0.774   4.303   3.195
 9297TIP3   OH227835   1.834   2.065   3.783
 9297TIP3    H127836   1.756   2.113   3.754
 9297TIP3    H227837   1.799   1.991   3.833
 9298TIP3   OH227838   4.581   6.865   1.635
 9298TIP3    H127839   4.569   6.902   1.547
 9298TIP3    H227840   4.629   6.784   1.620
 9299TIP3   OH227841   5.843   1.755   0.358
 9299TIP3    H127842   5.888   1.823   0.408
 9299TIP3    H227843   5.851   1.782   0.267
 9300TIP3   OH227844   0.628   4.397   3.902
 9300TIP3    H127845   0.547   4.364   3.863
 9300TIP3    H227846   0.605   4.483   3.937
 9301TIP3   OH227847   5.679   2.040   0.852
 9301TIP3    H127848   5.594   2.078   0.831
 9301TIP3    H227849   5.729   2.112   0.891
 9302TIP3   OH227850   6.518   0.262   0.844
 9302TIP3    H127851   6.482   0.243   0.931
 9302TIP3    H227852   6.610   0.282   0.860
 9303TIP3   OH227853   6.358   2.819   1.930
 9303TIP3    H127854   6.321   2.874   1.999
 9303TIP3    H227855   6.301   2.834   1.855
 9304TIP3   OH227856   3.391   3.996   0.746
 9304TIP3    H127857   3.317   4.057   0.752
 9304TIP3    H227858   3.467   4.048   0.773
 9305TIP3   OH227859   4.700   0.056   2.231
 9305TIP3    H127860   4.676   0.133   2.281
 9305TIP3    H227861   4.737  -0.004   2.296
 9306TIP3   OH227862   2.669   0.678   5.355
 9306TIP3    H127863   2.716   0.613   5.407
 9306TIP3    H227864   2.727   0.755   5.355
 9307TIP3   OH227865   7.948   4.455   4.787
 9307TIP3    H127866   7.947   4.451   4.692
 9307TIP3    H227867   7.907   4.373   4.816
 9308TIP3   OH227868   5.798   7.735   0.180
 9308TIP3    H127869   5.766   7.684   0.254
 9308TIP3    H227870   5.887   7.762   0.205
 9309TIP3   OH227871   0.786   6.008   2.818
 9309TIP3    H127872   0.747   6.081   2.866
 9309TIP3    H227873   0.830   5.957   2.886
 9310TIP3   OH227874   1.064   3.976   1.101
 9310TIP3    H127875   1.074   3.938   1.013
 9310TIP3    H227876   0.971   3.965   1.121
 9311TIP3   OH227877   0.865   1.406   3.622
 9311TIP3    H127878   0.808   1.413   3.698
 9311TIP3    H227879   0.812   1.362   3.556
 9312TIP3   OH227880   2.626   7.359   4.548
 9312TIP3    H127881   2.669   7.275   4.559
 9312TIP3    H227882   2.609   7.365   4.453
 9313TIP3   OH227883   7.639   5.886   3.985
 9313TIP3    H127884   7.694   5.817   4.022
 9313TIP3    H227885   7.665   5.890   3.893
 9314TIP3   OH227886   2.426   7.528   3.418
 9314TIP3    H127887   2.388   7.585   3.352
 9314TIP3    H227888   2.485   7.584   3.468
 9315TIP3   OH227889   5.468   5.660   2.394
 9315TIP3    H127890   5.563   5.666   2.403
 9315TIP3    H227891   5.451   5.681   2.302
 9316TIP3   OH227892   6.643   4.687   3.048
 9316TIP3    H127893   6.573   4.747   3.075
 9316TIP3    H227894   6.716   4.707   3.107
 9317TIP3   OH227895   0.692   2.101   0.421
 9317TIP3    H127896   0.783   2.073   0.431
 9317TIP3    H227897   0.697   2.196   0.419
 9318TIP3   OH227898   4.152   4.858   1.129
 9318TIP3    H127899   4.239   4.884   1.161
 9318TIP3    H227900   4.167   4.773   1.088
 9319TIP3   OH227901   7.609   7.390   5.710
 9319TIP3    H127902   7.632   7.322   5.647
 9319TIP3    H227903   7.666   7.374   5.785
 9320TIP3   OH227904   6.533   6.129   2.867
 9320TIP3    H127905   6.494   6.159   2.785
 9320TIP3    H227906   6.528   6.206   2.925
 9321TIP3   OH227907   1.548   7.423   5.794
 9321TIP3    H127908   1.560   7.359   5.724
 9321TIP3    H227909   1.505   7.374   5.864
 9322TIP3   OH227910   8.081   5.277   3.113
 9322TIP3    H127911   8.162   5.244   3.152
 9322TIP3    H227912   8.012   5.243   3.169
 9323TIP3   OH227913   0.361   1.742   1.094
 9323TIP3    H127914   0.306   1.723   1.169
 9323TIP3    H227915   0.360   1.662   1.042
 9324TIP3   OH227916   0.099   4.612   3.668
 9324TIP3    H127917   0.064   4.609   3.579
 9324TIP3    H227918   0.034   4.662   3.718
 9325TIP3   OH227919   8.059   1.845   0.785
 9325TIP3    H127920   7.998   1.882   0.721
 9325TIP3    H227921   8.072   1.755   0.756
 9326TIP3   OH227922   5.167   0.139   2.875
 9326TIP3    H127923   5.203   0.155   2.963
 9326TIP3    H227924   5.233   0.172   2.815
 9327TIP3   OH227925   2.566   0.786   0.531
 9327TIP3    H127926   2.640   0.817   0.479
 9327TIP3    H227927   2.491   0.789   0.471
 9328TIP3   OH227928   1.005   6.725   3.038
 9328TIP3    H127929   0.963   6.809   3.021
 9328TIP3    H227930   0.943   6.660   3.008
 9329TIP3   OH227931   6.543   5.890   0.173
 9329TIP3    H127932   6.508   5.847   0.095
 9329TIP3    H227933   6.483   5.865   0.244
 9330TIP3   OH227934   1.461   1.941   2.974
 9330TIP3    H127935   1.553   1.967   2.978
 9330TIP3    H227936   1.459   1.857   3.021
 9331TIP3   OH227937   2.067   1.882   5.071
 9331TIP3    H127938   2.088   1.975   5.084
 9331TIP3    H227939   2.129   1.853   5.004
 9332TIP3   OH227940   4.046   0.074   5.258
 9332TIP3    H127941   4.060   0.164   5.289
 9332TIP3    H227942   4.134   0.039   5.247
 9333TIP3   OH227943   7.769   1.251   2.031
 9333TIP3    H127944   7.779   1.166   2.075
 9333TIP3    H227945   7.832   1.308   2.074
 9334TIP3   OH227946   3.292   7.536   2.392
 9334TIP3    H127947   3.225   7.580   2.340
 9334TIP3    H227948   3.302   7.450   2.352
 9335TIP3   OH227949   7.487   6.727   2.313
 9335TIP3    H127950   7.427   6.701   2.383
 9335TIP3    H227951   7.504   6.647   2.265
 9336TIP3   OH227952   2.928   3.778   0.188
 9336TIP3    H127953   2.843   3.797   0.147
 9336TIP3    H227954   2.983   3.748   0.116
 9337TIP3   OH227955   6.691   1.817   0.625
 9337TIP3    H127956   6.775   1.803   0.582
 9337TIP3    H227957   6.630   1.832   0.554
 9338TIP3   OH227958   4.495   7.562   2.960
 9338TIP3    H127959   4.523   7.643   2.918
 9338TIP3    H227960   4.402   7.554   2.937
 9339TIP3   OH227961   5.954   1.086   6.627
 9339TIP3    H127962   5.962   0.991   6.634
 9339TIP3    H227963   5.920   1.101   6.538
 9340TIP3   OH227964   0.191   1.662   3.848
 9340TIP3    H127965   0.270   1.696   3.806
 9340TIP3    H227966   0.123   1.671   3.781
 9341TIP3   OH227967   4.868   6.661   2.753
 9341TIP3    H127968   4.797   6.636   2.694
 9341TIP3    H227969   4.865   6.757   2.754
 9342TIP3   OH227970   7.925   3.089   4.397
 9342TIP3    H127971   7.836   3.095   4.361
 9342TIP3    H227972   7.912   3.073   4.490
 9343TIP3   OH227973   5.210   5.879   0.112
 9343TIP3    H127974   5.211   5.913   0.023
 9343TIP3    H227975   5.301   5.883   0.141
 9344TIP3   OH227976   1.657   0.318   5.651
 9344TIP3    H127977   1.682   0.255   5.584
 9344TIP3    H227978   1.735   0.371   5.665
 9345TIP3   OH227979   4.598   5.847   0.933
 9345TIP3    H127980   4.508   5.828   0.906
 9345TIP3    H227981   4.643   5.871   0.853
 9346TIP3   OH227982   1.552   7.515   3.168
 9346TIP3    H127983   1.469   7.526   3.121
 9346TIP3    H227984   1.558   7.421   3.183
 9347TIP3   OH227985   7.351   5.323   6.120
 9347TIP3    H127986   7.337   5.389   6.188
 9347TIP3    H227987   7.278   5.336   6.059
 9348TIP3   OH227988   3.208   4.500   0.458
 9348TIP3    H127989   3.256   4.538   0.385
 9348TIP3    H227990   3.129   4.462   0.419
 9349TIP3   OH227991   2.423   5.949   2.811
 9349TIP3    H127992   2.451   5.864   2.779
 9349TIP3    H227993   2.448   6.010   2.741
 9350TIP3   OH227994   6.150   1.090   5.043
 9350TIP3    H127995   6.195   1.165   5.002
 9350TIP3    H227996   6.219   1.026   5.058
 9351TIP3   OH227997   5.174   6.524   4.777
 9351TIP3    H127998   5.122   6.493   4.852
 9351TIP3    H227999   5.110   6.566   4.719
 9352TIP3   OH228000   3.973   0.208   4.156
 9352TIP3    H128001   3.932   0.214   4.070
 9352TIP3    H228002   3.952   0.291   4.199
 9353TIP3   OH228003   7.998   6.936   0.215
 9353TIP3    H128004   8.048   6.935   0.134
 9353TIP3    H228005   8.010   6.848   0.251
 9354TIP3   OH228006   4.146   6.197   4.684
 9354TIP3    H128007   4.088   6.173   4.612
 9354TIP3    H228008   4.234   6.178   4.652
 9355TIP3   OH228009   0.310   2.634   3.779
 9355TIP3    H128010   0.342   2.617   3.868
 9355TIP3    H228011   0.377   2.691   3.741
 9356TIP3   OH228012   4.632   6.773   0.137
 9356TIP3    H128013   4.588   6.697   0.176
 9356TIP3    H228014   4.656   6.744   0.049
 9357TIP3   OH228015   0.767   7.588   4.566
 9357TIP3    H128016   0.851   7.610   4.606
 9357TIP3    H228017   0.713   7.665   4.580
 9358TIP3   OH228018   3.461   4.117   3.412
 9358TIP3    H128019   3.514   4.058   3.358
 9358TIP3    H228020   3.374   4.078   3.411
 9359TIP3   OH228021   8.137   4.233   3.139
 9359TIP3    H128022   8.214   4.178   3.151
 9359TIP3    H228023   8.169   4.322   3.151
 9360TIP3   OH228024   2.397   0.919   0.976
 9360TIP3    H128025   2.479   0.956   0.944
 9360TIP3    H228026   2.380   0.967   1.057
 9361TIP3   OH228027   2.627   5.441   1.874
 9361TIP3    H128028   2.535   5.435   1.848
 9361TIP3    H228029   2.637   5.529   1.909
 9362TIP3   OH228030   5.059   2.287   3.332
 9362TIP3    H128031   4.984   2.300   3.389
 9362TIP3    H228032   5.069   2.192   3.326
 9363TIP3   OH228033   6.836   0.211   5.216
 9363TIP3    H128034   6.776   0.197   5.142
 9363TIP3    H228035   6.808   0.294   5.254
 9364TIP3   OH228036   5.732   4.678   5.862
 9364TIP3    H128037   5.749   4.656   5.954
 9364TIP3    H228038   5.637   4.682   5.856
 9365TIP3   OH228039   7.845   7.157   6.539
 9365TIP3    H128040   7.890   7.201   6.466
 9365TIP3    H228041   7.811   7.076   6.501
 9366TIP3   OH228042   4.137   3.893   2.407
 9366TIP3    H128043   4.053   3.927   2.374
 9366TIP3    H228044   4.122   3.800   2.419
 9367TIP3   OH228045   6.391   5.486   1.253
 9367TIP3    H128046   6.427   5.500   1.165
 9367TIP3    H228047   6.385   5.391   1.261
 9368TIP3   OH228048   3.625   3.605   0.067
 9368TIP3    H128049   3.634   3.515   0.097
 9368TIP3    H228050   3.651   3.602  -0.025
 9369TIP3   OH228051   6.471   5.482   5.056
 9369TIP3    H128052   6.479   5.558   5.113
 9369TIP3    H228053   6.557   5.470   5.017
 9370TIP3   OH228054   5.152   3.474   3.005
 9370TIP3    H128055   5.065   3.470   2.966
 9370TIP3    H228056   5.158   3.394   3.058
 9371TIP3   OH228057   2.460   4.027   5.325
 9371TIP3    H128058   2.419   3.953   5.280
 9371TIP3    H228059   2.535   3.990   5.371
 9372TIP3   OH228060  -0.030   4.354   0.570
 9372TIP3    H128061   0.036   4.301   0.616
 9372TIP3    H228062   0.021   4.423   0.527
 9373TIP3   OH228063   3.634   2.885   5.999
 9373TIP3    H128064   3.625   2.830   6.077
 9373TIP3    H228065   3.637   2.823   5.926
 9374TIP3   OH228066   2.353   1.057   2.802
 9374TIP3    H128067   2.383   1.099   2.722
 9374TIP3    H228068   2.272   1.012   2.776
 9375TIP3   OH228069   7.425   5.208   5.832
 9375TIP3    H128070   7.482   5.230   5.759
 9375TIP3    H228071   7.374   5.287   5.848
 9376TIP3   OH228072   6.241   0.960   6.701
 9376TIP3    H128073   6.247   0.998   6.613
 9376TIP3    H228074   6.248   1.035   6.760
 9377TIP3   OH228075   7.854   0.090   3.798
 9377TIP3    H128076   7.794   0.079   3.872
 9377TIP3    H228077   7.895   0.176   3.813
 9378TIP3   OH228078   0.859   3.698   0.578
 9378TIP3    H128079   0.764   3.697   0.566
 9378TIP3    H228080   0.892   3.748   0.503
 9379TIP3   OH228081   3.109   6.056   3.275
 9379TIP3    H128082   3.167   6.020   3.208
 9379TIP3    H228083   3.071   6.134   3.235
 9380TIP3   OH228084   2.637   2.662   6.545
 9380TIP3    H128085   2.713   2.648   6.603
 9380TIP3    H228086   2.672   2.714   6.473
 9381TIP3   OH228087   7.524   0.142   3.549
 9381TIP3    H128088   7.593   0.092   3.507
 9381TIP3    H228089   7.470   0.076   3.593
 9382TIP3   OH228090   6.903   3.757   6.536
 9382TIP3    H128091   6.896   3.714   6.621
 9382TIP3    H228092   6.941   3.690   6.478
 9383TIP3   OH228093   3.311   7.175   3.009
 9383TIP3    H128094   3.228   7.150   2.969
 9383TIP3    H228095   3.291   7.187   3.102
 9384TIP3   OH228096   3.329   5.835   3.942
 9384TIP3    H128097   3.412   5.794   3.917
 9384TIP3    H228098   3.323   5.913   3.887
 9385TIP3   OH228099   1.163   4.843   4.654
 9385TIP3    H128100   1.180   4.897   4.576
 9385TIP3    H228101   1.071   4.860   4.674
 9386TIP3   OH228102   3.668   5.812   4.545
 9386TIP3    H128103   3.621   5.890   4.576
 9386TIP3    H228104   3.741   5.847   4.494
 9387TIP3   OH228105   5.194   2.516   2.880
 9387TIP3    H128106   5.138   2.552   2.810
 9387TIP3    H228107   5.143   2.528   2.960
 9388TIP3   OH228108   6.831   0.394   5.553
 9388TIP3    H128109   6.911   0.380   5.603
 9388TIP3    H228110   6.767   0.335   5.593
 9389TIP3   OH228111   1.560   7.156   5.667
 9389TIP3    H128112   1.628   7.098   5.700
 9389TIP3    H228113   1.484   7.099   5.655
 9390TIP3   OH228114   5.162   0.429   1.267
 9390TIP3    H128115   5.195   0.480   1.341
 9390TIP3    H228116   5.072   0.459   1.255
 9391TIP3   OH228117   2.126   3.630   2.641
 9391TIP3    H128118   2.106   3.703   2.584
 9391TIP3    H228119   2.167   3.669   2.718
 9392TIP3   OH228120   7.840   2.802   3.766
 9392TIP3    H128121   7.926   2.773   3.735
 9392TIP3    H228122   7.778   2.738   3.730
 9393TIP3   OH228123   6.623   5.797   2.576
 9393TIP3    H128124   6.663   5.827   2.657
 9393TIP3    H228125   6.529   5.804   2.591
 9394TIP3   OH228126   2.441   1.222   2.561
 9394TIP3    H128127   2.450   1.279   2.485
 9394TIP3    H228128   2.499   1.260   2.628
 9395TIP3   OH228129   0.965   5.804   0.767
 9395TIP3    H128130   0.879   5.803   0.810
 9395TIP3    H228131   0.948   5.773   0.678
 9396TIP3   OH228132   4.071   6.100   0.171
 9396TIP3    H128133   4.136   6.148   0.223
 9396TIP3    H228134   4.108   6.012   0.162
 9397TIP3   OH228135   0.478   3.904   3.742
 9397TIP3    H128136   0.383   3.907   3.736
 9397TIP3    H228137   0.505   3.842   3.674
 9398TIP3   OH228138   1.280   0.141   0.409
 9398TIP3    H128139   1.230   0.109   0.334
 9398TIP3    H228140   1.369   0.108   0.394
 9399TIP3   OH228141   5.342   7.467   5.783
 9399TIP3    H128142   5.294   7.484   5.864
 9399TIP3    H228143   5.418   7.416   5.811
 9400TIP3   OH228144   0.876   1.138   1.642
 9400TIP3    H128145   0.932   1.069   1.605
 9400TIP3    H228146   0.811   1.155   1.574
 9401TIP3   OH228147   4.042   4.691   5.981
 9401TIP3    H128148   3.995   4.692   6.065
 9401TIP3    H228149   4.032   4.780   5.947
 9402TIP3   OH228150   7.450   3.789   3.670
 9402TIP3    H128151   7.529   3.736   3.680
 9402TIP3    H228152   7.462   3.833   3.586
 9403TIP3   OH228153   4.769   4.476   5.668
 9403TIP3    H128154   4.729   4.397   5.633
 9403TIP3    H228155   4.831   4.504   5.600
 9404TIP3   OH228156   1.980   4.216   5.620
 9404TIP3    H128157   1.981   4.123   5.597
 9404TIP3    H228158   1.896   4.229   5.664
 9405TIP3   OH228159   1.712   5.771   3.606
 9405TIP3    H128160   1.746   5.686   3.580
 9405TIP3    H228161   1.627   5.777   3.562
 9406TIP3   OH228162   4.457   5.322   4.279
 9406TIP3    H128163   4.378   5.281   4.316
 9406TIP3    H228164   4.508   5.248   4.245
 9407TIP3   OH228165   4.169   4.388   0.318
 9407TIP3    H128166   4.184   4.472   0.276
 9407TIP3    H228167   4.177   4.324   0.246
 9408TIP3   OH228168   0.452   4.141   5.433
 9408TIP3    H128169   0.474   4.062   5.383
 9408TIP3    H228170   0.466   4.213   5.372
 9409TIP3   OH228171   7.306   2.173   3.973
 9409TIP3    H128172   7.224   2.155   4.018
 9409TIP3    H228173   7.368   2.109   4.008
 9410TIP3   OH228174   2.108   1.118   5.199
 9410TIP3    H128175   2.068   1.130   5.285
 9410TIP3    H228176   2.108   1.205   5.159
 9411TIP3   OH228177   7.348   4.250   4.965
 9411TIP3    H128178   7.274   4.206   4.924
 9411TIP3    H228179   7.315   4.279   5.050
 9412TIP3   OH228180   8.241   2.255   2.510
 9412TIP3    H128181   8.145   2.257   2.512
 9412TIP3    H228182   8.263   2.163   2.503
 9413TIP3   OH228183   5.642   1.178   6.214
 9413TIP3    H128184   5.566   1.143   6.260
 9413TIP3    H228185   5.605   1.226   6.140
 9414TIP3   OH228186   1.402   3.438   0.078
 9414TIP3    H128187   1.321   3.391   0.094
 9414TIP3    H228188   1.449   3.384   0.014
 9415TIP3   OH228189   5.390   2.931   1.214
 9415TIP3    H128190   5.428   2.971   1.135
 9415TIP3    H228191   5.372   3.005   1.272
 9416TIP3   OH228192   6.524   3.673   3.022
 9416TIP3    H128193   6.545   3.589   3.063
 9416TIP3    H228194   6.590   3.682   2.953
 9417TIP3   OH228195   4.198   3.618   0.431
 9417TIP3    H128196   4.198   3.677   0.355
 9417TIP3    H228197   4.214   3.531   0.394
 9418TIP3   OH228198   1.336   6.855   1.201
 9418TIP3    H128199   1.428   6.837   1.216
 9418TIP3    H228200   1.334   6.943   1.164
 9419TIP3   OH228201   6.041   5.885   0.867
 9419TIP3    H128202   6.110   5.951   0.870
 9419TIP3    H228203   6.070   5.817   0.927
 9420TIP3   OH228204   6.562   6.449   5.355
 9420TIP3    H128205   6.597   6.536   5.375
 9420TIP3    H228206   6.493   6.465   5.289
 9421TIP3   OH228207   2.166   6.553   2.702
 9421TIP3    H128208   2.136   6.638   2.734
 9421TIP3    H228209   2.132   6.547   2.613
 9422TIP3   OH228210   6.488   3.717   6.452
 9422TIP3    H128211   6.482   3.811   6.435
 9422TIP3    H228212   6.420   3.700   6.517
 9423TIP3   OH228213   7.416   5.565   0.890
 9423TIP3    H128214   7.450   5.501   0.953
 9423TIP3    H228215   7.327   5.582   0.918
 9424TIP3   OH228216   2.913   2.515   1.299
 9424TIP3    H128217   3.004   2.544   1.311
 9424TIP3    H228218   2.894   2.537   1.207
 9425TIP3   OH228219   0.354   7.756   4.948
 9425TIP3    H128220   0.381   7.689   5.010
 9425TIP3    H228221   0.305   7.819   5.001
 9426TIP3   OH228222   0.654   6.936   3.588
 9426TIP3    H128223   0.734   6.964   3.543
 9426TIP3    H228224   0.671   6.953   3.681
 9427TIP3   OH228225   5.464   5.701   5.362
 9427TIP3    H128226   5.544   5.688   5.412
 9427TIP3    H228227   5.422   5.615   5.360
 9428TIP3   OH228228   8.233   1.031   5.984
 9428TIP3    H128229   8.205   0.999   6.070
 9428TIP3    H228230   8.159   1.013   5.926
 9429TIP3   OH228231   6.659   7.752   4.199
 9429TIP3    H128232   6.632   7.665   4.170
 9429TIP3    H228233   6.754   7.751   4.193
 9430TIP3   OH228234   4.995   3.259   1.993
 9430TIP3    H128235   5.007   3.265   2.087
 9430TIP3    H228236   4.936   3.331   1.971
 9431TIP3   OH228237   0.141   2.913   4.544
 9431TIP3    H128238   0.224   2.887   4.505
 9431TIP3    H228239   0.074   2.878   4.486
 9432TIP3   OH228240   1.674   1.807   6.537
 9432TIP3    H128241   1.739   1.747   6.500
 9432TIP3    H228242   1.698   1.893   6.502
 9433TIP3   OH228243   5.478   2.599   6.145
 9433TIP3    H128244   5.412   2.581   6.212
 9433TIP3    H228245   5.435   2.659   6.084
 9434TIP3   OH228246   2.565   7.346   3.667
 9434TIP3    H128247   2.609   7.376   3.587
 9434TIP3    H228248   2.498   7.285   3.636
 9435TIP3   OH228249   1.641   7.496   3.737
 9435TIP3    H128250   1.680   7.449   3.664
 9435TIP3    H228251   1.611   7.579   3.699
 9436TIP3   OH228252   1.993   4.369   5.376
 9436TIP3    H128253   1.997   4.281   5.338
 9436TIP3    H228254   1.982   4.354   5.470
 9437TIP3   OH228255   4.639   0.901   3.661
 9437TIP3    H128256   4.546   0.894   3.684
 9437TIP3    H228257   4.643   0.878   3.569
 9438TIP3   OH228258   1.723   5.993   5.299
 9438TIP3    H128259   1.739   6.085   5.282
 9438TIP3    H228260   1.671   5.964   5.224
 9439TIP3   OH228261   0.093   3.156   4.684
 9439TIP3    H128262   0.107   3.064   4.660
 9439TIP3    H228263   0.053   3.152   4.771
 9440TIP3   OH228264   7.786   4.419   2.871
 9440TIP3    H128265   7.802   4.331   2.906
 9440TIP3    H228266   7.821   4.478   2.938
 9441TIP3   OH228267   7.452   1.372   1.941
 9441TIP3    H128268   7.426   1.354   2.032
 9441TIP3    H228269   7.451   1.468   1.935
 9442TIP3   OH228270   3.616   6.213   5.919
 9442TIP3    H128271   3.694   6.258   5.951
 9442TIP3    H228272   3.649   6.128   5.888
 9443TIP3   OH228273   4.959   5.993   1.712
 9443TIP3    H128274   4.918   5.968   1.794
 9443TIP3    H228275   5.049   5.958   1.718
 9444TIP3   OH228276   6.686   5.841   6.114
 9444TIP3    H128277   6.720   5.836   6.203
 9444TIP3    H228278   6.599   5.803   6.119
 9445TIP3   OH228279   0.463   1.131   3.587
 9445TIP3    H128280   0.443   1.192   3.517
 9445TIP3    H228281   0.449   1.044   3.549
 9446TIP3   OH228282   3.850   4.354   2.879
 9446TIP3    H128283   3.756   4.362   2.893
 9446TIP3    H228284   3.889   4.404   2.951
 9447TIP3   OH228285   0.996   2.799   4.415
 9447TIP3    H128286   0.961   2.760   4.495
 9447TIP3    H228287   1.003   2.893   4.434
 9448TIP3   OH228288   1.387   5.997   2.495
 9448TIP3    H128289   1.479   5.982   2.518
 9448TIP3    H228290   1.346   5.911   2.504
 9449TIP3   OH228291   4.672   0.694   1.714
 9449TIP3    H128292   4.612   0.707   1.788
 9449TIP3    H228293   4.710   0.780   1.698
 9450TIP3   OH228294   4.439   4.805   1.672
 9450TIP3    H128295   4.433   4.881   1.730
 9450TIP3    H228296   4.506   4.830   1.608
 9451TIP3   OH228297   2.627   0.272   1.119
 9451TIP3    H128298   2.536   0.299   1.111
 9451TIP3    H228299   2.678   0.352   1.112
 9452TIP3   OH228300   7.000   2.973   0.780
 9452TIP3    H128301   7.003   3.013   0.693
 9452TIP3    H228302   6.907   2.957   0.796
 9453TIP3   OH228303   4.214   7.610   1.671
 9453TIP3    H128304   4.202   7.558   1.750
 9453TIP3    H228305   4.143   7.674   1.672
 9454TIP3   OH228306   3.765   3.657   5.713
 9454TIP3    H128307   3.837   3.594   5.720
 9454TIP3    H228308   3.763   3.701   5.798
 9455TIP3   OH228309   6.179   0.909   3.951
 9455TIP3    H128310   6.252   0.968   3.969
 9455TIP3    H228311   6.109   0.967   3.922
 9456TIP3   OH228312   1.046   6.505   6.642
 9456TIP3    H128313   1.095   6.433   6.681
 9456TIP3    H228314   1.108   6.577   6.638
 9457TIP3   OH228315   1.952   0.122   3.122
 9457TIP3    H128316   1.863   0.157   3.121
 9457TIP3    H228317   1.977   0.118   3.030
 9458TIP3   OH228318   0.475   1.445   1.765
 9458TIP3    H128319   0.441   1.525   1.804
 9458TIP3    H228320   0.534   1.475   1.696
 9459TIP3   OH228321   8.282   1.099   4.869
 9459TIP3    H128322   8.351   1.166   4.867
 9459TIP3    H228323   8.256   1.089   4.777
 9460TIP3   OH228324   6.193   4.235   5.705
 9460TIP3    H128325   6.132   4.292   5.658
 9460TIP3    H228326   6.224   4.288   5.778
 9461TIP3   OH228327   6.258   2.074   3.778
 9461TIP3    H128328   6.167   2.051   3.762
 9461TIP3    H228329   6.304   1.990   3.779
 9462TIP3   OH228330   3.967   5.658   5.452
 9462TIP3    H128331   3.946   5.646   5.360
 9462TIP3    H228332   3.891   5.703   5.488
 9463TIP3   OH228333   7.645   7.599   0.365
 9463TIP3    H128334   7.607   7.530   0.311
 9463TIP3    H228335   7.571   7.657   0.386
 9464TIP3   OH228336   7.848   5.119  -0.002
 9464TIP3    H128337   7.829   5.196   0.051
 9464TIP3    H228338   7.773   5.061   0.012
 9465TIP3   OH228339   3.214   4.535   4.092
 9465TIP3    H128340   3.174   4.622   4.097
 9465TIP3    H228341   3.263   4.527   4.173
 9466TIP3   OH228342   3.340   5.183   0.368
 9466TIP3    H128343   3.300   5.099   0.390
 9466TIP3    H228344   3.326   5.193   0.274
 9467TIP3   OH228345   2.797   5.307   2.472
 9467TIP3    H128346   2.787   5.276   2.562
 9467TIP3    H228347   2.779   5.231   2.417
 9468TIP3   OH228348   0.928   7.283   3.412
 9468TIP3    H128349   0.894   7.365   3.447
 9468TIP3    H228350   1.014   7.305   3.378
 9469TIP3   OH228351   0.112   4.726   2.095
 9469TIP3    H128352   0.099   4.678   2.013
 9469TIP3    H228353   0.146   4.811   2.068
 9470TIP3   OH228354   6.198   5.662   4.814
 9470TIP3    H128355   6.130   5.598   4.794
 9470TIP3    H228356   6.231   5.635   4.900
 9471TIP3   OH228357   2.923   2.689   6.374
 9471TIP3    H128358   2.849   2.737   6.335
 9471TIP3    H228359   3.001   2.730   6.337
 9472TIP3   OH228360   2.146   3.875   5.347
 9472TIP3    H128361   2.113   3.859   5.436
 9472TIP3    H228362   2.169   3.789   5.314
 9473TIP3   OH228363   0.445   2.930   2.492
 9473TIP3    H128364   0.501   2.861   2.456
 9473TIP3    H228365   0.506   2.998   2.520
 9474TIP3   OH228366   4.110   2.794   2.867
 9474TIP3    H128367   4.174   2.763   2.931
 9474TIP3    H228368   4.025   2.768   2.903
 9475TIP3   OH228369   6.711   3.547   0.354
 9475TIP3    H128370   6.653   3.474   0.333
 9475TIP3    H228371   6.670   3.623   0.313
 9476TIP3   OH228372   3.138   0.481   6.015
 9476TIP3    H128373   3.051   0.495   6.051
 9476TIP3    H228374   3.156   0.388   6.029
 9477TIP3   OH228375   6.350   0.636   4.487
 9477TIP3    H128376   6.287   0.708   4.500
 9477TIP3    H228377   6.432   0.681   4.462
 9478TIP3   OH228378   2.671   1.237   6.137
 9478TIP3    H128379   2.756   1.271   6.110
 9478TIP3    H228380   2.655   1.164   6.076
 9479TIP3   OH228381   6.302   1.564   3.749
 9479TIP3    H128382   6.236   1.500   3.722
 9479TIP3    H228383   6.258   1.649   3.739
 9480TIP3   OH228384   4.231   4.633   1.755
 9480TIP3    H128385   4.192   4.670   1.834
 9480TIP3    H228386   4.313   4.682   1.743
 9481TIP3   OH228387   2.018   3.806   4.294
 9481TIP3    H128388   1.983   3.806   4.383
 9481TIP3    H228389   2.096   3.861   4.298
 9482TIP3   OH228390   0.856   7.697   3.817
 9482TIP3    H128391   0.863   7.759   3.890
 9482TIP3    H228392   0.937   7.710   3.767
 9483TIP3   OH228393   2.800   0.449   2.646
 9483TIP3    H128394   2.883   0.432   2.603
 9483TIP3    H228395   2.817   0.433   2.739
 9484TIP3   OH228396   5.197   1.492   4.435
 9484TIP3    H128397   5.266   1.449   4.486
 9484TIP3    H228398   5.241   1.515   4.353
 9485TIP3   OH228399   5.600   0.394   0.339
 9485TIP3    H128400   5.523   0.406   0.283
 9485TIP3    H228401   5.569   0.338   0.411
 9486TIP3   OH228402   1.815   1.324   5.976
 9486TIP3    H128403   1.747   1.285   6.030
 9486TIP3    H228404   1.825   1.413   6.009
 9487TIP3   OH228405   1.329   2.842   2.558
 9487TIP3    H128406   1.310   2.929   2.525
 9487TIP3    H228407   1.423   2.830   2.542
 9488TIP3   OH228408   6.897   0.320   1.215
 9488TIP3    H128409   6.864   0.299   1.302
 9488TIP3    H228410   6.978   0.269   1.207
 9489TIP3   OH228411   7.324   1.522   5.713
 9489TIP3    H128412   7.314   1.590   5.780
 9489TIP3    H228413   7.276   1.447   5.747
 9490TIP3   OH228414   7.873   3.782   4.257
 9490TIP3    H128415   7.821   3.766   4.336
 9490TIP3    H228416   7.963   3.760   4.282
 9491TIP3   OH228417   6.428   6.711   1.645
 9491TIP3    H128418   6.426   6.637   1.584
 9491TIP3    H228419   6.412   6.671   1.731
 9492TIP3   OH228420   1.427   1.822   2.148
 9492TIP3    H128421   1.451   1.914   2.146
 9492TIP3    H228422   1.378   1.812   2.230
 9493TIP3   OH228423   0.686   1.802   2.025
 9493TIP3    H128424   0.728   1.886   2.046
 9493TIP3    H228425   0.597   1.811   2.058
 9494TIP3   OH228426   1.961   0.292   6.477
 9494TIP3    H128427   1.979   0.243   6.557
 9494TIP3    H228428   1.963   0.384   6.504
 9495TIP3   OH228429   5.213   5.026   3.018
 9495TIP3    H128430   5.300   5.001   3.050
 9495TIP3    H228431   5.198   4.969   2.943
 9496TIP3   OH228432   8.107   2.666   6.047
 9496TIP3    H128433   8.161   2.626   6.114
 9496TIP3    H228434   8.119   2.760   6.058
 9497TIP3   OH228435   5.135   5.551   4.611
 9497TIP3    H128436   5.137   5.457   4.593
 9497TIP3    H228437   5.152   5.558   4.705
 9498TIP3   OH228438   0.843   3.857   5.145
 9498TIP3    H128439   0.830   3.856   5.051
 9498TIP3    H228440   0.821   3.946   5.172
 9499TIP3   OH228441   8.269   0.606   4.277
 9499TIP3    H128442   8.226   0.598   4.192
 9499TIP3    H228443   8.268   0.517   4.313
 9500TIP3   OH228444   3.100   4.200   0.543
 9500TIP3    H128445   3.122   4.225   0.633
 9500TIP3    H228446   3.051   4.118   0.552
 9501TIP3   OH228447   0.212   6.283   3.556
 9501TIP3    H128448   0.193   6.376   3.569
 9501TIP3    H228449   0.180   6.264   3.468
 9502TIP3   OH228450   6.051   2.831   6.423
 9502TIP3    H128451   6.126   2.787   6.463
 9502TIP3    H228452   5.975   2.796   6.469
 9503TIP3   OH228453   4.935   3.392   5.290
 9503TIP3    H128454   4.944   3.484   5.317
 9503TIP3    H228455   4.930   3.396   5.194
 9504TIP3   OH228456   4.017   6.137   0.844
 9504TIP3    H128457   4.087   6.073   0.854
 9504TIP3    H228458   3.947   6.090   0.799
 9505TIP3   OH228459   0.740   3.686   3.499
 9505TIP3    H128460   0.734   3.593   3.476
 9505TIP3    H228461   0.746   3.686   3.595
 9506TIP3   OH228462   4.989   0.683   3.913
 9506TIP3    H128463   5.037   0.651   3.989
 9506TIP3    H228464   4.946   0.763   3.945
 9507TIP3   OH228465   3.344   1.350   0.570
 9507TIP3    H128466   3.417   1.288   0.576
 9507TIP3    H228467   3.370   1.410   0.500
 9508TIP3   OH228468   3.567   7.156   3.008
 9508TIP3    H128469   3.475   7.180   3.020
 9508TIP3    H228470   3.578   7.150   2.913
 9509TIP3   OH228471   2.856   2.546   5.938
 9509TIP3    H128472   2.873   2.452   5.934
 9509TIP3    H228473   2.925   2.580   5.994
 9510TIP3   OH228474   3.983   3.346   2.502
 9510TIP3    H128475   3.926   3.379   2.571
 9510TIP3    H228476   4.060   3.312   2.549
 9511TIP3   OH228477   5.839   7.046   1.219
 9511TIP3    H128478   5.748   7.065   1.197
 9511TIP3    H228479   5.837   6.959   1.259
 9512TIP3   OH228480   4.449   1.816   1.573
 9512TIP3    H128481   4.368   1.765   1.581
 9512TIP3    H228482   4.460   1.856   1.659
 9513TIP3   OH228483   6.981   5.046   5.928
 9513TIP3    H128484   6.962   5.039   6.022
 9513TIP3    H228485   7.076   5.045   5.923
 9514TIP3   OH228486   0.839   3.860   6.237
 9514TIP3    H128487   0.809   3.902   6.318
 9514TIP3    H228488   0.809   3.918   6.168
 9515TIP3   OH228489   1.558   1.705   2.572
 9515TIP3    H128490   1.641   1.742   2.604
 9515TIP3    H228491   1.525   1.653   2.645
 9516TIP3   OH228492   6.392   2.642   0.732
 9516TIP3    H128493   6.461   2.689   0.779
 9516TIP3    H228494   6.434   2.610   0.653
 9517TIP3   OH228495   3.393   3.195   1.265
 9517TIP3    H128496   3.484   3.188   1.295
 9517TIP3    H228497   3.383   3.125   1.201
 9518TIP3   OH228498   6.936   6.876   5.821
 9518TIP3    H128499   6.977   6.958   5.848
 9518TIP3    H228500   6.853   6.873   5.869
 9519TIP3   OH228501   0.314   5.776   4.546
 9519TIP3    H128502   0.244   5.712   4.556
 9519TIP3    H228503   0.385   5.728   4.504
 9520TIP3   OH228504   6.577   7.156   5.513
 9520TIP3    H128505   6.590   7.069   5.551
 9520TIP3    H228506   6.490   7.182   5.543
 9521TIP3   OH228507   7.234   4.026   2.166
 9521TIP3    H128508   7.179   4.104   2.175
 9521TIP3    H228509   7.179   3.963   2.120
 9522TIP3   OH228510   3.732   6.208   2.648
 9522TIP3    H128511   3.778   6.132   2.614
 9522TIP3    H228512   3.639   6.188   2.638
 9523TIP3   OH228513   1.316   4.083   4.890
 9523TIP3    H128514   1.383   4.144   4.922
 9523TIP3    H228515   1.243   4.139   4.864
 9524TIP3   OH228516   3.149   6.821   2.290
 9524TIP3    H128517   3.160   6.773   2.208
 9524TIP3    H228518   3.081   6.886   2.270
 9525TIP3   OH228519   2.216   0.591   4.032
 9525TIP3    H128520   2.208   0.540   4.113
 9525TIP3    H228521   2.151   0.553   3.973
 9526TIP3   OH228522   6.136   3.909   2.812
 9526TIP3    H128523   6.146   3.832   2.868
 9526TIP3    H228524   6.096   3.975   2.869
 9527TIP3   OH228525   2.031   4.336   2.071
 9527TIP3    H128526   2.042   4.362   1.980
 9527TIP3    H228527   1.947   4.290   2.073
 9528TIP3   OH228528   7.828   7.640   0.145
 9528TIP3    H128529   7.748   7.659   0.194
 9528TIP3    H228530   7.871   7.571   0.195
 9529TIP3   OH228531   2.153   0.172   1.622
 9529TIP3    H128532   2.138   0.077   1.624
 9529TIP3    H228533   2.215   0.184   1.550
 9530TIP3   OH228534   0.097   1.292   6.362
 9530TIP3    H128535   0.091   1.262   6.453
 9530TIP3    H228536   0.086   1.387   6.368
 9531TIP3   OH228537   4.027   0.665   0.049
 9531TIP3    H128538   3.947   0.711   0.072
 9531TIP3    H228539   4.041   0.687  -0.043
 9532TIP3   OH228540   4.537   7.332   6.316
 9532TIP3    H128541   4.545   7.239   6.294
 9532TIP3    H228542   4.565   7.378   6.236
 9533TIP3   OH228543   7.553   0.211   2.042
 9533TIP3    H128544   7.614   0.285   2.041
 9533TIP3    H228545   7.488   0.234   2.108
 9534TIP3   OH228546   7.457   0.671   2.826
 9534TIP3    H128547   7.552   0.687   2.825
 9534TIP3    H228548   7.428   0.711   2.908
 9535TIP3   OH228549   5.815   1.142   1.372
 9535TIP3    H128550   5.765   1.218   1.401
 9535TIP3    H228551   5.813   1.082   1.447
 9536TIP3   OH228552   4.440   6.015   3.929
 9536TIP3    H128553   4.444   5.978   3.841
 9536TIP3    H228554   4.529   6.043   3.948
 9537TIP3   OH228555   7.854   0.442   5.121
 9537TIP3    H128556   7.905   0.368   5.156
 9537TIP3    H228557   7.821   0.486   5.199
 9538TIP3   OH228558   7.010   7.130   0.247
 9538TIP3    H128559   6.986   7.194   0.180
 9538TIP3    H228560   6.927   7.089   0.271
 9539TIP3   OH228561   6.205   4.627   1.015
 9539TIP3    H128562   6.273   4.694   1.016
 9539TIP3    H228563   6.222   4.573   1.092
 9540TIP3   OH228564   5.097   2.300   5.167
 9540TIP3    H128565   5.046   2.376   5.142
 9540TIP3    H228566   5.131   2.265   5.085
 9541TIP3   OH228567   3.801   0.421   5.883
 9541TIP3    H128568   3.748   0.451   5.809
 9541TIP3    H228569   3.792   0.326   5.882
 9542TIP3   OH228570   3.597   3.538   6.070
 9542TIP3    H128571   3.574   3.512   5.981
 9542TIP3    H228572   3.656   3.613   6.059
 9543TIP3   OH228573   3.607   6.087   1.044
 9543TIP3    H128574   3.520   6.126   1.046
 9543TIP3    H228575   3.648   6.114   1.126
 9544TIP3   OH228576   1.449   2.053   1.004
 9544TIP3    H128577   1.500   2.032   1.082
 9544TIP3    H228578   1.430   1.969   0.964
 9545TIP3   OH228579   4.022   4.823   0.697
 9545TIP3    H128580   3.993   4.741   0.738
 9545TIP3    H228581   4.118   4.820   0.702
 9546TIP3   OH228582   7.909   0.976   0.415
 9546TIP3    H128583   7.818   0.952   0.435
 9546TIP3    H228584   7.961   0.902   0.446
 9547TIP3   OH228585   0.999   6.257   3.626
 9547TIP3    H128586   1.056   6.181   3.625
 9547TIP3    H228587   1.003   6.292   3.537
 9548TIP3   OH228588   4.976   7.137   3.014
 9548TIP3    H128589   4.983   7.222   3.056
 9548TIP3    H228590   4.883   7.125   2.999
 9549TIP3   OH228591   0.126   7.288   5.915
 9549TIP3    H128592   0.076   7.222   5.965
 9549TIP3    H228593   0.060   7.351   5.887
 9550TIP3   OH228594   6.656   1.207   0.358
 9550TIP3    H128595   6.651   1.284   0.414
 9550TIP3    H228596   6.567   1.195   0.325
 9551TIP3   OH228597   1.614   0.771   3.633
 9551TIP3    H128598   1.694   0.774   3.686
 9551TIP3    H228599   1.543   0.760   3.696
 9552TIP3   OH228600   8.118   2.730   1.354
 9552TIP3    H128601   8.186   2.795   1.367
 9552TIP3    H228602   8.097   2.699   1.443
 9553TIP3   OH228603   5.150   4.026   6.772
 9553TIP3    H128604   5.117   4.072   6.695
 9553TIP3    H228605   5.177   3.940   6.739
 9554TIP3   OH228606   4.714   6.830   5.754
 9554TIP3    H128607   4.682   6.742   5.734
 9554TIP3    H228608   4.677   6.851   5.840
 9555TIP3   OH228609   3.105   0.275   1.581
 9555TIP3    H128610   3.128   0.340   1.515
 9555TIP3    H228611   3.014   0.294   1.602
 9556TIP3   OH228612   7.340   1.254   0.118
 9556TIP3    H128613   7.374   1.342   0.101
 9556TIP3    H228614   7.245   1.262   0.109
 9557TIP3   OH228615   4.068   0.551   2.160
 9557TIP3    H128616   3.978   0.530   2.183
 9557TIP3    H228617   4.063   0.583   2.070
 9558TIP3   OH228618   5.614   6.523   1.786
 9558TIP3    H128619   5.579   6.500   1.700
 9558TIP3    H228620   5.679   6.592   1.768
 9559TIP3   OH228621   1.137   2.967   1.766
 9559TIP3    H128622   1.160   2.995   1.678
 9559TIP3    H228623   1.142   2.871   1.763
 9560TIP3   OH228624   6.052   1.171   1.220
 9560TIP3    H128625   6.062   1.256   1.262
 9560TIP3    H228626   5.969   1.137   1.252
 9561TIP3   OH228627   5.549   5.704   3.028
 9561TIP3    H128628   5.474   5.658   3.065
 9561TIP3    H228629   5.584   5.755   3.100
 9562TIP3   OH228630   3.628   1.212   3.282
 9562TIP3    H128631   3.605   1.148   3.216
 9562TIP3    H228632   3.555   1.273   3.284
 9563TIP3   OH228633   6.978   5.155   3.535
 9563TIP3    H128634   6.942   5.243   3.537
 9563TIP3    H228635   6.988   5.134   3.442
 9564TIP3   OH228636   0.725   6.603   0.875
 9564TIP3    H128637   0.811   6.588   0.914
 9564TIP3    H228638   0.730   6.560   0.789
 9565TIP3   OH228639   7.090   0.616   1.834
 9565TIP3    H128640   7.021   0.608   1.767
 9565TIP3    H228641   7.138   0.694   1.809
 9566TIP3   OH228642   2.380   1.976   5.566
 9566TIP3    H128643   2.298   1.991   5.519
 9566TIP3    H228644   2.395   2.058   5.614
 9567TIP3   OH228645   3.052   4.593   6.435
 9567TIP3    H128646   3.140   4.597   6.398
 9567TIP3    H228647   3.050   4.663   6.499
 9568TIP3   OH228648   7.270   2.882   6.048
 9568TIP3    H128649   7.203   2.814   6.050
 9568TIP3    H228650   7.222   2.962   6.071
 9569TIP3   OH228651   0.278   2.782   0.118
 9569TIP3    H128652   0.237   2.699   0.094
 9569TIP3    H228653   0.208   2.834   0.157
 9570TIP3   OH228654   8.053   3.612   2.708
 9570TIP3    H128655   8.070   3.604   2.802
 9570TIP3    H228656   8.001   3.535   2.687
 9571TIP3   OH228657   5.900   2.058   6.561
 9571TIP3    H128658   5.937   2.126   6.617
 9571TIP3    H228659   5.942   2.072   6.476
 9572TIP3   OH228660   5.049   0.858   2.151
 9572TIP3    H128661   5.133   0.878   2.110
 9572TIP3    H228662   5.049   0.910   2.232
 9573TIP3   OH228663   3.062   6.193   6.717
 9573TIP3    H128664   2.978   6.154   6.743
 9573TIP3    H228665   3.038   6.279   6.683
 9574TIP3   OH228666   2.490   3.860   6.473
 9574TIP3    H128667   2.541   3.859   6.393
 9574TIP3    H228668   2.515   3.942   6.516
 9575TIP3   OH228669   0.600   0.237   4.566
 9575TIP3    H128670   0.560   0.310   4.613
 9575TIP3    H228671   0.689   0.267   4.546
 9576TIP3   OH228672   5.860   7.360   2.719
 9576TIP3    H128673   5.786   7.418   2.700
 9576TIP3    H228674   5.849   7.337   2.811
 9577TIP3   OH228675   4.254   5.706   5.614
 9577TIP3    H128676   4.163   5.710   5.642
 9577TIP3    H228677   4.280   5.615   5.628
 9578TIP3   OH228678   5.037   4.566   3.153
 9578TIP3    H128679   5.069   4.478   3.177
 9578TIP3    H228680   5.070   4.579   3.064
 9579TIP3   OH228681   2.683   1.459   2.139
 9579TIP3    H128682   2.702   1.453   2.045
 9579TIP3    H228683   2.681   1.553   2.157
 9580TIP3   OH228684   2.979   5.139   0.567
 9580TIP3    H128685   3.022   5.080   0.505
 9580TIP3    H228686   2.890   5.105   0.573
 9581TIP3   OH228687   4.980   2.952   5.917
 9581TIP3    H128688   4.984   2.879   5.855
 9581TIP3    H228689   4.930   2.918   5.991
 9582TIP3   OH228690   5.257   1.452   3.590
 9582TIP3    H128691   5.211   1.454   3.674
 9582TIP3    H228692   5.283   1.542   3.574
 9583TIP3   OH228693   0.514   7.525   1.324
 9583TIP3    H128694   0.445   7.459   1.310
 9583TIP3    H228695   0.569   7.488   1.393
 9584TIP3   OH228696   2.628   5.623   0.229
 9584TIP3    H128697   2.657   5.616   0.320
 9584TIP3    H228698   2.709   5.622   0.178
 9585TIP3   OH228699   1.976   3.253   3.812
 9585TIP3    H128700   1.920   3.193   3.861
 9585TIP3    H228701   1.946   3.244   3.722
 9586TIP3   OH228702   0.302   0.738   0.751
 9586TIP3    H128703   0.394   0.743   0.726
 9586TIP3    H228704   0.296   0.660   0.805
 9587TIP3   OH228705   3.767   7.714   1.103
 9587TIP3    H128706   3.763   7.711   1.008
 9587TIP3    H228707   3.681   7.685   1.132
 9588TIP3   OH228708   8.150   2.828   4.763
 9588TIP3    H128709   8.180   2.904   4.812
 9588TIP3    H228710   8.176   2.844   4.673
 9589TIP3   OH228711   7.913   3.705   3.201
 9589TIP3    H128712   7.881   3.726   3.288
 9589TIP3    H228713   7.834   3.689   3.149
 9590TIP3   OH228714   5.834   4.219   4.463
 9590TIP3    H128715   5.748   4.210   4.422
 9590TIP3    H228716   5.856   4.131   4.492
 9591TIP3   OH228717   4.505   4.534   0.333
 9591TIP3    H128718   4.451   4.592   0.387
 9591TIP3    H228719   4.594   4.544   0.369
 9592TIP3   OH228720   0.565   3.748   2.189
 9592TIP3    H128721   0.544   3.669   2.139
 9592TIP3    H228722   0.574   3.816   2.122
 9593TIP3   OH228723   3.144   2.975   6.101
 9593TIP3    H128724   3.219   2.995   6.045
 9593TIP3    H228725   3.091   3.055   6.098
 9594TIP3   OH228726   0.824   5.848   4.839
 9594TIP3    H128727   0.838   5.943   4.835
 9594TIP3    H228728   0.740   5.834   4.795
 9595TIP3   OH228729   3.780   7.693   2.776
 9595TIP3    H128730   3.858   7.746   2.790
 9595TIP3    H228731   3.762   7.654   2.861
 9596TIP3   OH228732   1.106   2.037   5.738
 9596TIP3    H128733   1.058   1.968   5.784
 9596TIP3    H228734   1.197   2.023   5.761
 9597TIP3   OH228735   2.975   1.053   5.189
 9597TIP3    H128736   3.066   1.072   5.211
 9597TIP3    H228737   2.925   1.119   5.237
 9598TIP3   OH228738   6.085   7.482   6.189
 9598TIP3    H128739   6.087   7.508   6.281
 9598TIP3    H228740   6.003   7.518   6.155
 9599TIP3   OH228741   2.043   0.151   0.872
 9599TIP3    H128742   1.978   0.218   0.852
 9599TIP3    H228743   1.996   0.068   0.858
 9600TIP3   OH228744   8.229   2.518   5.671
 9600TIP3    H128745   8.234   2.425   5.649
 9600TIP3    H228746   8.156   2.524   5.732
 9601TIP3   OH228747   2.284   7.598   5.468
 9601TIP3    H128748   2.363   7.544   5.477
 9601TIP3    H228749   2.221   7.559   5.528
 9602TIP3   OH228750   1.105   4.202   6.729
 9602TIP3    H128751   1.016   4.215   6.762
 9602TIP3    H228752   1.137   4.291   6.712
 9603TIP3   OH228753   6.443   4.195   6.396
 9603TIP3    H128754   6.492   4.247   6.460
 9603TIP3    H228755   6.352   4.224   6.406
 9604TIP3   OH228756   2.037   3.901   0.887
 9604TIP3    H128757   2.101   3.916   0.818
 9604TIP3    H228758   2.001   3.814   0.868
 9605TIP3   OH228759   1.011   6.106   0.445
 9605TIP3    H128760   0.996   6.146   0.531
 9605TIP3    H228761   1.089   6.150   0.411
 9606TIP3   OH228762   6.799   7.078   6.123
 9606TIP3    H128763   6.865   7.102   6.188
 9606TIP3    H228764   6.850   7.053   6.046
 9607TIP3   OH228765   1.520   5.148   5.150
 9607TIP3    H128766   1.608   5.111   5.147
 9607TIP3    H228767   1.463   5.080   5.115
 9608TIP3   OH228768   5.878   0.659   6.122
 9608TIP3    H128769   5.909   0.583   6.072
 9608TIP3    H228770   5.880   0.630   6.213
 9609TIP3   OH228771   2.195   3.150   2.086
 9609TIP3    H128772   2.134   3.210   2.043
 9609TIP3    H228773   2.140   3.095   2.142
 9610TIP3   OH228774   5.330   1.070   2.874
 9610TIP3    H128775   5.339   1.032   2.787
 9610TIP3    H228776   5.333   0.994   2.933
 9611TIP3   OH228777   1.380   7.673   6.289
 9611TIP3    H128778   1.466   7.664   6.250
 9611TIP3    H228779   1.319   7.668   6.215
 9612TIP3   OH228780   5.483   1.528   3.318
 9612TIP3    H128781   5.457   1.442   3.351
 9612TIP3    H228782   5.578   1.529   3.330
 9613TIP3   OH228783   5.510   5.785   1.742
 9613TIP3    H128784   5.532   5.733   1.819
 9613TIP3    H228785   5.564   5.864   1.750
 9614TIP3   OH228786   5.009   2.050   2.671
 9614TIP3    H128787   5.089   2.102   2.671
 9614TIP3    H228788   4.964   2.076   2.590
 9615TIP3   OH228789   2.817   3.445   6.491
 9615TIP3    H128790   2.782   3.406   6.411
 9615TIP3    H228791   2.861   3.524   6.462
 9616TIP3   OH228792   8.222   5.934   6.433
 9616TIP3    H128793   8.216   6.008   6.494
 9616TIP3    H228794   8.257   5.862   6.486
 9617TIP3   OH228795   8.022   3.589   2.974
 9617TIP3    H128796   8.040   3.530   3.047
 9617TIP3    H228797   7.990   3.669   3.015
 9618TIP3   OH228798   6.161   4.027   0.961
 9618TIP3    H128799   6.246   3.994   0.993
 9618TIP3    H228800   6.131   4.084   1.031
 9619TIP3   OH228801   7.409   3.817   0.817
 9619TIP3    H128802   7.413   3.765   0.737
 9619TIP3    H228803   7.338   3.879   0.802
 9620TIP3   OH228804   1.663   6.195   2.390
 9620TIP3    H128805   1.648   6.101   2.377
 9620TIP3    H228806   1.595   6.238   2.338
 9621TIP3   OH228807   0.366   0.360   1.534
 9621TIP3    H128808   0.340   0.422   1.466
 9621TIP3    H228809   0.459   0.379   1.549
 9622TIP3   OH228810   2.826   0.766   0.982
 9622TIP3    H128811   2.738   0.798   0.960
 9622TIP3    H228812   2.885   0.821   0.930
 9623TIP3   OH228813   3.318   6.172   1.106
 9623TIP3    H128814   3.328   6.261   1.140
 9623TIP3    H228815   3.279   6.184   1.020
 9624TIP3   OH228816   7.464   7.022   4.578
 9624TIP3    H128817   7.560   7.029   4.581
 9624TIP3    H228818   7.433   7.102   4.618
 9625TIP3   OH228819   7.415   7.802   1.289
 9625TIP3    H128820   7.378   7.857   1.358
 9625TIP3    H228821   7.358   7.726   1.284
 9626TIP3   OH228822   0.385   2.113   0.818
 9626TIP3    H128823   0.306   2.124   0.765
 9626TIP3    H228824   0.456   2.146   0.762
 9627TIP3   OH228825   7.284   5.488   6.630
 9627TIP3    H128826   7.280   5.544   6.707
 9627TIP3    H228827   7.375   5.457   6.627
 9628TIP3   OH228828   6.117   3.098   5.538
 9628TIP3    H128829   6.174   3.120   5.464
 9628TIP3    H228830   6.088   3.009   5.519
 9629TIP3   OH228831   1.807   2.933   4.256
 9629TIP3    H128832   1.822   3.027   4.269
 9629TIP3    H228833   1.745   2.929   4.183
 9630TIP3   OH228834   6.907   3.194   1.817
 9630TIP3    H128835   6.819   3.228   1.797
 9630TIP3    H228836   6.904   3.103   1.789
 9631TIP3   OH228837   1.061   5.606   4.162
 9631TIP3    H128838   1.051   5.562   4.077
 9631TIP3    H228839   1.097   5.692   4.140
 9632TIP3   OH228840   4.072   3.295   1.579
 9632TIP3    H128841   3.977   3.297   1.588
 9632TIP3    H228842   4.096   3.205   1.600
 9633TIP3   OH228843   5.039   2.382   3.975
 9633TIP3    H128844   5.013   2.290   3.968
 9633TIP3    H228845   5.122   2.381   4.022
 9634TIP3   OH228846   0.198   2.940   4.939
 9634TIP3    H128847   0.289   2.957   4.914
 9634TIP3    H228848   0.175   2.858   4.896
 9635TIP3   OH228849   5.851   2.109   2.692
 9635TIP3    H128850   5.845   2.105   2.596
 9635TIP3    H228851   5.768   2.149   2.719
 9636TIP3   OH228852   7.281   1.101   1.046
 9636TIP3    H128853   7.370   1.134   1.057
 9636TIP3    H228854   7.276   1.026   1.106
 9637TIP3   OH228855   5.763   2.931   3.931
 9637TIP3    H128856   5.726   2.843   3.933
 9637TIP3    H228857   5.810   2.939   4.014
 9638TIP3   OH228858   6.043   6.599   1.215
 9638TIP3    H128859   6.057   6.548   1.295
 9638TIP3    H228860   5.949   6.616   1.214
 9639TIP3   OH228861   3.505   2.070   1.897
 9639TIP3    H128862   3.489   1.994   1.953
 9639TIP3    H228863   3.561   2.127   1.950
 9640TIP3   OH228864   0.514   0.748   1.802
 9640TIP3    H128865   0.510   0.815   1.870
 9640TIP3    H228866   0.566   0.788   1.732
 9641TIP3   OH228867   2.984   3.272   0.345
 9641TIP3    H128868   2.994   3.365   0.363
 9641TIP3    H228869   2.895   3.264   0.309
 9642TIP3   OH228870   8.245   1.326   0.100
 9642TIP3    H128871   8.185   1.256   0.074
 9642TIP3    H228872   8.331   1.283   0.104
 9643TIP3   OH228873   6.305   6.955   1.637
 9643TIP3    H128874   6.362   7.028   1.661
 9643TIP3    H228875   6.364   6.880   1.633
 9644TIP3   OH228876   7.875   2.204   1.641
 9644TIP3    H128877   7.898   2.255   1.718
 9644TIP3    H228878   7.940   2.230   1.575
 9645TIP3   OH228879   1.001   6.716   0.603
 9645TIP3    H128880   0.973   6.733   0.513
 9645TIP3    H228881   1.016   6.802   0.641
 9646TIP3   OH228882   3.445   3.635   5.250
 9646TIP3    H128883   3.418   3.642   5.342
 9646TIP3    H228884   3.402   3.708   5.207
 9647TIP3   OH228885   4.388   6.262   2.124
 9647TIP3    H128886   4.314   6.314   2.093
 9647TIP3    H228887   4.429   6.228   2.044
 9648TIP3   OH228888   7.328   7.467   5.778
 9648TIP3    H128889   7.409   7.420   5.756
 9648TIP3    H228890   7.353   7.559   5.781
 9649TIP3   OH228891   5.743   4.281   6.327
 9649TIP3    H128892   5.740   4.216   6.257
 9649TIP3    H228893   5.769   4.233   6.405
 9650TIP3   OH228894   1.689   0.055   2.218
 9650TIP3    H128895   1.716   0.090   2.134
 9650TIP3    H228896   1.619   0.113   2.247
 9651TIP3   OH228897   2.151   6.115   4.434
 9651TIP3    H128898   2.120   6.192   4.482
 9651TIP3    H228899   2.221   6.079   4.489
 9652TIP3   OH228900   5.614   5.944  -0.038
 9652TIP3    H128901   5.603   5.949   0.057
 9652TIP3    H228902   5.582   6.027  -0.072
 9653TIP3   OH228903   3.672   4.984   2.917
 9653TIP3    H128904   3.719   4.918   2.866
 9653TIP3    H228905   3.599   5.011   2.861
 9654TIP3   OH228906   7.700   3.869   1.311
 9654TIP3    H128907   7.761   3.942   1.313
 9654TIP3    H228908   7.698   3.841   1.219
 9655TIP3   OH228909   0.915   3.901   0.380
 9655TIP3    H128910   0.841   3.940   0.335
 9655TIP3    H228911   0.990   3.919   0.324
 9656TIP3   OH228912   6.176   6.528   0.991
 9656TIP3    H128913   6.136   6.508   1.076
 9656TIP3    H228914   6.169   6.623   0.983
 9657TIP3   OH228915   5.666   5.208   1.244
 9657TIP3    H128916   5.595   5.270   1.230
 9657TIP3    H228917   5.745   5.254   1.217
 9658TIP3   OH228918   6.866   6.764   0.231
 9658TIP3    H128919   6.831   6.792   0.147
 9658TIP3    H228920   6.875   6.669   0.223
 9659TIP3   OH228921   1.163   3.279   2.989
 9659TIP3    H128922   1.191   3.275   2.898
 9659TIP3    H228923   1.210   3.207   3.032
 9660TIP3   OH228924   7.227   1.730   5.037
 9660TIP3    H128925   7.161   1.681   4.988
 9660TIP3    H228926   7.202   1.822   5.024
 9661TIP3   OH228927   1.077   0.730   5.630
 9661TIP3    H128928   1.143   0.720   5.700
 9661TIP3    H228929   1.000   0.685   5.664
 9662TIP3   OH228930   7.083   3.376   0.421
 9662TIP3    H128931   7.001   3.347   0.381
 9662TIP3    H228932   7.137   3.404   0.347
 9663TIP3   OH228933   0.659   6.585   3.467
 9663TIP3    H128934   0.746   6.553   3.442
 9663TIP3    H228935   0.598   6.533   3.415
 9664TIP3   OH228936   6.494   6.905   5.319
 9664TIP3    H128937   6.462   6.822   5.353
 9664TIP3    H228938   6.423   6.967   5.336
 9665TIP3   OH228939   7.186   4.422   5.151
 9665TIP3    H128940   7.130   4.470   5.091
 9665TIP3    H228941   7.253   4.485   5.177
 9666TIP3   OH228942   1.915   0.261   4.500
 9666TIP3    H128943   1.901   0.218   4.416
 9666TIP3    H228944   1.827   0.266   4.539
 9667TIP3   OH228945   0.229   2.665   5.251
 9667TIP3    H128946   0.298   2.610   5.215
 9667TIP3    H228947   0.163   2.603   5.283
 9668TIP3   OH228948   8.161   2.802   0.887
 9668TIP3    H128949   8.140   2.715   0.920
 9668TIP3    H228950   8.077   2.839   0.860
 9669TIP3   OH228951   6.273   6.043   2.549
 9669TIP3    H128952   6.179   6.058   2.547
 9669TIP3    H228953   6.287   5.988   2.626
 9670TIP3   OH228954   5.450   1.309   3.844
 9670TIP3    H128955   5.419   1.394   3.877
 9670TIP3    H228956   5.396   1.244   3.889
 9671TIP3   OH228957   7.337   4.900   4.947
 9671TIP3    H128958   7.288   4.972   4.905
 9671TIP3    H228959   7.318   4.910   5.040
 9672TIP3   OH228960   1.765   0.273   2.430
 9672TIP3    H128961   1.697   0.325   2.386
 9672TIP3    H228962   1.823   0.245   2.359
 9673TIP3   OH228963   6.715   5.691   0.593
 9673TIP3    H128964   6.724   5.719   0.502
 9673TIP3    H228965   6.624   5.708   0.615
 9674TIP3   OH228966   5.966   7.138   2.580
 9674TIP3    H128967   5.940   7.199   2.648
 9674TIP3    H228968   5.886   7.122   2.530
 9675TIP3   OH228969   1.904   5.545   0.901
 9675TIP3    H128970   1.912   5.450   0.894
 9675TIP3    H228971   1.827   5.558   0.956
 9676TIP3   OH228972   3.004   4.591   2.408
 9676TIP3    H128973   3.041   4.518   2.359
 9676TIP3    H228974   2.912   4.569   2.418
 9677TIP3   OH228975   2.803   5.240   1.794
 9677TIP3    H128976   2.880   5.281   1.832
 9677TIP3    H228977   2.729   5.292   1.827
 9678TIP3   OH228978   2.407   5.272   6.263
 9678TIP3    H128979   2.448   5.290   6.347
 9678TIP3    H228980   2.349   5.346   6.249
 9679TIP3   OH228981   3.326   4.771   1.469
 9679TIP3    H128982   3.403   4.776   1.525
 9679TIP3    H228983   3.312   4.677   1.455
 9680TIP3   OH228984   0.680   4.117   0.004
 9680TIP3    H128985   0.633   4.058  -0.055
 9680TIP3    H228986   0.636   4.202  -0.008
 9681TIP3   OH228987   8.040   7.193   5.102
 9681TIP3    H128988   7.988   7.237   5.035
 9681TIP3    H228989   8.031   7.247   5.180
 9682TIP3   OH228990   0.521   1.979   6.165
 9682TIP3    H128991   0.503   1.937   6.249
 9682TIP3    H228992   0.438   2.020   6.140
 9683TIP3   OH228993   2.714   6.284   5.255
 9683TIP3    H128994   2.741   6.314   5.341
 9683TIP3    H228995   2.636   6.230   5.271
 9684TIP3   OH228996   4.875   3.598   1.375
 9684TIP3    H128997   4.838   3.606   1.287
 9684TIP3    H228998   4.900   3.506   1.382
 9685TIP3   OH228999   5.885   2.821   3.516
 9685TIP3    H129000   5.792   2.802   3.508
 9685TIP3    H229001   5.889   2.897   3.575
 9686TIP3   OH229002  -0.042   0.633   6.617
 9686TIP3    H129003  -0.018   0.540   6.623
 9686TIP3    H229004   0.042   0.679   6.610
 9687TIP3   OH229005   6.076   7.493   1.434
 9687TIP3    H129006   6.026   7.424   1.391
 9687TIP3    H229007   6.153   7.506   1.379
 9688TIP3   OH229008   1.153   7.425   3.391
 9688TIP3    H129009   1.201   7.452   3.470
 9688TIP3    H229010   1.182   7.487   3.324
 9689TIP3   OH229011   1.900   3.660   0.815
 9689TIP3    H129012   1.819   3.705   0.840
 9689TIP3    H229013   1.900   3.662   0.719
 9690TIP3   OH229014   6.140   1.662   5.518
 9690TIP3    H129015   6.096   1.746   5.528
 9690TIP3    H229016   6.222   1.673   5.566
 9691TIP3   OH229017   0.079   7.450   2.948
 9691TIP3    H129018   0.157   7.399   2.925
 9691TIP3    H229019   0.009   7.385   2.956
 9692TIP3   OH229020   2.968   3.052   1.972
 9692TIP3    H129021   2.884   3.047   1.927
 9692TIP3    H229022   2.945   3.060   2.065
 9693TIP3   OH229023   6.524   3.302   2.176
 9693TIP3    H129024   6.594   3.242   2.151
 9693TIP3    H229025   6.448   3.273   2.125
 9694TIP3   OH229026   3.546   2.733   2.780
 9694TIP3    H129027   3.451   2.743   2.787
 9694TIP3    H229028   3.579   2.821   2.765
 9695TIP3   OH229029   0.915   6.671   6.311
 9695TIP3    H129030   0.961   6.703   6.233
 9695TIP3    H229031   0.959   6.589   6.333
 9696TIP3   OH229032   2.674   2.188   5.393
 9696TIP3    H129033   2.722   2.175   5.475
 9696TIP3    H229034   2.628   2.271   5.405
 9697TIP3   OH229035   4.089   3.748   3.652
 9697TIP3    H129036   4.144   3.678   3.687
 9697TIP3    H229037   4.049   3.710   3.574
 9698TIP3   OH229038   8.263   7.102   5.005
 9698TIP3    H129039   8.209   7.073   4.931
 9698TIP3    H229040   8.201   7.141   5.066
 9699TIP3   OH229041   1.964   2.077   4.831
 9699TIP3    H129042   1.895   2.142   4.817
 9699TIP3    H229043   2.045   2.128   4.834
 9700TIP3   OH229044   2.316   6.270   4.823
 9700TIP3    H129045   2.384   6.305   4.880
 9700TIP3    H229046   2.256   6.225   4.881
 9701TIP3   OH229047   1.205   6.754   0.337
 9701TIP3    H129048   1.191   6.702   0.258
 9701TIP3    H229049   1.134   6.818   0.336
 9702TIP3   OH229050   4.070   6.413   4.337
 9702TIP3    H129051   3.988   6.461   4.328
 9702TIP3    H229052   4.075   6.359   4.257
 9703TIP3   OH229053   4.568   6.783   4.594
 9703TIP3    H129054   4.492   6.742   4.636
 9703TIP3    H229055   4.575   6.738   4.509
 9704TIP3   OH229056   1.032   4.449   4.022
 9704TIP3    H129057   0.980   4.444   4.102
 9704TIP3    H229058   1.033   4.359   3.988
 9705TIP3   OH229059   0.406   3.950   6.276
 9705TIP3    H129060   0.340   4.006   6.234
 9705TIP3    H229061   0.482   4.007   6.288
 9706TIP3   OH229062   6.175   5.540   2.600
 9706TIP3    H129063   6.235   5.472   2.630
 9706TIP3    H229064   6.198   5.554   2.509
 9707TIP3   OH229065   0.474   1.344   6.613
 9707TIP3    H129066   0.491   1.261   6.569
 9707TIP3    H229067   0.416   1.391   6.553
 9708TIP3   OH229068   5.641   4.046   3.830
 9708TIP3    H129069   5.685   4.025   3.747
 9708TIP3    H229070   5.712   4.057   3.893
 9709TIP3   OH229071   6.841   2.992   1.394
 9709TIP3    H129072   6.898   2.916   1.407
 9709TIP3    H229073   6.752   2.955   1.394
 9710TIP3   OH229074   6.734   0.689   2.215
 9710TIP3    H129075   6.724   0.660   2.125
 9710TIP3    H229076   6.677   0.632   2.266
 9711TIP3   OH229077   5.720   2.411   3.750
 9711TIP3    H129078   5.752   2.400   3.839
 9711TIP3    H229079   5.685   2.500   3.747
 9712TIP3   OH229080   0.041   2.210  -0.014
 9712TIP3    H129081   0.009   2.249   0.067
 9712TIP3    H229082  -0.013   2.132  -0.026
 9713TIP3   OH229083   5.612   2.011   6.177
 9713TIP3    H129084   5.652   2.080   6.124
 9713TIP3    H229085   5.642   2.028   6.266
 9714TIP3   OH229086   4.502   5.451   0.540
 9714TIP3    H129087   4.437   5.455   0.610
 9714TIP3    H229088   4.576   5.502   0.574
 9715TIP3   OH229089   2.950   3.784   3.116
 9715TIP3    H129090   2.959   3.778   3.021
 9715TIP3    H229091   2.963   3.694   3.147
 9716TIP3   OH229092   8.250   7.358   1.723
 9716TIP3    H129093   8.182   7.388   1.783
 9716TIP3    H229094   8.221   7.389   1.637
 9717TIP3   OH229095   2.512   3.621   0.267
 9717TIP3    H129096   2.447   3.556   0.296
 9717TIP3    H229097   2.576   3.571   0.217
 9718TIP3   OH229098   0.606   4.197   0.919
 9718TIP3    H129099   0.574   4.286   0.909
 9718TIP3    H229100   0.591   4.156   0.833
 9719TIP3   OH229101   6.417   2.702   1.201
 9719TIP3    H129102   6.447   2.618   1.237
 9719TIP3    H229103   6.497   2.750   1.181
 9720TIP3   OH229104   4.805   6.044   1.494
 9720TIP3    H129105   4.857   6.087   1.426
 9720TIP3    H229106   4.870   6.012   1.557
 9721TIP3   OH229107   6.147   6.409   4.445
 9721TIP3    H129108   6.110   6.331   4.404
 9721TIP3    H229109   6.108   6.482   4.397
 9722TIP3   OH229110   2.693   5.951   4.371
 9722TIP3    H129111   2.730   5.923   4.288
 9722TIP3    H229112   2.598   5.949   4.357
 9723TIP3   OH229113   0.708   4.085   0.299
 9723TIP3    H129114   0.708   4.089   0.203
 9723TIP3    H229115   0.622   4.049   0.321
 9724TIP3   OH229116   2.800   1.494   0.516
 9724TIP3    H129117   2.781   1.418   0.462
 9724TIP3    H229118   2.765   1.472   0.603
 9725TIP3   OH229119   4.728   1.697   5.064
 9725TIP3    H129120   4.694   1.612   5.091
 9725TIP3    H229121   4.656   1.758   5.083
 9726TIP3   OH229122   4.945   4.978   0.137
 9726TIP3    H129123   5.036   5.005   0.154
 9726TIP3    H229124   4.901   4.988   0.222
 9727TIP3   OH229125   5.002   6.535   5.527
 9727TIP3    H129126   5.047   6.468   5.475
 9727TIP3    H229127   4.910   6.509   5.525
 9728TIP3   OH229128   3.798   5.578   4.658
 9728TIP3    H129129   3.824   5.644   4.722
 9728TIP3    H229130   3.751   5.627   4.590
 9729TIP3   OH229131   0.541   6.813   3.047
 9729TIP3    H129132   0.472   6.749   3.031
 9729TIP3    H229133   0.535   6.833   3.140
 9730TIP3   OH229134   6.088   2.562   4.907
 9730TIP3    H129135   6.016   2.518   4.951
 9730TIP3    H229136   6.047   2.608   4.834
 9731TIP3   OH229137   4.714   7.613   4.029
 9731TIP3    H129138   4.702   7.660   3.946
 9731TIP3    H229139   4.808   7.614   4.044
 9732TIP3   OH229140   4.377   2.187   2.549
 9732TIP3    H129141   4.363   2.281   2.538
 9732TIP3    H229142   4.375   2.152   2.460
 9733TIP3   OH229143   0.261   1.211   4.750
 9733TIP3    H129144   0.344   1.164   4.742
 9733TIP3    H229145   0.221   1.202   4.663
 9734TIP3   OH229146   1.256   4.658   6.081
 9734TIP3    H129147   1.312   4.600   6.132
 9734TIP3    H229148   1.302   4.669   5.997
 9735TIP3   OH229149   0.273   3.066   6.685
 9735TIP3    H129150   0.287   3.029   6.772
 9735TIP3    H229151   0.333   3.019   6.628
 9736TIP3   OH229152   7.619   3.145   2.860
 9736TIP3    H129153   7.550   3.204   2.830
 9736TIP3    H229154   7.691   3.203   2.885
 9737TIP3   OH229155   0.835   7.317   4.079
 9737TIP3    H129156   0.868   7.229   4.061
 9737TIP3    H229157   0.909   7.362   4.119
 9738TIP3   OH229158   8.224   4.654   2.917
 9738TIP3    H129159   8.274   4.576   2.941
 9738TIP3    H229160   8.214   4.649   2.822
 9739TIP3   OH229161   6.152   5.002   3.457
 9739TIP3    H129162   6.180   5.087   3.491
 9739TIP3    H229163   6.121   4.954   3.533
 9740TIP3   OH229164   7.270   7.039   4.345
 9740TIP3    H129165   7.294   7.020   4.435
 9740TIP3    H229166   7.346   7.011   4.294
 9741TIP3   OH229167   2.368   4.396   1.384
 9741TIP3    H129168   2.353   4.338   1.310
 9741TIP3    H229169   2.462   4.391   1.400
 9742TIP3   OH229170   0.879   7.401   6.647
 9742TIP3    H129171   0.826   7.324   6.624
 9742TIP3    H229172   0.871   7.458   6.570
 9743TIP3   OH229173   7.165   2.378   2.963
 9743TIP3    H129174   7.261   2.387   2.968
 9743TIP3    H229175   7.151   2.316   2.891
 9744TIP3   OH229176   1.610   6.428   1.434
 9744TIP3    H129177   1.650   6.342   1.445
 9744TIP3    H229178   1.516   6.412   1.438
 9745TIP3   OH229179   7.711   5.108   6.007
 9745TIP3    H129180   7.754   5.146   5.930
 9745TIP3    H229181   7.646   5.048   5.971
 9746TIP3   OH229182   2.031   3.898   2.759
 9746TIP3    H129183   2.058   3.989   2.766
 9746TIP3    H229184   1.948   3.901   2.710
 9747TIP3   OH229185   0.670   2.967   6.139
 9747TIP3    H129186   0.730   3.033   6.105
 9747TIP3    H229187   0.723   2.913   6.198
 9748TIP3   OH229188   4.361   0.867   3.692
 9748TIP3    H129189   4.273   0.835   3.710
 9748TIP3    H229190   4.348   0.958   3.666
 9749TIP3   OH229191   3.000   5.178   1.086
 9749TIP3    H129192   3.013   5.233   1.009
 9749TIP3    H229193   3.038   5.229   1.158
 9750TIP3   OH229194   4.289   6.695   4.639
 9750TIP3    H129195   4.247   6.613   4.611
 9750TIP3    H229196   4.227   6.734   4.700
 9751TIP3   OH229197   7.828   3.434   6.086
 9751TIP3    H129198   7.877   3.514   6.104
 9751TIP3    H229199   7.750   3.440   6.141
 9752TIP3   OH229200   4.950   1.724   5.837
 9752TIP3    H129201   5.015   1.742   5.905
 9752TIP3    H229202   4.887   1.797   5.844
 9753TIP3   OH229203   7.285   3.656   6.205
 9753TIP3    H129204   7.230   3.728   6.236
 9753TIP3    H229205   7.293   3.671   6.111
 9754TIP3   OH229206   2.663   6.005   2.607
 9754TIP3    H129207   2.657   6.090   2.651
 9754TIP3    H229208   2.585   6.000   2.551
 9755TIP3   OH229209   4.196  -0.009   6.526
 9755TIP3    H129210   4.222   0.081   6.504
 9755TIP3    H229211   4.167  -0.046   6.443
 9756TIP3   OH229212   3.115   3.631   1.632
 9756TIP3    H129213   3.166   3.599   1.706
 9756TIP3    H229214   3.121   3.562   1.566
 9757TIP3   OH229215   4.279   6.994   4.521
 9757TIP3    H129216   4.274   6.899   4.526
 9757TIP3    H229217   4.361   7.016   4.565
 9758TIP3   OH229218   6.279   3.527   0.885
 9758TIP3    H129219   6.327   3.453   0.848
 9758TIP3    H229220   6.213   3.487   0.942
 9759TIP3   OH229221   6.147   0.696   3.731
 9759TIP3    H129222   6.235   0.658   3.733
 9759TIP3    H229223   6.149   0.764   3.798
 9760TIP3   OH229224   1.852   6.031   3.554
 9760TIP3    H129225   1.899   5.970   3.497
 9760TIP3    H229226   1.880   6.117   3.524
 9761TIP3   OH229227   2.551   0.324   3.114
 9761TIP3    H129228   2.614   0.396   3.123
 9761TIP3    H229229   2.527   0.302   3.203
 9762TIP3   OH229230   1.222   7.526   2.514
 9762TIP3    H129231   1.289   7.531   2.583
 9762TIP3    H229232   1.258   7.578   2.442
 9763TIP3   OH229233   5.211   1.240   2.568
 9763TIP3    H129234   5.275   1.172   2.548
 9763TIP3    H229235   5.173   1.213   2.652
 9764TIP3   OH229236   5.202   1.822   3.845
 9764TIP3    H129237   5.222   1.809   3.752
 9764TIP3    H229238   5.107   1.832   3.848
 9765TIP3   OH229239   7.348   2.384   3.345
 9765TIP3    H129240   7.287   2.319   3.380
 9765TIP3    H229241   7.301   2.467   3.351
 9766TIP3   OH229242   6.318   4.760   2.157
 9766TIP3    H129243   6.304   4.667   2.169
 9766TIP3    H229244   6.363   4.788   2.237
 9767TIP3   OH229245   6.537   0.372   4.867
 9767TIP3    H129246   6.538   0.451   4.813
 9767TIP3    H229247   6.621   0.330   4.849
 9768TIP3   OH229248   1.396   4.586   3.812
 9768TIP3    H129249   1.386   4.516   3.877
 9768TIP3    H229250   1.408   4.540   3.729
 9769TIP3   OH229251   5.428   3.724   1.840
 9769TIP3    H129252   5.380   3.652   1.881
 9769TIP3    H229253   5.520   3.704   1.858
 9770TIP3   OH229254   4.617   3.905   2.633
 9770TIP3    H129255   4.672   3.983   2.633
 9770TIP3    H229256   4.577   3.904   2.546
 9771TIP3   OH229257   6.366   1.111   3.926
 9771TIP3    H129258   6.352   1.127   3.833
 9771TIP3    H229259   6.461   1.116   3.938
 9772TIP3   OH229260   5.112   6.779   5.495
 9772TIP3    H129261   5.026   6.739   5.500
 9772TIP3    H229262   5.173   6.705   5.492
 9773TIP3   OH229263   1.267   7.612   0.248
 9773TIP3    H129264   1.355   7.624   0.281
 9773TIP3    H229265   1.212   7.610   0.326
 9774TIP3   OH229266   2.645   1.972   2.187
 9774TIP3    H129267   2.578   2.020   2.138
 9774TIP3    H229268   2.710   1.948   2.121
 9775TIP3   OH229269   3.579   0.708   4.573
 9775TIP3    H129270   3.509   0.773   4.569
 9775TIP3    H229271   3.645   0.748   4.630
 9776TIP3   OH229272   2.854   5.425   5.230
 9776TIP3    H129273   2.940   5.468   5.229
 9776TIP3    H229274   2.821   5.434   5.141
 9777TIP3   OH229275   0.784   2.553   4.455
 9777TIP3    H129276   0.833   2.476   4.484
 9777TIP3    H229277   0.836   2.627   4.484
 9778TIP3   OH229278   3.334   3.048   1.658
 9778TIP3    H129279   3.259   3.083   1.707
 9778TIP3    H229280   3.407   3.104   1.682
 9779TIP3   OH229281   0.269   6.575   1.269
 9779TIP3    H129282   0.214   6.627   1.329
 9779TIP3    H229283   0.329   6.528   1.327
 9780TIP3   OH229284   6.093   0.274   0.251
 9780TIP3    H129285   6.108   0.364   0.222
 9780TIP3    H229286   6.024   0.281   0.317
 9781TIP3   OH229287   4.688   3.947   5.100
 9781TIP3    H129288   4.730   3.872   5.142
 9781TIP3    H229289   4.686   4.015   5.168
 9782TIP3   OH229290   5.239   0.128   5.140
 9782TIP3    H129291   5.244   0.224   5.142
 9782TIP3    H229292   5.331   0.100   5.140
 9783TIP3   OH229293   2.653   5.218   4.567
 9783TIP3    H129294   2.721   5.284   4.558
 9783TIP3    H229295   2.571   5.266   4.564
 9784TIP3   OH229296   4.127   1.469   1.266
 9784TIP3    H129297   4.039   1.499   1.287
 9784TIP3    H229298   4.133   1.382   1.307
 9785TIP3   OH229299   1.436   5.165   6.211
 9785TIP3    H129300   1.488   5.086   6.225
 9785TIP3    H229301   1.379   5.143   6.137
 9786TIP3   OH229302   3.712   0.689   6.605
 9786TIP3    H129303   3.706   0.649   6.518
 9786TIP3    H229304   3.776   0.636   6.652
 9787TIP3   OH229305   6.320   1.059   6.454
 9787TIP3    H129306   6.379   1.005   6.401
 9787TIP3    H229307   6.351   1.149   6.439
 9788TIP3   OH229308   6.491   5.598   3.888
 9788TIP3    H129309   6.518   5.657   3.959
 9788TIP3    H229310   6.473   5.515   3.933
 9789TIP3   OH229311   5.367   4.377   3.301
 9789TIP3    H129312   5.372   4.281   3.298
 9789TIP3    H229313   5.428   4.402   3.371
 9790TIP3   OH229314   1.363   2.441   2.489
 9790TIP3    H129315   1.400   2.516   2.537
 9790TIP3    H229316   1.278   2.472   2.458
 9791TIP3   OH229317   0.997   4.587   0.081
 9791TIP3    H129318   0.902   4.595   0.072
 9791TIP3    H229319   1.013   4.588   0.175
 9792TIP3   OH229320   2.208   2.755   5.851
 9792TIP3    H129321   2.174   2.700   5.922
 9792TIP3    H229322   2.225   2.694   5.779
 9793TIP3   OH229323   1.463   4.495   0.219
 9793TIP3    H129324   1.501   4.560   0.160
 9793TIP3    H229325   1.482   4.528   0.307
 9794TIP3   OH229326   5.806   4.031   1.351
 9794TIP3    H129327   5.713   4.030   1.328
 9794TIP3    H229328   5.807   4.037   1.446
 9795TIP3   OH229329   6.352   0.515   3.775
 9795TIP3    H129330   6.433   0.503   3.825
 9795TIP3    H229331   6.375   0.489   3.686
 9796TIP3   OH229332   5.655   6.128   1.006
 9796TIP3    H129333   5.625   6.051   1.055
 9796TIP3    H229334   5.701   6.092   0.930
 9797TIP3   OH229335   5.903   6.728   4.837
 9797TIP3    H129336   5.955   6.679   4.773
 9797TIP3    H229337   5.942   6.706   4.921
 9798TIP3   OH229338   1.098   2.745   1.333
 9798TIP3    H129339   1.078   2.816   1.395
 9798TIP3    H229340   1.184   2.714   1.359
 9799TIP3   OH229341   0.898   7.397   2.768
 9799TIP3    H129342   0.844   7.318   2.760
 9799TIP3    H229343   0.984   7.370   2.735
 9800TIP3   OH229344   3.127   6.200   2.056
 9800TIP3    H129345   3.063   6.155   2.111
 9800TIP3    H229346   3.210   6.156   2.073
 9801TIP3   OH229347   4.639   4.094   1.330
 9801TIP3    H129348   4.553   4.070   1.297
 9801TIP3    H229349   4.684   4.011   1.345
 9802TIP3   OH229350   6.070   2.068   0.283
 9802TIP3    H129351   6.120   2.034   0.357
 9802TIP3    H229352   6.130   2.063   0.209
 9803TIP3   OH229353   4.363   5.944   6.342
 9803TIP3    H129354   4.410   5.873   6.385
 9803TIP3    H229355   4.286   5.958   6.398
 9804TIP3   OH229356   4.159   3.383   1.307
 9804TIP3    H129357   4.093   3.372   1.375
 9804TIP3    H229358   4.136   3.318   1.241
 9805TIP3   OH229359   4.569   4.342   4.200
 9805TIP3    H129360   4.651   4.308   4.164
 9805TIP3    H229361   4.526   4.265   4.239
 9806TIP3   OH229362   5.862   2.377   4.855
 9806TIP3    H129363   5.855   2.282   4.844
 9806TIP3    H229364   5.861   2.412   4.766
 9807TIP3   OH229365   4.831   5.371   3.755
 9807TIP3    H129366   4.874   5.343   3.675
 9807TIP3    H229367   4.765   5.434   3.726
 9808TIP3   OH229368   4.753   1.977   2.730
 9808TIP3    H129369   4.748   2.044   2.799
 9808TIP3    H229370   4.845   1.975   2.706
 9809TIP3   OH229371   0.373   6.077   1.733
 9809TIP3    H129372   0.391   6.164   1.696
 9809TIP3    H229373   0.294   6.048   1.689
 9810TIP3   OH229374   2.502   2.338   5.755
 9810TIP3    H129375   2.466   2.389   5.828
 9810TIP3    H229376   2.496   2.247   5.784
 9811TIP3   OH229377   1.174   1.849   6.449
 9811TIP3    H129378   1.188   1.782   6.516
 9811TIP3    H229379   1.141   1.801   6.374
 9812TIP3   OH229380   6.718   2.337   0.950
 9812TIP3    H129381   6.739   2.423   0.915
 9812TIP3    H229382   6.686   2.355   1.039
 9813TIP3   OH229383   7.040   5.167   0.679
 9813TIP3    H129384   6.985   5.194   0.753
 9813TIP3    H229385   7.084   5.088   0.711
 9814TIP3   OH229386   2.484   3.058   5.178
 9814TIP3    H129387   2.520   2.981   5.223
 9814TIP3    H229388   2.509   3.046   5.087
 9815TIP3   OH229389   6.792   5.967   5.893
 9815TIP3    H129390   6.753   5.916   5.963
 9815TIP3    H229391   6.865   6.014   5.934
 9816TIP3   OH229392   3.916   1.418   6.316
 9816TIP3    H129393   3.884   1.327   6.313
 9816TIP3    H229394   3.956   1.432   6.231
 9817TIP3   OH229395   5.466   6.007   4.701
 9817TIP3    H129396   5.514   5.954   4.765
 9817TIP3    H229397   5.503   6.094   4.708
 9818TIP3   OH229398   4.876   4.597   2.554
 9818TIP3    H129399   4.895   4.565   2.642
 9818TIP3    H229400   4.865   4.691   2.564
 9819TIP3   OH229401   0.476   4.682   1.901
 9819TIP3    H129402   0.416   4.619   1.942
 9819TIP3    H229403   0.503   4.641   1.820
 9820TIP3   OH229404   2.832   2.497   3.786
 9820TIP3    H129405   2.897   2.503   3.857
 9820TIP3    H229406   2.748   2.506   3.831
 9821TIP3   OH229407   2.140   4.164   3.910
 9821TIP3    H129408   2.072   4.127   3.854
 9821TIP3    H229409   2.221   4.125   3.878
 9822TIP3   OH229410   1.260   2.741   6.240
 9822TIP3    H129411   1.319   2.804   6.198
 9822TIP3    H229412   1.212   2.701   6.168
 9823TIP3   OH229413   7.860   6.696   5.143
 9823TIP3    H129414   7.792   6.704   5.077
 9823TIP3    H229415   7.888   6.787   5.160
 9824TIP3   OH229416   6.807   2.009   5.474
 9824TIP3    H129417   6.879   2.043   5.528
 9824TIP3    H229418   6.847   1.939   5.423
 9825TIP3   OH229419   5.346   6.795   1.837
 9825TIP3    H129420   5.267   6.847   1.828
 9825TIP3    H229421   5.315   6.705   1.848
 9826TIP3   OH229422   5.843   5.487   6.043
 9826TIP3    H129423   5.861   5.532   5.960
 9826TIP3    H229424   5.928   5.480   6.086
 9827TIP3   OH229425   2.560   4.402   6.216
 9827TIP3    H129426   2.576   4.496   6.227
 9827TIP3    H229427   2.488   4.382   6.275
 9828TIP3   OH229428   1.898   6.900   0.073
 9828TIP3    H129429   1.943   6.984   0.068
 9828TIP3    H229430   1.826   6.915   0.134
 9829TIP3   OH229431   2.712   0.618   1.469
 9829TIP3    H129432   2.776   0.676   1.511
 9829TIP3    H229433   2.636   0.675   1.454
 9830TIP3   OH229434   0.234   3.302   2.239
 9830TIP3    H129435   0.225   3.252   2.320
 9830TIP3    H229436   0.310   3.264   2.195
 9831TIP3   OH229437   6.522   6.651   0.670
 9831TIP3    H129438   6.501   6.743   0.651
 9831TIP3    H229439   6.553   6.653   0.761
 9832TIP3   OH229440   4.874   7.160   1.155
 9832TIP3    H129441   4.958   7.119   1.174
 9832TIP3    H229442   4.820   7.089   1.122
 9833TIP3   OH229443   4.524   0.622   0.616
 9833TIP3    H129444   4.554   0.702   0.659
 9833TIP3    H229445   4.500   0.649   0.528
 9834TIP3   OH229446   7.701   0.716   2.085
 9834TIP3    H129447   7.727   0.636   2.131
 9834TIP3    H229448   7.680   0.687   1.996
 9835TIP3   OH229449   4.155   1.160   2.300
 9835TIP3    H129450   4.164   1.249   2.266
 9835TIP3    H229451   4.216   1.108   2.249
 9836TIP3   OH229452   0.031   6.979   1.142
 9836TIP3    H129453   0.067   7.048   1.087
 9836TIP3    H229454   0.019   7.020   1.228
 9837TIP3   OH229455   0.220   4.798   0.240
 9837TIP3    H129456   0.292   4.847   0.280
 9837TIP3    H229457   0.205   4.842   0.157
 9838TIP3   OH229458   3.723   2.430   6.122
 9838TIP3    H129459   3.815   2.424   6.096
 9838TIP3    H229460   3.683   2.350   6.090
 9839TIP3   OH229461   7.109   5.043   1.293
 9839TIP3    H129462   7.130   5.136   1.284
 9839TIP3    H229463   7.135   5.021   1.383
 9840TIP3   OH229464   7.912   5.389   0.376
 9840TIP3    H129465   7.955   5.304   0.364
 9840TIP3    H229466   7.984   5.450   0.387
 9841TIP3   OH229467   3.234   4.419   1.721
 9841TIP3    H129468   3.298   4.355   1.752
 9841TIP3    H229469   3.227   4.402   1.627
 9842TIP3   OH229470   3.896   2.609   6.521
 9842TIP3    H129471   3.969   2.608   6.582
 9842TIP3    H229472   3.843   2.685   6.546
 9843TIP3   OH229473   0.526   6.029   0.355
 9843TIP3    H129474   0.613   5.999   0.381
 9843TIP3    H229475   0.466   5.970   0.401
 9844TIP3   OH229476   0.630   3.053   0.127
 9844TIP3    H129477   0.604   2.996   0.055
 9844TIP3    H229478   0.652   2.993   0.199
 9845TIP3   OH229479   4.464   6.605   5.095
 9845TIP3    H129480   4.429   6.694   5.100
 9845TIP3    H229481   4.455   6.581   5.003
 9846TIP3   OH229482   2.741   1.481   3.911
 9846TIP3    H129483   2.832   1.480   3.941
 9846TIP3    H229484   2.728   1.570   3.877
 9847TIP3   OH229485   3.294   4.540   5.745
 9847TIP3    H129486   3.207   4.534   5.705
 9847TIP3    H229487   3.354   4.505   5.679
 9848TIP3   OH229488   6.181   2.353   4.742
 9848TIP3    H129489   6.151   2.420   4.804
 9848TIP3    H229490   6.254   2.310   4.787
 9849TIP3   OH229491   8.300   0.231   6.165
 9849TIP3    H129492   8.242   0.183   6.105
 9849TIP3    H229493   8.281   0.323   6.147
 9850TIP3   OH229494   5.682   6.808   6.766
 9850TIP3    H129495   5.630   6.817   6.686
 9850TIP3    H229496   5.745   6.738   6.745
 9851TIP3   OH229497   6.744   4.172   5.528
 9851TIP3    H129498   6.674   4.169   5.594
 9851TIP3    H229499   6.705   4.221   5.456
 9852TIP3   OH229500   5.613   4.127   0.206
 9852TIP3    H129501   5.591   4.066   0.276
 9852TIP3    H229502   5.572   4.209   0.232
 9853TIP3   OH229503   2.792   3.930   0.985
 9853TIP3    H129504   2.763   3.899   1.071
 9853TIP3    H229505   2.861   3.869   0.960
 9854TIP3   OH229506   1.152   3.590   4.316
 9854TIP3    H129507   1.140   3.621   4.406
 9854TIP3    H229508   1.205   3.658   4.275
 9855TIP3   OH229509   5.148   2.867   2.157
 9855TIP3    H129510   5.242   2.861   2.141
 9855TIP3    H229511   5.141   2.895   2.249
 9856TIP3   OH229512   2.212   3.394   6.505
 9856TIP3    H129513   2.273   3.460   6.537
 9856TIP3    H229514   2.152   3.378   6.578
 9857TIP3   OH229515   1.503   6.250   5.935
 9857TIP3    H129516   1.454   6.268   6.015
 9857TIP3    H229517   1.517   6.155   5.935
 9858TIP3   OH229518   3.681   1.943   0.556
 9858TIP3    H129519   3.614   1.911   0.496
 9858TIP3    H229520   3.710   2.026   0.518
 9859TIP3   OH229521   6.869   0.552   6.400
 9859TIP3    H129522   6.867   0.585   6.490
 9859TIP3    H229523   6.955   0.578   6.367
 9860TIP3   OH229524   3.740   3.540   3.262
 9860TIP3    H129525   3.656   3.494   3.266
 9860TIP3    H229526   3.731   3.602   3.190
 9861TIP3   OH229527   2.670   5.043   0.150
 9861TIP3    H129528   2.625   4.983   0.091
 9861TIP3    H229529   2.743   4.992   0.185
 9862TIP3   OH229530   4.393   0.653   3.936
 9862TIP3    H129531   4.486   0.678   3.933
 9862TIP3    H229532   4.380   0.621   4.025
 9863TIP3   OH229533   4.097   3.399   0.689
 9863TIP3    H129534   4.148   3.474   0.659
 9863TIP3    H229535   4.082   3.348   0.610
 9864TIP3   OH229536   5.876   2.948   1.827
 9864TIP3    H129537   5.905   3.001   1.901
 9864TIP3    H229538   5.829   3.009   1.770
 9865TIP3   OH229539   3.356   5.791   6.184
 9865TIP3    H129540   3.369   5.708   6.139
 9865TIP3    H229541   3.427   5.847   6.153
 9866TIP3   OH229542   6.348   4.204   1.535
 9866TIP3    H129543   6.334   4.115   1.503
 9866TIP3    H229544   6.357   4.196   1.630
 9867TIP3   OH229545   3.802   4.395   1.990
 9867TIP3    H129546   3.838   4.475   2.027
 9867TIP3    H229547   3.843   4.388   1.904
 9868TIP3   OH229548   0.174   7.076   2.487
 9868TIP3    H129549   0.082   7.085   2.511
 9868TIP3    H229550   0.222   7.115   2.561
 9869TIP3   OH229551   0.830   2.557   3.357
 9869TIP3    H129552   0.837   2.582   3.449
 9869TIP3    H229553   0.798   2.636   3.313
 9870TIP3   OH229554   1.001   6.679   2.640
 9870TIP3    H129555   1.015   6.685   2.545
 9870TIP3    H229556   0.961   6.592   2.653
 9871TIP3   OH229557   2.960   2.470   4.399
 9871TIP3    H129558   3.049   2.504   4.404
 9871TIP3    H229559   2.907   2.534   4.447
 9872TIP3   OH229560   7.970   1.527   0.887
 9872TIP3    H129561   8.006   1.443   0.858
 9872TIP3    H229562   8.039   1.566   0.940
 9873TIP3   OH229563   2.157   1.500   2.733
 9873TIP3    H129564   2.190   1.447   2.660
 9873TIP3    H229565   2.106   1.569   2.692
 9874TIP3   OH229566   4.324   2.771   3.825
 9874TIP3    H129567   4.377   2.844   3.857
 9874TIP3    H229568   4.251   2.813   3.779
 9875TIP3   OH229569   4.899   3.691   3.190
 9875TIP3    H129570   4.862   3.638   3.261
 9875TIP3    H229571   4.993   3.693   3.209
 9876TIP3   OH229572   1.363   3.984   0.782
 9876TIP3    H129573   1.448   4.024   0.799
 9876TIP3    H229574   1.299   4.048   0.815
 9877TIP3   OH229575   8.066   2.685   2.180
 9877TIP3    H129576   7.979   2.710   2.149
 9877TIP3    H229577   8.068   2.712   2.271
 9878TIP3   OH229578   1.444   7.327   0.786
 9878TIP3    H129579   1.418   7.387   0.856
 9878TIP3    H229580   1.531   7.296   0.813
 9879TIP3   OH229581   8.027   1.391   4.815
 9879TIP3    H129582   7.968   1.418   4.885
 9879TIP3    H229583   8.104   1.447   4.825
 9880TIP3   OH229584   2.719   3.427   4.931
 9880TIP3    H129585   2.754   3.341   4.953
 9880TIP3    H229586   2.660   3.448   5.004
 9881TIP3   OH229587   6.982   5.311   6.354
 9881TIP3    H129588   7.045   5.372   6.315
 9881TIP3    H229589   7.023   5.225   6.346
 9882TIP3   OH229590   7.069   4.342   3.579
 9882TIP3    H129591   7.105   4.402   3.514
 9882TIP3    H229592   7.041   4.398   3.651
 9883TIP3   OH229593   0.380   4.679   2.927
 9883TIP3    H129594   0.336   4.622   2.864
 9883TIP3    H229595   0.308   4.720   2.976
 9884TIP3   OH229596   0.150   1.377   2.507
 9884TIP3    H129597   0.114   1.458   2.543
 9884TIP3    H229598   0.182   1.401   2.420
 9885TIP3   OH229599   2.431   1.610   1.309
 9885TIP3    H129600   2.435   1.551   1.234
 9885TIP3    H229601   2.502   1.672   1.294
 9886TIP3   OH229602   3.926   3.904   1.680
 9886TIP3    H129603   3.922   3.837   1.611
 9886TIP3    H229604   4.018   3.929   1.684
 9887TIP3   OH229605   7.768   2.157   5.049
 9887TIP3    H129606   7.681   2.133   5.083
 9887TIP3    H229607   7.750   2.198   4.965
 9888TIP3   OH229608   0.964   0.626   4.334
 9888TIP3    H129609   0.930   0.593   4.251
 9888TIP3    H229610   0.925   0.713   4.344
 9889TIP3   OH229611   8.028   6.511   5.002
 9889TIP3    H129612   7.980   6.438   4.963
 9889TIP3    H229613   7.961   6.563   5.047
 9890TIP3   OH229614   5.407   0.015   1.031
 9890TIP3    H129615   5.343   0.075   1.069
 9890TIP3    H229616   5.477   0.073   0.998
 9891TIP3   OH229617   0.484   4.418   0.189
 9891TIP3    H129618   0.390   4.435   0.185
 9891TIP3    H229619   0.507   4.390   0.100
 9892TIP3   OH229620   5.890   3.512   2.883
 9892TIP3    H129621   5.859   3.592   2.841
 9892TIP3    H229622   5.934   3.464   2.814
 9893TIP3   OH229623   4.862   5.296   0.908
 9893TIP3    H129624   4.920   5.231   0.868
 9893TIP3    H229625   4.899   5.380   0.882
 9894TIP3   OH229626   2.768   0.559   6.335
 9894TIP3    H129627   2.725   0.644   6.343
 9894TIP3    H229628   2.838   0.561   6.401
 9895TIP3   OH229629   3.069   1.533   1.476
 9895TIP3    H129630   3.047   1.558   1.387
 9895TIP3    H229631   3.100   1.443   1.469
 9896TIP3   OH229632   3.939   7.441   4.010
 9896TIP3    H129633   3.967   7.498   3.938
 9896TIP3    H229634   3.975   7.482   4.088
 9897TIP3   OH229635   0.156   0.453   4.664
 9897TIP3    H129636   0.145   0.474   4.757
 9897TIP3    H229637   0.201   0.529   4.628
 9898TIP3   OH229638   8.067   3.999   5.544
 9898TIP3    H129639   8.007   3.970   5.612
 9898TIP3    H229640   8.129   4.056   5.589
 9899TIP3   OH229641   8.061   6.405   6.520
 9899TIP3    H129642   8.116   6.327   6.516
 9899TIP3    H229643   8.107   6.463   6.581
 9900TIP3   OH229644   2.221   2.574   5.582
 9900TIP3    H129645   2.126   2.580   5.567
 9900TIP3    H229646   2.251   2.508   5.519
 9901TIP3   OH229647   8.030   7.553   2.653
 9901TIP3    H129648   8.101   7.584   2.710
 9901TIP3    H229649   8.058   7.576   2.565
 9902TIP3   OH229650   6.579   7.139   3.607
 9902TIP3    H129651   6.526   7.141   3.687
 9902TIP3    H229652   6.576   7.228   3.573
 9903TIP3   OH229653   4.852   7.648   5.987
 9903TIP3    H129654   4.845   7.661   5.892
 9903TIP3    H229655   4.946   7.638   6.002
 9904TIP3   OH229656   5.624   3.100   4.507
 9904TIP3    H129657   5.693   3.098   4.573
 9904TIP3    H229658   5.563   3.030   4.534
 9905TIP3   OH229659   6.788   5.145   3.776
 9905TIP3    H129660   6.771   5.235   3.748
 9905TIP3    H229661   6.777   5.093   3.696
 9906TIP3   OH229662   7.570   6.528   2.132
 9906TIP3    H129663   7.563   6.463   2.062
 9906TIP3    H229664   7.664   6.543   2.142
 9907TIP3   OH229665   0.274   5.363   2.820
 9907TIP3    H129666   0.342   5.298   2.802
 9907TIP3    H229667   0.193   5.312   2.827
 9908TIP3   OH229668   4.058   7.244   5.963
 9908TIP3    H129669   4.111   7.209   6.034
 9908TIP3    H229670   4.105   7.218   5.883
 9909TIP3   OH229671   3.814   6.062   6.508
 9909TIP3    H129672   3.848   5.988   6.559
 9909TIP3    H229673   3.719   6.049   6.508
 9910TIP3   OH229674   2.360   5.133   4.436
 9910TIP3    H129675   2.300   5.114   4.508
 9910TIP3    H229676   2.390   5.222   4.454
 9911TIP3   OH229677   0.179   3.392   5.918
 9911TIP3    H129678   0.133   3.340   5.984
 9911TIP3    H229679   0.148   3.481   5.931
 9912TIP3   OH229680   4.966   6.010   6.108
 9912TIP3    H129681   4.887   6.054   6.138
 9912TIP3    H229682   4.936   5.926   6.074
 9913TIP3   OH229683   1.113   0.401   2.406
 9913TIP3    H129684   1.178   0.463   2.438
 9913TIP3    H229685   1.041   0.405   2.469
 9914TIP3   OH229686   5.369   3.268   3.269
 9914TIP3    H129687   5.336   3.179   3.283
 9914TIP3    H229688   5.391   3.298   3.358
 9915TIP3   OH229689   8.087   5.763   5.332
 9915TIP3    H129690   8.173   5.774   5.372
 9915TIP3    H229691   8.032   5.728   5.402
 9916TIP3   OH229692   4.404   1.951   4.743
 9916TIP3    H129693   4.396   2.040   4.711
 9916TIP3    H229694   4.498   1.932   4.740
 9917TIP3   OH229695   5.038   2.762   3.474
 9917TIP3    H129696   5.030   2.854   3.499
 9917TIP3    H229697   5.096   2.723   3.540
 9918TIP3   OH229698   7.885   4.502   1.636
 9918TIP3    H129699   7.889   4.595   1.658
 9918TIP3    H229700   7.793   4.478   1.652
 9919TIP3   OH229701   1.735   1.318   6.547
 9919TIP3    H129702   1.779   1.380   6.606
 9919TIP3    H229703   1.807   1.269   6.507
 9920TIP3   OH229704   6.006   7.458   4.941
 9920TIP3    H129705   5.927   7.483   4.893
 9920TIP3    H229706   5.977   7.391   5.003
 9921TIP3   OH229707   2.027   1.180   5.865
 9921TIP3    H129708   2.091   1.198   5.934
 9921TIP3    H229709   1.950   1.231   5.890
 9922TIP3   OH229710   7.185   4.983   1.564
 9922TIP3    H129711   7.108   5.003   1.618
 9922TIP3    H229712   7.258   5.023   1.612
 9923TIP3   OH229713   0.086   4.721   2.575
 9923TIP3    H129714   0.158   4.703   2.635
 9923TIP3    H229715   0.083   4.816   2.569
 9924TIP3   OH229716   7.318   6.313   1.497
 9924TIP3    H129717   7.367   6.386   1.460
 9924TIP3    H229718   7.273   6.274   1.422
 9925TIP3   OH229719   1.972   2.942   5.047
 9925TIP3    H129720   1.902   3.008   5.041
 9925TIP3    H229721   2.048   2.985   5.008
 9926TIP3   OH229722   3.252   1.184   5.571
 9926TIP3    H129723   3.220   1.143   5.491
 9926TIP3    H229724   3.330   1.232   5.544
 9927TIP3   OH229725   4.808   6.509   2.286
 9927TIP3    H129726   4.766   6.431   2.323
 9927TIP3    H229727   4.900   6.502   2.313
 9928TIP3   OH229728   3.267   7.323   3.830
 9928TIP3    H129729   3.269   7.349   3.922
 9928TIP3    H229730   3.354   7.287   3.813
 9929TIP3   OH229731   5.485   1.600   4.526
 9929TIP3    H129732   5.569   1.635   4.557
 9929TIP3    H229733   5.491   1.506   4.541
 9930TIP3   OH229734   8.086   4.797   2.701
 9930TIP3    H129735   8.109   4.889   2.710
 9930TIP3    H229736   8.037   4.792   2.620
 9931TIP3   OH229737   7.491   6.490   5.160
 9931TIP3    H129738   7.541   6.410   5.147
 9931TIP3    H229739   7.549   6.546   5.213
 9932TIP3   OH229740   1.132   1.575   6.301
 9932TIP3    H129741   1.120   1.508   6.235
 9932TIP3    H229742   1.219   1.611   6.284
 9933TIP3   OH229743   7.927   3.377   1.568
 9933TIP3    H129744   7.999   3.440   1.567
 9933TIP3    H229745   7.968   3.292   1.553
 9934TIP3   OH229746   5.178   4.486   0.503
 9934TIP3    H129747   5.195   4.397   0.535
 9934TIP3    H229748   5.153   4.535   0.582
 9935TIP3   OH229749   0.775   1.373   6.289
 9935TIP3    H129750   0.784   1.463   6.321
 9935TIP3    H229751   0.804   1.377   6.198
 9936TIP3   OH229752   0.065   6.693   5.329
 9936TIP3    H129753   0.020   6.616   5.293
 9936TIP3    H229754   0.157   6.667   5.332
 9937TIP3   OH229755   1.538   6.584   4.120
 9937TIP3    H129756   1.451   6.547   4.105
 9937TIP3    H229757   1.548   6.650   4.052
 9938TIP3   OH229758   3.514   2.798   4.524
 9938TIP3    H129759   3.560   2.881   4.514
 9938TIP3    H229760   3.447   2.815   4.590
 9939TIP3   OH229761   7.511   4.515   2.835
 9939TIP3    H129762   7.602   4.495   2.853
 9939TIP3    H229763   7.463   4.437   2.865
 9940TIP3   OH229764   5.392   1.432   4.905
 9940TIP3    H129765   5.460   1.499   4.900
 9940TIP3    H229766   5.349   1.447   4.989
 9941TIP3   OH229767   5.980   4.784   0.228
 9941TIP3    H129768   5.896   4.780   0.183
 9941TIP3    H229769   5.961   4.825   0.312
 9942TIP3   OH229770   5.958   5.802   1.664
 9942TIP3    H129771   6.002   5.762   1.588
 9942TIP3    H229772   5.872   5.828   1.630
 9943TIP3   OH229773   2.552   0.986   2.376
 9943TIP3    H129774   2.647   0.996   2.386
 9943TIP3    H229775   2.515   1.065   2.415
 9944TIP3   OH229776   3.089   1.765   4.776
 9944TIP3    H129777   3.112   1.673   4.782
 9944TIP3    H229778   3.002   1.766   4.735
 9945TIP3   OH229779   0.266   0.305   4.121
 9945TIP3    H129780   0.281   0.352   4.204
 9945TIP3    H229781   0.275   0.373   4.054
 9946TIP3   OH229782   6.565   1.836   3.592
 9946TIP3    H129783   6.561   1.741   3.587
 9946TIP3    H229784   6.473   1.864   3.595
 9947TIP3   OH229785   6.367   0.816   2.188
 9947TIP3    H129786   6.392   0.809   2.096
 9947TIP3    H229787   6.313   0.739   2.204
 9948TIP3   OH229788   8.069   1.719   0.311
 9948TIP3    H129789   7.995   1.700   0.253
 9948TIP3    H229790   8.044   1.680   0.395
 9949TIP3   OH229791   3.076   4.122   3.921
 9949TIP3    H129792   3.051   4.116   4.014
 9949TIP3    H229793   3.024   4.194   3.887
 9950TIP3   OH229794   5.567   2.677   2.602
 9950TIP3    H129795   5.631   2.677   2.673
 9950TIP3    H229796   5.592   2.603   2.547
 9951TIP3   OH229797   7.560   3.792   4.177
 9951TIP3    H129798   7.594   3.809   4.265
 9951TIP3    H229799   7.625   3.735   4.137
 9952TIP3   OH229800   3.464   3.438   4.186
 9952TIP3    H129801   3.444   3.487   4.106
 9952TIP3    H229802   3.384   3.389   4.206
 9953TIP3   OH229803   7.340   1.695   6.701
 9953TIP3    H129804   7.346   1.620   6.641
 9953TIP3    H229805   7.245   1.710   6.710
 9954TIP3   OH229806   0.831   0.811   1.153
 9954TIP3    H129807   0.792   0.895   1.126
 9954TIP3    H229808   0.905   0.836   1.208
 9955TIP3   OH229809   6.400   5.326   0.939
 9955TIP3    H129810   6.305   5.338   0.945
 9955TIP3    H229811   6.420   5.344   0.847
 9956TIP3   OH229812   0.077   2.039   3.790
 9956TIP3    H129813   0.061   2.132   3.807
 9956TIP3    H229814   0.170   2.027   3.804
 9957TIP3   OH229815   3.769   3.738   0.258
 9957TIP3    H129816   3.838   3.677   0.231
 9957TIP3    H229817   3.802   3.776   0.339
 9958TIP3   OH229818   6.013   2.125   6.067
 9958TIP3    H129819   6.046   2.195   6.009
 9958TIP3    H229820   5.918   2.135   6.064
 9959TIP3   OH229821   0.173   0.745   2.508
 9959TIP3    H129822   0.213   0.822   2.468
 9959TIP3    H229823   0.217   0.736   2.593
 9960TIP3   OH229824   5.786   5.372   4.932
 9960TIP3    H129825   5.716   5.436   4.918
 9960TIP3    H229826   5.753   5.317   5.003
 9961TIP3   OH229827   7.892   2.197   6.696
 9961TIP3    H129828   7.958   2.194   6.626
 9961TIP3    H229829   7.940   2.225   6.774
 9962TIP3   OH229830   6.776   0.862   1.457
 9962TIP3    H129831   6.745   0.950   1.478
 9962TIP3    H229832   6.844   0.844   1.523
 9963TIP3   OH229833   3.276   4.809   5.691
 9963TIP3    H129834   3.316   4.823   5.606
 9963TIP3    H229835   3.286   4.715   5.707
 9964TIP3   OH229836   5.404   0.460   1.031
 9964TIP3    H129837   5.464   0.391   1.004
 9964TIP3    H229838   5.338   0.415   1.083
 9965TIP3   OH229839   5.500   1.275   6.662
 9965TIP3    H129840   5.528   1.260   6.753
 9965TIP3    H229841   5.576   1.318   6.621
 9966TIP3   OH229842   4.518   5.722   1.189
 9966TIP3    H129843   4.560   5.725   1.275
 9966TIP3    H229844   4.549   5.801   1.144
 9967TIP3   OH229845   7.451   3.412   4.519
 9967TIP3    H129846   7.387   3.478   4.546
 9967TIP3    H229847   7.534   3.460   4.515
 9968TIP3   OH229848   0.162   0.124   1.864
 9968TIP3    H129849   0.162   0.174   1.782
 9968TIP3    H229850   0.237   0.158   1.913
 9969TIP3   OH229851   8.175   0.002   4.071
 9969TIP3    H129852   8.210   0.088   4.048
 9969TIP3    H229853   8.245  -0.039   4.123
 9970TIP3   OH229854   1.592   0.597   5.392
 9970TIP3    H129855   1.639   0.515   5.374
 9970TIP3    H229856   1.500   0.571   5.396
 9971TIP3   OH229857   1.107   2.304   3.128
 9971TIP3    H129858   1.038   2.243   3.102
 9971TIP3    H229859   1.110   2.299   3.224
 9972TIP3   OH229860   0.979   2.781   2.024
 9972TIP3    H129861   1.020   2.867   2.030
 9972TIP3    H229862   0.968   2.766   1.931
 9973TIP3   OH229863   5.650   6.399   2.804
 9973TIP3    H129864   5.700   6.362   2.731
 9973TIP3    H229865   5.566   6.424   2.766
 9974TIP3   OH229866   7.475   2.679   5.306
 9974TIP3    H129867   7.552   2.732   5.286
 9974TIP3    H229868   7.411   2.742   5.341
 9975TIP3   OH229869   1.457   0.826   6.048
 9975TIP3    H129870   1.379   0.843   6.100
 9975TIP3    H229871   1.478   0.734   6.066
 9976TIP3   OH229872   6.925   4.388   4.873
 9976TIP3    H129873   6.940   4.296   4.895
 9976TIP3    H229874   6.903   4.387   4.780
 9977TIP3   OH229875   2.425   5.163   3.743
 9977TIP3    H129876   2.480   5.237   3.718
 9977TIP3    H229877   2.404   5.179   3.835
 9978TIP3   OH229878   5.176   0.259   5.669
 9978TIP3    H129879   5.176   0.290   5.579
 9978TIP3    H229880   5.101   0.303   5.709
 9979TIP3   OH229881   0.531   5.996   2.241
 9979TIP3    H129882   0.493   6.036   2.163
 9979TIP3    H229883   0.456   5.963   2.291
 9980TIP3   OH229884   2.224   7.358   3.441
 9980TIP3    H129885   2.303   7.411   3.455
 9980TIP3    H229886   2.236   7.282   3.498
 9981TIP3   OH229887   1.246   0.829   5.011
 9981TIP3    H129888   1.196   0.754   5.044
 9981TIP3    H229889   1.182   0.901   5.011
 9982TIP3   OH229890   4.607   1.969   2.478
 9982TIP3    H129891   4.649   1.974   2.564
 9982TIP3    H229892   4.520   1.932   2.496
 9983TIP3   OH229893   1.219   2.417   2.780
 9983TIP3    H129894   1.278   2.347   2.751
 9983TIP3    H229895   1.243   2.431   2.871
 9984TIP3   OH229896   1.507   7.345   2.391
 9984TIP3    H129897   1.441   7.305   2.333
 9984TIP3    H229898   1.458   7.369   2.469
 9985TIP3   OH229899   0.107   6.934   0.043
 9985TIP3    H129900   0.164   6.867   0.080
 9985TIP3    H229901   0.128   7.013   0.093
 9986TIP3   OH229902   4.573   3.313   5.536
 9986TIP3    H129903   4.566   3.262   5.455
 9986TIP3    H229904   4.514   3.268   5.597
 9987TIP3   OH229905   5.028   3.735   1.136
 9987TIP3    H129906   4.940   3.699   1.128
 9987TIP3    H229907   5.076   3.697   1.063
 9988TIP3   OH229908   0.962   0.477   6.461
 9988TIP3    H129909   1.019   0.486   6.538
 9988TIP3    H229910   0.874   0.470   6.496
 9989TIP3   OH229911   5.733   2.231   1.801
 9989TIP3    H129912   5.653   2.283   1.794
 9989TIP3    H229913   5.703   2.147   1.835
 9990TIP3   OH229914   7.775   2.695   0.062
 9990TIP3    H129915   7.785   2.610   0.018
 9990TIP3    H229916   7.776   2.674   0.155
 9991TIP3   OH229917   2.756   0.511   1.052
 9991TIP3    H129918   2.806   0.592   1.063
 9991TIP3    H229919   2.672   0.539   1.016
 9992TIP3   OH229920   4.702   7.024   4.546
 9992TIP3    H129921   4.657   6.940   4.546
 9992TIP3    H229922   4.649   7.080   4.489
 9993TIP3   OH229923   6.998   3.542   3.627
 9993TIP3    H129924   6.960   3.627   3.608
 9993TIP3    H229925   7.092   3.554   3.615
 9994TIP3   OH229926   3.251   2.482   3.318
 9994TIP3    H129927   3.228   2.408   3.263
 9994TIP3    H229928   3.168   2.528   3.332
 9995TIP3   OH229929   8.267   0.849   0.839
 9995TIP3    H129930   8.300   0.901   0.912
 9995TIP3    H229931   8.210   0.909   0.791
 9996TIP3   OH229932   2.558   3.210   5.815
 9996TIP3    H129933   2.464   3.194   5.809
 9996TIP3    H229934   2.582   3.181   5.904
 9997TIP3   OH229935   5.500   3.596   3.341
 9997TIP3    H129936   5.507   3.635   3.429
 9997TIP3    H229937   5.535   3.508   3.351
 9998TIP3   OH229938   6.994   0.836   3.232
 9998TIP3    H129939   6.944   0.854   3.152
 9998TIP3    H229940   7.039   0.754   3.214
 9999TIP3   OH229941   5.329   5.782   6.375
 9999TIP3    H129942   5.382   5.755   6.450
 9999TIP3    H229943   5.289   5.700   6.344
10000TIP3   OH229944   6.901   6.388   6.497
10000TIP3    H129945   6.939   6.342   6.572
10000TIP3    H229946   6.877   6.474   6.532
10001TIP3   OH229947   2.824   0.985   2.711
10001TIP3    H129948   2.892   0.943   2.658
10001TIP3    H229949   2.754   0.920   2.715
10002TIP3   OH229950   2.755   1.503   6.479
10002TIP3    H129951   2.733   1.567   6.411
10002TIP3    H229952   2.670   1.469   6.507
10003TIP3   OH229953   4.192   2.259   3.907
10003TIP3    H129954   4.156   2.176   3.873
10003TIP3    H229955   4.134   2.280   3.981
10004TIP3   OH229956   6.014   5.637   3.153
10004TIP3    H129957   5.988   5.625   3.061
10004TIP3    H229958   5.932   5.634   3.202
10005TIP3   OH229959   6.747   1.881   1.060
10005TIP3    H129960   6.796   1.962   1.075
10005TIP3    H229961   6.749   1.836   1.145
10006TIP3   OH229962   1.862   4.441   5.116
10006TIP3    H129963   1.911   4.395   5.184
10006TIP3    H229964   1.910   4.523   5.103
10007TIP3   OH229965   2.797   0.444   0.491
10007TIP3    H129966   2.779   0.454   0.584
10007TIP3    H229967   2.889   0.416   0.488
10008TIP3   OH229968   4.972   6.227   1.348
10008TIP3    H129969   5.004   6.278   1.423
10008TIP3    H229970   5.049   6.210   1.295
10009TIP3   OH229971   6.402   1.742   4.848
10009TIP3    H129972   6.466   1.810   4.865
10009TIP3    H229973   6.387   1.745   4.754
10010TIP3   OH229974   6.057   4.291   1.024
10010TIP3    H129975   5.979   4.290   1.079
10010TIP3    H229976   6.035   4.351   0.952
10011TIP3   OH229977   3.335   6.584   0.548
10011TIP3    H129978   3.258   6.563   0.601
10011TIP3    H229979   3.386   6.503   0.548
10012TIP3   OH229980   3.770   4.675   2.901
10012TIP3    H129981   3.682   4.639   2.887
10012TIP3    H229982   3.816   4.607   2.950
10013TIP3   OH229983   6.850   6.977   2.975
10013TIP3    H129984   6.932   6.951   3.018
10013TIP3    H229985   6.865   7.068   2.949
10014TIP3   OH229986   5.710   0.084   4.964
10014TIP3    H129987   5.684   0.058   4.875
10014TIP3    H229988   5.755   0.168   4.952
10015TIP3   OH229989   0.928   3.315   3.536
10015TIP3    H129990   1.008   3.367   3.528
10015TIP3    H229991   0.858   3.380   3.542
10016TIP3   OH229992   6.900   3.240   1.148
10016TIP3    H129993   6.809   3.254   1.174
10016TIP3    H229994   6.919   3.312   1.088
10017TIP3   OH229995   5.836   4.442   2.494
10017TIP3    H129996   5.931   4.453   2.495
10017TIP3    H229997   5.804   4.508   2.556
10018TIP3   OH229998   6.661   4.120   5.153
10018TIP3    H129999   6.588   4.175   5.124
10018TIP3    H230000   6.643   4.102   5.245
10019TIP3   OH230001   2.218   7.559   3.740
10019TIP3    H130002   2.313   7.568   3.740
10019TIP3    H230003   2.187   7.630   3.797
10020TIP3   OH230004   8.226   2.972   2.306
10020TIP3    H130005   8.236   2.927   2.390
10020TIP3    H230006   8.152   3.031   2.320
10021TIP3   OH230007   6.230   6.572   2.140
10021TIP3    H130008   6.156   6.545   2.193
10021TIP3    H230009   6.261   6.653   2.181
10022TIP3   OH230010   3.435   5.007   1.878
10022TIP3    H130011   3.428   4.931   1.820
10022TIP3    H230012   3.403   4.975   1.962
10023TIP3   OH230013   7.642   6.517   4.305
10023TIP3    H130014   7.706   6.478   4.246
10023TIP3    H230015   7.695   6.569   4.366
10024TIP3   OH230016   1.978   2.733   4.370
10024TIP3    H130017   1.980   2.643   4.336
10024TIP3    H230018   1.927   2.781   4.306
10025TIP3   OH230019   5.596   0.796   2.949
10025TIP3    H130020   5.510   0.810   2.989
10025TIP3    H230021   5.642   0.879   2.961
10026TIP3   OH230022   2.711   5.164   2.693
10026TIP3    H130023   2.754   5.079   2.687
10026TIP3    H230024   2.760   5.211   2.760
10027TIP3   OH230025   7.869   4.189   4.856
10027TIP3    H130026   7.781   4.175   4.892
10027TIP3    H230027   7.865   4.150   4.769
10028TIP3   OH230028   4.826   0.156   1.856
10028TIP3    H130029   4.779   0.230   1.818
10028TIP3    H230030   4.868   0.191   1.934
10029TIP3   OH230031   0.923   7.825   5.946
10029TIP3    H130032   0.869   7.845   5.870
10029TIP3    H230033   1.006   7.795   5.909
10030TIP3   OH230034   0.393   6.748   1.923
10030TIP3    H130035   0.327   6.816   1.940
10030TIP3    H230036   0.463   6.766   1.985
10031TIP3   OH230037   3.790   6.413   6.029
10031TIP3    H130038   3.765   6.494   5.984
10031TIP3    H230039   3.879   6.430   6.059
10032TIP3   OH230040   4.151   7.446   4.449
10032TIP3    H130041   4.097   7.493   4.386
10032TIP3    H230042   4.126   7.354   4.439
10033TIP3   OH230043   2.518   6.900   6.428
10033TIP3    H130044   2.496   6.966   6.495
10033TIP3    H230045   2.464   6.923   6.353
10034TIP3   OH230046   1.925   6.516   0.986
10034TIP3    H130047   1.919   6.610   0.972
10034TIP3    H230048   1.869   6.499   1.061
10035TIP3   OH230049   1.445   6.764   5.900
10035TIP3    H130050   1.480   6.743   5.986
10035TIP3    H230051   1.430   6.679   5.859
10036TIP3   OH230052   2.191   0.837   6.240
10036TIP3    H130053   2.152   0.807   6.322
10036TIP3    H230054   2.122   0.824   6.175
10037TIP3   OH230055   0.635   0.329   2.228
10037TIP3    H130056   0.627   0.403   2.288
10037TIP3    H230057   0.668   0.367   2.147
10038TIP3   OH230058   2.937   0.050   3.134
10038TIP3    H130059   2.871   0.087   3.077
10038TIP3    H230060   2.946   0.114   3.205
10039TIP3   OH230061   2.760   0.246   4.223
10039TIP3    H130062   2.759   0.332   4.266
10039TIP3    H230063   2.850   0.217   4.230
10040TIP3   OH230064   6.843   7.172   1.137
10040TIP3    H130065   6.848   7.144   1.228
10040TIP3    H230066   6.844   7.268   1.141
10041TIP3   OH230067   2.040   6.096   1.386
10041TIP3    H130068   1.963   6.063   1.341
10041TIP3    H230069   2.045   6.042   1.465
10042TIP3   OH230070   7.400   0.479   4.739
10042TIP3    H130071   7.434   0.413   4.678
10042TIP3    H230072   7.354   0.429   4.806
10043TIP3   OH230073   6.838   5.692   4.951
10043TIP3    H130074   6.798   5.605   4.959
10043TIP3    H230075   6.805   5.741   5.027
10044TIP3   OH230076   5.619   7.493   2.686
10044TIP3    H130077   5.597   7.407   2.723
10044TIP3    H230078   5.545   7.513   2.628
10045TIP3   OH230079   1.108   5.486   4.857
10045TIP3    H130080   1.013   5.498   4.856
10045TIP3    H230081   1.131   5.484   4.950
10046TIP3   OH230082   1.804   0.304   0.434
10046TIP3    H130083   1.816   0.228   0.491
10046TIP3    H230084   1.797   0.267   0.346
10047TIP3   OH230085   5.394   0.631   3.886
10047TIP3    H130086   5.338   0.627   3.964
10047TIP3    H230087   5.478   0.664   3.919
10048TIP3   OH230088   2.706   6.697   5.865
10048TIP3    H130089   2.711   6.769   5.928
10048TIP3    H230090   2.618   6.662   5.875
10049TIP3   OH230091   4.385   4.064   1.249
10049TIP3    H130092   4.375   4.060   1.154
10049TIP3    H230093   4.321   4.130   1.277
10050TIP3   OH230094   1.264   3.377   4.177
10050TIP3    H130095   1.184   3.332   4.154
10050TIP3    H230096   1.235   3.455   4.224
10051TIP3   OH230097   5.045   0.695   5.922
10051TIP3    H130098   5.021   0.630   5.987
10051TIP3    H230099   4.971   0.756   5.921
10052TIP3   OH230100   2.215   7.590   1.779
10052TIP3    H130101   2.256   7.567   1.863
10052TIP3    H230102   2.124   7.608   1.802
10053TIP3   OH230103   4.764   6.284   4.766
10053TIP3    H130104   4.728   6.318   4.847
10053TIP3    H230105   4.778   6.191   4.783
10054TIP3   OH230106   1.743   3.095   5.902
10054TIP3    H130107   1.814   3.148   5.865
10054TIP3    H230108   1.787   3.036   5.964
10055TIP3   OH230109   2.007   0.770   3.530
10055TIP3    H130110   2.099   0.774   3.501
10055TIP3    H230111   1.966   0.708   3.470
10056TIP3   OH230112   6.853   6.677   4.477
10056TIP3    H130113   6.931   6.731   4.465
10056TIP3    H230114   6.782   6.729   4.439
10057TIP3   OH230115   5.137   7.046   4.910
10057TIP3    H130116   5.224   7.048   4.951
10057TIP3    H230117   5.088   6.982   4.961
10058TIP3   OH230118   5.157   5.143   1.425
10058TIP3    H130119   5.133   5.062   1.469
10058TIP3    H230120   5.178   5.203   1.497
10059TIP3   OH230121   1.178   0.629   3.093
10059TIP3    H130122   1.147   0.554   3.143
10059TIP3    H230123   1.099   0.663   3.051
10060TIP3   OH230124   8.132   3.534   1.146
10060TIP3    H130125   8.163   3.592   1.076
10060TIP3    H230126   8.095   3.593   1.212
10061TIP3   OH230127   3.293   4.881   0.114
10061TIP3    H130128   3.311   4.827   0.037
10061TIP3    H230129   3.309   4.970   0.085
10062TIP3   OH230130   1.035   2.277   1.537
10062TIP3    H130131   1.129   2.289   1.546
10062TIP3    H230132   1.009   2.340   1.469
10063TIP3   OH230133   6.356   4.692   3.587
10063TIP3    H130134   6.378   4.647   3.668
10063TIP3    H230135   6.372   4.785   3.605
10064TIP3   OH230136   5.681   7.577   0.578
10064TIP3    H130137   5.699   7.569   0.484
10064TIP3    H230138   5.760   7.543   0.620
10065TIP3   OH230139   2.249   7.624   0.997
10065TIP3    H130140   2.339   7.639   0.970
10065TIP3    H230141   2.196   7.664   0.928
10066TIP3   OH230142   2.776   3.996   2.722
10066TIP3    H130143   2.795   4.078   2.769
10066TIP3    H230144   2.712   3.952   2.777
10067TIP3   OH230145   1.152   4.184   6.126
10067TIP3    H130146   1.194   4.099   6.114
10067TIP3    H230147   1.185   4.216   6.210
10068TIP3   OH230148   1.045   4.849   4.208
10068TIP3    H130149   1.108   4.786   4.243
10068TIP3    H230150   1.029   4.820   4.118
10069TIP3   OH230151   5.761   7.072   2.420
10069TIP3    H130152   5.759   7.105   2.330
10069TIP3    H230153   5.729   6.982   2.413
10070TIP3   OH230154   2.149   0.831   2.109
10070TIP3    H130155   2.225   0.888   2.099
10070TIP3    H230156   2.145   0.782   2.027
10071TIP3   OH230157   2.756   2.598   3.195
10071TIP3    H130158   2.670   2.567   3.224
10071TIP3    H230159   2.758   2.579   3.101
10072TIP3   OH230160   5.736   3.339   5.063
10072TIP3    H130161   5.675   3.291   5.007
10072TIP3    H230162   5.812   3.281   5.069
10073TIP3   OH230163   4.808   1.323   0.840
10073TIP3    H130164   4.786   1.347   0.750
10073TIP3    H230165   4.729   1.343   0.890
10074TIP3   OH230166   0.859   5.604   4.940
10074TIP3    H130167   0.851   5.691   4.900
10074TIP3    H230168   0.770   5.570   4.942
10075TIP3   OH230169   7.327   5.854   3.128
10075TIP3    H130170   7.299   5.943   3.105
10075TIP3    H230171   7.312   5.847   3.222
10076TIP3   OH230172   2.533   1.268   2.998
10076TIP3    H130173   2.619   1.232   2.974
10076TIP3    H230174   2.524   1.345   2.942
10077TIP3   OH230175   8.163   3.976   3.424
10077TIP3    H130176   8.137   4.065   3.447
10077TIP3    H230177   8.239   3.987   3.368
10078TIP3   OH230178   5.742   4.581   6.417
10078TIP3    H130179   5.756   4.489   6.397
10078TIP3    H230180   5.647   4.589   6.431
10079TIP3   OH230181   4.650   0.509   5.105
10079TIP3    H130182   4.703   0.433   5.083
10079TIP3    H230183   4.644   0.508   5.200
10080TIP3   OH230184   1.667   7.686   5.794
10080TIP3    H130185   1.721   7.665   5.717
10080TIP3    H230186   1.599   7.619   5.794
10081TIP3   OH230187   3.754   1.652   2.836
10081TIP3    H130188   3.708   1.657   2.920
10081TIP3    H230189   3.684   1.657   2.770
10082TIP3   OH230190   5.615  -0.004   3.321
10082TIP3    H130191   5.688  -0.040   3.271
10082TIP3    H230192   5.625   0.091   3.313
10083TIP3   OH230193   1.101   0.609   5.088
10083TIP3    H130194   1.143   0.531   5.124
10083TIP3    H230195   1.103   0.597   4.993
10084TIP3   OH230196   4.163   6.158   1.922
10084TIP3    H130197   4.210   6.102   1.860
10084TIP3    H230198   4.202   6.245   1.911
10085TIP3   OH230199   2.729   7.120   6.672
10085TIP3    H130200   2.795   7.068   6.626
10085TIP3    H230201   2.651   7.115   6.616
10086TIP3   OH230202   2.085   1.692   6.364
10086TIP3    H130203   2.166   1.703   6.413
10086TIP3    H230204   2.104   1.732   6.279
10087TIP3   OH230205   5.297   1.943   5.219
10087TIP3    H130206   5.224   1.954   5.159
10087TIP3    H230207   5.288   2.014   5.282
10088TIP3   OH230208   0.219   2.270   4.936
10088TIP3    H130209   0.273   2.204   4.980
10088TIP3    H230210   0.272   2.296   4.860
10089TIP3   OH230211   5.273   6.526   3.841
10089TIP3    H130212   5.184   6.557   3.832
10089TIP3    H230213   5.294   6.486   3.756
10090TIP3   OH230214   1.664   0.393   4.797
10090TIP3    H130215   1.743   0.447   4.788
10090TIP3    H230216   1.648   0.360   4.708
10091TIP3   OH230217   1.744   0.701   2.968
10091TIP3    H130218   1.704   0.762   3.030
10091TIP3    H230219   1.838   0.715   2.978
10092TIP3   OH230220   4.584   3.829   1.641
10092TIP3    H130221   4.495   3.815   1.673
10092TIP3    H230222   4.626   3.744   1.647
10093TIP3   OH230223   4.148   1.115   5.598
10093TIP3    H130224   4.231   1.162   5.590
10093TIP3    H230225   4.081   1.183   5.598
10094TIP3   OH230226   6.514   4.468   3.193
10094TIP3    H130227   6.526   4.513   3.277
10094TIP3    H230228   6.587   4.498   3.139
10095TIP3   OH230229   2.405   4.666   1.312
10095TIP3    H130230   2.423   4.723   1.387
10095TIP3    H230231   2.405   4.578   1.350
10096TIP3   OH230232   0.572   5.527   4.889
10096TIP3    H130233   0.535   5.532   4.978
10096TIP3    H230234   0.566   5.435   4.866
10097TIP3   OH230235   0.837   0.045   3.481
10097TIP3    H130236   0.914   0.013   3.434
10097TIP3    H230237   0.865   0.128   3.520
10098TIP3   OH230238   1.366   0.878   4.582
10098TIP3    H130239   1.379   0.955   4.637
10098TIP3    H230240   1.271   0.864   4.581
10099TIP3   OH230241   6.715   1.079   1.929
10099TIP3    H130242   6.791   1.065   1.985
10099TIP3    H230243   6.717   1.173   1.908
10100TIP3   OH230244   3.023   5.404   5.526
10100TIP3    H130245   2.933   5.382   5.502
10100TIP3    H230246   3.029   5.498   5.514
10101TIP3   OH230247   4.916   5.261   1.606
10101TIP3    H130248   4.939   5.353   1.592
10101TIP3    H230249   4.981   5.229   1.668
10102TIP3   OH230250   3.405   5.864   4.349
10102TIP3    H130251   3.474   5.825   4.296
10102TIP3    H230252   3.444   5.874   4.436
10103TIP3   OH230253   6.396   3.685   2.707
10103TIP3    H130254   6.426   3.776   2.706
10103TIP3    H230255   6.329   3.682   2.775
10104TIP3   OH230256   4.909   4.963   2.993
10104TIP3    H130257   4.994   4.977   3.034
10104TIP3    H230258   4.888   5.046   2.951
10105TIP3   OH230259   3.524   6.753   0.417
10105TIP3    H130260   3.571   6.692   0.359
10105TIP3    H230261   3.469   6.697   0.471
10106TIP3   OH230262   0.645   7.338   1.489
10106TIP3    H130263   0.698   7.272   1.535
10106TIP3    H230264   0.647   7.311   1.398
10107TIP3   OH230265   7.174   2.333   6.117
10107TIP3    H130266   7.236   2.392   6.074
10107TIP3    H230267   7.225   2.291   6.187
10108TIP3   OH230268   4.418   6.219   4.606
10108TIP3    H130269   4.506   6.198   4.574
10108TIP3    H230270   4.384   6.282   4.542
10109TIP3   OH230271   3.039   5.351   4.384
10109TIP3    H130272   3.084   5.375   4.303
10109TIP3    H230273   3.082   5.402   4.452
10110TIP3   OH230274   7.163   5.079   6.443
10110TIP3    H130275   7.085   5.026   6.461
10110TIP3    H230276   7.233   5.015   6.428
10111TIP3   OH230277   0.964   0.217   0.817
10111TIP3    H130278   1.021   0.242   0.745
10111TIP3    H230279   0.877   0.247   0.791
10112TIP3   OH230280   5.368   4.532   4.287
10112TIP3    H130281   5.309   4.549   4.214
10112TIP3    H230282   5.365   4.612   4.339
10113TIP3   OH230283   8.024   1.173   5.763
10113TIP3    H130284   8.031   1.183   5.668
10113TIP3    H230285   8.036   1.261   5.797
10114TIP3   OH230286   6.536   1.846   0.897
10114TIP3    H130287   6.599   1.854   0.968
10114TIP3    H230288   6.579   1.888   0.822
10115TIP3   OH230289   5.607   5.021   4.480
10115TIP3    H130290   5.534   5.074   4.513
10115TIP3    H230291   5.683   5.053   4.527
10116TIP3   OH230292   1.468   5.660   4.532
10116TIP3    H130293   1.557   5.628   4.522
10116TIP3    H230294   1.420   5.585   4.567
10117TIP3   OH230295   1.738   1.867   1.044
10117TIP3    H130296   1.794   1.935   1.006
10117TIP3    H230297   1.781   1.785   1.020
10118TIP3   OH230298   3.498   7.179   3.872
10118TIP3    H130299   3.584   7.213   3.848
10118TIP3    H230300   3.516   7.103   3.926
10119TIP3   OH230301   4.171   3.769   0.181
10119TIP3    H130302   4.102   3.702   0.178
10119TIP3    H230303   4.179   3.798   0.090
10120TIP3   OH230304   2.026   1.221   6.192
10120TIP3    H130305   1.982   1.187   6.114
10120TIP3    H230306   1.973   1.189   6.265
10121TIP3   OH230307   6.285   7.418   0.099
10121TIP3    H130308   6.377   7.432   0.078
10121TIP3    H230309   6.242   7.499   0.074
10122TIP3   OH230310   6.074   5.397   0.295
10122TIP3    H130311   6.005   5.370   0.356
10122TIP3    H230312   6.058   5.344   0.217
10123TIP3   OH230313   1.829   1.440   5.708
10123TIP3    H130314   1.839   1.408   5.797
10123TIP3    H230315   1.876   1.523   5.706
10124TIP3   OH230316   7.676   4.568   4.838
10124TIP3    H130317   7.647   4.654   4.868
10124TIP3    H230318   7.727   4.587   4.759
10125TIP3   OH230319   0.063   2.548   2.948
10125TIP3    H130320   0.029   2.484   3.011
10125TIP3    H230321   0.157   2.531   2.944
10126TIP3   OH230322   0.840   6.935   1.945
10126TIP3    H130323   0.834   6.903   1.855
10126TIP3    H230324   0.749   6.951   1.972
10127TIP3   OH230325   2.605   3.908   0.739
10127TIP3    H130326   2.611   4.001   0.761
10127TIP3    H230327   2.594   3.907   0.643
10128TIP3   OH230328   4.769   7.391   4.471
10128TIP3    H130329   4.730   7.406   4.557
10128TIP3    H230330   4.790   7.478   4.438
10129TIP3   OH230331   6.447   5.656   2.257
10129TIP3    H130332   6.407   5.722   2.200
10129TIP3    H230333   6.378   5.592   2.272
10130TIP3   OH230334   6.749   7.506   0.353
10130TIP3    H130335   6.670   7.526   0.404
10130TIP3    H230336   6.727   7.425   0.307
10131TIP3   OH230337   2.163   1.152   2.442
10131TIP3    H130338   2.253   1.127   2.420
10131TIP3    H230339   2.139   1.096   2.515
10132TIP3   OH230340   5.261   3.831   0.269
10132TIP3    H130341   5.187   3.892   0.263
10132TIP3    H230342   5.338   3.888   0.273
10133TIP3   OH230343   0.272   5.688   3.147
10133TIP3    H130344   0.297   5.675   3.055
10133TIP3    H230345   0.339   5.643   3.197
10134TIP3   OH230346   1.551   0.369   2.252
10134TIP3    H130347   1.541   0.462   2.272
10134TIP3    H230348   1.462   0.336   2.244
10135TIP3   OH230349   3.280   1.792  -0.020
10135TIP3    H130350   3.248   1.729   0.044
10135TIP3    H230351   3.366   1.757  -0.047
10136TIP3   OH230352   0.029   1.560   6.411
10136TIP3    H130353   0.030   1.578   6.505
10136TIP3    H230354   0.050   1.644   6.370
10137TIP3   OH230355   0.997   1.101   0.724
10137TIP3    H130356   0.989   1.124   0.631
10137TIP3    H230357   0.990   1.184   0.770
10138TIP3   OH230358   2.896   2.267   1.872
10138TIP3    H130359   2.976   2.218   1.894
10138TIP3    H230360   2.924   2.329   1.805
10139TIP3   OH230361   1.325   7.485   4.249
10139TIP3    H130362   1.295   7.575   4.263
10139TIP3    H230363   1.399   7.494   4.189
10140TIP3   OH230364   3.852   2.885   0.397
10140TIP3    H130365   3.912   2.855   0.465
10140TIP3    H230366   3.769   2.900   0.443
10141TIP3   OH230367   2.442   7.506   1.588
10141TIP3    H130368   2.515   7.510   1.650
10141TIP3    H230369   2.368   7.545   1.636
10142TIP3   OH230370   6.860   0.134   1.806
10142TIP3    H130371   6.775   0.091   1.791
10142TIP3    H230372   6.850   0.177   1.891
10143TIP3   OH230373   0.814   5.573   6.682
10143TIP3    H130374   0.740   5.593   6.741
10143TIP3    H230375   0.778   5.587   6.594
10144TIP3   OH230376   4.165   4.232   0.725
10144TIP3    H130377   4.192   4.298   0.660
10144TIP3    H230378   4.185   4.273   0.809
10145TIP3   OH230379   5.339   0.282   6.190
10145TIP3    H130380   5.387   0.362   6.212
10145TIP3    H230381   5.363   0.264   6.099
10146TIP3   OH230382   4.732   5.449   4.305
10146TIP3    H130383   4.754   5.358   4.287
10146TIP3    H230384   4.765   5.497   4.229
10147TIP3   OH230385   0.438   4.498   5.396
10147TIP3    H130386   0.455   4.441   5.321
10147TIP3    H230387   0.451   4.442   5.473
10148TIP3   OH230388   7.747   1.970   6.545
10148TIP3    H130389   7.665   1.944   6.588
10148TIP3    H230390   7.743   2.066   6.543
10149TIP3   OH230391   2.097   7.730   1.231
10149TIP3    H130392   2.008   7.758   1.209
10149TIP3    H230393   2.131   7.689   1.152
10150TIP3   OH230394   1.534   4.007   1.718
10150TIP3    H130395   1.594   4.075   1.686
10150TIP3    H230396   1.447   4.041   1.697
10151TIP3   OH230397   0.996   3.290   4.355
10151TIP3    H130398   1.016   3.280   4.262
10151TIP3    H230399   0.972   3.382   4.365
10152TIP3   OH230400   5.189   5.847   2.086
10152TIP3    H130401   5.233   5.932   2.084
10152TIP3    H230402   5.258   5.784   2.103
10153TIP3   OH230403   0.686   5.250   6.683
10153TIP3    H130404   0.605   5.292   6.712
10153TIP3    H230405   0.750   5.273   6.750
10154TIP3   OH230406   3.529   1.407   5.703
10154TIP3    H130407   3.615   1.434   5.674
10154TIP3    H230408   3.506   1.332   5.648
10155TIP3   OH230409   5.685   3.197   5.936
10155TIP3    H130410   5.679   3.183   6.030
10155TIP3    H230411   5.757   3.258   5.925
10156TIP3   OH230412   2.929   5.452   3.371
10156TIP3    H130413   2.854   5.396   3.353
10156TIP3    H230414   3.002   5.392   3.386
10157TIP3   OH230415   6.630   0.331   1.132
10157TIP3    H130416   6.592   0.381   1.204
10157TIP3    H230417   6.719   0.311   1.161
10158TIP3   OH230418   3.554   7.426   0.777
10158TIP3    H130419   3.574   7.339   0.743
10158TIP3    H230420   3.578   7.422   0.870
10159TIP3   OH230421   6.724   0.958   0.846
10159TIP3    H130422   6.658   1.009   0.800
10159TIP3    H230423   6.738   1.004   0.929
10160TIP3   OH230424   8.113   5.498   1.133
10160TIP3    H130425   8.163   5.573   1.166
10160TIP3    H230426   8.126   5.430   1.199
10161TIP3   OH230427   5.013   6.780   0.404
10161TIP3    H130428   5.000   6.714   0.336
10161TIP3    H230429   4.943   6.763   0.468
10162TIP3   OH230430   3.839   1.222   1.455
10162TIP3    H130431   3.833   1.191   1.545
10162TIP3    H230432   3.933   1.226   1.438
10163TIP3   OH230433   6.678   0.262   4.119
10163TIP3    H130434   6.700   0.300   4.204
10163TIP3    H230435   6.602   0.312   4.089
10164TIP3   OH230436   0.251   2.617   2.491
10164TIP3    H130437   0.296   2.663   2.420
10164TIP3    H230438   0.158   2.632   2.475
10165TIP3   OH230439   2.803   3.308   3.942
10165TIP3    H130440   2.891   3.332   3.973
10165TIP3    H230441   2.744   3.348   4.006
10166TIP3   OH230442   0.034   7.536   5.298
10166TIP3    H130443   0.019   7.470   5.365
10166TIP3    H230444  -0.054   7.562   5.269
10167TIP3   OH230445   5.014   4.330   1.360
10167TIP3    H130446   5.024   4.246   1.404
10167TIP3    H230447   5.045   4.315   1.271
10168TIP3   OH230448   4.817   1.253   3.002
10168TIP3    H130449   4.809   1.348   2.999
10168TIP3    H230450   4.814   1.231   3.095
10169TIP3   OH230451   4.629   3.848   0.037
10169TIP3    H130452   4.716   3.841  -0.001
10169TIP3    H230453   4.606   3.758   0.060
10170TIP3   OH230454   7.167   7.806   6.419
10170TIP3    H130455   7.073   7.813   6.436
10170TIP3    H230456   7.175   7.826   6.325
10171TIP3   OH230457   0.818   4.433   0.988
10171TIP3    H130458   0.819   4.506   1.050
10171TIP3    H230459   0.725   4.419   0.970
10172TIP3   OH230460   3.547   5.785   2.683
10172TIP3    H130461   3.615   5.734   2.639
10172TIP3    H230462   3.565   5.876   2.659
10173TIP3   OH230463   0.229   1.902   1.429
10173TIP3    H130464   0.134   1.897   1.416
10173TIP3    H230465   0.255   1.812   1.446
10174TIP3   OH230466   5.205   0.370   5.416
10174TIP3    H130467   5.196   0.466   5.410
10174TIP3    H230468   5.287   0.351   5.371
10175TIP3   OH230469   5.218   5.268   2.588
10175TIP3    H130470   5.291   5.300   2.534
10175TIP3    H230471   5.255   5.261   2.676
10176TIP3   OH230472   1.562   3.755   1.476
10176TIP3    H130473   1.594   3.707   1.552
10176TIP3    H230474   1.545   3.687   1.410
10177TIP3   OH230475   7.650   1.833   3.292
10177TIP3    H130476   7.608   1.827   3.206
10177TIP3    H230477   7.584   1.876   3.347
10178TIP3   OH230478   7.095   2.667   6.633
10178TIP3    H130479   7.146   2.677   6.552
10178TIP3    H230480   7.160   2.664   6.703
10179TIP3   OH230481   5.551   4.928   3.812
10179TIP3    H130482   5.596   4.888   3.738
10179TIP3    H230483   5.460   4.900   3.802
10180TIP3   OH230484   4.024   2.779   4.083
10180TIP3    H130485   3.965   2.737   4.020
10180TIP3    H230486   3.968   2.836   4.135
10181TIP3   OH230487   5.987   1.896   1.224
10181TIP3    H130488   5.932   1.975   1.219
10181TIP3    H230489   6.045   1.903   1.148
10182TIP3   OH230490   7.771   0.372   2.682
10182TIP3    H130491   7.712   0.403   2.751
10182TIP3    H230492   7.727   0.393   2.600
10183TIP3   OH230493   1.142   3.339   1.694
10183TIP3    H130494   1.099   3.279   1.634
10183TIP3    H230495   1.077   3.354   1.763
10184TIP3   OH230496   4.336   7.195   1.899
10184TIP3    H130497   4.365   7.267   1.956
10184TIP3    H230498   4.361   7.223   1.811
10185TIP3   OH230499   7.813   0.963   2.057
10185TIP3    H130500   7.777   0.878   2.082
10185TIP3    H230501   7.905   0.959   2.084
10186TIP3   OH230502   4.048   1.924   0.795
10186TIP3    H130503   4.028   1.937   0.888
10186TIP3    H230504   4.130   1.874   0.796
10187TIP3   OH230505   0.474   0.467   4.604
10187TIP3    H130506   0.457   0.523   4.680
10187TIP3    H230507   0.387   0.443   4.572
10188TIP3   OH230508   7.552   4.322   1.916
10188TIP3    H130509   7.531   4.281   1.832
10188TIP3    H230510   7.605   4.256   1.962
10189TIP3   OH230511   7.030   3.720   1.722
10189TIP3    H130512   6.950   3.680   1.688
10189TIP3    H230513   7.095   3.704   1.654
10190TIP3   OH230514   0.679   2.692   6.151
10190TIP3    H130515   0.730   2.621   6.111
10190TIP3    H230516   0.641   2.738   6.077
10191TIP3   OH230517   2.354   2.837   3.320
10191TIP3    H130518   2.395   2.774   3.380
10191TIP3    H230519   2.260   2.820   3.328
10192TIP3   OH230520   3.876   1.089   4.815
10192TIP3    H130521   3.852   1.133   4.734
10192TIP3    H230522   3.913   1.005   4.787
10193TIP3   OH230523   2.925   0.809   1.221
10193TIP3    H130524   2.865   0.881   1.244
10193TIP3    H230525   2.900   0.784   1.133
10194TIP3   OH230526   3.014   5.781   1.254
10194TIP3    H130527   2.960   5.717   1.208
10194TIP3    H230528   3.095   5.785   1.204
10195TIP3   OH230529   4.776   1.116   5.545
10195TIP3    H130530   4.731   1.102   5.629
10195TIP3    H230531   4.756   1.206   5.521
10196TIP3   OH230532   1.968   5.452   1.996
10196TIP3    H130533   2.054   5.452   2.038
10196TIP3    H230534   1.983   5.415   1.909
10197TIP3   OH230535   6.219   4.549   6.027
10197TIP3    H130536   6.131   4.514   6.015
10197TIP3    H230537   6.206   4.644   6.035
10198TIP3   OH230538   4.303   3.417   6.485
10198TIP3    H130539   4.234   3.353   6.504
10198TIP3    H230540   4.375   3.392   6.543
10199TIP3   OH230541   1.008   2.860   2.740
10199TIP3    H130542   1.042   2.784   2.789
10199TIP3    H230543   1.022   2.837   2.648
10200TIP3   OH230544   3.013   7.172   0.752
10200TIP3    H130545   3.053   7.216   0.677
10200TIP3    H230546   2.921   7.162   0.728
10201TIP3   OH230547   7.498   2.734   3.356
10201TIP3    H130548   7.495   2.810   3.299
10201TIP3    H230549   7.407   2.722   3.385
10202TIP3   OH230550   3.398   5.627   2.363
10202TIP3    H130551   3.435   5.554   2.413
10202TIP3    H230552   3.407   5.600   2.272
10203TIP3   OH230553   7.271   3.917   5.168
10203TIP3    H130554   7.258   3.827   5.197
10203TIP3    H230555   7.286   3.911   5.074
10204TIP3   OH230556   2.534   0.494   6.004
10204TIP3    H130557   2.445   0.506   5.971
10204TIP3    H230558   2.524   0.432   6.076
10205TIP3   OH230559   3.306   0.634   1.808
10205TIP3    H130560   3.294   0.553   1.759
10205TIP3    H230561   3.337   0.606   1.894
10206TIP3   OH230562   5.675   6.143   4.413
10206TIP3    H130563   5.590   6.101   4.407
10206TIP3    H230564   5.687   6.162   4.506
10207TIP3   OH230565   3.476   2.216   5.707
10207TIP3    H130566   3.405   2.243   5.649
10207TIP3    H230567   3.540   2.175   5.650
10208TIP3   OH230568   2.428   7.186   2.628
10208TIP3    H130569   2.371   7.150   2.560
10208TIP3    H230570   2.513   7.194   2.585
10209TIP3   OH230571   1.440   5.325   5.526
10209TIP3    H130572   1.461   5.232   5.515
10209TIP3    H230573   1.386   5.327   5.605
10210TIP3   OH230574   5.694   2.482   1.138
10210TIP3    H130575   5.618   2.534   1.164
10210TIP3    H230576   5.675   2.394   1.171
10211TIP3   OH230577   2.399   7.279   3.910
10211TIP3    H130578   2.418   7.188   3.885
10211TIP3    H230579   2.304   7.284   3.910
10212TIP3   OH230580   0.944   6.118   4.140
10212TIP3    H130581   1.000   6.087   4.069
10212TIP3    H230582   0.882   6.177   4.097
10213TIP3   OH230583   2.185   4.450   3.026
10213TIP3    H130584   2.178   4.355   3.029
10213TIP3    H230585   2.095   4.481   3.033
10214TIP3   OH230586   4.956   1.597   4.949
10214TIP3    H130587   4.944   1.503   4.938
10214TIP3    H230588   4.869   1.631   4.968
10215TIP3   OH230589   7.036   2.826   1.038
10215TIP3    H130590   7.083   2.895   1.084
10215TIP3    H230591   7.026   2.859   0.949
10216TIP3   OH230592   6.315   1.260   4.849
10216TIP3    H130593   6.397   1.212   4.843
10216TIP3    H230594   6.335   1.337   4.902
10217TIP3   OH230595   7.095   1.864   5.999
10217TIP3    H130596   7.059   1.784   5.963
10217TIP3    H230597   7.177   1.877   5.952
10218TIP3   OH230598   2.363   2.201   1.167
10218TIP3    H130599   2.334   2.238   1.251
10218TIP3    H230600   2.387   2.110   1.188
10219TIP3   OH230601   8.298   4.185   4.765
10219TIP3    H130602   8.344   4.151   4.842
10219TIP3    H230603   8.224   4.126   4.753
10220TIP3   OH230604   4.290   6.778   0.488
10220TIP3    H130605   4.310   6.852   0.431
10220TIP3    H230606   4.282   6.816   0.576
10221TIP3   OH230607   7.371   4.307   4.315
10221TIP3    H130608   7.336   4.228   4.274
10221TIP3    H230609   7.323   4.313   4.398
10222TIP3   OH230610   4.953   7.291   0.485
10222TIP3    H130611   4.989   7.266   0.400
10222TIP3    H230612   4.863   7.259   0.483
10223TIP3   OH230613   4.444   1.711   4.005
10223TIP3    H130614   4.375   1.747   3.950
10223TIP3    H230615   4.525   1.731   3.958
10224TIP3   OH230616   2.639   7.768   0.592
10224TIP3    H130617   2.723   7.737   0.625
10224TIP3    H230618   2.574   7.711   0.633
10225TIP3   OH230619   1.976   0.749   4.844
10225TIP3    H130620   1.882   0.758   4.861
10225TIP3    H230621   2.019   0.787   4.920
10226TIP3   OH230622   6.040   4.109   6.215
10226TIP3    H130623   5.962   4.066   6.251
10226TIP3    H230624   6.077   4.045   6.154
10227TIP3   OH230625   2.934   1.417   0.804
10227TIP3    H130626   2.995   1.435   0.875
10227TIP3    H230627   2.989   1.390   0.730
10228TIP3   OH230628   8.192   3.085   3.329
10228TIP3    H130629   8.217   3.177   3.320
10228TIP3    H230630   8.273   3.036   3.319
10229TIP3   OH230631   2.816   7.580   5.034
10229TIP3    H130632   2.804   7.510   4.970
10229TIP3    H230633   2.799   7.661   4.986
10230TIP3   OH230634   2.529   1.651   3.571
10230TIP3    H130635   2.503   1.736   3.535
10230TIP3    H230636   2.619   1.664   3.601
10231TIP3   OH230637   4.606   3.551   4.459
10231TIP3    H130638   4.519   3.590   4.457
10231TIP3    H230639   4.596   3.466   4.417
10232TIP3   OH230640   4.485   2.076   0.113
10232TIP3    H130641   4.496   2.097   0.021
10232TIP3    H230642   4.574   2.064   0.146
10233TIP3   OH230643   1.672   7.020   0.931
10233TIP3    H130644   1.612   7.010   0.857
10233TIP3    H230645   1.669   6.934   0.974
10234TIP3   OH230646   6.486   5.133   6.699
10234TIP3    H130647   6.575   5.161   6.723
10234TIP3    H230648   6.474   5.049   6.744
10235TIP3   OH230649   0.231   3.109   0.195
10235TIP3    H130650   0.284   3.153   0.128
10235TIP3    H230651   0.170   3.176   0.225
10236TIP3   OH230652   6.053   7.729   2.162
10236TIP3    H130653   6.096   7.800   2.115
10236TIP3    H230654   6.113   7.655   2.154
10237TIP3   OH230655   5.604   1.621   1.015
10237TIP3    H130656   5.634   1.707   1.044
10237TIP3    H230657   5.629   1.562   1.086
10238TIP3   OH230658   5.102   6.344   3.427
10238TIP3    H130659   5.073   6.380   3.343
10238TIP3    H230660   5.128   6.254   3.407
10239TIP3   OH230661   6.110   1.530   3.071
10239TIP3    H130662   6.189   1.577   3.097
10239TIP3    H230663   6.065   1.512   3.154
10240TIP3   OH230664   6.468   5.945   5.558
10240TIP3    H130665   6.457   5.980   5.470
10240TIP3    H230666   6.531   6.004   5.600
10241TIP3   OH230667   1.078   4.768   5.474
10241TIP3    H130668   0.989   4.734   5.477
10241TIP3    H230669   1.077   4.842   5.535
10242TIP3   OH230670   6.148   1.375   0.240
10242TIP3    H130671   6.069   1.416   0.204
10242TIP3    H230672   6.186   1.443   0.296
10243TIP3   OH230673   0.470   2.685   4.001
10243TIP3    H130674   0.530   2.646   4.064
10243TIP3    H230675   0.477   2.780   4.016
10244TIP3   OH230676   6.683   7.010   0.629
10244TIP3    H130677   6.599   6.964   0.621
10244TIP3    H230678   6.707   6.999   0.721
10245TIP3   OH230679   3.253   7.545   5.372
10245TIP3    H130680   3.181   7.591   5.329
10245TIP3    H230681   3.211   7.474   5.419
10246TIP3   OH230682   7.838   1.227   3.502
10246TIP3    H130683   7.807   1.308   3.461
10246TIP3    H230684   7.763   1.196   3.553
10247TIP3   OH230685   3.450   1.407   3.304
10247TIP3    H130686   3.367   1.435   3.266
10247TIP3    H230687   3.476   1.479   3.361
10248TIP3   OH230688   0.665   5.390   2.498
10248TIP3    H130689   0.666   5.310   2.445
10248TIP3    H230690   0.727   5.449   2.455
10249TIP3   OH230691   3.330   1.323   6.755
10249TIP3    H130692   3.313   1.341   6.663
10249TIP3    H230693   3.408   1.267   6.755
10250TIP3   OH230694   2.044   2.365   5.146
10250TIP3    H130695   1.951   2.367   5.124
10250TIP3    H230696   2.081   2.441   5.101
10251TIP3   OH230697   1.566   3.241   3.851
10251TIP3    H130698   1.483   3.196   3.839
10251TIP3    H230699   1.557   3.286   3.935
10252TIP3   OH230700   3.203   6.932   4.732
10252TIP3    H130701   3.256   7.003   4.768
10252TIP3    H230702   3.253   6.852   4.751
10253TIP3   OH230703   3.855   3.319   2.254
10253TIP3    H130704   3.791   3.378   2.295
10253TIP3    H230705   3.927   3.313   2.317
10254TIP3   OH230706   3.507   0.562   1.615
10254TIP3    H130707   3.477   0.598   1.532
10254TIP3    H230708   3.481   0.627   1.680
10255TIP3   OH230709   2.968   3.016   4.636
10255TIP3    H130710   3.000   2.967   4.711
10255TIP3    H230711   2.978   2.957   4.562
10256TIP3   OH230712   8.042   4.491   6.501
10256TIP3    H130713   8.035   4.573   6.454
10256TIP3    H230714   8.084   4.431   6.439
10257TIP3   OH230715   3.983   5.536   6.116
10257TIP3    H130716   4.053   5.496   6.063
10257TIP3    H230717   3.967   5.472   6.186
10258TIP3   OH230718   0.228   6.524   5.740
10258TIP3    H130719   0.133   6.538   5.738
10258TIP3    H230720   0.264   6.597   5.689
10259TIP3   OH230721   7.122   3.141   2.371
10259TIP3    H130722   7.044   3.192   2.349
10259TIP3    H230723   7.177   3.202   2.420
10260TIP3   OH230724   5.650   6.640   2.030
10260TIP3    H130725   5.592   6.712   2.054
10260TIP3    H230726   5.609   6.600   1.953
10261TIP3   OH230727   3.982   5.507   6.663
10261TIP3    H130728   4.022   5.559   6.594
10261TIP3    H230729   4.055   5.467   6.710
10262TIP3   OH230730   4.871   4.304   4.310
10262TIP3    H130731   4.904   4.283   4.223
10262TIP3    H230732   4.814   4.230   4.333
10263TIP3   OH230733   7.974   3.436   4.301
10263TIP3    H130734   7.953   3.396   4.385
10263TIP3    H230735   8.069   3.448   4.304
10264TIP3   OH230736   3.957   6.088   1.165
10264TIP3    H130737   3.965   6.120   1.075
10264TIP3    H230738   3.883   6.137   1.201
10265TIP3   OH230739   6.910   3.350   2.667
10265TIP3    H130740   7.001   3.375   2.682
10265TIP3    H230741   6.859   3.413   2.717
10266TIP3   OH230742   5.035   5.601   2.110
10266TIP3    H130743   5.033   5.540   2.036
10266TIP3    H230744   5.109   5.659   2.092
10267TIP3   OH230745   4.534   4.042   3.002
10267TIP3    H130746   4.611   4.046   3.058
10267TIP3    H230747   4.467   4.091   3.050
10268TIP3   OH230748   6.484   3.158   5.120
10268TIP3    H130749   6.464   3.101   5.046
10268TIP3    H230750   6.476   3.246   5.084
10269TIP3   OH230751   5.049   6.531   1.188
10269TIP3    H130752   5.022   6.623   1.196
10269TIP3    H230753   5.053   6.515   1.094
10270TIP3   OH230754   6.384   2.336   5.713
10270TIP3    H130755   6.399   2.249   5.750
10270TIP3    H230756   6.413   2.397   5.782
10271TIP3   OH230757   7.257   4.604   1.217
10271TIP3    H130758   7.248   4.589   1.122
10271TIP3    H230759   7.267   4.517   1.254
10272TIP3   OH230760   0.111   3.132   4.166
10272TIP3    H130761   0.147   3.218   4.188
10272TIP3    H230762   0.019   3.138   4.191
10273TIP3   OH230763   5.665   2.397   3.332
10273TIP3    H130764   5.744   2.442   3.362
10273TIP3    H230765   5.608   2.396   3.409
10274TIP3   OH230766   6.314   2.036   0.158
10274TIP3    H130767   6.349   1.992   0.081
10274TIP3    H230768   6.356   2.122   0.158
10275TIP3   OH230769   6.155   0.893   3.005
10275TIP3    H130770   6.093   0.846   2.948
10275TIP3    H230771   6.225   0.920   2.947
10276TIP3   OH230772   3.819   5.791   4.846
10276TIP3    H130773   3.758   5.762   4.914
10276TIP3    H230774   3.772   5.861   4.800
10277TIP3   OH230775   6.836   7.110   1.418
10277TIP3    H130776   6.774   7.037   1.420
10277TIP3    H230777   6.921   7.068   1.404
10278TIP3   OH230778   6.210   1.484   4.558
10278TIP3    H130779   6.288   1.473   4.612
10278TIP3    H230780   6.244   1.512   4.473
10279TIP3   OH230781   7.780   7.103   3.572
10279TIP3    H130782   7.807   7.012   3.589
10279TIP3    H230783   7.719   7.123   3.644
10280TIP3   OH230784   3.382   2.392   0.805
10280TIP3    H130785   3.376   2.446   0.727
10280TIP3    H230786   3.291   2.374   0.829
10281TIP3   OH230787   7.376   6.964   1.388
10281TIP3    H130788   7.439   7.036   1.391
10281TIP3    H230789   7.398   6.917   1.307
10282TIP3   OH230790   0.899   0.141   1.307
10282TIP3    H130791   0.894   0.053   1.269
10282TIP3    H230792   0.980   0.140   1.358
10283TIP3   OH230793   0.823   6.160   3.194
10283TIP3    H130794   0.786   6.162   3.106
10283TIP3    H230795   0.905   6.208   3.186
10284TIP3   OH230796   5.348   4.305   1.949
10284TIP3    H130797   5.259   4.310   1.914
10284TIP3    H230798   5.372   4.213   1.941
10285TIP3   OH230799   6.009   7.537   3.294
10285TIP3    H130800   5.935   7.597   3.284
10285TIP3    H230801   6.073   7.586   3.345
10286TIP3   OH230802   0.335   2.712   2.263
10286TIP3    H130803   0.430   2.712   2.263
10286TIP3    H230804   0.310   2.800   2.235
10287TIP3   OH230805   6.810   5.104   1.389
10287TIP3    H130806   6.785   5.032   1.448
10287TIP3    H230807   6.901   5.084   1.365
10288TIP3   OH230808   0.708   7.234   2.205
10288TIP3    H130809   0.698   7.291   2.281
10288TIP3    H230810   0.802   7.229   2.191
10289TIP3   OH230811   5.100   3.169   6.475
10289TIP3    H130812   5.030   3.120   6.431
10289TIP3    H230813   5.145   3.215   6.403
10290TIP3   OH230814   3.704   4.742   0.161
10290TIP3    H130815   3.628   4.693   0.133
10290TIP3    H230816   3.779   4.686   0.139
10291TIP3   OH230817   4.754   6.689   3.271
10291TIP3    H130818   4.798   6.697   3.186
10291TIP3    H230819   4.737   6.779   3.298
10292TIP3   OH230820   4.604   3.901   4.529
10292TIP3    H130821   4.629   3.870   4.617
10292TIP3    H230822   4.616   3.824   4.473
10293TIP3   OH230823   2.188   4.999   3.727
10293TIP3    H130824   2.197   5.094   3.719
10293TIP3    H230825   2.207   4.980   3.819
10294TIP3   OH230826   3.997   7.562   1.401
10294TIP3    H130827   3.920   7.561   1.457
10294TIP3    H230828   4.071   7.560   1.463
10295TIP3   OH230829   3.039   2.344   4.653
10295TIP3    H130830   3.078   2.397   4.723
10295TIP3    H230831   3.047   2.398   4.574
10296TIP3   OH230832   1.862   7.489   1.901
10296TIP3    H130833   1.788   7.468   1.845
10296TIP3    H230834   1.884   7.580   1.879
10297TIP3   OH230835   0.306   7.350   1.341
10297TIP3    H130836   0.239   7.415   1.319
10297TIP3    H230837   0.290   7.329   1.433
10298TIP3   OH230838   6.582   2.896   1.443
10298TIP3    H130839   6.504   2.919   1.393
10298TIP3    H230840   6.549   2.861   1.525
10299TIP3   OH230841   5.548   1.337   0.283
10299TIP3    H130842   5.617   1.393   0.248
10299TIP3    H230843   5.567   1.250   0.246
10300TIP3   OH230844   2.840   6.016   1.137
10300TIP3    H130845   2.773   6.053   1.194
10300TIP3    H230846   2.881   5.946   1.189
10301TIP3   OH230847   2.989   4.840   5.544
10301TIP3    H130848   2.940   4.919   5.567
10301TIP3    H230849   3.070   4.846   5.595
10302TIP3   OH230850   4.977   6.977   0.225
10302TIP3    H130851   5.031   7.054   0.243
10302TIP3    H230852   4.998   6.916   0.296
10303TIP3   OH230853   7.450   1.385   2.770
10303TIP3    H130854   7.460   1.292   2.750
10303TIP3    H230855   7.539   1.418   2.775
10304TIP3   OH230856   1.945   4.617   1.668
10304TIP3    H130857   2.008   4.569   1.612
10304TIP3    H230858   1.976   4.707   1.667
10305TIP3   OH230859   4.945   6.867   4.131
10305TIP3    H130860   4.895   6.794   4.168
10305TIP3    H230861   5.033   6.830   4.116
10306TIP3   OH230862   0.933   1.701   1.164
10306TIP3    H130863   0.846   1.664   1.173
10306TIP3    H230864   0.931   1.781   1.217
10307TIP3   OH230865   5.645   0.680   5.133
10307TIP3    H130866   5.611   0.716   5.051
10307TIP3    H230867   5.655   0.586   5.116
10308TIP3   OH230868   0.349   5.674   5.202
10308TIP3    H130869   0.423   5.733   5.216
10308TIP3    H230870   0.389   5.592   5.172
10309TIP3   OH230871   4.912   1.794   1.845
10309TIP3    H130872   4.898   1.705   1.815
10309TIP3    H230873   4.918   1.787   1.940
10310TIP3   OH230874   5.868   3.789   0.587
10310TIP3    H130875   5.792   3.731   0.596
10310TIP3    H230876   5.860   3.827   0.500
10311TIP3   OH230877   3.586   0.931   4.871
10311TIP3    H130878   3.577   0.914   4.965
10311TIP3    H230879   3.521   0.873   4.831
10312TIP3   OH230880   2.196   7.297   5.151
10312TIP3    H130881   2.107   7.320   5.180
10312TIP3    H230882   2.201   7.203   5.164
10313TIP3   OH230883   1.296   1.648   3.330
10313TIP3    H130884   1.387   1.619   3.321
10313TIP3    H230885   1.268   1.610   3.413
10314TIP3   OH230886   8.000   3.870   2.467
10314TIP3    H130887   7.953   3.820   2.534
10314TIP3    H230888   8.086   3.887   2.505
10315TIP3   OH230889   6.290   4.745   0.309
10315TIP3    H130890   6.218   4.800   0.278
10315TIP3    H230891   6.256   4.655   0.302
10316TIP3   OH230892   1.986   0.544   2.140
10316TIP3    H130893   1.919   0.512   2.078
10316TIP3    H230894   1.957   0.632   2.163
10317TIP3   OH230895   7.029   0.970   5.754
10317TIP3    H130896   6.937   0.983   5.732
10317TIP3    H230897   7.063   0.917   5.682
10318TIP3   OH230898   2.059   3.091   0.691
10318TIP3    H130899   2.086   3.141   0.614
10318TIP3    H230900   1.984   3.139   0.726
10319TIP3   OH230901   5.628   3.479   0.353
10319TIP3    H130902   5.665   3.448   0.436
10319TIP3    H230903   5.667   3.422   0.287
10320TIP3   OH230904   3.609   0.897   5.151
10320TIP3    H130905   3.616   0.992   5.155
10320TIP3    H230906   3.548   0.875   5.222
10321TIP3   OH230907   0.928   0.372   1.487
10321TIP3    H130908   0.869   0.309   1.529
10321TIP3    H230909   0.975   0.321   1.422
10322TIP3   OH230910   6.448   4.567   2.393
10322TIP3    H130911   6.453   4.661   2.407
10322TIP3    H230912   6.424   4.530   2.478
10323TIP3   OH230913   3.904   1.887   3.570
10323TIP3    H130914   3.854   1.860   3.647
10323TIP3    H230915   3.874   1.829   3.500
10324TIP3   OH230916   6.420   7.686   4.599
10324TIP3    H130917   6.429   7.733   4.682
10324TIP3    H230918   6.470   7.738   4.537
10325TIP3   OH230919   4.451   5.162   5.488
10325TIP3    H130920   4.466   5.201   5.574
10325TIP3    H230921   4.477   5.070   5.498
10326TIP3   OH230922   2.529   3.082   2.963
10326TIP3    H130923   2.500   3.170   2.940
10326TIP3    H230924   2.547   3.086   3.057
10327TIP3   OH230925   0.728   0.181   0.141
10327TIP3    H130926   0.800   0.221   0.190
10327TIP3    H230927   0.683   0.254   0.101
10328TIP3   OH230928   7.405   1.947   3.379
10328TIP3    H130929   7.411   2.028   3.430
10328TIP3    H230930   7.319   1.953   3.336
10329TIP3   OH230931   0.998   1.207   2.957
10329TIP3    H130932   0.965   1.229   2.870
10329TIP3    H230933   0.930   1.239   3.017
10330TIP3   OH230934   3.822   6.116   0.101
10330TIP3    H130935   3.781   6.031   0.117
10330TIP3    H230936   3.911   6.106   0.132
10331TIP3   OH230937   7.019   0.718   4.372
10331TIP3    H130938   6.969   0.683   4.446
10331TIP3    H230939   7.109   0.692   4.390
10332TIP3   OH230940   5.648   2.718   5.482
10332TIP3    H130941   5.589   2.784   5.445
10332TIP3    H230942   5.732   2.764   5.491
10333TIP3   OH230943   3.921   4.360   3.888
10333TIP3    H130944   3.977   4.433   3.859
10333TIP3    H230945   3.834   4.384   3.858
10334TIP3   OH230946   1.894   4.067   4.782
10334TIP3    H130947   1.921   4.036   4.868
10334TIP3    H230948   1.844   3.994   4.745
10335TIP3   OH230949   1.271   4.276   2.074
10335TIP3    H130950   1.276   4.289   1.979
10335TIP3    H230951   1.323   4.347   2.110
10336TIP3   OH230952   8.193   7.595   4.231
10336TIP3    H130953   8.139   7.673   4.230
10336TIP3    H230954   8.147   7.533   4.175
10337TIP3   OH230955   6.499   4.877   5.752
10337TIP3    H130956   6.506   4.796   5.803
10337TIP3    H230957   6.552   4.940   5.801
10338TIP3   OH230958   0.282   4.609   0.803
10338TIP3    H130959   0.237   4.533   0.841
10338TIP3    H230960   0.212   4.664   0.769
10339TIP3   OH230961   7.240   2.650   3.609
10339TIP3    H130962   7.329   2.674   3.584
10339TIP3    H230963   7.197   2.628   3.527
10340TIP3   OH230964   0.879   2.283   4.223
10340TIP3    H130965   0.919   2.199   4.245
10340TIP3    H230966   0.791   2.260   4.192
10341TIP3   OH230967   2.543   6.378   4.056
10341TIP3    H130968   2.546   6.439   3.982
10341TIP3    H230969   2.467   6.323   4.039
10342TIP3   OH230970   3.987   5.409   5.577
10342TIP3    H130971   3.976   5.498   5.542
10342TIP3    H230972   4.079   5.390   5.562
10343TIP3   OH230973   6.141   2.969   0.753
10343TIP3    H130974   6.093   2.904   0.804
10343TIP3    H230975   6.166   2.923   0.673
10344TIP3   OH230976   0.446   6.787   3.528
10344TIP3    H130977   0.472   6.709   3.578
10344TIP3    H230978   0.514   6.852   3.548
10345TIP3   OH230979   4.757   1.111   2.731
10345TIP3    H130980   4.852   1.107   2.731
10345TIP3    H230981   4.732   1.116   2.823
10346TIP3   OH230982   7.942   5.036   4.197
10346TIP3    H130983   7.937   4.974   4.124
10346TIP3    H230984   7.996   4.993   4.263
10347TIP3   OH230985   5.443   2.451   0.273
10347TIP3    H130986   5.477   2.513   0.337
10347TIP3    H230987   5.439   2.367   0.320
10348TIP3   OH230988   6.846   6.364   2.181
10348TIP3    H130989   6.876   6.431   2.242
10348TIP3    H230990   6.926   6.336   2.136
10349TIP3   OH230991   4.576   6.019   1.191
10349TIP3    H130992   4.492   6.037   1.149
10349TIP3    H230993   4.554   5.999   1.282
10350TIP3   OH230994   3.144   6.874   6.724
10350TIP3    H130995   3.128   6.822   6.802
10350TIP3    H230996   3.121   6.816   6.651
10351TIP3   OH230997   1.978   4.940   0.561
10351TIP3    H130998   1.894   4.983   0.577
10351TIP3    H230999   1.955   4.848   0.549
10352TIP3   OH231000   7.444   7.702   2.928
10352TIP3    H131001   7.495   7.735   3.002
10352TIP3    H231002   7.418   7.614   2.954
10353TIP3   OH231003   3.036   2.282   3.013
10353TIP3    H131004   3.062   2.360   2.964
10353TIP3    H231005   2.941   2.280   3.007
10354TIP3   OH231006   5.195   2.707   0.389
10354TIP3    H131007   5.181   2.702   0.294
10354TIP3    H231008   5.108   2.722   0.425
10355TIP3   OH231009   7.143   7.639   0.044
10355TIP3    H131010   7.067   7.618   0.100
10355TIP3    H231011   7.203   7.566   0.058
10356TIP3   OH231012   1.439   0.559   4.002
10356TIP3    H131013   1.490   0.631   4.039
10356TIP3    H231014   1.441   0.574   3.907
10357TIP3   OH231015   4.989   3.120   5.421
10357TIP3    H131016   4.963   3.121   5.513
10357TIP3    H231017   4.974   3.210   5.391
10358TIP3   OH231018   2.517   7.076   1.054
10358TIP3    H131019   2.521   7.081   0.958
10358TIP3    H231020   2.540   7.164   1.083
10359TIP3   OH231021   0.307   3.753   2.002
10359TIP3    H131022   0.255   3.780   1.927
10359TIP3    H231023   0.392   3.729   1.964
10360TIP3   OH231024   4.723   3.302   6.489
10360TIP3    H131025   4.657   3.302   6.559
10360TIP3    H231026   4.784   3.372   6.513
10361TIP3   OH231027   3.443   0.875   1.679
10361TIP3    H131028   3.382   0.860   1.752
10361TIP3    H231029   3.393   0.928   1.617
10362TIP3   OH231030   1.129   6.138   6.179
10362TIP3    H131031   1.110   6.115   6.270
10362TIP3    H231032   1.079   6.074   6.128
10363TIP3   OH231033   7.073   0.369   4.643
10363TIP3    H131034   7.132   0.384   4.569
10363TIP3    H231035   7.087   0.278   4.667
10364TIP3   OH231036   2.731   3.327   4.415
10364TIP3    H131037   2.729   3.344   4.509
10364TIP3    H231038   2.641   3.303   4.393
10365TIP3   OH231039   3.312   5.521   6.098
10365TIP3    H131040   3.322   5.429   6.122
10365TIP3    H231041   3.347   5.527   6.009
10366TIP3   OH231042   7.645   5.131   2.069
10366TIP3    H131043   7.555   5.156   2.091
10366TIP3    H231044   7.636   5.044   2.030
10367TIP3   OH231045   7.373   4.589   4.292
10367TIP3    H131046   7.329   4.587   4.207
10367TIP3    H231047   7.403   4.500   4.307
10368TIP3   OH231048   3.320   0.221   3.087
10368TIP3    H131049   3.258   0.233   3.016
10368TIP3    H231050   3.299   0.291   3.149
10369TIP3   OH231051   0.902   5.809   6.424
10369TIP3    H131052   0.827   5.821   6.366
10369TIP3    H231053   0.928   5.717   6.411
10370TIP3   OH231054   7.084   6.097   3.100
10370TIP3    H131055   7.090   6.157   3.025
10370TIP3    H231056   7.170   6.101   3.141
10371TIP3   OH231057   1.019   2.085   6.463
10371TIP3    H131058   1.059   1.999   6.469
10371TIP3    H231059   1.040   2.116   6.375
10372TIP3   OH231060   8.195   3.082   6.343
10372TIP3    H131061   8.130   3.012   6.333
10372TIP3    H231062   8.233   3.066   6.430
10373TIP3   OH231063   0.961   6.788   1.171
10373TIP3    H131064   0.913   6.857   1.218
10373TIP3    H231065   0.998   6.734   1.241
10374TIP3   OH231066   3.697   2.095   6.317
10374TIP3    H131067   3.676   2.009   6.281
10374TIP3    H231068   3.636   2.107   6.390
10375TIP3   OH231069   2.414   7.452   5.153
10375TIP3    H131070   2.485   7.397   5.186
10375TIP3    H231071   2.337   7.394   5.155
10376TIP3   OH231072   0.742   5.356   0.741
10376TIP3    H131073   0.813   5.317   0.792
10376TIP3    H231074   0.701   5.419   0.801
10377TIP3   OH231075   0.347   1.983   3.743
10377TIP3    H131076   0.385   1.896   3.751
10377TIP3    H231077   0.319   1.989   3.652
10378TIP3   OH231078   3.065   7.667   5.673
10378TIP3    H131079   3.123   7.743   5.675
10378TIP3    H231080   3.098   7.613   5.601
10379TIP3   OH231081   5.862   6.604   6.676
10379TIP3    H131082   5.894   6.531   6.729
10379TIP3    H231083   5.914   6.601   6.596
10380TIP3   OH231084   1.419   3.215   3.426
10380TIP3    H131085   1.484   3.253   3.485
10380TIP3    H231086   1.353   3.177   3.484
10381TIP3   OH231087   5.797   5.236   5.923
10381TIP3    H131088   5.721   5.195   5.966
10381TIP3    H231089   5.828   5.301   5.986
10382TIP3   OH231090   7.824   4.868   2.853
10382TIP3    H131091   7.811   4.884   2.946
10382TIP3    H231092   7.891   4.799   2.849
10383TIP3   OH231093   4.757   2.921   3.849
10383TIP3    H131094   4.743   2.964   3.764
10383TIP3    H231095   4.837   2.961   3.883
10384TIP3   OH231096   8.267   4.282   0.957
10384TIP3    H131097   8.211   4.211   0.924
10384TIP3    H231098   8.227   4.362   0.922
10385TIP3   OH231099   8.057   0.659   6.256
10385TIP3    H131100   8.042   0.626   6.167
10385TIP3    H231101   8.092   0.584   6.304
10386TIP3   OH231102   5.178   5.589   0.349
10386TIP3    H131103   5.270   5.614   0.346
10386TIP3    H231104   5.165   5.559   0.439
10387TIP3   OH231105   2.388   1.464   4.276
10387TIP3    H131106   2.440   1.498   4.203
10387TIP3    H231107   2.380   1.539   4.336
10388TIP3   OH231108   7.962   1.405   3.033
10388TIP3    H131109   8.009   1.432   3.111
10388TIP3    H231110   7.979   1.311   3.026
10389TIP3   OH231111   2.086   6.744   3.476
10389TIP3    H131112   2.144   6.674   3.504
10389TIP3    H231113   2.032   6.705   3.407
10390TIP3   OH231114   7.764   5.349   0.136
10390TIP3    H131115   7.821   5.353   0.212
10390TIP3    H231116   7.792   5.421   0.080
10391TIP3   OH231117   6.257   4.580   5.466
10391TIP3    H131118   6.205   4.568   5.546
10391TIP3    H231119   6.197   4.557   5.395
10392TIP3   OH231120   5.168   0.650   5.371
10392TIP3    H131121   5.105   0.708   5.329
10392TIP3    H231122   5.252   0.675   5.334
10393TIP3   OH231123   4.189   7.316   4.747
10393TIP3    H131124   4.184   7.325   4.651
10393TIP3    H231125   4.097   7.318   4.775
10394TIP3   OH231126   2.207   0.210   0.226
10394TIP3    H131127   2.208   0.122   0.264
10394TIP3    H231128   2.245   0.198   0.139
10395TIP3   OH231129   4.086   0.507   2.551
10395TIP3    H131130   3.997   0.479   2.533
10395TIP3    H231131   4.136   0.426   2.562
10396TIP3   OH231132   5.050   0.902   0.327
10396TIP3    H131133   4.974   0.846   0.343
10396TIP3    H231134   5.036   0.978   0.384
10397TIP3   OH231135   6.715   3.673   5.133
10397TIP3    H131136   6.805   3.691   5.162
10397TIP3    H231137   6.672   3.636   5.211
10398TIP3   OH231138   5.976   2.682   0.152
10398TIP3    H131139   5.968   2.775   0.174
10398TIP3    H231140   5.895   2.642   0.184
10399TIP3   OH231141   2.034   4.705   4.437
10399TIP3    H131142   1.982   4.679   4.512
10399TIP3    H231143   2.102   4.762   4.473
10400TIP3   OH231144   3.908   3.265   6.454
10400TIP3    H131145   3.848   3.282   6.381
10400TIP3    H231146   3.854   3.223   6.520
10401TIP3   OH231147   0.445   0.446   5.185
10401TIP3    H131148   0.483   0.496   5.257
10401TIP3    H231149   0.492   0.476   5.108
10402TIP3   OH231150   7.163   2.972   1.592
10402TIP3    H131151   7.098   2.984   1.661
10402TIP3    H231152   7.172   3.058   1.551
10403TIP3   OH231153   6.180   2.921   3.635
10403TIP3    H131154   6.190   2.870   3.715
10403TIP3    H231155   6.224   3.004   3.654
10404TIP3   OH231156   4.755   1.927   4.400
10404TIP3    H131157   4.674   1.956   4.359
10404TIP3    H231158   4.729   1.854   4.456
10405TIP3   OH231159   3.357   5.325   2.116
10405TIP3    H131160   3.368   5.412   2.079
10405TIP3    H231161   3.446   5.294   2.133
10406TIP3   OH231162   3.574   0.302   4.849
10406TIP3    H131163   3.564   0.242   4.776
10406TIP3    H231164   3.544   0.252   4.925
10407TIP3   OH231165   3.063   6.730   2.917
10407TIP3    H131166   3.102   6.671   2.982
10407TIP3    H231167   3.013   6.672   2.859
10408TIP3   OH231168   3.807   5.944   4.342
10408TIP3    H131169   3.873   5.940   4.273
10408TIP3    H231170   3.735   5.994   4.303
10409TIP3   OH231171   4.813   6.516   3.480
10409TIP3    H131172   4.903   6.547   3.487
10409TIP3    H231173   4.794   6.515   3.386
10410TIP3   OH231174   6.793   5.400   5.540
10410TIP3    H131175   6.759   5.315   5.513
10410TIP3    H231176   6.848   5.428   5.467
10411TIP3   OH231177   6.871   5.405   4.221
10411TIP3    H131178   6.956   5.444   4.240
10411TIP3    H231179   6.808   5.474   4.243
10412TIP3   OH231180   0.279   6.559   2.330
10412TIP3    H131181   0.209   6.623   2.323
10412TIP3    H231182   0.246   6.481   2.286
10413TIP3   OH231183   2.681   4.950   1.209
10413TIP3    H131184   2.615   4.933   1.277
10413TIP3    H231185   2.728   5.027   1.240
10414TIP3   OH231186   1.136   3.927   0.560
10414TIP3    H131187   1.069   3.942   0.625
10414TIP3    H231188   1.205   3.879   0.606
10415TIP3   OH231189   4.324   0.706   0.105
10415TIP3    H131190   4.326   0.790   0.058
10415TIP3    H231191   4.236   0.672   0.087
10416TIP3   OH231192   1.523   3.117   2.928
10416TIP3    H131193   1.469   3.106   3.006
10416TIP3    H231194   1.613   3.107   2.960
10417TIP3   OH231195   1.661   4.685   0.142
10417TIP3    H131196   1.750   4.654   0.124
10417TIP3    H231197   1.670   4.743   0.217
10418TIP3   OH231198   3.627   0.648   4.977
10418TIP3    H131199   3.693   0.710   5.008
10418TIP3    H231200   3.672   0.563   4.977
10419TIP3   OH231201   4.514   3.742   2.063
10419TIP3    H131202   4.462   3.807   2.111
10419TIP3    H231203   4.459   3.664   2.063
10420TIP3   OH231204   1.826   4.149   2.476
10420TIP3    H131205   1.794   4.120   2.391
10420TIP3    H231206   1.752   4.138   2.536
10421TIP3   OH231207   5.275   7.585   1.889
10421TIP3    H131208   5.359   7.556   1.852
10421TIP3    H231209   5.211   7.565   1.821
10422TIP3   OH231210   1.039   6.099   2.722
10422TIP3    H131211   1.107   6.034   2.739
10422TIP3    H231212   0.958   6.058   2.753
10423TIP3   OH231213   4.228   6.029   2.955
10423TIP3    H131214   4.142   5.990   2.937
10423TIP3    H231215   4.208   6.109   3.004
10424TIP3   OH231216   5.710   5.607   0.377
10424TIP3    H131217   5.689   5.533   0.434
10424TIP3    H231218   5.782   5.652   0.421
10425TIP3   OH231219   2.709   5.117   5.386
10425TIP3    H131220   2.759   5.106   5.467
10425TIP3    H231221   2.753   5.190   5.341
10426TIP3   OH231222   1.439   0.326   0.155
10426TIP3    H131223   1.451   0.248   0.210
10426TIP3    H231224   1.527   0.351   0.129
10427TIP3   OH231225   7.385   3.607   5.133
10427TIP3    H131226   7.467   3.561   5.116
10427TIP3    H231227   7.368   3.657   5.053
10428TIP3   OH231228   4.250   0.067   5.658
10428TIP3    H131229   4.325   0.011   5.641
10428TIP3    H231230   4.249   0.077   5.753
10429TIP3   OH231231   1.622   5.867   1.539
10429TIP3    H131232   1.710   5.904   1.531
10429TIP3    H231233   1.637   5.773   1.552
10430TIP3   OH231234   8.035   1.087   3.902
10430TIP3    H131235   8.056   1.006   3.948
10430TIP3    H231236   7.989   1.058   3.823
10431TIP3   OH231237   4.233   1.765   6.629
10431TIP3    H131238   4.150   1.730   6.660
10431TIP3    H231239   4.242   1.730   6.540
10432TIP3   OH231240   0.457   1.388   4.330
10432TIP3    H131241   0.504   1.463   4.366
10432TIP3    H231242   0.367   1.418   4.320
10433TIP3   OH231243   5.700   0.923   4.485
10433TIP3    H131244   5.733   0.912   4.396
10433TIP3    H231245   5.733   0.846   4.532
10434TIP3   OH231246   5.678   2.919   1.368
10434TIP3    H131247   5.729   2.868   1.432
10434TIP3    H231248   5.604   2.952   1.418
10435TIP3   OH231249   5.154   7.759   4.168
10435TIP3    H131250   5.083   7.787   4.110
10435TIP3    H231251   5.233   7.796   4.129
10436TIP3   OH231252   4.984   4.513   6.718
10436TIP3    H131253   4.918   4.582   6.710
10436TIP3    H231254   5.034   4.537   6.797
10437TIP3   OH231255   7.137   0.865   2.936
10437TIP3    H131256   7.210   0.923   2.913
10437TIP3    H231257   7.155   0.839   3.027
10438TIP3   OH231258   3.966   5.273   1.720
10438TIP3    H131259   3.949   5.364   1.745
10438TIP3    H231260   3.909   5.221   1.777
10439TIP3   OH231261   6.409   6.796   3.089
10439TIP3    H131262   6.394   6.721   3.032
10439TIP3    H231263   6.504   6.809   3.088
10440TIP3   OH231264   7.464   5.114   3.356
10440TIP3    H131265   7.465   5.059   3.435
10440TIP3    H231266   7.441   5.054   3.286
10441TIP3   OH231267   7.607   4.723   0.429
10441TIP3    H131268   7.547   4.798   0.426
10441TIP3    H231269   7.694   4.763   0.429
10442TIP3   OH231270   0.580   3.906   5.388
10442TIP3    H131271   0.660   3.853   5.394
10442TIP3    H231272   0.543   3.883   5.302
10443TIP3   OH231273   1.157   5.751   3.070
10443TIP3    H131274   1.114   5.666   3.075
10443TIP3    H231275   1.246   5.732   3.039
10444TIP3   OH231276   1.578   4.821   1.478
10444TIP3    H131277   1.578   4.836   1.383
10444TIP3    H231278   1.607   4.905   1.515
10445TIP3   OH231279   7.941   1.088   6.191
10445TIP3    H131280   7.878   1.124   6.129
10445TIP3    H231281   7.982   1.165   6.231
10446TIP3   OH231282   7.642   2.847   2.488
10446TIP3    H131283   7.711   2.911   2.507
10446TIP3    H231284   7.677   2.764   2.518
10447TIP3   OH231285   7.509   4.783   3.675
10447TIP3    H131286   7.452   4.854   3.648
10447TIP3    H231287   7.578   4.826   3.725
10448TIP3   OH231288   1.337   1.800   0.837
10448TIP3    H131289   1.367   1.872   0.781
10448TIP3    H231290   1.360   1.721   0.788
10449TIP3   OH231291   6.309   6.470   5.181
10449TIP3    H131292   6.278   6.381   5.162
10449TIP3    H231293   6.308   6.514   5.096
10450TIP3   OH231294   7.710   2.538   3.808
10450TIP3    H131295   7.736   2.450   3.781
10450TIP3    H231296   7.630   2.555   3.758
10451TIP3   OH231297   6.681   6.253   6.084
10451TIP3    H131298   6.753   6.280   6.141
10451TIP3    H231299   6.616   6.215   6.144
10452TIP3   OH231300   6.916   1.064   4.664
10452TIP3    H131301   6.958   1.009   4.598
10452TIP3    H231302   6.847   1.110   4.617
10453TIP3   OH231303   3.611   1.183   6.407
10453TIP3    H131304   3.697   1.139   6.408
10453TIP3    H231305   3.576   1.164   6.320
10454TIP3   OH231306   1.428   1.450   4.962
10454TIP3    H131307   1.359   1.489   4.908
10454TIP3    H231308   1.400   1.466   5.052
10455TIP3   OH231309   1.901   4.142   4.375
10455TIP3    H131310   1.968   4.210   4.369
10455TIP3    H231311   1.887   4.114   4.284
10456TIP3   OH231312   4.105   7.129   4.164
10456TIP3    H131313   4.105   7.080   4.246
10456TIP3    H231314   4.189   7.175   4.164
10457TIP3   OH231315   4.725   7.140   0.506
10457TIP3    H131316   4.703   7.053   0.541
10457TIP3    H231317   4.657   7.157   0.440
10458TIP3   OH231318   1.969   6.057   2.424
10458TIP3    H131319   1.886   6.048   2.470
10458TIP3    H231320   2.018   6.121   2.475
10459TIP3   OH231321   4.301   2.980   2.034
10459TIP3    H131322   4.314   2.891   2.066
10459TIP3    H231323   4.388   3.009   2.006
10460TIP3   OH231324   4.007   6.725   3.722
10460TIP3    H131325   3.979   6.723   3.630
10460TIP3    H231326   3.980   6.641   3.758
10461TIP3   OH231327   5.765   7.409   3.008
10461TIP3    H131328   5.829   7.338   3.010
10461TIP3    H231329   5.680   7.365   3.022
10462TIP3   OH231330   6.535   2.153   0.449
10462TIP3    H131331   6.515   2.181   0.538
10462TIP3    H231332   6.629   2.134   0.451
10463TIP3   OH231333   4.304   5.611   3.876
10463TIP3    H131334   4.364   5.660   3.820
10463TIP3    H231335   4.251   5.560   3.815
10464TIP3   OH231336   1.372   7.725   2.353
10464TIP3    H131337   1.466   7.716   2.337
10464TIP3    H231338   1.346   7.803   2.303
10465TIP3   OH231339   1.607   3.927   5.782
10465TIP3    H131340   1.573   3.841   5.755
10465TIP3    H231341   1.623   3.973   5.700
10466TIP3   OH231342   6.849   3.052   2.872
10466TIP3    H131343   6.782   2.984   2.864
10466TIP3    H231344   6.927   3.005   2.901
10467TIP3   OH231345   4.592   0.712   2.592
10467TIP3    H131346   4.660   0.687   2.655
10467TIP3    H231347   4.577   0.633   2.540
10468TIP3   OH231348   1.625   1.223   4.356
10468TIP3    H131349   1.662   1.291   4.411
10468TIP3    H231350   1.640   1.254   4.266
10469TIP3   OH231351   7.355   5.007   3.612
10469TIP3    H131352   7.264   4.994   3.640
10469TIP3    H231353   7.378   5.094   3.644
10470TIP3   OH231354   1.502   1.517   0.591
10470TIP3    H131355   1.528   1.431   0.557
10470TIP3    H231356   1.532   1.517   0.682
10471TIP3   OH231357   5.255   1.168   4.989
10471TIP3    H131358   5.334   1.166   4.935
10471TIP3    H231359   5.234   1.261   4.998
10472TIP3   OH231360   2.418   1.967   0.169
10472TIP3    H131361   2.447   1.898   0.228
10472TIP3    H231362   2.341   1.930   0.125
10473TIP3   OH231363   5.329   2.130   1.110
10473TIP3    H131364   5.306   2.037   1.108
10473TIP3    H231365   5.274   2.170   1.044
10474TIP3   OH231366   4.859   6.056   3.941
10474TIP3    H131367   4.794   6.089   4.002
10474TIP3    H231368   4.881   5.969   3.974
10475TIP3   OH231369   5.281   1.830   1.327
10475TIP3    H131370   5.194   1.803   1.299
10475TIP3    H231371   5.290   1.795   1.416
10476TIP3   OH231372   2.841   2.872   0.848
10476TIP3    H131373   2.771   2.888   0.785
10476TIP3    H231374   2.804   2.900   0.932
10477TIP3   OH231375   6.657   0.865   5.215
10477TIP3    H131376   6.596   0.792   5.227
10477TIP3    H231377   6.716   0.835   5.146
10478TIP3   OH231378   1.471   4.475   2.539
10478TIP3    H131379   1.472   4.397   2.595
10478TIP3    H231380   1.378   4.489   2.521
10479TIP3   OH231381   2.460   5.804   5.900
10479TIP3    H131382   2.465   5.779   5.808
10479TIP3    H231383   2.480   5.898   5.901
10480TIP3   OH231384   1.075   4.596   5.188
10480TIP3    H131385   1.004   4.588   5.252
10480TIP3    H231386   1.142   4.647   5.232
10481TIP3   OH231387   0.061   7.027   2.852
10481TIP3    H131388   0.126   7.092   2.875
10481TIP3    H231389   0.110   6.957   2.810
10482TIP3   OH231390   6.857   7.320   1.592
10482TIP3    H131391   6.880   7.255   1.526
10482TIP3    H231392   6.914   7.301   1.667
10483TIP3   OH231393   4.278   5.393   0.727
10483TIP3    H131394   4.241   5.481   0.723
10483TIP3    H231395   4.240   5.354   0.805
10484TIP3   OH231396   7.941   7.436   3.971
10484TIP3    H131397   7.978   7.509   3.922
10484TIP3    H231398   8.017   7.382   3.995
10485TIP3   OH231399   1.060   6.990   0.629
10485TIP3    H131400   1.150   7.014   0.606
10485TIP3    H231401   1.064   6.968   0.722
10486TIP3   OH231402   7.487   1.394   3.072
10486TIP3    H131403   7.401   1.411   3.110
10486TIP3    H231404   7.472   1.396   2.977
10487TIP3   OH231405   0.228   1.933   3.481
10487TIP3    H131406   0.160   1.957   3.418
10487TIP3    H231407   0.245   1.840   3.464
10488TIP3   OH231408   1.640   4.146   5.605
10488TIP3    H131409   1.555   4.189   5.612
10488TIP3    H231410   1.685   4.192   5.534
10489TIP3   OH231411   7.451   5.889   2.103
10489TIP3    H131412   7.380   5.917   2.046
10489TIP3    H231413   7.472   5.801   2.074
10490TIP3   OH231414   6.766   5.471   3.206
10490TIP3    H131415   6.835   5.492   3.143
10490TIP3    H231416   6.709   5.547   3.205
10491TIP3   OH231417   1.472   6.332   0.160
10491TIP3    H131418   1.508   6.354   0.246
10491TIP3    H231419   1.544   6.289   0.114
10492TIP3   OH231420   6.223   5.034   0.656
10492TIP3    H131421   6.268   5.082   0.587
10492TIP3    H231422   6.262   4.947   0.654
10493TIP3   OH231423   3.193   2.837   1.970
10493TIP3    H131424   3.264   2.892   2.004
10493TIP3    H231425   3.114   2.889   1.985
10494TIP3   OH231426   3.906   7.445   1.136
10494TIP3    H131427   3.896   7.537   1.113
10494TIP3    H231428   3.950   7.446   1.221
10495TIP3   OH231429   7.140   7.329   2.057
10495TIP3    H131430   7.199   7.281   2.114
10495TIP3    H231431   7.161   7.421   2.073
10496TIP3   OH231432   7.041   0.497   2.095
10496TIP3    H131433   7.041   0.553   2.017
10496TIP3    H231434   7.071   0.555   2.165
10497TIP3   OH231435   4.402   2.529   0.554
10497TIP3    H131436   4.469   2.489   0.500
10497TIP3    H231437   4.341   2.458   0.574
10498TIP3   OH231438   3.695   0.674   6.305
10498TIP3    H131439   3.602   0.665   6.284
10498TIP3    H231440   3.739   0.666   6.220
10499TIP3   OH231441   7.741   1.692   6.574
10499TIP3    H131442   7.817   1.645   6.607
10499TIP3    H231443   7.666   1.638   6.599
10500TIP3   OH231444   4.616   3.584   5.450
10500TIP3    H131445   4.692   3.609   5.503
10500TIP3    H231446   4.592   3.497   5.481
10501TIP3   OH231447   1.276   3.987   2.372
10501TIP3    H131448   1.299   3.894   2.374
10501TIP3    H231449   1.182   3.988   2.356
10502TIP3   OH231450   6.320   2.694   6.459
10502TIP3    H131451   6.324   2.650   6.374
10502TIP3    H231452   6.385   2.764   6.453
10503TIP3   OH231453   7.614   0.364   1.638
10503TIP3    H131454   7.589   0.361   1.546
10503TIP3    H231455   7.533   0.343   1.686
10504TIP3   OH231456   0.269   6.775   5.657
10504TIP3    H131457   0.224   6.846   5.612
10504TIP3    H231458   0.357   6.808   5.673
10505TIP3   OH231459   3.113   1.487   5.906
10505TIP3    H131460   3.143   1.576   5.885
10505TIP3    H231461   3.066   1.459   5.827
10506TIP3   OH231462   6.279   2.554   1.966
10506TIP3    H131463   6.305   2.498   1.892
10506TIP3    H231464   6.311   2.641   1.942
10507TIP3   OH231465   6.062   2.400   5.536
10507TIP3    H131466   6.030   2.426   5.450
10507TIP3    H231467   5.996   2.340   5.570
10508TIP3   OH231468   0.266   7.415   6.647
10508TIP3    H131469   0.225   7.465   6.577
10508TIP3    H231470   0.197   7.356   6.679
10509TIP3   OH231471   1.128   6.358   1.746
10509TIP3    H131472   1.132   6.410   1.826
10509TIP3    H231473   1.209   6.307   1.747
10510TIP3   OH231474   5.495   2.632   1.281
10510TIP3    H131475   5.466   2.605   1.368
10510TIP3    H231476   5.460   2.720   1.270
10511TIP3   OH231477   7.906   0.541   2.178
10511TIP3    H131478   7.929   0.454   2.145
10511TIP3    H231479   7.987   0.591   2.172
10512TIP3   OH231480   0.175   7.763   1.327
10512TIP3    H131481   0.138   7.851   1.320
10512TIP3    H231482   0.262   7.776   1.365
10513TIP3   OH231483   1.097   3.479   2.212
10513TIP3    H131484   1.031   3.548   2.203
10513TIP3    H231485   1.162   3.517   2.271
10514TIP3   OH231486   4.072   2.640   3.197
10514TIP3    H131487   4.165   2.624   3.181
10514TIP3    H231488   4.067   2.733   3.221
10515TIP3   OH231489   0.321   1.404   2.211
10515TIP3    H131490   0.387   1.473   2.204
10515TIP3    H231491   0.241   1.444   2.179
10516TIP3   OH231492   4.844   7.377   1.514
10516TIP3    H131493   4.865   7.467   1.539
10516TIP3    H231494   4.807   7.385   1.426
10517TIP3   OH231495   0.069   1.115   1.001
10517TIP3    H131496   0.165   1.118   1.006
10517TIP3    H231497   0.044   1.053   1.070
10518TIP3   OH231498   2.268   6.593   6.459
10518TIP3    H131499   2.316   6.666   6.421
10518TIP3    H231500   2.181   6.629   6.478
10519TIP3   OH231501   1.401   4.014   5.410
10519TIP3    H131502   1.389   4.081   5.478
10519TIP3    H231503   1.317   4.011   5.364
10520TIP3   OH231504   6.668   1.264   6.695
10520TIP3    H131505   6.672   1.327   6.623
10520TIP3    H231506   6.639   1.315   6.770
10521TIP3   OH231507   2.177   5.851   5.209
10521TIP3    H131508   2.230   5.784   5.165
10521TIP3    H231509   2.160   5.814   5.296
10522TIP3   OH231510   5.729   6.043   3.403
10522TIP3    H131511   5.780   6.063   3.325
10522TIP3    H231512   5.746   6.115   3.463
10523TIP3   OH231513   3.837   5.783   5.179
10523TIP3    H131514   3.767   5.733   5.136
10523TIP3    H231515   3.917   5.734   5.159
10524TIP3   OH231516   4.343   7.227   4.120
10524TIP3    H131517   4.359   7.296   4.185
10524TIP3    H231518   4.401   7.248   4.047
10525TIP3   OH231519   0.011   0.162   2.940
10525TIP3    H131520   0.039   0.080   2.900
10525TIP3    H231521   0.023   0.228   2.871
10526TIP3   OH231522   5.599   4.744   3.179
10526TIP3    H131523   5.545   4.778   3.250
10526TIP3    H231524   5.655   4.678   3.220
10527TIP3   OH231525   7.666   0.287   3.026
10527TIP3    H131526   7.667   0.286   3.122
10527TIP3    H231527   7.716   0.365   3.002
10528TIP3   OH231528   4.264   1.345   3.470
10528TIP3    H131529   4.274   1.260   3.514
10528TIP3    H231530   4.198   1.329   3.403
10529TIP3   OH231531   2.979   2.886   6.634
10529TIP3    H131532   2.989   2.879   6.539
10529TIP3    H231533   2.925   2.810   6.658
10530TIP3   OH231534   1.368   1.555   6.620
10530TIP3    H131535   1.393   1.506   6.698
10530TIP3    H231536   1.432   1.529   6.554
10531TIP3   OH231537   5.086   2.410   6.382
10531TIP3    H131538   5.113   2.463   6.306
10531TIP3    H231539   5.163   2.409   6.439
10532TIP3   OH231540   7.229   7.163   4.771
10532TIP3    H131541   7.297   7.121   4.824
10532TIP3    H231542   7.273   7.239   4.731
10533TIP3   OH231543   5.177   0.842   5.051
10533TIP3    H131544   5.160   0.763   5.103
10533TIP3    H231545   5.271   0.839   5.032
10534TIP3   OH231546   7.253   0.216   4.183
10534TIP3    H131547   7.279   0.178   4.099
10534TIP3    H231548   7.158   0.202   4.187
10535TIP3   OH231549   3.081   6.497   5.257
10535TIP3    H131550   3.114   6.567   5.201
10535TIP3    H231551   3.004   6.463   5.210
10536TIP3   OH231552   7.688   5.380   4.318
10536TIP3    H131553   7.615   5.441   4.311
10536TIP3    H231554   7.759   5.422   4.268
10537TIP3   OH231555   3.582   3.651   6.559
10537TIP3    H131556   3.510   3.635   6.498
10537TIP3    H231557   3.544   3.708   6.627
10538TIP3   OH231558   4.379   4.621   1.095
10538TIP3    H131559   4.287   4.605   1.116
10538TIP3    H231560   4.419   4.646   1.178
10539TIP3   OH231561   7.693   5.588   5.091
10539TIP3    H131562   7.693   5.525   5.162
10539TIP3    H231563   7.665   5.670   5.131
10540TIP3   OH231564   4.956   3.301   0.871
10540TIP3    H131565   5.027   3.365   0.882
10540TIP3    H231566   4.883   3.352   0.837
10541TIP3   OH231567   1.749   1.564   1.715
10541TIP3    H131568   1.795   1.479   1.710
10541TIP3    H231569   1.756   1.601   1.627
10542TIP3   OH231570   8.118   4.299   1.217
10542TIP3    H131571   8.079   4.385   1.233
10542TIP3    H231572   8.142   4.300   1.124
10543TIP3   OH231573   5.729   4.733   0.130
10543TIP3    H131574   5.751   4.640   0.130
10543TIP3    H231575   5.736   4.760   0.039
10544TIP3   OH231576   2.724   4.193   1.826
10544TIP3    H131577   2.732   4.177   1.732
10544TIP3    H231578   2.691   4.111   1.862
10545TIP3   OH231579   4.064   3.358   3.525
10545TIP3    H131580   4.030   3.396   3.444
10545TIP3    H231581   4.158   3.356   3.514
10546TIP3   OH231582   0.790   6.646   5.468
10546TIP3    H131583   0.801   6.588   5.544
10546TIP3    H231584   0.700   6.678   5.476
10547TIP3   OH231585   6.769   0.240   1.434
10547TIP3    H131586   6.808   0.221   1.519
10547TIP3    H231587   6.709   0.168   1.419
10548TIP3   OH231588   5.643   4.644   5.191
10548TIP3    H131589   5.626   4.731   5.155
10548TIP3    H231590   5.566   4.592   5.168
10549TIP3   OH231591   7.085   4.841   3.144
10549TIP3    H131592   7.031   4.767   3.170
10549TIP3    H231593   7.119   4.817   3.058
10550TIP3   OH231594   6.249   1.102   3.676
10550TIP3    H131595   6.267   1.118   3.583
10550TIP3    H231596   6.268   1.009   3.689
10551TIP3   OH231597   4.675   1.424   1.575
10551TIP3    H131598   4.714   1.346   1.616
10551TIP3    H231599   4.596   1.441   1.625
10552TIP3   OH231600   6.106   1.358   5.903
10552TIP3    H131601   6.012   1.375   5.892
10552TIP3    H231602   6.133   1.317   5.822
10553TIP3   OH231603   4.524   0.259   5.663
10553TIP3    H131604   4.546   0.197   5.733
10553TIP3    H231605   4.492   0.337   5.709
10554TIP3   OH231606   5.047   5.399   3.253
10554TIP3    H131607   5.132   5.361   3.231
10554TIP3    H231608   4.990   5.323   3.268
10555TIP3   OH231609   0.458   7.464   3.845
10555TIP3    H131610   0.394   7.454   3.915
10555TIP3    H231611   0.534   7.503   3.888
10556TIP3   OH231612   3.520   4.514   6.765
10556TIP3    H131613   3.527   4.582   6.833
10556TIP3    H231614   3.574   4.548   6.693
10557TIP3   OH231615   5.736   6.837   1.388
10557TIP3    H131616   5.645   6.811   1.399
10557TIP3    H231617   5.755   6.893   1.464
10558TIP3   OH231618   4.682   2.842   2.121
10558TIP3    H131619   4.768   2.876   2.145
10558TIP3    H231620   4.636   2.918   2.085
10559TIP3   OH231621   3.610   3.659   4.343
10559TIP3    H131622   3.571   3.583   4.300
10559TIP3    H231623   3.648   3.624   4.423
10560TIP3   OH231624   2.045   5.199   1.474
10560TIP3    H131625   2.085   5.225   1.391
10560TIP3    H231626   1.959   5.163   1.449
10561TIP3   OH231627   7.107   7.659   3.175
10561TIP3    H131628   7.169   7.607   3.228
10561TIP3    H231629   7.139   7.749   3.182
10562TIP3   OH231630   3.899   4.158   3.592
10562TIP3    H131631   3.817   4.125   3.628
10562TIP3    H231632   3.881   4.249   3.569
10563TIP3   OH231633   5.322   0.978   2.609
10563TIP3    H131634   5.266   0.901   2.601
10563TIP3    H231635   5.403   0.953   2.565
10564TIP3   OH231636   6.236   0.476   0.832
10564TIP3    H131637   6.324   0.465   0.869
10564TIP3    H231638   6.251   0.497   0.740
10565TIP3   OH231639   2.997   0.142   4.284
10565TIP3    H131640   3.042   0.174   4.362
10565TIP3    H231641   3.024   0.050   4.278
10566TIP3   OH231642   5.604   2.886   2.431
10566TIP3    H131643   5.536   2.867   2.365
10566TIP3    H231644   5.583   2.828   2.504
10567TIP3   OH231645   5.495   5.920   5.938
10567TIP3    H131646   5.492   5.923   6.033
10567TIP3    H231647   5.424   5.861   5.913
10568TIP3   OH231648   1.766   5.276   4.645
10568TIP3    H131649   1.838   5.323   4.686
10568TIP3    H231650   1.806   5.232   4.570
10569TIP3   OH231651   3.055   4.941   1.221
10569TIP3    H131652   3.035   5.013   1.161
10569TIP3    H231653   3.151   4.941   1.228
10570TIP3   OH231654   5.840   5.763   1.217
10570TIP3    H131655   5.890   5.826   1.165
10570TIP3    H231656   5.904   5.726   1.278
10571TIP3   OH231657   1.096   3.777   1.859
10571TIP3    H131658   1.067   3.724   1.932
10571TIP3    H231659   1.142   3.851   1.899
10572TIP3   OH231660   0.327   6.030   3.284
10572TIP3    H131661   0.373   6.103   3.326
10572TIP3    H231662   0.238   6.034   3.318
10573TIP3   OH231663   1.155   7.296   0.884
10573TIP3    H131664   1.130   7.386   0.906
10573TIP3    H231665   1.081   7.262   0.834
10574TIP3   OH231666   2.618   6.962   2.178
10574TIP3    H131667   2.540   7.002   2.138
10574TIP3    H231668   2.667   6.925   2.105
10575TIP3   OH231669   7.333   3.532   4.778
10575TIP3    H131670   7.311   3.533   4.872
10575TIP3    H231671   7.249   3.545   4.734
10576TIP3   OH231672   4.976   1.031   4.899
10576TIP3    H131673   4.944   1.027   4.808
10576TIP3    H231674   4.897   1.035   4.952
10577TIP3   OH231675   6.935   1.844   5.250
10577TIP3    H131676   6.856   1.833   5.197
10577TIP3    H231677   6.988   1.766   5.232
10578TIP3   OH231678   4.585   1.712   2.300
10578TIP3    H131679   4.604   1.624   2.331
10578TIP3    H231680   4.629   1.770   2.362
10579TIP3   OH231681   4.223   0.723   6.193
10579TIP3    H131682   4.287   0.732   6.122
10579TIP3    H231683   4.205   0.630   6.199
10580TIP3   OH231684   0.092   0.645   1.699
10580TIP3    H131685   0.146   0.637   1.620
10580TIP3    H231686   0.002   0.638   1.668
10581TIP3   OH231687   1.852   7.726   1.559
10581TIP3    H131688   1.910   7.794   1.525
10581TIP3    H231689   1.901   7.645   1.549
10582TIP3   OH231690   6.457   2.982   4.872
10582TIP3    H131691   6.408   3.000   4.792
10582TIP3    H231692   6.522   2.916   4.847
10583TIP3   OH231693   5.408   4.141   0.483
10583TIP3    H131694   5.460   4.220   0.463
10583TIP3    H231695   5.472   4.079   0.517
10584TIP3   OH231696   1.822   3.300   0.761
10584TIP3    H131697   1.889   3.331   0.822
10584TIP3    H231698   1.739   3.323   0.802
10585TIP3   OH231699   1.739   4.790   2.032
10585TIP3    H131700   1.766   4.771   2.122
10585TIP3    H231701   1.795   4.734   1.978
10586TIP3   OH231702   5.788   1.544   6.284
10586TIP3    H131703   5.770   1.525   6.192
10586TIP3    H231704   5.879   1.517   6.296
10587TIP3   OH231705   2.310   5.590   6.076
10587TIP3    H131706   2.362   5.671   6.078
10587TIP3    H231707   2.360   5.531   6.019
10588TIP3   OH231708   3.393   0.971   1.185
10588TIP3    H131709   3.434   0.935   1.107
10588TIP3    H231710   3.319   0.913   1.203
10589TIP3   OH231711   1.638   5.863   5.070
10589TIP3    H131712   1.670   5.775   5.048
10589TIP3    H231713   1.546   5.862   5.045
10590TIP3   OH231714   6.913   4.424   1.772
10590TIP3    H131715   6.988   4.442   1.715
10590TIP3    H231716   6.886   4.510   1.803
10591TIP3   OH231717   2.722   5.375   0.967
10591TIP3    H131718   2.752   5.418   1.046
10591TIP3    H231719   2.769   5.417   0.896
10592TIP3   OH231720   0.308   2.937   0.426
10592TIP3    H131721   0.397   2.965   0.443
10592TIP3    H231722   0.294   2.955   0.333
10593TIP3   OH231723   6.104   4.677   4.576
10593TIP3    H131724   6.118   4.591   4.536
10593TIP3    H231725   6.176   4.731   4.544
10594TIP3   OH231726   6.124   5.475   1.657
10594TIP3    H131727   6.134   5.381   1.640
10594TIP3    H231728   6.153   5.485   1.748
10595TIP3   OH231729   6.171   3.103   2.287
10595TIP3    H131730   6.201   3.164   2.219
10595TIP3    H231731   6.204   3.018   2.260
10596TIP3   OH231732   3.903   6.547   5.024
10596TIP3    H131733   3.938   6.631   4.995
10596TIP3    H231734   3.980   6.492   5.036
10597TIP3   OH231735   8.022   6.915   1.475
10597TIP3    H131736   7.936   6.955   1.484
10597TIP3    H231737   8.052   6.942   1.388
10598TIP3   OH231738   3.397   6.907   3.076
10598TIP3    H131739   3.427   6.995   3.056
10598TIP3    H231740   3.385   6.864   2.991
10599TIP3   OH231741   3.778   5.591   6.318
10599TIP3    H131742   3.727   5.511   6.307
10599TIP3    H231743   3.776   5.633   6.231
10600TIP3   OH231744   3.812   1.361   4.140
10600TIP3    H131745   3.809   1.427   4.210
10600TIP3    H231746   3.823   1.413   4.060
10601TIP3   OH231747   1.786   4.121   0.545
10601TIP3    H131748   1.846   4.123   0.470
10601TIP3    H231749   1.705   4.085   0.511
10602TIP3   OH231750   0.484   5.189   2.781
10602TIP3    H131751   0.444   5.137   2.851
10602TIP3    H231752   0.511   5.124   2.716
10603TIP3   OH231753   3.114   1.986   0.102
10603TIP3    H131754   3.189   1.937   0.067
10603TIP3    H231755   3.098   2.055   0.037
10604TIP3   OH231756   1.116   1.150   4.823
10604TIP3    H131757   1.118   1.215   4.893
10604TIP3    H231758   1.204   1.153   4.785
10605TIP3   OH231759   6.940   1.294   1.954
10605TIP3    H131760   6.984   1.378   1.949
10605TIP3    H231761   6.936   1.274   2.048
10606TIP3   OH231762   0.748   5.932   3.322
10606TIP3    H131763   0.771   6.020   3.290
10606TIP3    H231764   0.833   5.889   3.335
10607TIP3   OH231765   4.124   3.573   2.694
10607TIP3    H131766   4.124   3.478   2.680
10607TIP3    H231767   4.117   3.583   2.789
10608TIP3   OH231768   7.887   6.635   4.114
10608TIP3    H131769   7.888   6.547   4.152
10608TIP3    H231770   7.859   6.621   4.024
10609TIP3   OH231771   4.750   2.028   3.595
10609TIP3    H131772   4.736   1.951   3.540
10609TIP3    H231773   4.704   2.098   3.549
10610TIP3   OH231774   4.658   0.880   0.672
10610TIP3    H131775   4.691   0.968   0.654
10610TIP3    H231776   4.583   0.893   0.730
10611TIP3   OH231777   4.482   4.316   1.169
10611TIP3    H131778   4.539   4.361   1.232
10611TIP3    H231779   4.413   4.278   1.223
10612TIP3   OH231780   4.372   0.129   6.226
10612TIP3    H131781   4.436   0.059   6.240
10612TIP3    H231782   4.300   0.107   6.285
10613TIP3   OH231783   4.672   4.105   6.530
10613TIP3    H131784   4.607   4.175   6.538
10613TIP3    H231785   4.713   4.100   6.616
10614TIP3   OH231786   6.460   6.799   1.929
10614TIP3    H131787   6.437   6.726   1.987
10614TIP3    H231788   6.548   6.825   1.957
10615TIP3   OH231789   5.923   6.373   0.123
10615TIP3    H131790   5.964   6.335   0.045
10615TIP3    H231791   5.991   6.429   0.161
10616TIP3   OH231792   7.476   1.211   0.600
10616TIP3    H131793   7.550   1.237   0.656
10616TIP3    H231794   7.403   1.265   0.630
10617TIP3   OH231795   8.052   5.616   4.717
10617TIP3    H131796   8.012   5.686   4.666
10617TIP3    H231797   8.058   5.542   4.656
10618TIP3   OH231798   1.267   4.099   1.712
10618TIP3    H131799   1.286   4.022   1.658
10618TIP3    H231800   1.256   4.170   1.649
10619TIP3   OH231801   2.042   1.709   6.677
10619TIP3    H131802   2.094   1.747   6.747
10619TIP3    H231803   2.054   1.769   6.603
10620TIP3   OH231804   6.827   5.593   0.981
10620TIP3    H131805   6.775   5.637   1.048
10620TIP3    H231806   6.830   5.654   0.908
10621TIP3   OH231807   4.569   4.593   0.876
10621TIP3    H131808   4.622   4.664   0.838
10621TIP3    H231809   4.527   4.632   0.951
10622TIP3   OH231810   3.192   6.688   4.366
10622TIP3    H131811   3.195   6.606   4.317
10622TIP3    H231812   3.231   6.666   4.451
10623TIP3   OH231813   2.870   4.456   3.378
10623TIP3    H131814   2.812   4.506   3.434
10623TIP3    H231815   2.953   4.453   3.425
10624TIP3   OH231816   5.770   2.301   6.310
10624TIP3    H131817   5.773   2.327   6.402
10624TIP3    H231818   5.830   2.361   6.266
10625TIP3   OH231819   0.851   2.299   3.714
10625TIP3    H131820   0.790   2.369   3.739
10625TIP3    H231821   0.846   2.296   3.619
10626TIP3   OH231822   4.730   3.233   2.770
10626TIP3    H131823   4.687   3.316   2.750
10626TIP3    H231824   4.780   3.212   2.692
10627TIP3   OH231825   5.004   5.141   1.857
10627TIP3    H131826   5.098   5.130   1.872
10627TIP3    H231827   4.969   5.052   1.854
10628TIP3   OH231828   7.119   5.900   5.042
10628TIP3    H131829   7.202   5.872   5.004
10628TIP3    H231830   7.076   5.950   4.972
10629TIP3   OH231831   6.083   5.353   4.169
10629TIP3    H131832   6.117   5.362   4.080
10629TIP3    H231833   5.990   5.336   4.157
10630TIP3   OH231834   0.604   1.346   4.693
10630TIP3    H131835   0.587   1.252   4.700
10630TIP3    H231836   0.700   1.353   4.697
10631TIP3   OH231837   1.708   7.277   0.862
10631TIP3    H131838   1.779   7.266   0.799
10631TIP3    H231839   1.705   7.194   0.909
10632TIP3   OH231840   0.987   3.267   4.066
10632TIP3    H131841   0.945   3.202   4.010
10632TIP3    H231842   0.931   3.344   4.061
10633TIP3   OH231843   2.159   5.136   4.610
10633TIP3    H131844   2.084   5.134   4.670
10633TIP3    H231845   2.155   5.222   4.570
10634TIP3   OH231846   0.786   7.085   4.732
10634TIP3    H131847   0.841   7.155   4.696
10634TIP3    H231848   0.713   7.131   4.774
10635TIP3   OH231849   6.537   3.691   5.404
10635TIP3    H131850   6.618   3.717   5.447
10635TIP3    H231851   6.469   3.714   5.468
10636TIP3   OH231852   7.160   6.444   6.415
10636TIP3    H131853   7.068   6.469   6.420
10636TIP3    H231854   7.159   6.349   6.410
10637TIP3   OH231855   4.904   1.067   3.511
10637TIP3    H131856   4.977   1.006   3.502
10637TIP3    H231857   4.840   1.022   3.566
10638TIP3   OH231858   0.393   0.083   4.499
10638TIP3    H131859   0.331   0.148   4.532
10638TIP3    H231860   0.478   0.127   4.502
10639TIP3   OH231861   0.059   5.162   2.208
10639TIP3    H131862   0.005   5.113   2.270
10639TIP3    H231863   0.003   5.234   2.178
10640TIP3   OH231864   5.561   0.170   2.597
10640TIP3    H131865   5.560   0.077   2.619
10640TIP3    H231866   5.653   0.194   2.598
10641TIP3   OH231867   7.054   3.073   0.542
10641TIP3    H131868   6.978   3.054   0.487
10641TIP3    H231869   7.116   3.114   0.483
10642TIP3   OH231870   6.516   2.224   0.171
10642TIP3    H131871   6.599   2.238   0.125
10642TIP3    H231872   6.542   2.206   0.262
10643TIP3   OH231873   5.297   2.470   0.734
10643TIP3    H131874   5.203   2.484   0.749
10643TIP3    H231875   5.327   2.552   0.695
10644TIP3   OH231876   6.173   0.010   0.775
10644TIP3    H131877   6.178   0.084   0.714
10644TIP3    H231878   6.090  -0.034   0.753
10645TIP3   OH231879   7.856   1.932   5.981
10645TIP3    H131880   7.790   1.930   5.911
10645TIP3    H231881   7.875   1.840   5.999
10646TIP3   OH231882   3.877   6.494   3.786
10646TIP3    H131883   3.783   6.494   3.767
10646TIP3    H231884   3.896   6.405   3.813
10647TIP3   OH231885   2.975   4.046   4.488
10647TIP3    H131886   3.021   3.977   4.440
10647TIP3    H231887   2.887   4.012   4.501
10648TIP3   OH231888   6.406   1.551   3.504
10648TIP3    H131889   6.425   1.457   3.500
10648TIP3    H231890   6.364   1.563   3.590
10649TIP3   OH231891   4.071   3.001   6.143
10649TIP3    H131892   4.085   2.910   6.118
10649TIP3    H231893   4.159   3.034   6.163
10650TIP3   OH231894   7.973   3.015   5.529
10650TIP3    H131895   8.052   3.066   5.513
10650TIP3    H231896   7.971   2.950   5.459
10651TIP3   OH231897   0.364   4.258   2.910
10651TIP3    H131898   0.364   4.317   2.985
10651TIP3    H231899   0.339   4.314   2.836
10652TIP3   OH231900   2.264   5.921   4.900
10652TIP3    H131901   2.348   5.928   4.945
10652TIP3    H231902   2.212   5.994   4.936
10653TIP3   OH231903   5.768   1.979   0.585
10653TIP3    H131904   5.811   1.895   0.603
10653TIP3    H231905   5.722   2.000   0.666
10654TIP3   OH231906   8.050   0.993   0.690
10654TIP3    H131907   8.002   0.910   0.685
10654TIP3    H231908   8.059   1.021   0.599
10655TIP3   OH231909   1.017   1.179   0.459
10655TIP3    H131910   0.935   1.223   0.438
10655TIP3    H231911   1.019   1.102   0.402
10656TIP3   OH231912   7.982   0.082   1.223
10656TIP3    H131913   7.938   0.087   1.138
10656TIP3    H231914   8.030   0.164   1.231
10657TIP3   OH231915   3.853   6.726   0.592
10657TIP3    H131916   3.844   6.821   0.589
10657TIP3    H231917   3.765   6.694   0.608
10658TIP3   OH231918   1.649   3.989   6.047
10658TIP3    H131919   1.642   4.085   6.051
10658TIP3    H231920   1.618   3.966   5.960
10659TIP3   OH231921   2.942   7.136   5.661
10659TIP3    H131922   2.963   7.063   5.603
10659TIP3    H231923   2.993   7.119   5.741
10660TIP3   OH231924   6.116   7.532   0.798
10660TIP3    H131925   6.157   7.527   0.884
10660TIP3    H231926   6.106   7.440   0.770
10661TIP3   OH231927   2.768   2.966   4.960
10661TIP3    H131928   2.715   2.889   4.979
10661TIP3    H231929   2.847   2.932   4.917
10662TIP3   OH231930   5.293   2.568   1.056
10662TIP3    H131931   5.271   2.563   1.149
10662TIP3    H231932   5.253   2.490   1.018
10663TIP3   OH231933   1.961   0.745   1.538
10663TIP3    H131934   1.882   0.699   1.567
10663TIP3    H231935   2.029   0.678   1.540
10664TIP3   OH231936   2.288   4.233   5.403
10664TIP3    H131937   2.346   4.160   5.384
10664TIP3    H231938   2.214   4.221   5.344
10665TIP3   OH231939   3.887   3.991   2.245
10665TIP3    H131940   3.919   4.020   2.160
10665TIP3    H231941   3.868   3.898   2.233
10666TIP3   OH231942   7.801   0.393   1.028
10666TIP3    H131943   7.859   0.397   0.952
10666TIP3    H231944   7.765   0.305   1.027
10667TIP3   OH231945   4.327   3.903   3.938
10667TIP3    H131946   4.365   3.965   3.876
10667TIP3    H231947   4.402   3.857   3.975
10668TIP3   OH231948   4.109   4.535   3.784
10668TIP3    H131949   4.155   4.454   3.762
10668TIP3    H231950   4.108   4.585   3.703
10669TIP3   OH231951   7.079   7.493   5.521
10669TIP3    H131952   7.019   7.438   5.470
10669TIP3    H231953   7.166   7.466   5.492
10670TIP3   OH231954   2.312   6.601   5.369
10670TIP3    H131955   2.346   6.558   5.448
10670TIP3    H231956   2.300   6.530   5.306
10671TIP3   OH231957   7.688   7.464   1.499
10671TIP3    H131958   7.649   7.388   1.541
10671TIP3    H231959   7.731   7.429   1.421
10672TIP3   OH231960   3.266   6.810   1.178
10672TIP3    H131961   3.214   6.733   1.202
10672TIP3    H231962   3.217   6.850   1.106
10673TIP3   OH231963   8.016   5.380   2.863
10673TIP3    H131964   7.945   5.445   2.857
10673TIP3    H231965   8.017   5.354   2.955
10674TIP3   OH231966   5.297   0.162   4.421
10674TIP3    H131967   5.205   0.173   4.398
10674TIP3    H231968   5.345   0.219   4.360
10675TIP3   OH231969   1.316   7.532   3.623
10675TIP3    H131970   1.371   7.496   3.692
10675TIP3    H231971   1.372   7.595   3.578
10676TIP3   OH231972   4.632   7.190   2.253
10676TIP3    H131973   4.694   7.250   2.295
10676TIP3    H231974   4.658   7.189   2.161
10677TIP3   OH231975   0.664   0.300   1.342
10677TIP3    H131976   0.596   0.254   1.293
10677TIP3    H231977   0.742   0.245   1.333
10678TIP3   OH231978   6.573   7.010   4.114
10678TIP3    H131979   6.648   6.968   4.155
10678TIP3    H231980   6.515   7.034   4.187
10679TIP3   OH231981   6.067   3.348   3.507
10679TIP3    H131982   5.984   3.389   3.484
10679TIP3    H231983   6.052   3.307   3.592
10680TIP3   OH231984   6.263   3.681   2.930
10680TIP3    H131985   6.217   3.614   2.981
10680TIP3    H231986   6.353   3.676   2.962
10681TIP3   OH231987   2.823   5.498   0.756
10681TIP3    H131988   2.733   5.522   0.735
10681TIP3    H231989   2.872   5.580   0.747
10682TIP3   OH231990   7.540   2.837   0.077
10682TIP3    H131991   7.475   2.785   0.125
10682TIP3    H231992   7.621   2.785   0.082
10683TIP3   OH231993   3.639   6.170   2.267
10683TIP3    H131994   3.585   6.093   2.283
10683TIP3    H231995   3.599   6.239   2.321
10684TIP3   OH231996   4.361   0.780   4.763
10684TIP3    H131997   4.360   0.729   4.682
10684TIP3    H231998   4.272   0.811   4.773
10685TIP3   OH231999   2.131   2.848   5.508
10685TIP3    H132000   2.079   2.809   5.438
10685TIP3    H232001   2.193   2.779   5.533
10686TIP3   OH232002   7.457   2.140   2.225
10686TIP3    H132003   7.441   2.158   2.317
10686TIP3    H232004   7.520   2.068   2.225
10687TIP3   OH232005   6.893   4.471   0.792
10687TIP3    H132006   6.850   4.400   0.840
10687TIP3    H232007   6.829   4.542   0.792
10688TIP3   OH232008   6.228   2.158   6.504
10688TIP3    H132009   6.193   2.116   6.425
10688TIP3    H232010   6.152   2.171   6.560
10689TIP3   OH232011   8.205   0.327   2.006
10689TIP3    H132012   8.230   0.415   1.980
10689TIP3    H232013   8.245   0.270   1.940
10690TIP3   OH232014   3.980   0.589   5.372
10690TIP3    H132015   3.949   0.680   5.362
10690TIP3    H232016   4.005   0.582   5.464
10691TIP3   OH232017   3.292   3.513   0.373
10691TIP3    H132018   3.316   3.446   0.308
10691TIP3    H232019   3.370   3.521   0.429
10692TIP3   OH232020   5.126   7.310   4.154
10692TIP3    H132021   5.033   7.290   4.143
10692TIP3    H232022   5.131   7.357   4.236
10693TIP3   OH232023   3.077   0.609   0.816
10693TIP3    H132024   2.990   0.642   0.840
10693TIP3    H232025   3.130   0.623   0.894
10694TIP3   OH232026   7.592   0.431   6.228
10694TIP3    H132027   7.551   0.397   6.148
10694TIP3    H232028   7.653   0.498   6.197
10695TIP3   OH232029   1.098   7.391   4.925
10695TIP3    H132030   1.071   7.421   5.012
10695TIP3    H232031   1.180   7.438   4.908
10696TIP3   OH232032   7.905   7.148   6.092
10696TIP3    H132033   7.809   7.154   6.092
10696TIP3    H232034   7.923   7.057   6.068
10697TIP3   OH232035   8.011   7.679   3.664
10697TIP3    H132036   8.062   7.730   3.726
10697TIP3    H232037   7.932   7.731   3.649
10698TIP3   OH232038   8.029   5.859   2.979
10698TIP3    H132039   8.035   5.924   2.909
10698TIP3    H232040   8.101   5.798   2.963
10699TIP3   OH232041   6.299   6.772   4.717
10699TIP3    H132042   6.244   6.819   4.654
10699TIP3    H232043   6.356   6.839   4.754
10700TIP3   OH232044   2.411   6.266   1.480
10700TIP3    H132045   2.409   6.203   1.409
10700TIP3    H232046   2.496   6.310   1.471
10701TIP3   OH232047   2.212   1.164   5.652
10701TIP3    H132048   2.226   1.069   5.642
10701TIP3    H232049   2.182   1.174   5.743
10702TIP3   OH232050   7.707   2.609   5.480
10702TIP3    H132051   7.737   2.589   5.391
10702TIP3    H232052   7.739   2.698   5.497
10703TIP3   OH232053   4.220   5.335   4.963
10703TIP3    H132054   4.190   5.272   4.898
10703TIP3    H232055   4.269   5.282   5.027
10704TIP3   OH232056   6.653   2.465   1.925
10704TIP3    H132057   6.692   2.460   2.012
10704TIP3    H232058   6.698   2.397   1.874
10705TIP3   OH232059   1.892   3.174   3.266
10705TIP3    H132060   1.890   3.156   3.172
10705TIP3    H232061   1.880   3.088   3.307
10706TIP3   OH232062   5.476   2.540   2.912
10706TIP3    H132063   5.532   2.468   2.882
10706TIP3    H232064   5.389   2.519   2.877
10707TIP3   OH232065   3.995   3.984   2.004
10707TIP3    H132066   3.967   4.054   1.944
10707TIP3    H232067   4.090   3.996   2.012
10708TIP3   OH232068   1.159   0.506   4.181
10708TIP3    H132069   1.185   0.524   4.271
10708TIP3    H232070   1.226   0.549   4.128
10709TIP3   OH232071   0.495   7.236   3.707
10709TIP3    H132072   0.557   7.265   3.640
10709TIP3    H232073   0.479   7.315   3.760
10710TIP3   OH232074   7.846   5.094   2.677
10710TIP3    H132075   7.775   5.147   2.714
10710TIP3    H232076   7.838   5.010   2.721
10711TIP3   OH232077   3.126   2.933   0.361
10711TIP3    H132078   3.147   2.840   0.362
10711TIP3    H232079   3.088   2.950   0.447
10712TIP3   OH232080   8.197   0.966   2.518
10712TIP3    H132081   8.250   1.021   2.460
10712TIP3    H232082   8.257   0.898   2.548
10713TIP3   OH232083   5.022   3.675   0.777
10713TIP3    H132084   4.946   3.732   0.778
10713TIP3    H232085   5.090   3.726   0.733
10714TIP3   OH232086   5.786   1.809   6.541
10714TIP3    H132087   5.707   1.852   6.508
10714TIP3    H232088   5.844   1.881   6.564
10715TIP3   OH232089   0.376   4.938   1.838
10715TIP3    H132090   0.303   4.942   1.776
10715TIP3    H232091   0.339   4.967   1.921
10716TIP3   OH232092   5.292   7.276   5.200
10716TIP3    H132093   5.316   7.236   5.284
10716TIP3    H232094   5.303   7.206   5.136
10717TIP3   OH232095   6.425   4.551   5.672
10717TIP3    H132096   6.368   4.586   5.740
10717TIP3    H232097   6.378   4.567   5.590
10718TIP3   OH232098   4.405   2.625   1.446
10718TIP3    H132099   4.463   2.614   1.522
10718TIP3    H232100   4.440   2.565   1.380
10719TIP3   OH232101   5.824   3.444   3.401
10719TIP3    H132102   5.847   3.530   3.364
10719TIP3    H232103   5.746   3.417   3.351
10720TIP3   OH232104   2.988   5.712   2.203
10720TIP3    H132105   2.940   5.773   2.259
10720TIP3    H232106   2.982   5.628   2.249
10721TIP3   OH232107   0.044   2.913   0.159
10721TIP3    H132108  -0.032   2.915   0.218
10721TIP3    H232109   0.069   3.005   0.150
10722TIP3   OH232110   5.334   6.861   2.363
10722TIP3    H132111   5.249   6.835   2.399
10722TIP3    H232112   5.316   6.879   2.271
10723TIP3   OH232113   0.808   1.662   2.507
10723TIP3    H132114   0.816   1.588   2.567
10723TIP3    H232115   0.858   1.733   2.549
10724TIP3   OH232116   6.554   1.885   1.602
10724TIP3    H132117   6.620   1.839   1.653
10724TIP3    H232118   6.521   1.818   1.541
10725TIP3   OH232119   8.248   6.474   1.295
10725TIP3    H132120   8.288   6.457   1.209
10725TIP3    H232121   8.171   6.527   1.275
10726TIP3   OH232122   4.091   5.575   0.908
10726TIP3    H132123   4.007   5.565   0.862
10726TIP3    H232124   4.078   5.529   0.991
10727TIP3   OH232125   5.987   7.630   5.304
10727TIP3    H132126   6.046   7.696   5.267
10727TIP3    H232127   5.899   7.665   5.291
10728TIP3   OH232128   4.006   1.653   4.493
10728TIP3    H132129   4.091   1.676   4.532
10728TIP3    H232130   3.962   1.737   4.481
10729TIP3   OH232131   2.712   2.085   1.934
10729TIP3    H132132   2.624   2.113   1.959
10729TIP3    H232133   2.754   2.164   1.902
10730TIP3   OH232134   4.731   2.852   6.612
10730TIP3    H132135   4.696   2.861   6.701
10730TIP3    H232136   4.654   2.851   6.556
10731TIP3   OH232137   4.019   5.648   4.989
10731TIP3    H132138   4.067   5.604   4.919
10731TIP3    H232139   3.945   5.689   4.945
10732TIP3   OH232140   1.934   1.747   3.887
10732TIP3    H132141   1.926   1.684   3.958
10732TIP3    H232142   1.844   1.770   3.865
10733TIP3   OH232143   2.946   0.134   5.424
10733TIP3    H132144   2.916   0.180   5.502
10733TIP3    H232145   2.970   0.047   5.454
10734TIP3   OH232146   4.563   7.192   3.710
10734TIP3    H132147   4.609   7.137   3.647
10734TIP3    H232148   4.535   7.132   3.779
10735TIP3   OH232149   5.048   6.798   2.414
10735TIP3    H132150   5.064   6.836   2.500
10735TIP3    H232151   4.954   6.805   2.401
10736TIP3   OH232152   2.056   4.888   1.713
10736TIP3    H132153   1.970   4.925   1.731
10736TIP3    H232154   2.115   4.963   1.709
10737TIP3   OH232155   7.324   3.815   4.933
10737TIP3    H132156   7.291   3.815   4.843
10737TIP3    H232157   7.411   3.854   4.927
10738TIP3   OH232158   4.116   6.255   3.006
10738TIP3    H132159   4.158   6.340   3.015
10738TIP3    H232160   4.054   6.251   3.079
10739TIP3   OH232161   6.739   5.138   2.245
10739TIP3    H132162   6.813   5.194   2.222
10739TIP3    H232163   6.721   5.088   2.165
10740TIP3   OH232164   5.679   7.325   1.809
10740TIP3    H132165   5.616   7.268   1.765
10740TIP3    H232166   5.765   7.288   1.788
10741TIP3   OH232167   3.916   2.164   2.207
10741TIP3    H132168   3.880   2.075   2.216
10741TIP3    H232169   3.980   2.171   2.278
10742TIP3   OH232170   2.644   4.581   5.361
10742TIP3    H132171   2.629   4.486   5.363
10742TIP3    H232172   2.725   4.593   5.410
10743TIP3   OH232173   6.273   3.569   6.629
10743TIP3    H132174   6.269   3.510   6.554
10743TIP3    H232175   6.186   3.563   6.669
10744TIP3   OH232176   3.258   5.398   5.243
10744TIP3    H132177   3.174   5.437   5.219
10744TIP3    H232178   3.318   5.472   5.250
10745TIP3   OH232179   2.023   4.342   6.428
10745TIP3    H132180   1.997   4.341   6.336
10745TIP3    H232181   2.103   4.395   6.430
10746TIP3   OH232182   5.457   7.293   3.761
10746TIP3    H132183   5.434   7.364   3.821
10746TIP3    H232184   5.372   7.263   3.726
10747TIP3   OH232185   2.268   0.667   5.429
10747TIP3    H132186   2.241   0.758   5.445
10747TIP3    H232187   2.311   0.669   5.344
10748TIP3   OH232188   6.487   3.362   3.539
10748TIP3    H132189   6.525   3.373   3.626
10748TIP3    H232190   6.563   3.343   3.483
10749TIP3   OH232191   5.230   1.722   4.676
10749TIP3    H132192   5.283   1.652   4.638
10749TIP3    H232193   5.294   1.785   4.710
10750TIP3   OH232194   0.919   5.398   1.560
10750TIP3    H132195   1.003   5.442   1.566
10750TIP3    H232196   0.941   5.306   1.543
10751TIP3   OH232197   0.148   3.579   0.525
10751TIP3    H132198   0.120   3.590   0.434
10751TIP3    H232199   0.229   3.527   0.518
10752TIP3   OH232200   6.101   5.478   1.158
10752TIP3    H132201   6.115   5.555   1.103
10752TIP3    H232202   6.144   5.499   1.241
10753TIP3   OH232203   7.254   4.119   3.496
10753TIP3    H132204   7.228   4.209   3.515
10753TIP3    H232205   7.181   4.066   3.528
10754TIP3   OH232206   5.285   3.085   4.668
10754TIP3    H132207   5.315   3.152   4.607
10754TIP3    H232208   5.231   3.133   4.731
10755TIP3   OH232209   2.484   7.664   6.228
10755TIP3    H132210   2.556   7.725   6.213
10755TIP3    H232211   2.456   7.637   6.140
10756TIP3   OH232212   6.811   4.126   2.485
10756TIP3    H132213   6.727   4.104   2.527
10756TIP3    H232214   6.854   4.041   2.474
10757TIP3   OH232215   0.326   5.252   1.665
10757TIP3    H132216   0.274   5.323   1.628
10757TIP3    H232217   0.285   5.172   1.631
10758TIP3   OH232218   1.980   6.538   0.426
10758TIP3    H132219   1.985   6.552   0.521
10758TIP3    H232220   1.909   6.596   0.397
10759TIP3   OH232221   0.765   2.102   5.226
10759TIP3    H132222   0.833   2.058   5.278
10759TIP3    H232223   0.806   2.183   5.196
10760TIP3   OH232224   2.919   7.404   2.717
10760TIP3    H132225   2.912   7.365   2.804
10760TIP3    H232226   2.995   7.462   2.723
10761TIP3   OH232227   0.160   0.952   2.080
10761TIP3    H132228   0.191   0.875   2.128
10761TIP3    H232229   0.159   1.021   2.147
10762TIP3   OH232230   1.032   1.896   1.538
10762TIP3    H132231   0.952   1.889   1.591
10762TIP3    H232232   1.001   1.929   1.453
10763TIP3   OH232233   7.414   1.542   0.194
10763TIP3    H132234   7.472   1.493   0.253
10763TIP3    H232235   7.410   1.630   0.233
10764TIP3   OH232236   3.202   7.028   5.131
10764TIP3    H132237   3.203   7.121   5.110
10764TIP3    H232238   3.252   6.987   5.060
10765TIP3   OH232239   6.105   7.365   5.925
10765TIP3    H132240   6.108   7.409   6.011
10765TIP3    H232241   6.171   7.297   5.931
10766TIP3   OH232242   6.212   2.623   0.330
10766TIP3    H132243   6.143   2.623   0.264
10766TIP3    H232244   6.289   2.591   0.285
10767TIP3   OH232245   5.005   5.005   3.838
10767TIP3    H132246   4.970   5.093   3.852
10767TIP3    H232247   4.952   4.969   3.767
10768TIP3   OH232248   4.327   6.396   3.506
10768TIP3    H132249   4.418   6.378   3.484
10768TIP3    H232250   4.279   6.378   3.425
10769TIP3   OH232251   1.248   2.998   2.854
10769TIP3    H132252   1.298   3.080   2.861
10769TIP3    H232253   1.173   3.020   2.799
10770TIP3   OH232254   5.140   6.652   2.943
10770TIP3    H132255   5.231   6.624   2.930
10770TIP3    H232256   5.146   6.746   2.956
10771TIP3   OH232257   7.161   5.899   6.453
10771TIP3    H132258   7.129   5.870   6.368
10771TIP3    H232259   7.088   5.884   6.512
10772TIP3   OH232260   4.583   5.570   2.911
10772TIP3    H132261   4.579   5.615   2.826
10772TIP3    H232262   4.521   5.617   2.966
10773TIP3   OH232263   4.571   2.653   1.637
10773TIP3    H132264   4.591   2.700   1.719
10773TIP3    H232265   4.615   2.569   1.648
10774TIP3   OH232266   6.178   3.180   0.432
10774TIP3    H132267   6.173   3.146   0.343
10774TIP3    H232268   6.164   3.274   0.423
10775TIP3   OH232269   1.581   3.850   6.524
10775TIP3    H132270   1.612   3.796   6.597
10775TIP3    H232271   1.495   3.881   6.552
10776TIP3   OH232272   7.041   7.646   1.112
10776TIP3    H132273   6.982   7.721   1.111
10776TIP3    H232274   7.122   7.679   1.075
10777TIP3   OH232275   0.965   3.354   6.758
10777TIP3    H132276   1.028   3.284   6.740
10777TIP3    H232277   1.011   3.414   6.817
10778TIP3   OH232278   3.716   2.852   0.729
10778TIP3    H132279   3.687   2.832   0.640
10778TIP3    H232280   3.731   2.947   0.729
10779TIP3   OH232281   5.261   7.765   2.909
10779TIP3    H132282   5.282   7.822   2.835
10779TIP3    H232283   5.281   7.817   2.986
10780TIP3   OH232284   2.880   7.401   4.320
10780TIP3    H132285   2.849   7.399   4.229
10780TIP3    H232286   2.810   7.359   4.370
10781TIP3   OH232287   6.415   6.292   4.890
10781TIP3    H132288   6.468   6.359   4.847
10781TIP3    H232289   6.447   6.291   4.980
10782TIP3   OH232290   2.083   4.430   1.509
10782TIP3    H132291   2.057   4.338   1.518
10782TIP3    H232292   2.174   4.426   1.480
10783TIP3   OH232293   1.072   2.224   1.138
10783TIP3    H132294   1.113   2.261   1.216
10783TIP3    H232295   0.991   2.274   1.126
10784TIP3   OH232296   0.599   2.755   5.533
10784TIP3    H132297   0.549   2.736   5.613
10784TIP3    H232298   0.690   2.740   5.557
10785TIP3   OH232299   3.666   6.310   5.412
10785TIP3    H132300   3.646   6.298   5.505
10785TIP3    H232301   3.639   6.228   5.371
10786TIP3   OH232302   4.143   3.036   1.670
10786TIP3    H132303   4.190   2.956   1.694
10786TIP3    H232304   4.075   3.045   1.736
10787TIP3   OH232305   0.575   0.227   3.512
10787TIP3    H132306   0.651   0.283   3.528
10787TIP3    H232307   0.536   0.261   3.432
10788TIP3   OH232308   7.274   0.475   0.625
10788TIP3    H132309   7.329   0.540   0.581
10788TIP3    H232310   7.329   0.397   0.630
10789TIP3   OH232311   6.048   1.560   1.586
10789TIP3    H132312   5.963   1.564   1.629
10789TIP3    H232313   6.063   1.649   1.554
10790TIP3   OH232314   3.439   3.674   2.992
10790TIP3    H132315   3.489   3.708   2.918
10790TIP3    H232316   3.358   3.725   2.992
10791TIP3   OH232317   4.246   5.211   1.744
10791TIP3    H132318   4.271   5.196   1.835
10791TIP3    H232319   4.157   5.245   1.749
10792TIP3   OH232320   2.316   1.917   1.676
10792TIP3    H132321   2.351   1.846   1.622
10792TIP3    H232322   2.278   1.978   1.613
10793TIP3   OH232323   0.497   5.982   3.064
10793TIP3    H132324   0.445   6.020   3.135
10793TIP3    H232325   0.433   5.966   2.994
10794TIP3   OH232326   6.896   1.804   2.623
10794TIP3    H132327   6.875   1.738   2.557
10794TIP3    H232328   6.810   1.835   2.653
10795TIP3   OH232329   5.433   5.502   6.270
10795TIP3    H132330   5.498   5.559   6.230
10795TIP3    H232331   5.443   5.516   6.364
10796TIP3   OH232332   4.941   2.620   0.467
10796TIP3    H132333   4.936   2.536   0.422
10796TIP3    H232334   4.850   2.641   0.487
10797TIP3   OH232335   1.654   4.471   2.886
10797TIP3    H132336   1.675   4.471   2.979
10797TIP3    H232337   1.715   4.407   2.848
10798TIP3   OH232338   1.986   3.504   5.688
10798TIP3    H132339   1.930   3.569   5.730
10798TIP3    H232340   2.074   3.526   5.717
10799TIP3   OH232341   6.129   2.624   6.044
10799TIP3    H132342   6.185   2.589   5.975
10799TIP3    H232343   6.128   2.557   6.112
10800TIP3   OH232344   0.369   6.211   6.146
10800TIP3    H132345   0.426   6.278   6.183
10800TIP3    H232346   0.324   6.255   6.074
10801TIP3   OH232347   2.666   5.878   4.097
10801TIP3    H132348   2.651   5.813   4.028
10801TIP3    H232349   2.657   5.962   4.052
10802TIP3   OH232350   8.162   0.804   0.424
10802TIP3    H132351   8.202   0.759   0.499
10802TIP3    H232352   8.211   0.773   0.348
10803TIP3   OH232353   6.285   1.535   4.299
10803TIP3    H132354   6.301   1.628   4.282
10803TIP3    H232355   6.261   1.499   4.214
10804TIP3   OH232356   2.176   6.767   1.141
10804TIP3    H132357   2.162   6.846   1.192
10804TIP3    H232358   2.202   6.701   1.205
10805TIP3   OH232359   8.204   4.212   5.651
10805TIP3    H132360   8.202   4.250   5.739
10805TIP3    H232361   8.294   4.226   5.621
10806TIP3   OH232362   7.667   5.980   0.537
10806TIP3    H132363   7.653   5.965   0.443
10806TIP3    H232364   7.599   6.042   0.562
10807TIP3   OH232365   5.456   1.324   5.651
10807TIP3    H132366   5.363   1.318   5.629
10807TIP3    H232367   5.483   1.233   5.663
10808TIP3   OH232368   3.567   6.772   2.546
10808TIP3    H132369   3.623   6.850   2.551
10808TIP3    H232370   3.483   6.805   2.515
10809TIP3   OH232371   0.494   5.833   3.382
10809TIP3    H132372   0.583   5.839   3.347
10809TIP3    H232373   0.439   5.873   3.314
10810TIP3   OH232374   4.411   6.785   1.911
10810TIP3    H132375   4.318   6.803   1.902
10810TIP3    H232376   4.421   6.758   2.003
10811TIP3   OH232377   4.480   6.442   1.646
10811TIP3    H132378   4.486   6.363   1.593
10811TIP3    H232379   4.516   6.416   1.732
10812TIP3   OH232380   7.602   2.898   1.595
10812TIP3    H132381   7.616   2.869   1.505
10812TIP3    H232382   7.675   2.958   1.612
10813TIP3   OH232383   1.088   6.375   5.657
10813TIP3    H132384   1.055   6.355   5.745
10813TIP3    H232385   1.068   6.468   5.645
10814TIP3   OH232386   3.844   1.722   3.344
10814TIP3    H132387   3.852   1.629   3.365
10814TIP3    H232388   3.756   1.731   3.308
10815TIP3   OH232389   7.918   6.429   5.381
10815TIP3    H132390   8.010   6.406   5.371
10815TIP3    H232391   7.917   6.493   5.452
10816TIP3   OH232392   5.100   3.098   2.852
10816TIP3    H132393   5.112   3.147   2.933
10816TIP3    H232394   5.153   3.019   2.863
10817TIP3   OH232395   2.487   3.115   4.791
10817TIP3    H132396   2.581   3.122   4.773
10817TIP3    H232397   2.446   3.108   4.704
10818TIP3   OH232398   5.665   5.066   4.182
10818TIP3    H132399   5.606   5.100   4.115
10818TIP3    H232400   5.616   5.076   4.264
10819TIP3   OH232401   7.615   0.971   1.854
10819TIP3    H132402   7.539   1.029   1.849
10819TIP3    H232403   7.653   0.989   1.940
10820TIP3   OH232404   5.429   6.445   0.929
10820TIP3    H132405   5.476   6.528   0.923
10820TIP3    H232406   5.345   6.462   0.886
10821TIP3   OH232407   4.144   6.799   0.048
10821TIP3    H132408   4.185   6.718   0.018
10821TIP3    H232409   4.112   6.841  -0.032
10822TIP3   OH232410   3.988   7.005   5.745
10822TIP3    H132411   3.976   6.958   5.828
10822TIP3    H232412   4.082   7.006   5.731
10823TIP3   OH232413   6.029   3.115   1.988
10823TIP3    H132414   6.097   3.118   1.920
10823TIP3    H232415   6.049   3.188   2.046
10824TIP3   OH232416   5.418   3.429   4.069
10824TIP3    H132417   5.498   3.469   4.036
10824TIP3    H232418   5.448   3.357   4.125
10825TIP3   OH232419   7.616   4.990   1.042
10825TIP3    H132420   7.590   4.932   1.113
10825TIP3    H232421   7.534   5.017   1.002
10826TIP3   OH232422   0.404   1.712   5.146
10826TIP3    H132423   0.478   1.724   5.205
10826TIP3    H232424   0.345   1.654   5.193
10827TIP3   OH232425   0.137   6.785   2.371
10827TIP3    H132426   0.163   6.768   2.461
10827TIP3    H232427   0.198   6.853   2.341
10828TIP3   OH232428   7.363   0.303   4.968
10828TIP3    H132429   7.385   0.228   5.024
10828TIP3    H232430   7.267   0.305   4.968
10829TIP3   OH232431   5.710   4.950   2.080
10829TIP3    H132432   5.616   4.933   2.083
10829TIP3    H232433   5.745   4.899   2.154
10830TIP3   OH232434   7.113   3.544   6.408
10830TIP3    H132435   7.191   3.586   6.370
10830TIP3    H232436   7.058   3.524   6.332
10831TIP3   OH232437   6.337   5.836   2.075
10831TIP3    H132438   6.305   5.902   2.137
10831TIP3    H232439   6.420   5.872   2.043
10832TIP3   OH232440   0.571   2.563   4.263
10832TIP3    H132441   0.657   2.555   4.305
10832TIP3    H232442   0.538   2.648   4.292
10833TIP3   OH232443   3.831   7.783   4.510
10833TIP3    H132444   3.773   7.708   4.496
10833TIP3    H232445   3.867   7.801   4.424
10834TIP3   OH232446   6.707   1.029   4.299
10834TIP3    H132447   6.656   1.099   4.339
10834TIP3    H232448   6.683   0.951   4.348
10835TIP3   OH232449   2.995   6.414   4.646
10835TIP3    H132450   3.026   6.365   4.570
10835TIP3    H232451   3.074   6.453   4.684
10836TIP3   OH232452   1.731   4.923   2.314
10836TIP3    H132453   1.825   4.907   2.313
10836TIP3    H232454   1.723   5.018   2.304
10837TIP3   OH232455   5.982   7.652   0.511
10837TIP3    H132456   6.069   7.636   0.545
10837TIP3    H232457   5.961   7.742   0.537
10838TIP3   OH232458   4.282   6.786   1.323
10838TIP3    H132459   4.332   6.865   1.303
10838TIP3    H232460   4.231   6.770   1.243
10839TIP3   OH232461   0.003   6.731   5.976
10839TIP3    H132462   0.063   6.792   5.933
10839TIP3    H232463   0.052   6.699   6.052
10840TIP3   OH232464   1.151   7.805   2.864
10840TIP3    H132465   1.246   7.817   2.856
10840TIP3    H232466   1.142   7.718   2.904
10841TIP3   OH232467   1.235   3.244   5.871
10841TIP3    H132468   1.287   3.173   5.831
10841TIP3    H232469   1.144   3.222   5.850
10842TIP3   OH232470   3.823   6.487   4.341
10842TIP3    H132471   3.771   6.477   4.421
10842TIP3    H232472   3.792   6.570   4.304
10843TIP3   OH232473   4.363   5.424   2.453
10843TIP3    H132474   4.458   5.434   2.454
10843TIP3    H232475   4.332   5.496   2.399
10844TIP3   OH232476   5.399   1.753   5.578
10844TIP3    H132477   5.437   1.707   5.653
10844TIP3    H232478   5.307   1.764   5.601
10845TIP3   OH232479   2.409   2.890   0.346
10845TIP3    H132480   2.488   2.944   0.337
10845TIP3    H232481   2.428   2.811   0.295
10846TIP3   OH232482   5.598   0.776   1.556
10846TIP3    H132483   5.595   0.694   1.604
10846TIP3    H232484   5.613   0.750   1.465
10847TIP3   OH232485   3.507   2.067   4.735
10847TIP3    H132486   3.457   2.105   4.808
10847TIP3    H232487   3.449   2.073   4.660
10848TIP3   OH232488   1.999   0.385   1.544
10848TIP3    H132489   2.052   0.306   1.556
10848TIP3    H232490   2.063   0.455   1.529
10849TIP3   OH232491   7.379   4.786   4.563
10849TIP3    H132492   7.303   4.808   4.510
10849TIP3    H232493   7.352   4.709   4.613
10850TIP3   OH232494   4.118   3.903   6.333
10850TIP3    H132495   4.119   3.839   6.262
10850TIP3    H232496   4.189   3.876   6.391
10851TIP3   OH232497   8.334   1.565   5.508
10851TIP3    H132498   8.286   1.624   5.450
10851TIP3    H232499   8.314   1.478   5.475
10852TIP3   OH232500   3.359   4.108   1.550
10852TIP3    H132501   3.265   4.119   1.541
10852TIP3    H232502   3.379   4.028   1.501
10853TIP3   OH232503   7.062   1.258   0.107
10853TIP3    H132504   7.048   1.195   0.037
10853TIP3    H232505   6.981   1.308   0.110
10854TIP3   OH232506   1.605   4.442   5.182
10854TIP3    H132507   1.697   4.435   5.156
10854TIP3    H232508   1.558   4.455   5.100
10855TIP3   OH232509   0.283   3.333   6.274
10855TIP3    H132510   0.267   3.392   6.348
10855TIP3    H232511   0.199   3.328   6.229
10856TIP3   OH232512   6.169   1.736   4.082
10856TIP3    H132513   6.111   1.802   4.121
10856TIP3    H232514   6.257   1.772   4.091
10857TIP3   OH232515   7.939   3.310   4.041
10857TIP3    H132516   7.949   3.344   4.130
10857TIP3    H232517   7.860   3.257   4.044
10858TIP3   OH232518   2.838   5.128   5.630
10858TIP3    H132519   2.775   5.102   5.698
10858TIP3    H232520   2.918   5.147   5.678
10859TIP3   OH232521   1.439   1.200   1.052
10859TIP3    H132522   1.483   1.258   1.115
10859TIP3    H232523   1.496   1.123   1.048
10860TIP3   OH232524   2.300   3.509   4.343
10860TIP3    H132525   2.223   3.563   4.361
10860TIP3    H232526   2.359   3.566   4.294
10861TIP3   OH232527   4.763   7.328   0.868
10861TIP3    H132528   4.810   7.383   0.807
10861TIP3    H232529   4.830   7.268   0.902
10862TIP3   OH232530   6.811   2.287   1.809
10862TIP3    H132531   6.867   2.315   1.736
10862TIP3    H232532   6.872   2.249   1.872
10863TIP3   OH232533   5.258   1.104   1.399
10863TIP3    H132534   5.328   1.053   1.441
10863TIP3    H232535   5.186   1.041   1.389
10864TIP3   OH232536   2.012   4.186   0.094
10864TIP3    H132537   2.071   4.130   0.042
10864TIP3    H232538   2.041   4.275   0.075
10865TIP3   OH232539   6.639   7.349   6.613
10865TIP3    H132540   6.601   7.392   6.537
10865TIP3    H232541   6.565   7.334   6.672
10866TIP3   OH232542   5.237   3.900   5.894
10866TIP3    H132543   5.307   3.837   5.911
10866TIP3    H232544   5.157   3.854   5.918
10867TIP3   OH232545   3.140   2.967   3.372
10867TIP3    H132546   3.217   2.910   3.361
10867TIP3    H232547   3.086   2.920   3.436
10868TIP3   OH232548   7.247   6.122   1.279
10868TIP3    H132549   7.224   6.133   1.187
10868TIP3    H232550   7.322   6.062   1.277
10869TIP3   OH232551   2.169   0.922   5.427
10869TIP3    H132552   2.089   0.870   5.437
10869TIP3    H232553   2.139   1.013   5.434
10870TIP3   OH232554   7.667   0.833   5.202
10870TIP3    H132555   7.587   0.882   5.218
10870TIP3    H232556   7.736   0.900   5.206
10871TIP3   OH232557   2.231   3.081   1.177
10871TIP3    H132558   2.151   3.130   1.195
10871TIP3    H232559   2.263   3.054   1.262
10872TIP3   OH232560   6.496   7.105   2.538
10872TIP3    H132561   6.547   7.185   2.554
10872TIP3    H232562   6.482   7.067   2.625
10873TIP3   OH232563   5.442   4.769   4.439
10873TIP3    H132564   5.434   4.736   4.528
10873TIP3    H232565   5.484   4.855   4.448
10874TIP3   OH232566   6.348   1.435   6.689
10874TIP3    H132567   6.431   1.474   6.661
10874TIP3    H232568   6.325   1.375   6.617
10875TIP3   OH232569   2.728   3.758   1.577
10875TIP3    H132570   2.679   3.723   1.502
10875TIP3    H232571   2.698   3.848   1.585
10876TIP3   OH232572   3.377   4.116   5.375
10876TIP3    H132573   3.354   4.170   5.299
10876TIP3    H232574   3.402   4.032   5.338
10877TIP3   OH232575   3.504   3.805   0.327
10877TIP3    H132576   3.415   3.840   0.328
10877TIP3    H232577   3.537   3.822   0.415
10878TIP3   OH232578   5.043   4.334   2.773
10878TIP3    H132579   5.099   4.276   2.721
10878TIP3    H232580   4.980   4.275   2.814
10879TIP3   OH232581   0.978   3.537   5.870
10879TIP3    H132582   1.050   3.589   5.836
10879TIP3    H232583   0.979   3.553   5.965
10880TIP3   OH232584   7.580   7.754   4.730
10880TIP3    H132585   7.614   7.701   4.802
10880TIP3    H232586   7.517   7.813   4.772
10881TIP3   OH232587   3.476   4.748   4.151
10881TIP3    H132588   3.509   4.824   4.200
10881TIP3    H232589   3.442   4.690   4.218
10882TIP3   OH232590   3.626   5.573   1.170
10882TIP3    H132591   3.596   5.560   1.260
10882TIP3    H232592   3.650   5.485   1.140
10883TIP3   OH232593   7.981   0.573   0.224
10883TIP3    H132594   8.063   0.612   0.194
10883TIP3    H232595   7.997   0.479   0.223
10884TIP3   OH232596   4.734   3.230   4.704
10884TIP3    H132597   4.692   3.155   4.663
10884TIP3    H232598   4.677   3.304   4.684
10885TIP3   OH232599   4.051   6.629   3.325
10885TIP3    H132600   3.968   6.666   3.297
10885TIP3    H232601   4.034   6.534   3.330
10886TIP3   OH232602   3.160   3.449   5.430
10886TIP3    H132603   3.156   3.370   5.376
10886TIP3    H232604   3.107   3.513   5.381
10887TIP3   OH232605   4.233   1.349   4.801
10887TIP3    H132606   4.288   1.391   4.868
10887TIP3    H232607   4.261   1.389   4.719
10888TIP3   OH232608   3.797   2.395   2.103
10888TIP3    H132609   3.705   2.374   2.114
10888TIP3    H232610   3.843   2.329   2.156
10889TIP3   OH232611   7.175   1.824   2.450
10889TIP3    H132612   7.155   1.793   2.539
10889TIP3    H232613   7.227   1.904   2.464
10890TIP3   OH232614   7.989   3.063   3.093
10890TIP3    H132615   8.070   3.052   3.142
10890TIP3    H232616   7.987   2.989   3.033
10891TIP3   OH232617   2.981   7.463   0.864
10891TIP3    H132618   3.054   7.401   0.857
10891TIP3    H232619   2.932   7.434   0.940
10892TIP3   OH232620   1.550   1.575   4.341
10892TIP3    H132621   1.566   1.596   4.249
10892TIP3    H232622   1.635   1.546   4.374
10893TIP3   OH232623   0.086   5.333   5.805
10893TIP3    H132624   0.056   5.328   5.714
10893TIP3    H232625   0.179   5.314   5.801
10894TIP3   OH232626   7.898   5.046   1.029
10894TIP3    H132627   7.810   5.015   1.052
10894TIP3    H232628   7.942   5.058   1.113
10895TIP3   OH232629   2.692   1.736   3.813
10895TIP3    H132630   2.705   1.824   3.778
10895TIP3    H232631   2.642   1.750   3.894
10896TIP3   OH232632   4.136   2.922   5.373
10896TIP3    H132633   4.140   2.977   5.295
10896TIP3    H232634   4.148   2.833   5.340
10897TIP3   OH232635   4.113   7.259   1.326
10897TIP3    H132636   4.145   7.188   1.269
10897TIP3    H232637   4.151   7.338   1.289
10898TIP3   OH232638   0.661   3.262   2.184
10898TIP3    H132639   0.679   3.272   2.090
10898TIP3    H232640   0.601   3.188   2.189
10899TIP3   OH232641   0.812   3.327   0.993
10899TIP3    H132642   0.845   3.383   0.923
10899TIP3    H232643   0.735   3.285   0.955
10900TIP3   OH232644   7.568   5.795   1.506
10900TIP3    H132645   7.588   5.875   1.554
10900TIP3    H232646   7.525   5.738   1.569
10901TIP3   OH232647   0.503   7.829   2.681
10901TIP3    H132648   0.425   7.807   2.732
10901TIP3    H232649   0.502   7.766   2.608
10902TIP3   OH232650   1.619   3.107   6.511
10902TIP3    H132651   1.609   3.161   6.433
10902TIP3    H232652   1.531   3.073   6.529
10903TIP3   OH232653   2.481   1.685   4.662
10903TIP3    H132654   2.445   1.764   4.703
10903TIP3    H232655   2.535   1.646   4.730
10904TIP3   OH232656   4.107   3.084   2.742
10904TIP3    H132657   4.066   3.021   2.802
10904TIP3    H232658   4.107   3.167   2.790
10905TIP3   OH232659   7.467   2.468   3.033
10905TIP3    H132660   7.536   2.509   2.981
10905TIP3    H232661   7.513   2.412   3.094
10906TIP3   OH232662   1.234   1.631   3.827
10906TIP3    H132663   1.207   1.713   3.868
10906TIP3    H232664   1.166   1.568   3.853
10907TIP3   OH232665   1.596   5.864   2.638
10907TIP3    H132666   1.650   5.814   2.578
10907TIP3    H232667   1.573   5.802   2.707
10908TIP3   OH232668   0.441   2.444   0.113
10908TIP3    H132669   0.367   2.401   0.069
10908TIP3    H232670   0.516   2.428   0.055
10909TIP3   OH232671   7.651   0.017   2.913
10909TIP3    H132672   7.666   0.112   2.911
10909TIP3    H232673   7.625  -0.005   2.823
10910TIP3   OH232674   6.228   4.756   5.062
10910TIP3    H132675   6.243   4.783   4.971
10910TIP3    H232676   6.137   4.727   5.064
10911TIP3   OH232677   3.174   7.379   0.233
10911TIP3    H132678   3.185   7.284   0.230
10911TIP3    H232679   3.262   7.414   0.221
10912TIP3   OH232680   4.178   2.312   0.546
10912TIP3    H132681   4.090   2.277   0.559
10912TIP3    H232682   4.171   2.365   0.467
10913TIP3   OH232683   7.874   2.904   6.049
10913TIP3    H132684   7.798   2.960   6.035
10913TIP3    H232685   7.921   2.905   5.966
10914TIP3   OH232686   2.269   2.652   2.701
10914TIP3    H132687   2.304   2.582   2.756
10914TIP3    H232688   2.345   2.707   2.682
10915TIP3   OH232689   8.209   6.096   4.688
10915TIP3    H132690   8.199   6.076   4.781
10915TIP3    H232691   8.270   6.030   4.655
10916TIP3   OH232692   1.676   4.949   4.208
10916TIP3    H132693   1.661   4.984   4.296
10916TIP3    H232694   1.666   5.024   4.150
10917TIP3   OH232695   1.756   6.344   4.332
10917TIP3    H132696   1.725   6.264   4.289
10917TIP3    H232697   1.681   6.373   4.384
10918TIP3   OH232698   6.834   2.638   1.042
10918TIP3    H132699   6.921   2.675   1.028
10918TIP3    H232700   6.850   2.562   1.098
10919TIP3   OH232701   0.253   2.745   1.149
10919TIP3    H132702   0.250   2.750   1.244
10919TIP3    H232703   0.240   2.835   1.119
10920TIP3   OH232704   3.779   3.851   0.601
10920TIP3    H132705   3.696   3.897   0.609
10920TIP3    H232706   3.839   3.916   0.562
10921TIP3   OH232707   7.920   1.782   2.212
10921TIP3    H132708   7.987   1.716   2.231
10921TIP3    H232709   7.915   1.835   2.291
10922TIP3   OH232710   3.647   1.325   0.796
10922TIP3    H132711   3.646   1.279   0.880
10922TIP3    H232712   3.631   1.417   0.819
10923TIP3   OH232713   7.998   7.354   5.341
10923TIP3    H132714   7.907   7.365   5.368
10923TIP3    H232715   8.032   7.443   5.334
10924TIP3   OH232716   2.405   1.600   5.723
10924TIP3    H132717   2.389   1.546   5.801
10924TIP3    H232718   2.382   1.542   5.650
10925TIP3   OH232719   0.149   5.420   4.048
10925TIP3    H132720   0.214   5.483   4.015
10925TIP3    H232721   0.101   5.393   3.970
10926TIP3   OH232722   5.114   7.064   1.187
10926TIP3    H132723   5.178   7.015   1.134
10926TIP3    H232724   5.152   7.152   1.195
10927TIP3   OH232725   5.781   7.613   6.533
10927TIP3    H132726   5.812   7.582   6.617
10927TIP3    H232727   5.744   7.535   6.491
10928TIP3   OH232728   7.867   2.015   0.230
10928TIP3    H132729   7.910   2.019   0.316
10928TIP3    H232730   7.845   1.923   0.219
10929TIP3   OH232731   7.017   6.107   6.031
10929TIP3    H132732   6.999   6.045   6.102
10929TIP3    H232733   7.041   6.188   6.076
10930TIP3   OH232734   4.937   2.629   6.206
10930TIP3    H132735   4.895   2.708   6.240
10930TIP3    H232736   4.899   2.616   6.120
10931TIP3   OH232737   3.834   4.755   4.122
10931TIP3    H132738   3.922   4.717   4.120
10931TIP3    H232739   3.784   4.696   4.179
10932TIP3   OH232740   7.435   7.251   3.585
10932TIP3    H132741   7.341   7.250   3.601
10932TIP3    H232742   7.462   7.339   3.609
10933TIP3   OH232743   0.559   3.759   2.837
10933TIP3    H132744   0.617   3.835   2.847
10933TIP3    H232745   0.505   3.781   2.762
10934TIP3   OH232746   4.963   6.415   5.858
10934TIP3    H132747   4.962   6.328   5.817
10934TIP3    H232748   4.977   6.475   5.785
10935TIP3   OH232749   1.946   7.741   1.819
10935TIP3    H132750   1.907   7.750   1.732
10935TIP3    H232751   2.020   7.802   1.818
10936TIP3   OH232752   1.186   0.426   0.150
10936TIP3    H132753   1.168   0.445   0.058
10936TIP3    H232754   1.275   0.392   0.150
10937TIP3   OH232755   1.325   1.174   1.577
10937TIP3    H132756   1.255   1.214   1.630
10937TIP3    H232757   1.386   1.137   1.641
10938TIP3   OH232758   7.041   4.594   5.005
10938TIP3    H132759   6.995   4.530   4.951
10938TIP3    H232760   6.973   4.655   5.033
10939TIP3   OH232761   6.724   3.958   0.810
10939TIP3    H132762   6.634   3.943   0.782
10939TIP3    H232763   6.777   3.916   0.742
10940TIP3   OH232764   6.392   5.758   0.365
10940TIP3    H132765   6.430   5.766   0.452
10940TIP3    H232766   6.368   5.666   0.357
10941TIP3   OH232767   2.690   6.394   1.437
10941TIP3    H132768   2.718   6.431   1.353
10941TIP3    H232769   2.698   6.467   1.498
10942TIP3   OH232770   2.332   5.452   2.534
10942TIP3    H132771   2.399   5.418   2.594
10942TIP3    H232772   2.382   5.498   2.467
10943TIP3   OH232773   4.890   2.254   5.969
10943TIP3    H132774   4.889   2.350   5.971
10943TIP3    H232775   4.862   2.232   5.880
10944TIP3   OH232776   2.089   1.760   6.093
10944TIP3    H132777   2.139   1.828   6.137
10944TIP3    H232778   2.069   1.797   6.007
10945TIP3   OH232779   4.400   4.804   6.456
10945TIP3    H132780   4.393   4.852   6.373
10945TIP3    H232781   4.458   4.730   6.436
10946TIP3   OH232782   7.100   2.294   3.504
10946TIP3    H132783   7.051   2.375   3.496
10946TIP3    H232784   7.120   2.287   3.597
10947TIP3   OH232785   5.443   1.629   6.025
10947TIP3    H132786   5.390   1.598   5.952
10947TIP3    H232787   5.407   1.716   6.045
10948TIP3   OH232788   1.954   4.389   0.881
10948TIP3    H132789   2.025   4.327   0.863
10948TIP3    H232790   1.998   4.474   0.886
10949TIP3   OH232791   4.943   5.025   0.721
10949TIP3    H132792   5.029   5.019   0.679
10949TIP3    H232793   4.962   5.037   0.814
10950TIP3   OH232794   2.825   1.083   5.885
10950TIP3    H132795   2.832   1.048   5.973
10950TIP3    H232796   2.777   1.016   5.836
10951TIP3   OH232797   2.944   0.906   6.373
10951TIP3    H132798   3.000   0.946   6.440
10951TIP3    H232799   2.857   0.944   6.390
10952TIP3   OH232800   3.966   2.482   2.592
10952TIP3    H132801   4.050   2.526   2.580
10952TIP3    H232802   3.901   2.553   2.587
10953TIP3   OH232803   6.308   4.655   6.371
10953TIP3    H132804   6.243   4.702   6.320
10953TIP3    H232805   6.343   4.588   6.312
10954TIP3   OH232806   5.910   4.215   3.873
10954TIP3    H132807   5.883   4.277   3.941
10954TIP3    H232808   5.950   4.143   3.922
10955TIP3   OH232809   4.996   0.813   3.426
10955TIP3    H132810   4.921   0.790   3.372
10955TIP3    H232811   5.007   0.738   3.485
10956TIP3   OH232812   2.191   4.246   0.852
10956TIP3    H132813   2.210   4.251   0.946
10956TIP3    H232814   2.191   4.152   0.833
10957TIP3   OH232815   6.933   0.682   5.395
10957TIP3    H132816   6.921   0.708   5.303
10957TIP3    H232817   6.849   0.644   5.420
10958TIP3   OH232818   1.461   2.536   2.099
10958TIP3    H132819   1.379   2.586   2.093
10958TIP3    H232820   1.444   2.456   2.050
10959TIP3   OH232821   7.687   3.270   0.219
10959TIP3    H132822   7.644   3.355   0.227
10959TIP3    H232823   7.772   3.289   0.180
10960TIP3   OH232824  -0.029   7.702   1.554
10960TIP3    H132825  -0.049   7.760   1.628
10960TIP3    H232826   0.066   7.708   1.544
10961TIP3   OH232827   2.573   6.395   3.239
10961TIP3    H132828   2.618   6.471   3.202
10961TIP3    H232829   2.641   6.329   3.248
10962TIP3   OH232830   0.569   6.750   6.200
10962TIP3    H132831   0.615   6.668   6.184
10962TIP3    H232832   0.529   6.772   6.116
10963TIP3   OH232833   6.626   3.884   1.377
10963TIP3    H132834   6.623   3.975   1.407
10963TIP3    H232835   6.714   3.854   1.400
10964TIP3   OH232836   0.706   0.869   6.454
10964TIP3    H132837   0.677   0.943   6.400
10964TIP3    H232838   0.774   0.828   6.402
10965TIP3   OH232839   2.271   2.977   6.748
10965TIP3    H132840   2.285   3.020   6.832
10965TIP3    H232841   2.211   3.036   6.701
10966TIP3   OH232842   4.217   0.878   1.721
10966TIP3    H132843   4.132   0.921   1.734
10966TIP3    H232844   4.202   0.816   1.650
10967TIP3   OH232845   3.798   5.925   2.215
10967TIP3    H132846   3.800   6.019   2.200
10967TIP3    H232847   3.742   5.890   2.145
10968TIP3   OH232848   4.387   4.556   2.430
10968TIP3    H132849   4.378   4.627   2.493
10968TIP3    H232850   4.307   4.505   2.440
10969TIP3   OH232851   4.728   5.026   2.381
10969TIP3    H132852   4.654   5.039   2.439
10969TIP3    H232853   4.786   4.967   2.429
10970TIP3   OH232854   6.835   7.693   3.714
10970TIP3    H132855   6.754   7.717   3.668
10970TIP3    H232856   6.813   7.611   3.759
10971TIP3   OH232857   1.618   0.297   3.407
10971TIP3    H132858   1.639   0.390   3.419
10971TIP3    H232859   1.557   0.277   3.478
10972TIP3   OH232860   6.045   3.745   4.313
10972TIP3    H132861   5.978   3.726   4.378
10972TIP3    H232862   6.089   3.823   4.346
10973TIP3   OH232863   3.752   5.162   3.140
10973TIP3    H132864   3.780   5.235   3.086
10973TIP3    H232865   3.704   5.105   3.081
10974TIP3   OH232866   4.260   5.328   1.402
10974TIP3    H132867   4.343   5.372   1.418
10974TIP3    H232868   4.259   5.255   1.465
10975TIP3   OH232869   0.064   2.680   3.338
10975TIP3    H132870   0.057   2.656   3.431
10975TIP3    H232871   0.099   2.602   3.296
10976TIP3   OH232872   1.200   3.527   3.181
10976TIP3    H132873   1.141   3.498   3.112
10976TIP3    H232874   1.268   3.576   3.135
10977TIP3   OH232875   0.796   4.562   3.360
10977TIP3    H132876   0.719   4.540   3.307
10977TIP3    H232877   0.768   4.546   3.450
10978TIP3   OH232878   5.559   1.481   2.475
10978TIP3    H132879   5.492   1.472   2.543
10978TIP3    H232880   5.562   1.395   2.433
10979TIP3   OH232881   2.581   3.466   2.182
10979TIP3    H132882   2.661   3.471   2.130
10979TIP3    H232883   2.603   3.507   2.265
10980TIP3   OH232884   1.186   3.631   3.633
10980TIP3    H132885   1.199   3.634   3.728
10980TIP3    H232886   1.119   3.697   3.616
10981TIP3   OH232887   4.356   3.381   1.564
10981TIP3    H132888   4.267   3.365   1.533
10981TIP3    H232889   4.395   3.436   1.496
10982TIP3   OH232890   7.798   0.663   0.911
10982TIP3    H132891   7.706   0.673   0.890
10982TIP3    H232892   7.803   0.583   0.963
10983TIP3   OH232893   5.084   7.561   0.098
10983TIP3    H132894   5.150   7.627   0.118
10983TIP3    H232895   5.039   7.593   0.020
10984TIP3   OH232896   3.329   2.096   5.377
10984TIP3    H132897   3.321   2.185   5.413
10984TIP3    H232898   3.381   2.049   5.442
10985TIP3   OH232899   0.776   3.595   6.704
10985TIP3    H132900   0.756   3.590   6.797
10985TIP3    H232901   0.821   3.513   6.684
10986TIP3   OH232902   1.605   5.640   5.734
10986TIP3    H132903   1.606   5.704   5.664
10986TIP3    H232904   1.661   5.569   5.703
10987TIP3   OH232905   2.983   2.348   5.797
10987TIP3    H132906   3.067   2.393   5.800
10987TIP3    H232907   2.924   2.409   5.752
10988TIP3   OH232908   5.984   4.441   6.532
10988TIP3    H132909   6.072   4.444   6.568
10988TIP3    H232910   5.953   4.532   6.535
10989TIP3   OH232911   7.244   5.242   0.358
10989TIP3    H132912   7.260   5.337   0.350
10989TIP3    H232913   7.232   5.213   0.268
10990TIP3   OH232914   5.964   2.647   3.756
10990TIP3    H132915   5.998   2.562   3.729
10990TIP3    H232916   5.956   2.642   3.851
10991TIP3   OH232917   4.491   3.563   1.400
10991TIP3    H132918   4.585   3.578   1.404
10991TIP3    H232919   4.452   3.650   1.406
10992TIP3   OH232920   3.699   4.892   5.859
10992TIP3    H132921   3.788   4.922   5.842
10992TIP3    H232922   3.683   4.916   5.951
10993TIP3   OH232923   4.764   5.548   6.313
10993TIP3    H132924   4.820   5.471   6.325
10993TIP3    H232925   4.701   5.521   6.246
10994TIP3   OH232926   2.319   0.316   2.767
10994TIP3    H132927   2.237   0.340   2.810
10994TIP3    H232928   2.295   0.302   2.675
10995TIP3   OH232929   6.687   2.560   4.451
10995TIP3    H132930   6.599   2.595   4.461
10995TIP3    H232931   6.676   2.465   4.449
10996TIP3   OH232932   4.848   4.306   5.964
10996TIP3    H132933   4.881   4.265   5.884
10996TIP3    H232934   4.876   4.397   5.957
10997TIP3   OH232935   1.861   0.902   1.294
10997TIP3    H132936   1.857   0.879   1.387
10997TIP3    H232937   1.816   0.830   1.250
10998TIP3   OH232938   5.730   6.299   3.645
10998TIP3    H132939   5.781   6.356   3.587
10998TIP3    H232940   5.650   6.280   3.595
10999TIP3   OH232941   5.049   0.937   6.431
10999TIP3    H132942   5.116   0.907   6.493
10999TIP3    H232943   4.971   0.886   6.453
11000TIP3   OH232944   4.614   0.889   0.207
11000TIP3    H132945   4.634   0.983   0.201
11000TIP3    H232946   4.584   0.865   0.119
11001TIP3   OH232947   0.496   6.334   4.805
11001TIP3    H132948   0.527   6.266   4.866
11001TIP3    H232949   0.526   6.416   4.844
11002TIP3   OH232950   2.338   4.334   0.598
11002TIP3    H132951   2.301   4.295   0.678
11002TIP3    H232952   2.304   4.423   0.597
11003TIP3   OH232953   3.841   1.093   4.067
11003TIP3    H132954   3.844   1.186   4.092
11003TIP3    H232955   3.778   1.089   3.996
11004TIP3   OH232956   6.498   6.335   3.072
11004TIP3    H132957   6.563   6.403   3.053
11004TIP3    H232958   6.417   6.368   3.035
11005TIP3   OH232959   7.622   4.543   1.720
11005TIP3    H132960   7.565   4.467   1.706
11005TIP3    H232961   7.638   4.544   1.815
11006TIP3   OH232962   5.938   5.969   4.839
11006TIP3    H132963   5.856   5.989   4.793
11006TIP3    H232964   5.916   5.894   4.895
11007TIP3   OH232965   5.519   2.970   0.641
11007TIP3    H132966   5.602   2.984   0.687
11007TIP3    H232967   5.452   2.984   0.708
11008TIP3   OH232968   6.060   4.523   5.277
11008TIP3    H132969   6.037   4.615   5.278
11008TIP3    H232970   5.980   4.478   5.249
11009TIP3   OH232971   4.899   1.768   4.683
11009TIP3    H132972   4.982   1.790   4.641
11009TIP3    H232973   4.924   1.703   4.750
11010TIP3   OH232974   1.362   5.856   5.067
11010TIP3    H132975   1.278   5.812   5.083
11010TIP3    H232976   1.357   5.937   5.118
11011TIP3   OH232977   0.507   6.272   0.753
11011TIP3    H132978   0.590   6.230   0.729
11011TIP3    H232979   0.440   6.212   0.721
11012TIP3   OH232980   4.771   3.003   1.102
11012TIP3    H132981   4.754   3.086   1.057
11012TIP3    H232982   4.842   2.963   1.053
11013TIP3   OH232983   0.881   1.842   4.873
11013TIP3    H132984   0.822   1.787   4.924
11013TIP3    H232985   0.923   1.781   4.811
11014TIP3   OH232986   2.991   0.236   0.363
11014TIP3    H132987   2.982   0.171   0.432
11014TIP3    H232988   2.942   0.200   0.289
11015TIP3   OH232989   2.140   7.484   5.779
11015TIP3    H132990   2.097   7.480   5.864
11015TIP3    H232991   2.085   7.431   5.721
11016TIP3   OH232992   6.211   1.658   1.007
11016TIP3    H132993   6.123   1.663   1.043
11016TIP3    H232994   6.199   1.629   0.917
11017TIP3   OH232995   7.367   1.184   6.518
11017TIP3    H132996   7.307   1.125   6.565
11017TIP3    H232997   7.324   1.201   6.435
11018TIP3   OH232998   5.424   0.592   2.587
11018TIP3    H132999   5.510   0.629   2.606
11018TIP3    H233000   5.386   0.575   2.673
11019TIP3   OH233001   1.804   5.511   6.682
11019TIP3    H133002   1.794   5.606   6.684
11019TIP3    H233003   1.800   5.484   6.774
11020TIP3   OH233004   7.457   7.139   3.981
11020TIP3    H133005   7.523   7.208   3.995
11020TIP3    H233006   7.374   7.187   3.976
11021TIP3   OH233007   3.728   1.467   3.196
11021TIP3    H133008   3.698   1.376   3.204
11021TIP3    H233009   3.655   1.513   3.155
11022TIP3   OH233010   1.133   4.350   0.300
11022TIP3    H133011   1.055   4.333   0.353
11022TIP3    H233012   1.199   4.289   0.334
11023TIP3   OH233013   4.322   7.288   2.783
11023TIP3    H133014   4.291   7.241   2.859
11023TIP3    H233015   4.364   7.367   2.819
11024TIP3   OH233016   0.808   5.764   6.110
11024TIP3    H133017   0.853   5.679   6.111
11024TIP3    H233018   0.721   5.744   6.075
11025TIP3   OH233019   0.088   2.747   3.906
11025TIP3    H133020   0.120   2.832   3.937
11025TIP3    H233021   0.168   2.699   3.882
11026TIP3   OH233022   6.178   2.855   4.777
11026TIP3    H133023   6.250   2.797   4.802
11026TIP3    H233024   6.107   2.797   4.752
11027TIP3   OH233025   6.696   2.420   2.297
11027TIP3    H133026   6.645   2.486   2.251
11027TIP3    H233027   6.683   2.441   2.390
11028TIP3   OH233028   3.749   0.181   4.403
11028TIP3    H133029   3.780   0.270   4.385
11028TIP3    H233030   3.823   0.138   4.446
11029TIP3   OH233031   2.190   6.998   2.645
11029TIP3    H133032   2.262   6.943   2.676
11029TIP3    H233033   2.121   6.935   2.622
11030TIP3   OH233034   2.951   2.009   2.658
11030TIP3    H133035   3.013   1.939   2.637
11030TIP3    H233036   2.992   2.088   2.623
11031TIP3   OH233037   1.851   3.900   2.983
11031TIP3    H133038   1.847   3.807   3.007
11031TIP3    H233039   1.942   3.924   2.998
11032TIP3   OH233040   8.129   7.663   5.594
11032TIP3    H133041   8.209   7.611   5.585
11032TIP3    H233042   8.158   7.745   5.634
11033TIP3   OH233043   3.084   4.622   1.348
11033TIP3    H133044   3.023   4.641   1.420
11033TIP3    H233045   3.097   4.706   1.305
11034TIP3   OH233046   5.643   4.926   6.434
11034TIP3    H133047   5.669   4.876   6.511
11034TIP3    H233048   5.549   4.940   6.444
11035TIP3   OH233049   7.103   0.576   3.220
11035TIP3    H133050   7.171   0.509   3.217
11035TIP3    H233051   7.062   0.565   3.306
11036TIP3   OH233052   6.073   0.714   4.690
11036TIP3    H133053   6.071   0.790   4.748
11036TIP3    H233054   6.148   0.663   4.720
11037TIP3   OH233055   0.566   5.470   3.110
11037TIP3    H133056   0.607   5.510   3.187
11037TIP3    H233057   0.638   5.459   3.048
11038TIP3   OH233058   1.629   7.074   4.850
11038TIP3    H133059   1.540   7.045   4.870
11038TIP3    H233060   1.648   7.034   4.765
11039TIP3   OH233061   4.452   2.075   3.760
11039TIP3    H133062   4.395   2.125   3.702
11039TIP3    H233063   4.487   2.141   3.821
11040TIP3   OH233064   7.054   7.393   5.768
11040TIP3    H133065   7.146   7.418   5.776
11040TIP3    H233066   7.030   7.418   5.679
11041TIP3   OH233067   1.197   6.956   6.240
11041TIP3    H133068   1.130   7.019   6.213
11041TIP3    H233069   1.276   7.009   6.252
11042TIP3   OH233070   2.432   5.217   1.731
11042TIP3    H133071   2.377   5.283   1.775
11042TIP3    H233072   2.472   5.264   1.658
11043TIP3   OH233073   2.905   0.275   3.269
11043TIP3    H133074   2.837   0.340   3.287
11043TIP3    H233075   2.987   0.318   3.292
11044TIP3   OH233076   6.464   6.442   1.594
11044TIP3    H133077   6.498   6.394   1.518
11044TIP3    H233078   6.494   6.391   1.670
11045TIP3   OH233079   4.219   5.122   2.007
11045TIP3    H133080   4.300   5.071   2.000
11045TIP3    H233081   4.209   5.138   2.101
11046TIP3   OH233082   4.577   1.918   1.356
11046TIP3    H133083   4.548   1.871   1.434
11046TIP3    H233084   4.549   2.008   1.369
11047TIP3   OH233085   3.329   0.184   5.473
11047TIP3    H133086   3.252   0.161   5.525
11047TIP3    H233087   3.390   0.223   5.535
11048TIP3   OH233088   3.046   1.889   3.145
11048TIP3    H133089   2.962   1.920   3.180
11048TIP3    H233090   3.081   1.964   3.097
11049TIP3   OH233091   1.147   5.787   4.697
11049TIP3    H133092   1.076   5.802   4.635
11049TIP3    H233093   1.204   5.724   4.652
11050TIP3   OH233094   2.046   2.739   2.851
11050TIP3    H133095   1.964   2.774   2.817
11050TIP3    H233096   2.108   2.747   2.778
11051TIP3   OH233097   4.220   1.412   1.586
11051TIP3    H133098   4.228   1.334   1.531
11051TIP3    H233099   4.137   1.452   1.559
11052TIP3   OH233100   2.215   2.027   3.172
11052TIP3    H133101   2.198   1.936   3.147
11052TIP3    H233102   2.280   2.058   3.108
11053TIP3   OH233103   7.294   3.081   5.162
11053TIP3    H133104   7.308   3.003   5.109
11053TIP3    H233105   7.376   3.092   5.210
11054TIP3   OH233106   0.171   7.423   0.824
11054TIP3    H133107   0.222   7.503   0.838
11054TIP3    H233108   0.236   7.353   0.823
11055TIP3   OH233109   0.521   7.291   1.995
11055TIP3    H133110   0.575   7.335   1.930
11055TIP3    H233111   0.583   7.257   2.059
11056TIP3   OH233112   0.135   0.541   1.984
11056TIP3    H133113   0.170   0.601   2.050
11056TIP3    H233114   0.133   0.592   1.903
11057TIP3   OH233115   7.082   0.960   1.452
11057TIP3    H133116   7.064   1.019   1.379
11057TIP3    H233117   7.057   0.873   1.419
11058TIP3   OH233118   2.093   4.152   6.605
11058TIP3    H133119   2.071   4.217   6.539
11058TIP3    H233120   2.068   4.193   6.688
11059TIP3   OH233121   2.801   4.057   5.396
11059TIP3    H133122   2.835   4.117   5.462
11059TIP3    H233123   2.740   4.000   5.443
11060TIP3   OH233124   3.527   0.044   5.744
11060TIP3    H133125   3.538   0.129   5.701
11060TIP3    H233126   3.433   0.033   5.752
11061TIP3   OH233127   7.296   5.388   1.701
11061TIP3    H133128   7.213   5.374   1.656
11061TIP3    H233129   7.335   5.462   1.655
11062TIP3   OH233130   4.357   2.994   2.829
11062TIP3    H133131   4.356   2.899   2.834
11062TIP3    H233132   4.269   3.018   2.802
11063TIP3   OH233133   4.088  -0.017   1.409
11063TIP3    H133134   4.174  -0.055   1.429
11063TIP3    H233135   4.087   0.064   1.459
11064TIP3   OH233136   3.400   6.443   2.239
11064TIP3    H133137   3.429   6.443   2.148
11064TIP3    H233138   3.378   6.534   2.257
11065TIP3   OH233139   5.169   6.686   3.523
11065TIP3    H133140   5.197   6.634   3.448
11065TIP3    H233141   5.209   6.643   3.599
11066TIP3   OH233142   0.584   7.128   0.510
11066TIP3    H133143   0.657   7.067   0.521
11066TIP3    H233144   0.538   7.125   0.594
11067TIP3   OH233145   2.161   5.994   6.244
11067TIP3    H133146   2.108   6.012   6.322
11067TIP3    H233147   2.190   5.904   6.255
11068TIP3   OH233148   1.961   7.119   0.991
11068TIP3    H133149   1.901   7.048   0.968
11068TIP3    H233150   1.965   7.117   1.087
11069TIP3   OH233151   2.920   7.009   6.468
11069TIP3    H133152   2.880   7.081   6.419
11069TIP3    H233153   3.005   7.044   6.496
11070TIP3   OH233154   6.586   4.910   6.316
11070TIP3    H133155   6.568   4.852   6.389
11070TIP3    H233156   6.502   4.921   6.271
11071TIP3   OH233157   0.128   2.048   2.774
11071TIP3    H133158   0.136   2.141   2.796
11071TIP3    H233159   0.175   2.039   2.691
11072TIP3   OH233160   6.069   0.583   3.000
11072TIP3    H133161   6.033   0.576   2.911
11072TIP3    H233162   5.995   0.614   3.053
11073TIP3   OH233163   2.568   4.272   2.725
11073TIP3    H133164   2.549   4.239   2.637
11073TIP3    H233165   2.487   4.313   2.754
11074TIP3   OH233166   6.713   4.366   0.366
11074TIP3    H133167   6.684   4.303   0.432
11074TIP3    H233168   6.757   4.434   0.415
11075TIP3   OH233169   0.126   7.261   3.759
11075TIP3    H133170   0.164   7.176   3.783
11075TIP3    H233171   0.075   7.242   3.680
11076TIP3   OH233172   8.062   3.287   0.846
11076TIP3    H133173   8.112   3.286   0.764
11076TIP3    H233174   7.972   3.306   0.820
11077TIP3   OH233175   2.632   1.524   0.054
11077TIP3    H133176   2.597   1.475   0.129
11077TIP3    H233177   2.582   1.491  -0.021
11078TIP3   OH233178   6.624   4.417   3.625
11078TIP3    H133179   6.664   4.432   3.539
11078TIP3    H233180   6.698   4.398   3.682
11079TIP3   OH233181   1.174   4.075   3.042
11079TIP3    H133182   1.253   4.047   2.996
11079TIP3    H233183   1.113   4.099   2.971
11080TIP3   OH233184   1.419   4.501   2.091
11080TIP3    H133185   1.443   4.528   2.179
11080TIP3    H233186   1.442   4.575   2.035
11081TIP3   OH233187   6.835   1.937   3.557
11081TIP3    H133188   6.746   1.907   3.577
11081TIP3    H233189   6.825   1.996   3.483
11082TIP3   OH233190   1.313   4.611   4.727
11082TIP3    H133191   1.377   4.598   4.658
11082TIP3    H233192   1.271   4.694   4.706
11083TIP3   OH233193   5.060   4.335   0.229
11083TIP3    H133194   5.119   4.260   0.221
11083TIP3    H233195   5.086   4.377   0.311
11084TIP3   OH233196   3.511   6.713   5.154
11084TIP3    H133197   3.459   6.650   5.204
11084TIP3    H233198   3.599   6.705   5.190
11085TIP3   OH233199   7.879   7.347   5.853
11085TIP3    H133200   7.908   7.272   5.803
11085TIP3    H233201   7.860   7.312   5.941
11086TIP3   OH233202   2.316   7.565   6.410
11086TIP3    H133203   2.369   7.508   6.466
11086TIP3    H233204   2.379   7.613   6.357
11087TIP3   OH233205   2.390   5.859   4.152
11087TIP3    H133206   2.483   5.863   4.132
11087TIP3    H233207   2.383   5.884   4.244
11088TIP3   OH233208   7.662   6.702   3.167
11088TIP3    H133209   7.645   6.791   3.138
11088TIP3    H233210   7.576   6.668   3.191
11089TIP3   OH233211   5.229   5.996   0.879
11089TIP3    H133212   5.296   6.063   0.870
11089TIP3    H233213   5.276   5.913   0.871
11090TIP3   OH233214   7.418   3.604   2.234
11090TIP3    H133215   7.433   3.516   2.270
11090TIP3    H233216   7.344   3.593   2.175
11091TIP3   OH233217   1.298   0.221   3.355
11091TIP3    H133218   1.297   0.203   3.449
11091TIP3    H233219   1.348   0.149   3.317
11092TIP3   OH233220   0.770   2.951   6.422
11092TIP3    H133221   0.759   3.045   6.438
11092TIP3    H233222   0.814   2.918   6.499
11093TIP3   OH233223   3.116   6.361   2.812
11093TIP3    H133224   3.040   6.419   2.810
11093TIP3    H233225   3.080   6.275   2.787
11094TIP3   OH233226   6.308   5.042   4.794
11094TIP3    H133227   6.295   5.136   4.796
11094TIP3    H233228   6.233   5.007   4.843
11095TIP3   OH233229   4.288   7.636   4.601
11095TIP3    H133230   4.259   7.563   4.548
11095TIP3    H233231   4.208   7.673   4.638
11096TIP3   OH233232   3.633   2.635   4.145
11096TIP3    H133233   3.611   2.727   4.159
11096TIP3    H233234   3.605   2.591   4.226
11097TIP3   OH233235   4.636   2.005   5.311
11097TIP3    H133236   4.703   1.959   5.260
11097TIP3    H233237   4.553   1.965   5.284
11098TIP3   OH233238   6.594   3.257   5.953
11098TIP3    H133239   6.507   3.292   5.932
11098TIP3    H233240   6.589   3.165   5.928
11099TIP3   OH233241   1.854   0.499   5.614
11099TIP3    H133242   1.897   0.583   5.596
11099TIP3    H233243   1.860   0.452   5.531
11100TIP3   OH233244   5.044   6.533   2.420
11100TIP3    H133245   5.058   6.628   2.428
11100TIP3    H233246   5.096   6.495   2.490
11101TIP3   OH233247   2.095   2.481   4.666
11101TIP3    H133248   2.037   2.473   4.590
11101TIP3    H233249   2.102   2.392   4.700
11102TIP3   OH233250   2.447   7.349   4.774
11102TIP3    H133251   2.531   7.336   4.729
11102TIP3    H233252   2.404   7.419   4.724
11103TIP3   OH233253   7.189   0.646   0.990
11103TIP3    H133254   7.243   0.689   1.057
11103TIP3    H233255   7.247   0.581   0.950
11104TIP3   OH233256   1.359   5.902   3.446
11104TIP3    H133257   1.364   5.807   3.463
11104TIP3    H233258   1.450   5.927   3.428
11105TIP3   OH233259   7.136   0.075   0.565
11105TIP3    H133260   7.124   0.163   0.528
11105TIP3    H233261   7.218   0.044   0.525
11106TIP3   OH233262   3.423   4.127   1.856
11106TIP3    H133263   3.514   4.128   1.886
11106TIP3    H233264   3.429   4.121   1.760
11107TIP3   OH233265   3.752   4.680   1.318
11107TIP3    H133266   3.760   4.585   1.326
11107TIP3    H233267   3.841   4.713   1.329
11108TIP3   OH233268   0.919   4.568   6.037
11108TIP3    H133269   0.997   4.523   6.007
11108TIP3    H233270   0.922   4.653   5.993
11109TIP3   OH233271   2.174   3.802   0.472
11109TIP3    H133272   2.211   3.888   0.491
11109TIP3    H233273   2.220   3.743   0.531
11110TIP3   OH233274   3.061   7.498   0.501
11110TIP3    H133275   3.043   7.487   0.407
11110TIP3    H233276   3.119   7.425   0.522
11111TIP3   OH233277   1.917   3.331   6.496
11111TIP3    H133278   1.845   3.392   6.480
11111TIP3    H233279   1.922   3.279   6.415
11112TIP3   OH233280   3.625   2.678   3.300
11112TIP3    H133281   3.636   2.705   3.391
11112TIP3    H233282   3.662   2.751   3.249
11113TIP3   OH233283   3.528   2.418   0.168
11113TIP3    H133284   3.586   2.453   0.234
11113TIP3    H233285   3.441   2.418   0.209
11114TIP3   OH233286   8.165   0.429   6.410
11114TIP3    H133287   8.212   0.501   6.452
11114TIP3    H233288   8.203   0.349   6.448
11115TIP3   OH233289   4.717   7.064   3.000
11115TIP3    H133290   4.671   6.993   3.045
11115TIP3    H233291   4.654   7.136   2.998
11116TIP3   OH233292   5.748   0.934   5.582
11116TIP3    H133293   5.658   0.903   5.572
11116TIP3    H233294   5.743   1.029   5.568
11117TIP3   OH233295   0.468   0.791   4.438
11117TIP3    H133296   0.391   0.752   4.479
11117TIP3    H233297   0.540   0.771   4.498
11118TIP3   OH233298   4.269   0.124   1.153
11118TIP3    H133299   4.286   0.089   1.241
11118TIP3    H233300   4.351   0.165   1.127
11119TIP3   OH233301   4.014   4.257   6.492
11119TIP3    H133302   3.949   4.317   6.529
11119TIP3    H233303   3.999   4.174   6.538
11120TIP3   OH233304   7.945   5.300   3.658
11120TIP3    H133305   7.854   5.271   3.671
11120TIP3    H233306   7.963   5.357   3.733
11121TIP3   OH233307   2.404   0.638   2.055
11121TIP3    H133308   2.394   0.721   2.101
11121TIP3    H233309   2.360   0.574   2.111
11122TIP3   OH233310   2.595   5.893   0.616
11122TIP3    H133311   2.518   5.935   0.655
11122TIP3    H233312   2.578   5.897   0.522
11123TIP3   OH233313   4.758   1.689   2.648
11123TIP3    H133314   4.752   1.618   2.713
11123TIP3    H233315   4.757   1.769   2.700
11124TIP3   OH233316   4.907   5.191   5.387
11124TIP3    H133317   4.897   5.254   5.458
11124TIP3    H233318   4.876   5.238   5.309
11125TIP3   OH233319   1.777   1.228   0.639
11125TIP3    H133320   1.834   1.209   0.713
11125TIP3    H233321   1.690   1.200   0.666
11126TIP3   OH233322   7.016   0.753   2.222
11126TIP3    H133323   7.048   0.772   2.310
11126TIP3    H233324   6.925   0.726   2.235
11127TIP3   OH233325   6.035   6.273   4.198
11127TIP3    H133326   6.079   6.357   4.180
11127TIP3    H233327   5.947   6.284   4.163
11128TIP3   OH233328   3.594   2.210   5.983
11128TIP3    H133329   3.571   2.221   5.891
11128TIP3    H233330   3.551   2.128   6.009
11129TIP3   OH233331   2.418   5.357   4.628
11129TIP3    H133332   2.410   5.374   4.722
11129TIP3    H233333   2.336   5.391   4.591
11130TIP3   OH233334   3.434   7.805   6.126
11130TIP3    H133335   3.412   7.712   6.117
11130TIP3    H233336   3.413   7.826   6.217
11131TIP3   OH233337   5.563   4.750   5.467
11131TIP3    H133338   5.511   4.675   5.495
11131TIP3    H233339   5.602   4.722   5.383
11132TIP3   OH233340   1.721   4.867   0.340
11132TIP3    H133341   1.686   4.946   0.383
11132TIP3    H233342   1.796   4.898   0.290
11133TIP3   OH233343   4.694   5.702   2.537
11133TIP3    H133344   4.680   5.796   2.547
11133TIP3    H233345   4.772   5.695   2.483
11134TIP3   OH233346   3.081   1.826   2.063
11134TIP3    H133347   3.121   1.739   2.069
11134TIP3    H233348   3.071   1.854   2.154
11135TIP3   OH233349   6.639   2.230   2.870
11135TIP3    H133350   6.599   2.185   2.944
11135TIP3    H233351   6.683   2.306   2.908
11136TIP3   OH233352   1.708   6.788   1.029
11136TIP3    H133353   1.803   6.795   1.026
11136TIP3    H233354   1.688   6.777   1.122
11137TIP3   OH233355   1.166   5.937   2.184
11137TIP3    H133356   1.195   6.027   2.198
11137TIP3    H233357   1.102   5.943   2.113
11138TIP3   OH233358   1.151   1.927   3.134
11138TIP3    H133359   1.231   1.980   3.137
11138TIP3    H233360   1.178   1.842   3.168
11139TIP3   OH233361   1.554   3.242   0.579
11139TIP3    H133362   1.528   3.232   0.671
11139TIP3    H233363   1.546   3.336   0.562
11140TIP3   OH233364   4.481   3.878   5.699
11140TIP3    H133365   4.403   3.891   5.646
11140TIP3    H233366   4.481   3.785   5.720
11141TIP3   OH233367   2.024   2.930   1.327
11141TIP3    H133368   2.102   2.883   1.357
11141TIP3    H233369   1.956   2.863   1.322
11142TIP3   OH233370   4.813   5.586   0.269
11142TIP3    H133371   4.809   5.504   0.220
11142TIP3    H233372   4.883   5.636   0.228
11143TIP3   OH233373   1.406   0.594   3.264
11143TIP3    H133374   1.369   0.541   3.334
11143TIP3    H233375   1.330   0.633   3.221
11144TIP3   OH233376   6.088   1.380   0.585
11144TIP3    H133377   5.994   1.384   0.570
11144TIP3    H233378   6.126   1.438   0.519
11145TIP3   OH233379   4.550   3.103   4.542
11145TIP3    H133380   4.478   3.144   4.590
11145TIP3    H233381   4.521   3.013   4.527
11146TIP3   OH233382   2.002   4.972   6.132
11146TIP3    H133383   1.915   4.954   6.167
11146TIP3    H233384   2.027   5.055   6.172
11147TIP3   OH233385   2.635   6.881   5.438
11147TIP3    H133386   2.577   6.921   5.373
11147TIP3    H233387   2.684   6.954   5.476
11148TIP3   OH233388   3.598   7.141   1.207
11148TIP3    H133389   3.648   7.219   1.231
11148TIP3    H233390   3.542   7.124   1.282
11149TIP3   OH233391   4.017   6.940   3.870
11149TIP3    H133392   4.030   6.905   3.959
11149TIP3    H233393   4.002   6.862   3.816
11150TIP3   OH233394   6.468   3.970   0.153
11150TIP3    H133395   6.552   3.951   0.111
11150TIP3    H233396   6.491   3.996   0.242
11151TIP3   OH233397   4.442   5.099   2.617
11151TIP3    H133398   4.515   5.160   2.610
11151TIP3    H233399   4.366   5.154   2.637
11152TIP3   OH233400   7.506   3.985   0.551
11152TIP3    H133401   7.588   3.935   0.552
11152TIP3    H233402   7.528   4.067   0.508
11153TIP3   OH233403   2.493   3.459   0.597
11153TIP3    H133404   2.586   3.468   0.617
11153TIP3    H233405   2.484   3.370   0.563
11154TIP3   OH233406   6.973   2.363   2.554
11154TIP3    H133407   6.907   2.294   2.567
11154TIP3    H233408   7.049   2.332   2.603
11155TIP3   OH233409   0.405   7.524   5.112
11155TIP3    H133410   0.318   7.512   5.075
11155TIP3    H233411   0.465   7.499   5.042
11156TIP3   OH233412   3.471   4.961   2.300
11156TIP3    H133413   3.481   5.023   2.372
11156TIP3    H233414   3.527   4.996   2.231
11157TIP3   OH233415   1.308   6.665   2.942
11157TIP3    H133416   1.377   6.682   2.879
11157TIP3    H233417   1.246   6.737   2.931
11158TIP3   OH233418   8.262   6.504   5.617
11158TIP3    H133419   8.211   6.554   5.681
11158TIP3    H233420   8.208   6.428   5.597
11159TIP3   OH233421   1.420   0.775   0.640
11159TIP3    H133422   1.345   0.833   0.633
11159TIP3    H233423   1.417   0.742   0.730
11160TIP3   OH233424   1.337   3.919   6.322
11160TIP3    H133425   1.353   3.847   6.261
11160TIP3    H233426   1.415   3.974   6.314
11161TIP3   OH233427   1.615   1.634   5.185
11161TIP3    H133428   1.674   1.610   5.113
11161TIP3    H233429   1.649   1.718   5.217
11162TIP3   OH233430   6.541   0.436   4.339
11162TIP3    H133431   6.541   0.528   4.367
11162TIP3    H233432   6.576   0.389   4.414
11163TIP3   OH233433   8.153   2.506   0.155
11163TIP3    H133434   8.137   2.496   0.248
11163TIP3    H233435   8.130   2.421   0.117
11164TIP3   OH233436   0.795   2.618   6.703
11164TIP3    H133437   0.820   2.606   6.611
11164TIP3    H233438   0.834   2.543   6.748
11165TIP3   OH233439   6.563   5.277   2.451
11165TIP3    H133440   6.472   5.293   2.426
11165TIP3    H233441   6.602   5.235   2.374
11166TIP3   OH233442   8.114   6.220   3.004
11166TIP3    H133443   8.065   6.204   3.085
11166TIP3    H233444   8.077   6.160   2.940
11167TIP3   OH233445   7.197   7.149   6.442
11167TIP3    H133446   7.217   7.192   6.525
11167TIP3    H233447   7.259   7.075   6.438
11168TIP3   OH233448   7.607   3.402   5.087
11168TIP3    H133449   7.682   3.399   5.027
11168TIP3    H233450   7.644   3.388   5.174
11169TIP3   OH233451   1.024   6.030   3.891
11169TIP3    H133452   1.116   6.024   3.868
11169TIP3    H233453   0.979   5.973   3.829
11170TIP3   OH233454   6.844   0.374   4.850
11170TIP3    H133455   6.801   0.457   4.869
11170TIP3    H233456   6.933   0.399   4.824
11171TIP3   OH233457   0.759   6.717   3.184
11171TIP3    H133458   0.685   6.775   3.167
11171TIP3    H233459   0.723   6.629   3.177
11172TIP3   OH233460   7.551   5.547   5.352
11172TIP3    H133461   7.545   5.642   5.347
11172TIP3    H233462   7.460   5.518   5.357
11173TIP3   OH233463   8.213   1.789   3.977
11173TIP3    H133464   8.273   1.738   4.030
11173TIP3    H233465   8.270   1.838   3.917
11174TIP3   OH233466   3.366   6.520   5.769
11174TIP3    H133467   3.449   6.476   5.753
11174TIP3    H233468   3.314   6.457   5.819
11175TIP3   OH233469   8.297   6.134   0.899
11175TIP3    H133470   8.309   6.048   0.858
11175TIP3    H233471   8.289   6.194   0.825
11176TIP3   OH233472   3.787   3.680   2.543
11176TIP3    H133473   3.803   3.755   2.600
11176TIP3    H233474   3.694   3.685   2.522
11177TIP3   OH233475   5.729   1.259   5.843
11177TIP3    H133476   5.667   1.193   5.812
11177TIP3    H233477   5.785   1.278   5.768
11178TIP3   OH233478   3.105   5.137   3.945
11178TIP3    H133479   3.176   5.131   4.009
11178TIP3    H233480   3.049   5.062   3.964
11179TIP3   OH233481   6.841   7.330   4.372
11179TIP3    H133482   6.836   7.250   4.424
11179TIP3    H233483   6.929   7.364   4.389
11180TIP3   OH233484   0.859   2.998   6.678
11180TIP3    H133485   0.828   3.076   6.724
11180TIP3    H233486   0.862   2.930   6.745
11181TIP3   OH233487   5.574   2.561   5.692
11181TIP3    H133488   5.614   2.614   5.623
11181TIP3    H233489   5.632   2.572   5.768
11182TIP3   OH233490   1.231   6.636   3.792
11182TIP3    H133491   1.218   6.728   3.813
11182TIP3    H233492   1.287   6.636   3.715
11183TIP3   OH233493   4.764   1.185   3.276
11183TIP3    H133494   4.781   1.152   3.364
11183TIP3    H233495   4.801   1.119   3.218
11184TIP3   OH233496   8.013   6.371   3.950
11184TIP3    H133497   7.952   6.424   3.898
11184TIP3    H233498   8.099   6.406   3.928
11185TIP3   OH233499   5.869   4.070   0.918
11185TIP3    H133500   5.893   4.108   1.002
11185TIP3    H233501   5.953   4.051   0.876
11186TIP3   OH233502   5.857   4.256   1.202
11186TIP3    H133503   5.810   4.173   1.215
11186TIP3    H233504   5.841   4.305   1.283
11187TIP3   OH233505   7.524   4.386   4.733
11187TIP3    H133506   7.569   4.461   4.771
11187TIP3    H233507   7.502   4.331   4.808
11188TIP3   OH233508   0.648   0.513   4.943
11188TIP3    H133509   0.668   0.422   4.920
11188TIP3    H233510   0.680   0.564   4.868
11189TIP3   OH233511   7.941   7.615   1.892
11189TIP3    H133512   7.919   7.612   1.799
11189TIP3    H233513   8.022   7.565   1.899
11190TIP3   OH233514   0.140   5.552   0.984
11190TIP3    H133515   0.112   5.505   0.905
11190TIP3    H233516   0.113   5.642   0.970
11191TIP3   OH233517   5.835   3.944   4.162
11191TIP3    H133518   5.836   4.037   4.186
11191TIP3    H233519   5.758   3.909   4.207
11192TIP3   OH233520   4.192   2.016   4.139
11192TIP3    H133521   4.257   2.083   4.163
11192TIP3    H233522   4.112   2.043   4.184
11193TIP3   OH233523   6.677   4.176   2.866
11193TIP3    H133524   6.594   4.133   2.886
11193TIP3    H233525   6.666   4.266   2.897
11194TIP3   OH233526   0.981   5.381   3.570
11194TIP3    H133527   0.926   5.346   3.641
11194TIP3    H233528   0.965   5.322   3.497
11195TIP3   OH233529   4.058   1.841   2.561
11195TIP3    H133530   4.063   1.928   2.599
11195TIP3    H233531   4.137   1.796   2.592
11196TIP3   OH233532   5.443   5.081   1.349
11196TIP3    H133533   5.512   5.143   1.325
11196TIP3    H233534   5.490   4.999   1.366
11197TIP3   OH233535   3.276   2.813   1.482
11197TIP3    H133536   3.279   2.879   1.551
11197TIP3    H233537   3.366   2.807   1.450
11198TIP3   OH233538   2.683   4.370   0.669
11198TIP3    H133539   2.671   4.333   0.582
11198TIP3    H233540   2.708   4.296   0.724
11199TIP3   OH233541   0.427   2.125   5.880
11199TIP3    H133542   0.431   2.212   5.921
11199TIP3    H233543   0.517   2.107   5.853
11200TIP3   OH233544   5.608   5.966   2.033
11200TIP3    H133545   5.700   5.941   2.044
11200TIP3    H233546   5.612   6.055   1.996
11201TIP3   OH233547   4.085   6.035   5.594
11201TIP3    H133548   4.092   5.946   5.630
11201TIP3    H233549   4.056   6.022   5.504
11202TIP3   OH233550   5.702   1.208   5.545
11202TIP3    H133551   5.627   1.263   5.524
11202TIP3    H233552   5.777   1.256   5.510
11203TIP3   OH233553   1.772   4.077   2.164
11203TIP3    H133554   1.693   4.065   2.217
11203TIP3    H233555   1.797   3.988   2.139
11204TIP3   OH233556   6.549   1.755   6.311
11204TIP3    H133557   6.487   1.684   6.294
11204TIP3    H233558   6.514   1.829   6.263
11205TIP3   OH233559   2.358   4.906   3.150
11205TIP3    H133560   2.437   4.911   3.203
11205TIP3    H233561   2.329   4.815   3.159
11206TIP3   OH233562   4.575   6.227   3.309
11206TIP3    H133563   4.564   6.158   3.243
11206TIP3    H233564   4.568   6.309   3.260
11207TIP3   OH233565   5.178   7.157   0.842
11207TIP3    H133566   5.137   7.227   0.892
11207TIP3    H233567   5.272   7.169   0.855
11208TIP3   OH233568   5.885   1.438   1.982
11208TIP3    H133569   5.868   1.457   2.074
11208TIP3    H233570   5.801   1.452   1.938
11209TIP3   OH233571   0.393   1.827   0.834
11209TIP3    H133572   0.362   1.915   0.813
11209TIP3    H233573   0.393   1.824   0.929
11210TIP3   OH233574   7.666   5.182   3.623
11210TIP3    H133575   7.689   5.140   3.706
11210TIP3    H233576   7.572   5.199   3.630
11211TIP3   OH233577   4.033   6.333   6.181
11211TIP3    H133578   4.019   6.244   6.214
11211TIP3    H233579   4.056   6.321   6.089
11212TIP3   OH233580   6.159   1.170   4.115
11212TIP3    H133581   6.152   1.264   4.135
11212TIP3    H233582   6.215   1.167   4.038
11213TIP3   OH233583   3.523   7.675   1.221
11213TIP3    H133584   3.562   7.680   1.308
11213TIP3    H233585   3.450   7.613   1.231
11214TIP3   OH233586   8.224   1.860   2.112
11214TIP3    H133587   8.190   1.948   2.133
11214TIP3    H233588   8.236   1.861   2.017
11215TIP3   OH233589   1.186   0.488   6.646
11215TIP3    H133590   1.148   0.553   6.706
11215TIP3    H233591   1.248   0.439   6.700
11216TIP3   OH233592   7.937   1.087   2.824
11216TIP3    H133593   8.009   1.113   2.767
11216TIP3    H233594   7.969   1.010   2.870
11217TIP3   OH233595   7.198   6.655   1.270
11217TIP3    H133596   7.195   6.679   1.178
11217TIP3    H233597   7.131   6.588   1.281
11218TIP3   OH233598   3.619   6.174   4.459
11218TIP3    H133599   3.653   6.118   4.529
11218TIP3    H233600   3.554   6.120   4.415
11219TIP3   OH233601   7.441   7.433   3.013
11219TIP3    H133602   7.479   7.397   2.933
11219TIP3    H233603   7.505   7.415   3.081
11220TIP3   OH233604   4.398   2.105   2.803
11220TIP3    H133605   4.370   2.108   2.712
11220TIP3    H233606   4.487   2.069   2.801
11221TIP3   OH233607   2.913   0.973   0.120
11221TIP3    H133608   2.886   0.931   0.038
11221TIP3    H233609   2.991   1.022   0.097
11222TIP3   OH233610   7.054   3.640   3.320
11222TIP3    H133611   7.031   3.655   3.412
11222TIP3    H233612   6.969   3.637   3.276
11223TIP3   OH233613   5.795   2.098   0.357
11223TIP3    H133614   5.877   2.057   0.330
11223TIP3    H233615   5.782   2.069   0.447
11224TIP3   OH233616   6.344   3.926   3.279
11224TIP3    H133617   6.345   4.019   3.260
11224TIP3    H233618   6.420   3.911   3.335
11225TIP3   OH233619   0.725   3.551   2.891
11225TIP3    H133620   0.691   3.641   2.890
11225TIP3    H233621   0.681   3.508   2.817
11226TIP3   OH233622   5.292   1.714   1.584
11226TIP3    H133623   5.370   1.659   1.591
11226TIP3    H233624   5.222   1.664   1.626
11227TIP3   OH233625   1.219   5.407   3.704
11227TIP3    H133626   1.211   5.338   3.770
11227TIP3    H233627   1.128   5.426   3.679
11228TIP3   OH233628   5.816   1.450   2.256
11228TIP3    H133629   5.721   1.463   2.259
11228TIP3    H233630   5.847   1.472   2.344
11229TIP3   OH233631   5.498   3.178   5.009
11229TIP3    H133632   5.498   3.084   4.989
11229TIP3    H233633   5.414   3.208   4.975
11230TIP3   OH233634   1.000   5.085   6.448
11230TIP3    H133635   0.999   4.992   6.425
11230TIP3    H233636   0.943   5.126   6.384
11231TIP3   OH233637   4.820   0.032   4.434
11231TIP3    H133638   4.750   0.047   4.370
11231TIP3    H233639   4.863   0.118   4.442
11232TIP3   OH233640   5.350   4.568   0.831
11232TIP3    H133641   5.416   4.612   0.777
11232TIP3    H233642   5.396   4.495   0.871
11233TIP3   OH233643   7.341   5.487   2.257
11233TIP3    H133644   7.252   5.515   2.276
11233TIP3    H233645   7.344   5.396   2.285
11234TIP3   OH233646   1.964   2.338   2.213
11234TIP3    H133647   1.947   2.306   2.302
11234TIP3    H233648   1.973   2.433   2.223
11235TIP3   OH233649   5.052   1.295   1.828
11235TIP3    H133650   4.964   1.298   1.867
11235TIP3    H233651   5.111   1.299   1.903
11236TIP3   OH233652   2.015   4.323   6.042
11236TIP3    H133653   2.078   4.302   5.974
11236TIP3    H233654   1.963   4.243   6.053
11237TIP3   OH233655   3.186   0.951   6.715
11237TIP3    H133656   3.206   0.861   6.687
11237TIP3    H233657   3.269   0.985   6.748
11238TIP3   OH233658   1.555   6.152   2.082
11238TIP3    H133659   1.469   6.177   2.115
11238TIP3    H233660   1.600   6.114   2.157
11239TIP3   OH233661   4.070   7.423   6.319
11239TIP3    H133662   4.093   7.385   6.234
11239TIP3    H233663   4.134   7.385   6.380
11240TIP3   OH233664   5.012   6.353   4.197
11240TIP3    H133665   4.993   6.343   4.103
11240TIP3    H233666   4.928   6.344   4.240
11241TIP3   OH233667   7.505   2.068   6.027
11241TIP3    H133668   7.590   2.101   6.058
11241TIP3    H233669   7.520   1.975   6.010
11242TIP3   OH233670   5.113   0.313   6.734
11242TIP3    H133671   5.187   0.255   6.714
11242TIP3    H233672   5.121   0.384   6.672
11243TIP3   OH233673   2.365   5.284   3.986
11243TIP3    H133674   2.439   5.345   3.983
11243TIP3    H233675   2.386   5.225   4.059
11244TIP3   OH233676   4.368   3.656   4.449
11244TIP3    H133677   4.290   3.614   4.486
11244TIP3    H233678   4.334   3.729   4.398
11245TIP3   OH233679   3.183   3.367   1.607
11245TIP3    H133680   3.164   3.339   1.697
11245TIP3    H233681   3.139   3.303   1.552
11246TIP3   OH233682   0.171   6.920   5.869
11246TIP3    H133683   0.228   6.996   5.883
11246TIP3    H233684   0.219   6.865   5.808
11247TIP3   OH233685   7.738   7.279   0.931
11247TIP3    H133686   7.814   7.324   0.895
11247TIP3    H233687   7.740   7.298   1.024
11248TIP3   OH233688   4.272   6.530   3.010
11248TIP3    H133689   4.275   6.488   2.923
11248TIP3    H233690   4.205   6.598   3.001
11249TIP3   OH233691   7.672   2.730   0.715
11249TIP3    H133692   7.603   2.751   0.651
11249TIP3    H233693   7.629   2.743   0.800
11250TIP3   OH233694   7.853   0.123   0.960
11250TIP3    H133695   7.795   0.061   0.916
11250TIP3    H233696   7.931   0.128   0.905
11251TIP3   OH233697   5.387   6.780   5.209
11251TIP3    H133698   5.346   6.726   5.277
11251TIP3    H233699   5.341   6.755   5.129
11252TIP3   OH233700   4.866   2.920   3.182
11252TIP3    H133701   4.845   2.963   3.099
11252TIP3    H233702   4.835   2.830   3.172
11253TIP3   OH233703   5.629   0.849   0.118
11253TIP3    H133704   5.681   0.829   0.041
11253TIP3    H233705   5.693   0.852   0.190
11254TIP3   OH233706   2.389   1.035   3.078
11254TIP3    H133707   2.436   1.112   3.048
11254TIP3    H233708   2.328   1.015   3.007
11255TIP3   OH233709   2.139   5.154   1.869
11255TIP3    H133710   2.058   5.123   1.910
11255TIP3    H233711   2.195   5.077   1.866
11256TIP3   OH233712   1.986   3.226   4.918
11256TIP3    H133713   2.072   3.188   4.901
11256TIP3    H233714   1.924   3.167   4.875
11257TIP3   OH233715   8.107   1.711   1.323
11257TIP3    H133716   8.061   1.636   1.284
11257TIP3    H233717   8.057   1.787   1.294
11258TIP3   OH233718   4.045   5.031   2.804
11258TIP3    H133719   4.069   5.005   2.893
11258TIP3    H233720   4.017   4.950   2.762
11259TIP3   OH233721   2.392   4.342   3.724
11259TIP3    H133722   2.343   4.423   3.733
11259TIP3    H233723   2.439   4.333   3.807
11260TIP3   OH233724   0.551   7.618   3.585
11260TIP3    H133725   0.493   7.603   3.660
11260TIP3    H233726   0.502   7.679   3.530
11261TIP3   OH233727   2.163   4.971   0.360
11261TIP3    H133728   2.097   4.995   0.425
11261TIP3    H233729   2.139   4.882   0.333
11262TIP3   OH233730   3.376   6.278   3.185
11262TIP3    H133731   3.285   6.252   3.197
11262TIP3    H233732   3.427   6.212   3.231
11263TIP3   OH233733   1.471   5.644   2.760
11263TIP3    H133734   1.489   5.549   2.762
11263TIP3    H233735   1.412   5.656   2.685
11264TIP3   OH233736   6.957   0.376   3.932
11264TIP3    H133737   6.937   0.392   4.024
11264TIP3    H233738   6.912   0.447   3.885
11265TIP3   OH233739   2.664   0.102   5.697
11265TIP3    H133740   2.682   0.166   5.628
11265TIP3    H233741   2.584   0.134   5.739
11266TIP3   OH233742   5.191   4.460   5.290
11266TIP3    H133743   5.206   4.547   5.330
11266TIP3    H233744   5.202   4.399   5.363
11267TIP3   OH233745   4.412   0.451   0.195
11267TIP3    H133746   4.421   0.525   0.135
11267TIP3    H233747   4.355   0.483   0.265
11268TIP3   OH233748   0.570   0.690   3.798
11268TIP3    H133749   0.588   0.626   3.867
11268TIP3    H233750   0.531   0.764   3.844
11269TIP3   OH233751   0.923   7.207   0.766
11269TIP3    H133752   0.850   7.269   0.780
11269TIP3    H233753   0.929   7.198   0.671
11270TIP3   OH233754   3.094   3.151   3.150
11270TIP3    H133755   3.001   3.150   3.130
11270TIP3    H233756   3.100   3.114   3.238
11271TIP3   OH233757   3.570   5.750   0.635
11271TIP3    H133758   3.476   5.730   0.629
11271TIP3    H233759   3.602   5.694   0.706
11272TIP3   OH233760   1.825   5.962   1.270
11272TIP3    H133761   1.812   6.023   1.197
11272TIP3    H233762   1.885   5.896   1.236
11273TIP3   OH233763   3.473   1.176   3.023
11273TIP3    H133764   3.400   1.238   3.027
11273TIP3    H233765   3.497   1.172   2.930
11274TIP3   OH233766   1.254   7.209   2.564
11274TIP3    H133767   1.285   7.119   2.553
11274TIP3    H233768   1.189   7.220   2.494
11275TIP3   OH233769   2.143   0.083   3.956
11275TIP3    H133770   2.079   0.022   3.919
11275TIP3    H233771   2.204   0.027   4.004
11276TIP3   OH233772   7.530   4.697   2.356
11276TIP3    H133773   7.588   4.772   2.342
11276TIP3    H233774   7.579   4.622   2.322
11277TIP3   OH233775   7.647   6.780   3.555
11277TIP3    H133776   7.574   6.836   3.580
11277TIP3    H233777   7.707   6.784   3.630
11278TIP3   OH233778   4.078   0.890   4.754
11278TIP3    H133779   4.120   0.949   4.691
11278TIP3    H233780   4.079   0.804   4.711
11279TIP3   OH233781   2.988   4.037   3.186
11279TIP3    H133782   2.981   3.942   3.181
11279TIP3    H233783   3.024   4.054   3.273
11280TIP3   OH233784   1.393   1.982   2.677
11280TIP3    H133785   1.323   1.977   2.611
11280TIP3    H233786   1.471   1.950   2.631
11281TIP3   OH233787   2.620   0.016   2.285
11281TIP3    H133788   2.670   0.091   2.254
11281TIP3    H233789   2.561  -0.006   2.213
11282TIP3   OH233790   4.826   7.128   3.313
11282TIP3    H133791   4.851   7.049   3.265
11282TIP3    H233792   4.848   7.200   3.254
11283TIP3   OH233793   6.410   1.868   6.108
11283TIP3    H133794   6.425   1.957   6.141
11283TIP3    H233795   6.323   1.872   6.069
11284TIP3   OH233796   0.294   7.273   4.946
11284TIP3    H133797   0.281   7.214   4.872
11284TIP3    H233798   0.212   7.322   4.952
11285TIP3   OH233799   3.839   1.821   5.666
11285TIP3    H133800   3.880   1.894   5.619
11285TIP3    H233801   3.879   1.823   5.753
11286TIP3   OH233802   3.159   6.684   5.093
11286TIP3    H133803   3.241   6.704   5.049
11286TIP3    H233804   3.107   6.764   5.087
11287TIP3   OH233805   6.625   5.466   1.739
11287TIP3    H133806   6.554   5.531   1.745
11287TIP3    H233807   6.685   5.491   1.809
11288TIP3   OH233808   5.115   2.848   1.286
11288TIP3    H133809   5.057   2.895   1.226
11288TIP3    H233810   5.203   2.860   1.248
11289TIP3   OH233811   7.960   0.241   3.128
11289TIP3    H133812   7.892   0.175   3.136
11289TIP3    H233813   7.977   0.247   3.034
11290TIP3   OH233814   7.518   5.757   6.449
11290TIP3    H133815   7.538   5.664   6.434
11290TIP3    H233816   7.521   5.767   6.544
11291TIP3   OH233817   4.059   1.548   6.115
11291TIP3    H133818   4.140   1.557   6.065
11291TIP3    H233819   3.989   1.562   6.051
11292TIP3   OH233820   3.055   3.581   2.876
11292TIP3    H133821   2.988   3.524   2.839
11292TIP3    H233822   3.101   3.616   2.799
11293TIP3   OH233823   7.411   2.567   0.828
11293TIP3    H133824   7.482   2.625   0.857
11293TIP3    H233825   7.408   2.579   0.733
11294TIP3   OH233826   1.257   7.752   3.209
11294TIP3    H133827   1.166   7.778   3.223
11294TIP3    H233828   1.255   7.656   3.211
11295TIP3   OH233829   4.014   7.391   3.645
11295TIP3    H133830   3.958   7.345   3.582
11295TIP3    H233831   4.038   7.325   3.709
11296TIP3   OH233832   5.836   3.173   2.728
11296TIP3    H133833   5.879   3.107   2.674
11296TIP3    H233834   5.859   3.148   2.818
11297TIP3   OH233835   6.217   1.572   0.416
11297TIP3    H133836   6.269   1.600   0.492
11297TIP3    H233837   6.247   1.630   0.345
11298TIP3   OH233838   1.396   0.221   0.797
11298TIP3    H133839   1.368   0.252   0.883
11298TIP3    H233840   1.430   0.133   0.813
11299TIP3   OH233841   8.125   3.203   3.680
11299TIP3    H133842   8.208   3.234   3.646
11299TIP3    H233843   8.068   3.280   3.678
11300TIP3   OH233844   7.007   7.064   3.810
11300TIP3    H133845   7.010   6.977   3.848
11300TIP3    H233846   6.999   7.123   3.885
11301TIP3   OH233847   3.603   0.095   5.314
11301TIP3    H133848   3.535   0.043   5.356
11301TIP3    H233849   3.645   0.035   5.253
11302TIP3   OH233850   0.425   3.140   2.114
11302TIP3    H133851   0.365   3.069   2.137
11302TIP3    H233852   0.414   3.151   2.019
11303TIP3   OH233853   4.310   4.889   4.498
11303TIP3    H133854   4.283   4.842   4.419
11303TIP3    H233855   4.335   4.976   4.467
11304TIP3   OH233856   4.683   7.209   1.658
11304TIP3    H133857   4.740   7.279   1.627
11304TIP3    H233858   4.701   7.135   1.601
11305TIP3   OH233859   6.847   0.980   3.038
11305TIP3    H133860   6.929   1.028   3.052
11305TIP3    H233861   6.860   0.934   2.955
11306TIP3   OH233862   1.937   7.760   1.006
11306TIP3    H133863   1.871   7.691   1.016
11306TIP3    H233864   1.974   7.744   0.919
11307TIP3   OH233865   6.378   4.844   2.787
11307TIP3    H133866   6.467   4.821   2.813
11307TIP3    H233867   6.389   4.908   2.717
11308TIP3   OH233868   0.108   4.124   1.136
11308TIP3    H133869   0.079   4.127   1.227
11308TIP3    H233870   0.058   4.193   1.092
11309TIP3   OH233871   5.464   3.688   2.202
11309TIP3    H133872   5.386   3.679   2.257
11309TIP3    H233873   5.433   3.673   2.113
11310TIP3   OH233874   2.286   4.461   5.974
11310TIP3    H133875   2.202   4.414   5.972
11310TIP3    H233876   2.333   4.429   5.897
11311TIP3   OH233877   1.755   1.499   0.239
11311TIP3    H133878   1.772   1.576   0.292
11311TIP3    H233879   1.803   1.428   0.282
11312TIP3   OH233880   1.225   4.314   1.534
11312TIP3    H133881   1.300   4.289   1.481
11312TIP3    H233882   1.206   4.404   1.509
11313TIP3   OH233883   2.934   4.869   2.366
11313TIP3    H133884   3.014   4.907   2.331
11313TIP3    H233885   2.953   4.776   2.376
11314TIP3   OH233886   0.890   3.793   0.083
11314TIP3    H133887   0.954   3.861   0.105
11314TIP3    H233888   0.933   3.711   0.108
11315TIP3   OH233889   2.055   7.218   6.494
11315TIP3    H133890   1.989   7.208   6.426
11315TIP3    H233891   2.103   7.135   6.493
11316TIP3   OH233892   3.899   7.513   5.364
11316TIP3    H133893   3.915   7.464   5.444
11316TIP3    H233894   3.918   7.604   5.387
11317TIP3   OH233895   4.891   7.008   5.683
11317TIP3    H133896   4.832   6.942   5.718
11317TIP3    H233897   4.909   7.066   5.757
11318TIP3   OH233898   3.072   7.744   5.185
11318TIP3    H133899   3.011   7.761   5.113
11318TIP3    H233900   3.146   7.802   5.168
11319TIP3   OH233901   1.552   3.394   5.172
11319TIP3    H133902   1.632   3.371   5.219
11319TIP3    H233903   1.533   3.318   5.118
11320TIP3   OH233904   0.480   7.808   5.670
11320TIP3    H133905   0.459   7.773   5.756
11320TIP3    H233906   0.395   7.812   5.625
11321TIP3   OH233907   5.304   4.093   4.910
11321TIP3    H133908   5.333   4.116   4.999
11321TIP3    H233909   5.332   4.167   4.856
11322TIP3   OH233910   4.297   3.037   0.526
11322TIP3    H133911   4.216   3.027   0.576
11322TIP3    H233912   4.362   2.987   0.575
11323TIP3   OH233913   3.099   5.585   2.589
11323TIP3    H133914   3.037   5.561   2.520
11323TIP3    H233915   3.054   5.562   2.670
11324TIP3   OH233916   1.232   1.109   2.626
11324TIP3    H133917   1.158   1.158   2.662
11324TIP3    H233918   1.235   1.135   2.534
11325TIP3   OH233919   4.905   2.095   5.081
11325TIP3    H133920   4.909   2.007   5.120
11325TIP3    H233921   4.996   2.122   5.074
11326TIP3   OH233922   6.011   2.526   2.074
11326TIP3    H133923   6.092   2.561   2.036
11326TIP3    H233924   6.010   2.434   2.048
11327TIP3   OH233925   5.945   3.581   6.633
11327TIP3    H133926   5.946   3.526   6.711
11327TIP3    H233927   5.922   3.521   6.562
11328TIP3   OH233928   2.667   4.864   2.076
11328TIP3    H133929   2.596   4.872   2.140
11328TIP3    H233930   2.731   4.929   2.103
11329TIP3   OH233931   3.972   1.785   0.333
11329TIP3    H133932   3.990   1.736   0.413
11329TIP3    H233933   4.006   1.873   0.349
11330TIP3   OH233934   7.064   0.304   2.268
11330TIP3    H133935   7.052   0.209   2.264
11330TIP3    H233936   7.006   0.338   2.200
11331TIP3   OH233937   3.936   0.840   3.647
11331TIP3    H133938   3.978   0.908   3.700
11331TIP3    H233939   3.942   0.873   3.557
11332TIP3   OH233940   7.433   0.614   6.329
11332TIP3    H133941   7.451   0.528   6.292
11332TIP3    H233942   7.477   0.675   6.269
11333TIP3   OH233943   6.635   3.509   5.690
11333TIP3    H133944   6.683   3.555   5.621
11333TIP3    H233945   6.702   3.467   5.743
11334TIP3   OH233946   0.082   5.200   1.264
11334TIP3    H133947   0.132   5.126   1.297
11334TIP3    H233948   0.146   5.271   1.257
11335TIP3   OH233949   0.708   6.657   1.312
11335TIP3    H133950   0.629   6.704   1.285
11335TIP3    H233951   0.680   6.565   1.316
11336TIP3   OH233952   4.227   7.590   5.789
11336TIP3    H133953   4.200   7.595   5.881
11336TIP3    H233954   4.235   7.681   5.761
11337TIP3   OH233955   4.969   7.777   3.576
11337TIP3    H133956   4.996   7.685   3.564
11337TIP3    H233957   5.008   7.803   3.659
11338TIP3   OH233958   7.771   2.413   1.301
11338TIP3    H133959   7.840   2.348   1.286
11338TIP3    H233960   7.709   2.370   1.359
11339TIP3   OH233961   4.451   7.641   0.252
11339TIP3    H133962   4.449   7.565   0.310
11339TIP3    H233963   4.362   7.676   0.254
11340TIP3   OH233964   4.183   2.976   3.107
11340TIP3    H133965   4.253   2.956   3.046
11340TIP3    H233966   4.147   3.059   3.077
11341TIP3   OH233967   0.566   4.003   2.485
11341TIP3    H133968   0.594   4.082   2.438
11341TIP3    H233969   0.492   3.970   2.434
11342TIP3   OH233970   5.550   1.111   0.102
11342TIP3    H133971   5.578   1.114   0.011
11342TIP3    H233972   5.556   1.018   0.126
11343TIP3   OH233973   5.920   7.189   2.987
11343TIP3    H133974   5.964   7.186   3.071
11343TIP3    H233975   5.973   7.133   2.929
11344TIP3   OH233976   0.559   1.536   5.697
11344TIP3    H133977   0.615   1.609   5.722
11344TIP3    H233978   0.534   1.495   5.779
11345TIP3   OH233979   5.833   1.645   4.091
11345TIP3    H133980   5.881   1.606   4.019
11345TIP3    H233981   5.821   1.736   4.066
11346TIP3   OH233982   6.522   6.229   6.458
11346TIP3    H133983   6.487   6.291   6.394
11346TIP3    H233984   6.502   6.268   6.543
11347TIP3   OH233985   3.179   3.721   2.659
11347TIP3    H133986   3.097   3.722   2.609
11347TIP3    H233987   3.248   3.727   2.593
11348TIP3   OH233988   0.877   3.330   0.024
11348TIP3    H133989   0.796   3.284   0.003
11348TIP3    H233990   0.928   3.267   0.076
11349TIP3   OH233991   3.894   7.526   1.969
11349TIP3    H133992   3.867   7.434   1.974
11349TIP3    H233993   3.987   7.522   1.947
11350TIP3   OH233994   7.367   2.208   0.389
11350TIP3    H133995   7.317   2.199   0.308
11350TIP3    H233996   7.441   2.148   0.379
11351TIP3   OH233997   8.288   1.057   1.882
11351TIP3    H133998   8.214   1.001   1.857
11351TIP3    H233999   8.262   1.145   1.855
11352TIP3   OH234000   1.256   4.819   5.265
11352TIP3    H134001   1.212   4.804   5.349
11352TIP3    H234002   1.340   4.773   5.275
11353TIP3   OH234003   8.011   0.363   2.858
11353TIP3    H134004   7.953   0.327   2.790
11353TIP3    H234005   8.063   0.429   2.813
11354TIP3   OH234006   0.555   3.681   1.245
11354TIP3    H134007   0.505   3.692   1.326
11354TIP3    H234008   0.612   3.758   1.241
11355TIP3   OH234009   2.710   0.945   3.422
11355TIP3    H134010   2.783   0.896   3.459
11355TIP3    H234011   2.688   1.009   3.489
11356TIP3   OH234012   4.244   6.471   0.026
11356TIP3    H134013   4.158   6.471   0.068
11356TIP3    H234014   4.230   6.512  -0.059
11357TIP3   OH234015   5.205   6.918   2.108
11357TIP3    H134016   5.210   6.992   2.047
11357TIP3    H234017   5.113   6.915   2.135
11358TIP3   OH234018   3.334   5.277   0.853
11358TIP3    H134019   3.324   5.294   0.947
11358TIP3    H234020   3.381   5.354   0.821
11359TIP3   OH234021   5.526   4.896   5.083
11359TIP3    H134022   5.520   4.977   5.134
11359TIP3    H234023   5.437   4.861   5.083
11360TIP3   OH234024   6.668   7.706   0.557
11360TIP3    H134025   6.690   7.628   0.607
11360TIP3    H234026   6.752   7.749   0.541
11361TIP3   OH234027   1.066   5.998   1.744
11361TIP3    H134028   1.151   6.020   1.782
11361TIP3    H234029   1.074   5.905   1.721
11362TIP3   OH234030   6.458   6.655   5.975
11362TIP3    H134031   6.383   6.625   6.027
11362TIP3    H234032   6.487   6.577   5.928
11363TIP3   OH234033   5.681   7.300   4.683
11363TIP3    H134034   5.699   7.384   4.725
11363TIP3    H234035   5.609   7.319   4.622
11364TIP3   OH234036   1.619   1.264  -0.017
11364TIP3    H134037   1.631   1.319   0.060
11364TIP3    H234038   1.591   1.179   0.018
11365TIP3   OH234039   7.789   6.364   6.681
11365TIP3    H134040   7.751   6.447   6.655
11365TIP3    H234041   7.872   6.359   6.634
11366TIP3   OH234042   5.663   2.480   2.036
11366TIP3    H134043   5.618   2.430   1.968
11366TIP3    H234044   5.684   2.564   1.995
11367TIP3   OH234045   0.371   7.756   5.929
11367TIP3    H134046   0.318   7.714   5.998
11367TIP3    H234047   0.312   7.819   5.889
11368TIP3   OH234048   7.369   6.694   2.612
11368TIP3    H134049   7.439   6.749   2.646
11368TIP3    H234050   7.290   6.749   2.620
11369TIP3   OH234051   1.384   3.561   2.794
11369TIP3    H134052   1.439   3.495   2.837
11369TIP3    H234053   1.404   3.642   2.840
11370TIP3   OH234054   1.135   3.736   5.026
11370TIP3    H134055   1.109   3.704   5.112
11370TIP3    H234056   1.225   3.768   5.038
11371TIP3   OH234057   1.098   2.437   6.442
11371TIP3    H134058   1.043   2.381   6.497
11371TIP3    H234059   1.179   2.387   6.430
11372TIP3   OH234060   1.629   3.201   0.073
11372TIP3    H134061   1.713   3.170   0.038
11372TIP3    H234062   1.651   3.236   0.159
11373TIP3   OH234063   6.391   6.330   2.196
11373TIP3    H134064   6.312   6.277   2.191
11373TIP3    H234065   6.363   6.418   2.170
11374TIP3   OH234066   5.241   5.666   2.624
11374TIP3    H134067   5.287   5.709   2.553
11374TIP3    H234068   5.212   5.737   2.681
11375TIP3   OH234069   8.248   5.121   4.493
11375TIP3    H134070   8.266   5.050   4.432
11375TIP3    H234071   8.156   5.143   4.478
11376TIP3   OH234072   0.897   3.034   0.354
11376TIP3    H134073   0.969   2.987   0.395
11376TIP3    H234074   0.827   2.968   0.346
11377TIP3   OH234075   3.017   2.183   1.048
11377TIP3    H134076   3.095   2.202   1.100
11377TIP3    H234077   2.976   2.108   1.093
11378TIP3   OH234078   1.405   7.382   2.932
11378TIP3    H134079   1.469   7.354   2.998
11378TIP3    H234080   1.441   7.352   2.849
11379TIP3   OH234081   5.317   7.806   0.805
11379TIP3    H134082   5.410   7.784   0.800
11379TIP3    H234083   5.277   7.730   0.846
11380TIP3   OH234084   6.399   3.664   3.767
11380TIP3    H134085   6.376   3.606   3.841
11380TIP3    H234086   6.459   3.612   3.714
11381TIP3   OH234087   0.080   4.132   0.165
11381TIP3    H134088   0.122   4.200   0.216
11381TIP3    H234089  -0.011   4.162   0.155
11382TIP3   OH234090   5.323   1.181   3.622
11382TIP3    H134091   5.289   1.192   3.711
11382TIP3    H234092   5.315   1.268   3.583
11383TIP3   OH234093   1.365   0.028   1.542
11383TIP3    H134094   1.382  -0.050   1.490
11383TIP3    H234095   1.319  -0.003   1.619
11384TIP3   OH234096   1.532   5.734   6.007
11384TIP3    H134097   1.554   5.717   5.915
11384TIP3    H234098   1.474   5.661   6.031
11385TIP3   OH234099   0.209   0.922   2.809
11385TIP3    H134100   0.189   1.011   2.779
11385TIP3    H234101   0.128   0.892   2.850
11386TIP3   OH234102   8.027   1.985   5.211
11386TIP3    H134103   8.048   1.896   5.240
11386TIP3    H234104   7.982   1.973   5.128
11387TIP3   OH234105   7.303   5.800   0.728
11387TIP3    H134106   7.308   5.754   0.644
11387TIP3    H234107   7.217   5.841   0.728
11388TIP3   OH234108   5.354   1.521   2.646
11388TIP3    H134109   5.297   1.513   2.570
11388TIP3    H234110   5.293   1.526   2.720
11389TIP3   OH234111   8.143   4.918   3.491
11389TIP3    H134112   8.220   4.949   3.539
11389TIP3    H234113   8.166   4.930   3.399
11390TIP3   OH234114   7.981   2.213   3.775
11390TIP3    H134115   7.892   2.215   3.811
11390TIP3    H234116   7.982   2.139   3.715
11391TIP3   OH234117   6.123   0.678   5.261
11391TIP3    H134118   6.147   0.596   5.303
11391TIP3    H234119   6.165   0.675   5.175
11392TIP3   OH234120   8.242   2.864   2.058
11392TIP3    H134121   8.191   2.784   2.070
11392TIP3    H234122   8.247   2.902   2.146
11393TIP3   OH234123   7.376   2.689   4.029
11393TIP3    H134124   7.308   2.654   3.970
11393TIP3    H234125   7.399   2.773   3.991
11394TIP3   OH234126   1.288   3.500   3.906
11394TIP3    H134127   1.299   3.436   3.976
11394TIP3    H234128   1.362   3.559   3.915
11395TIP3   OH234129   0.461   7.528   4.285
11395TIP3    H134130   0.397   7.462   4.312
11395TIP3    H234131   0.427   7.610   4.322
11396TIP3   OH234132   7.564   6.711   0.900
11396TIP3    H134133   7.491   6.736   0.844
11396TIP3    H234134   7.639   6.758   0.864
11397TIP3   OH234135   6.355   2.965   1.264
11397TIP3    H134136   6.326   3.031   1.201
11397TIP3    H234137   6.324   2.882   1.229
11398TIP3   OH234138   4.216   0.771   6.618
11398TIP3    H134139   4.170   0.764   6.534
11398TIP3    H234140   4.163   0.719   6.678
11399TIP3   OH234141   2.030   1.924   2.138
11399TIP3    H134142   1.959   1.946   2.197
11399TIP3    H234143   2.071   1.846   2.176
11400TIP3   OH234144   1.665   7.504   5.346
11400TIP3    H134145   1.671   7.413   5.375
11400TIP3    H234146   1.715   7.553   5.411
11401TIP3   OH234147   0.902   3.925   1.715
11401TIP3    H134148   0.888   3.861   1.645
11401TIP3    H234149   0.981   3.895   1.760
11402TIP3   OH234150   2.043   3.121   6.610
11402TIP3    H134151   1.983   3.048   6.596
11402TIP3    H234152   1.991   3.199   6.589
11403TIP3   OH234153   3.831   7.145   4.103
11403TIP3    H134154   3.925   7.125   4.095
11403TIP3    H234155   3.819   7.224   4.051
11404TIP3   OH234156   6.508   0.413   5.566
11404TIP3    H134157   6.469   0.485   5.516
11404TIP3    H234158   6.456   0.409   5.646
11405TIP3   OH234159   6.110   5.766   2.743
11405TIP3    H134160   6.029   5.770   2.794
11405TIP3    H234161   6.115   5.675   2.713
11406TIP3   OH234162   0.271   3.894   6.568
11406TIP3    H134163   0.322   3.819   6.537
11406TIP3    H234164   0.309   3.916   6.653
11407TIP3   OH234165   5.771   5.488   1.654
11407TIP3    H134166   5.748   5.581   1.660
11407TIP3    H234167   5.838   5.485   1.585
11408TIP3   OH234168   4.317   5.770   0.824
11408TIP3    H134169   4.286   5.721   0.900
11408TIP3    H234170   4.274   5.729   0.749
11409TIP3   OH234171   6.367   6.232   1.098
11409TIP3    H134172   6.413   6.251   1.016
11409TIP3    H234173   6.334   6.318   1.127
11410TIP3   OH234174   0.207   2.767   5.556
11410TIP3    H134175   0.256   2.849   5.563
11410TIP3    H234176   0.201   2.750   5.462
11411TIP3   OH234177   2.784   6.544   4.778
11411TIP3    H134178   2.832   6.474   4.734
11411TIP3    H234179   2.851   6.594   4.825
11412TIP3   OH234180   0.699   4.230   2.636
11412TIP3    H134181   0.718   4.136   2.635
11412TIP3    H234182   0.663   4.249   2.550
11413TIP3   OH234183   3.430   0.587   0.820
11413TIP3    H134184   3.403   0.496   0.832
11413TIP3    H234185   3.475   0.588   0.736
11414TIP3   OH234186   7.156   0.293   6.189
11414TIP3    H134187   7.200   0.341   6.119
11414TIP3    H234188   7.067   0.327   6.189
11415TIP3   OH234189   2.597   1.031   1.642
11415TIP3    H134190   2.669   1.054   1.700
11415TIP3    H234191   2.518   1.064   1.686
11416TIP3   OH234192   6.540   2.923   0.675
11416TIP3    H134193   6.457   2.905   0.719
11416TIP3    H234194   6.605   2.871   0.723
11417TIP3   OH234195   6.151   5.025   5.507
11417TIP3    H134196   6.217   5.042   5.439
11417TIP3    H234197   6.195   5.046   5.589
11418TIP3   OH234198   3.953   7.531   4.299
11418TIP3    H134199   3.940   7.626   4.297
11418TIP3    H234200   3.871   7.497   4.335
11419TIP3   OH234201   0.441   5.953   5.306
11419TIP3    H134202   0.400   6.037   5.285
11419TIP3    H234203   0.535   5.971   5.307
11420TIP3   OH234204   0.773   6.919   0.564
11420TIP3    H134205   0.782   6.930   0.659
11420TIP3    H234206   0.764   6.825   0.551
11421TIP3   OH234207   7.571   7.596   0.037
11421TIP3    H134208   7.477   7.584   0.052
11421TIP3    H234209   7.603   7.510   0.011
11422TIP3   OH234210   0.479   5.431   5.117
11422TIP3    H134211   0.406   5.375   5.093
11422TIP3    H234212   0.491   5.416   5.211
11423TIP3   OH234213   4.478   6.660   6.025
11423TIP3    H134214   4.569   6.662   5.996
11423TIP3    H234215   4.438   6.590   5.974
11424TIP3   OH234216   5.821   5.092   1.876
11424TIP3    H134217   5.742   5.121   1.830
11424TIP3    H234218   5.788   5.032   1.943
11425TIP3   OH234219   5.974   5.297   6.417
11425TIP3    H134220   6.012   5.314   6.503
11425TIP3    H234221   5.918   5.372   6.399
11426TIP3   OH234222   0.355   6.176   5.127
11426TIP3    H134223   0.278   6.166   5.071
11426TIP3    H234224   0.426   6.132   5.080
11427TIP3   OH234225   6.525   2.078   1.419
11427TIP3    H134226   6.530   2.018   1.493
11427TIP3    H234227   6.451   2.046   1.367
11428TIP3   OH234228   0.930   0.141   2.489
11428TIP3    H134229   0.938   0.212   2.552
11428TIP3    H234230   0.845   0.155   2.447
11429TIP3   OH234231   1.440   1.948   6.321
11429TIP3    H134232   1.384   1.939   6.398
11429TIP3    H234233   1.518   1.993   6.352
11430TIP3   OH234234   4.377   0.806   1.243
11430TIP3    H134235   4.394   0.843   1.330
11430TIP3    H234236   4.448   0.838   1.188
11431TIP3   OH234237   0.189   1.139   4.494
11431TIP3    H134238   0.133   1.176   4.426
11431TIP3    H234239   0.183   1.044   4.482
11432TIP3   OH234240   7.424   6.018   4.681
11432TIP3    H134241   7.512   6.048   4.658
11432TIP3    H234242   7.367   6.092   4.660
11433TIP3   OH234243   1.534   5.036   1.726
11433TIP3    H134244   1.470   5.037   1.797
11433TIP3    H234245   1.483   5.054   1.647
11434TIP3   OH234246   5.465   2.652   5.075
11434TIP3    H134247   5.489   2.597   5.000
11434TIP3    H234248   5.503   2.608   5.150
11435TIP3   OH234249   0.144   4.141   0.744
11435TIP3    H134250   0.116   4.052   0.724
11435TIP3    H234251   0.084   4.171   0.812
11436TIP3   OH234252   0.525  -0.003   0.246
11436TIP3    H134253   0.567  -0.043   0.322
11436TIP3    H234254   0.561   0.086   0.243
11437TIP3   OH234255   0.937   3.398   1.477
11437TIP3    H134256   0.981   3.467   1.427
11437TIP3    H234257   0.854   3.437   1.503
11438TIP3   OH234258   2.059   0.156   0.563
11438TIP3    H134259   2.101   0.077   0.598
11438TIP3    H234260   2.055   0.216   0.637
11439TIP3   OH234261   3.296   5.654   0.541
11439TIP3    H134262   3.248   5.576   0.570
11439TIP3    H234263   3.230   5.724   0.542
11440TIP3   OH234264   5.095   4.601   0.742
11440TIP3    H134265   5.069   4.631   0.829
11440TIP3    H234266   5.188   4.580   0.751
11441TIP3   OH234267   2.274   3.653   5.266
11441TIP3    H134268   2.317   3.575   5.301
11441TIP3    H234269   2.345   3.705   5.229
11442TIP3   OH234270   6.500   3.953   6.304
11442TIP3    H134271   6.483   4.033   6.353
11442TIP3    H234272   6.589   3.964   6.270
11443TIP3   OH234273   0.190   4.350   3.589
11443TIP3    H134274   0.137   4.415   3.636
11443TIP3    H234275   0.268   4.399   3.561
11444TIP3   OH234276   5.544   1.887   6.473
11444TIP3    H134277   5.529   1.886   6.567
11444TIP3    H234278   5.506   1.805   6.441
11445TIP3   OH234279   7.422   0.076   1.530
11445TIP3    H134280   7.509   0.084   1.570
11445TIP3    H234281   7.439   0.031   1.447
11446TIP3   OH234282   7.613   0.440   2.165
11446TIP3    H134283   7.559   0.518   2.149
11446TIP3    H234284   7.579   0.404   2.246
11447TIP3   OH234285   1.448   1.147   2.831
11447TIP3    H134286   1.379   1.165   2.768
11447TIP3    H234287   1.528   1.176   2.788
11448TIP3   OH234288   7.699   5.474   5.885
11448TIP3    H134289   7.666   5.412   5.950
11448TIP3    H234290   7.662   5.558   5.911
11449TIP3   OH234291   4.032   0.929   3.101
11449TIP3    H134292   4.107   0.935   3.042
11449TIP3    H234293   4.051   0.993   3.170
11450TIP3   OH234294   0.195   0.375   6.348
11450TIP3    H134295   0.126   0.324   6.305
11450TIP3    H234296   0.184   0.463   6.313
11451TIP3   OH234297   5.901   3.666   2.218
11451TIP3    H134298   5.894   3.582   2.172
11451TIP3    H234299   5.987   3.664   2.259
11452TIP3   OH234300   5.603   6.819   2.378
11452TIP3    H134301   5.512   6.848   2.375
11452TIP3    H234302   5.608   6.767   2.459
11453TIP3   OH234303   8.048   1.450   5.808
11453TIP3    H134304   7.989   1.522   5.784
11453TIP3    H234305   8.136   1.485   5.793
11454TIP3   OH234306   2.565   6.850   4.908
11454TIP3    H134307   2.554   6.758   4.887
11454TIP3    H234308   2.476   6.884   4.913
11455TIP3   OH234309   6.436   2.169   3.472
11455TIP3    H134310   6.395   2.083   3.462
11455TIP3    H234311   6.374   2.220   3.525
11456TIP3   OH234312   5.256   6.197   0.130
11456TIP3    H134313   5.257   6.156   0.044
11456TIP3    H234314   5.340   6.172   0.169
11457TIP3   OH234315   7.751   0.865   5.839
11457TIP3    H134316   7.757   0.781   5.793
11457TIP3    H234317   7.663   0.865   5.877
11458TIP3   OH234318   6.718   7.094   3.375
11458TIP3    H134319   6.726   7.181   3.336
11458TIP3    H234320   6.662   7.107   3.451
11459TIP3   OH234321   1.912   5.010   2.747
11459TIP3    H134322   1.919   4.926   2.700
11459TIP3    H234323   1.938   4.990   2.837
11460TIP3   OH234324   1.519   5.252   0.473
11460TIP3    H134325   1.433   5.225   0.442
11460TIP3    H234326   1.565   5.282   0.394
11461TIP3   OH234327   4.688   7.645   6.503
11461TIP3    H134328   4.753   7.714   6.488
11461TIP3    H234329   4.620   7.663   6.438
11462TIP3   OH234330   0.955   1.717   4.562
11462TIP3    H134331   0.902   1.667   4.500
11462TIP3    H234332   0.978   1.654   4.630
11463TIP3   OH234333   6.290   2.025   1.307
11463TIP3    H134334   6.269   1.972   1.230
11463TIP3    H234335   6.208   2.068   1.330
11464TIP3   OH234336   8.306   4.209   6.366
11464TIP3    H134337   8.399   4.193   6.381
11464TIP3    H234338   8.269   4.218   6.454
11465TIP3   OH234339   0.509   3.574   2.407
11465TIP3    H134340   0.507   3.479   2.404
11465TIP3    H234341   0.508   3.601   2.315
11466TIP3   OH234342   1.147   4.592   0.395
11466TIP3    H134343   1.164   4.502   0.370
11466TIP3    H234344   1.191   4.644   0.328
11467TIP3   OH234345   2.349   2.776   6.339
11467TIP3    H134346   2.375   2.808   6.253
11467TIP3    H234347   2.405   2.823   6.400
11468TIP3   OH234348   4.136   0.255   2.905
11468TIP3    H134349   4.045   0.280   2.919
11468TIP3    H234350   4.187   0.333   2.927
11469TIP3   OH234351   3.670   1.776   3.801
11469TIP3    H134352   3.652   1.852   3.746
11469TIP3    H234353   3.591   1.767   3.856
11470TIP3   OH234354   3.237   2.532   0.549
11470TIP3    H134355   3.205   2.444   0.569
11470TIP3    H234356   3.256   2.570   0.635
11471TIP3   OH234357   4.658   1.787   3.500
11471TIP3    H134358   4.566   1.762   3.489
11471TIP3    H234359   4.702   1.706   3.526
11472TIP3   OH234360   2.386   2.957   3.623
11472TIP3    H134361   2.452   2.962   3.693
11472TIP3    H234362   2.367   2.864   3.614
11473TIP3   OH234363   2.152   5.891   2.817
11473TIP3    H134364   2.102   5.973   2.813
11473TIP3    H234365   2.243   5.919   2.824
11474TIP3   OH234366   0.021   1.291   5.222
11474TIP3    H134367  -0.057   1.236   5.217
11474TIP3    H234368   0.079   1.244   5.283
11475TIP3   OH234369   7.076   5.634   1.493
11475TIP3    H134370   7.084   5.679   1.577
11475TIP3    H234371   6.992   5.589   1.499
11476TIP3   OH234372   1.748   6.488   0.148
11476TIP3    H134373   1.784   6.400   0.148
11476TIP3    H234374   1.693   6.492   0.226
11477TIP3   OH234375   5.878   1.070   2.009
11477TIP3    H134376   5.871   0.981   1.975
11477TIP3    H234377   5.959   1.070   2.060
11478TIP3   OH234378   2.633   4.368   1.433
11478TIP3    H134379   2.662   4.439   1.490
11478TIP3    H234380   2.683   4.382   1.352
11479TIP3   OH234381   5.448   6.004   4.442
11479TIP3    H134382   5.476   5.973   4.528
11479TIP3    H234383   5.370   6.057   4.460
11480TIP3   OH234384   2.236   1.955   1.347
11480TIP3    H134385   2.188   1.873   1.332
11480TIP3    H234386   2.319   1.942   1.302
11481TIP3   OH234387   1.050   5.509   3.062
11481TIP3    H134388   0.973   5.471   3.018
11481TIP3    H234389   1.101   5.433   3.090
11482TIP3   OH234390   4.027   1.136   6.099
11482TIP3    H134391   3.948   1.150   6.046
11482TIP3    H234392   4.092   1.195   6.061
11483TIP3   OH234393   0.868   5.724   0.476
11483TIP3    H134394   0.849   5.631   0.483
11483TIP3    H234395   0.937   5.730   0.409
11484TIP3   OH234396   2.150   3.061   3.503
11484TIP3    H134397   2.191   3.095   3.423
11484TIP3    H234398   2.224   3.043   3.562
11485TIP3   OH234399   6.498   6.154   2.379
11485TIP3    H134400   6.416   6.105   2.379
11485TIP3    H234401   6.483   6.225   2.317
11486TIP3   OH234402   2.498   0.473   4.599
11486TIP3    H134403   2.543   0.398   4.639
11486TIP3    H234404   2.420   0.435   4.558
11487TIP3   OH234405   5.605   7.286   5.453
11487TIP3    H134406   5.592   7.214   5.514
11487TIP3    H234407   5.592   7.247   5.366
11488TIP3   OH234408   1.317   0.623   6.405
11488TIP3    H134409   1.290   0.581   6.487
11488TIP3    H234410   1.294   0.560   6.337
11489TIP3   OH234411   1.081   4.522   3.380
11489TIP3    H134412   0.989   4.521   3.405
11489TIP3    H234413   1.087   4.458   3.309
11490TIP3   OH234414   0.391   5.258   3.141
11490TIP3    H134415   0.448   5.333   3.120
11490TIP3    H234416   0.324   5.295   3.198
11491TIP3   OH234417   4.939   1.872   3.931
11491TIP3    H134418   4.940   1.827   4.015
11491TIP3    H234419   4.846   1.885   3.911
11492TIP3   OH234420   4.772   2.075   1.011
11492TIP3    H134421   4.692   2.028   0.986
11492TIP3    H234422   4.838   2.043   0.950
11493TIP3   OH234423   7.422   1.918   1.745
11493TIP3    H134424   7.341   1.968   1.751
11493TIP3    H234425   7.417   1.856   1.818
11494TIP3   OH234426   4.218   6.242   2.403
11494TIP3    H134427   4.195   6.186   2.329
11494TIP3    H234428   4.189   6.193   2.480
11495TIP3   OH234429   0.265   2.658   6.033
11495TIP3    H134430   0.183   2.684   6.076
11495TIP3    H234431   0.279   2.725   5.966
11496TIP3   OH234432   0.778   3.602   1.037
11496TIP3    H134433   0.793   3.606   0.943
11496TIP3    H234434   0.719   3.675   1.056
11497TIP3   OH234435   4.538   3.665   6.198
11497TIP3    H134436   4.574   3.737   6.249
11497TIP3    H234437   4.574   3.586   6.238
11498TIP3   OH234438   6.207   7.013   0.088
11498TIP3    H134439   6.275   6.972   0.036
11498TIP3    H234440   6.232   6.995   0.179
11499TIP3   OH234441   3.476   0.560   0.141
11499TIP3    H134442   3.433   0.637   0.177
11499TIP3    H234443   3.519   0.519   0.217
11500TIP3   OH234444   6.917   2.958   6.181
11500TIP3    H134445   6.871   2.960   6.097
11500TIP3    H234446   6.915   3.048   6.212
11501TIP3   OH234447   5.393   4.245   2.340
11501TIP3    H134448   5.450   4.281   2.409
11501TIP3    H234449   5.351   4.322   2.301
11502TIP3   OH234450   4.643   1.151   4.150
11502TIP3    H134451   4.619   1.059   4.158
11502TIP3    H234452   4.707   1.153   4.079
11503TIP3   OH234453   1.385   4.247   5.559
11503TIP3    H134454   1.372   4.321   5.501
11503TIP3    H234455   1.336   4.270   5.638
11504TIP3   OH234456   4.237   4.897   6.669
11504TIP3    H134457   4.175   4.961   6.636
11504TIP3    H234458   4.270   4.852   6.591
11505TIP3   OH234459   1.192   5.938   0.657
11505TIP3    H134460   1.150   5.853   0.672
11505TIP3    H234461   1.239   5.927   0.574
11506TIP3   OH234462   5.745   2.134   3.381
11506TIP3    H134463   5.720   2.219   3.344
11506TIP3    H234464   5.708   2.070   3.322
11507TIP3   OH234465   2.584   3.778   3.111
11507TIP3    H134466   2.563   3.849   3.172
11507TIP3    H234467   2.659   3.734   3.151
11508TIP3   OH234468   0.146   4.501   4.849
11508TIP3    H134469   0.061   4.491   4.891
11508TIP3    H234470   0.156   4.421   4.797
11509TIP3   OH234471   1.491   7.032   0.472
11509TIP3    H134472   1.576   7.071   0.489
11509TIP3    H234473   1.501   6.940   0.493
11510TIP3   OH234474   1.432   2.150   6.651
11510TIP3    H134475   1.461   2.061   6.669
11510TIP3    H234476   1.501   2.206   6.686
11511TIP3   OH234477   1.740   6.812   1.750
11511TIP3    H134478   1.728   6.722   1.722
11511TIP3    H234479   1.696   6.865   1.682
11512TIP3   OH234480   5.531   7.071   5.652
11512TIP3    H134481   5.614   7.101   5.689
11512TIP3    H234482   5.533   6.975   5.662
11513TIP3   OH234483   2.974   5.740   4.451
11513TIP3    H134484   2.886   5.769   4.476
11513TIP3    H234485   2.960   5.658   4.404
11514TIP3   OH234486   3.135   7.684   6.038
11514TIP3    H134487   3.158   7.636   6.117
11514TIP3    H234488   3.042   7.705   6.048
11515TIP3   OH234489   3.126   5.968   0.813
11515TIP3    H134490   3.189   6.040   0.804
11515TIP3    H234491   3.064   5.982   0.742
11516TIP3   OH234492   6.002   1.047   4.670
11516TIP3    H134493   6.022   1.135   4.702
11516TIP3    H234494   6.079   1.020   4.621
11517TIP3   OH234495   0.015   1.672   4.692
11517TIP3    H134496   0.025   1.629   4.777
11517TIP3    H234497   0.052   1.611   4.629
11518TIP3   OH234498   4.073   1.947   4.862
11518TIP3    H134499   4.149   1.902   4.824
11518TIP3    H234500   3.998   1.898   4.828
11519TIP3   OH234501   4.948   3.773   3.522
11519TIP3    H134502   4.963   3.849   3.578
11519TIP3    H234503   5.032   3.728   3.520
11520TIP3   OH234504   6.154   6.840   4.010
11520TIP3    H134505   6.130   6.853   3.918
11520TIP3    H234506   6.236   6.791   4.007
11521TIP3   OH234507   2.943   0.723   4.493
11521TIP3    H134508   2.921   0.798   4.438
11521TIP3    H234509   2.859   0.682   4.513
11522TIP3   OH234510   7.316   7.247   6.703
11522TIP3    H134511   7.261   7.223   6.777
11522TIP3    H234512   7.313   7.342   6.701
11523TIP3   OH234513   3.503   6.356   0.530
11523TIP3    H134514   3.583   6.394   0.567
11523TIP3    H234515   3.531   6.272   0.494
11524TIP3   OH234516   5.358   1.554   3.928
11524TIP3    H134517   5.294   1.624   3.919
11524TIP3    H234518   5.442   1.595   3.907
11525TIP3   OH234519   7.082   0.476   5.219
11525TIP3    H134520   7.087   0.415   5.145
11525TIP3    H234521   7.075   0.420   5.296
11526TIP3   OH234522   1.791   5.452   2.220
11526TIP3    H134523   1.854   5.477   2.152
11526TIP3    H234524   1.806   5.359   2.234
11527TIP3   OH234525   6.463   6.044   6.773
11527TIP3    H134526   6.432   6.122   6.726
11527TIP3    H234527   6.490   5.983   6.704
11528TIP3   OH234528   7.346   5.203   2.248
11528TIP3    H134529   7.340   5.235   2.158
11528TIP3    H234530   7.319   5.112   2.242
11529TIP3   OH234531   4.447   3.475   2.979
11529TIP3    H134532   4.527   3.527   2.971
11529TIP3    H234533   4.428   3.447   2.890
11530TIP3   OH234534   4.190   5.166   4.726
11530TIP3    H134535   4.260   5.108   4.756
11530TIP3    H234536   4.219   5.198   4.641
11531TIP3   OH234537   2.674   2.500   1.482
11531TIP3    H134538   2.747   2.487   1.421
11531TIP3    H234539   2.712   2.550   1.554
11532TIP3   OH234540   7.254   3.809   1.355
11532TIP3    H134541   7.342   3.847   1.354
11532TIP3    H234542   7.231   3.800   1.263
11533TIP3   OH234543   3.176   7.289   2.287
11533TIP3    H134544   3.165   7.266   2.194
11533TIP3    H234545   3.093   7.264   2.327
11534TIP3   OH234546   5.345   3.945   3.002
11534TIP3    H134547   5.276   3.907   2.947
11534TIP3    H234548   5.402   3.871   3.024
11535TIP3   OH234549   5.992   7.628   4.594
11535TIP3    H134550   6.036   7.611   4.511
11535TIP3    H234551   5.949   7.713   4.582
11536TIP3   OH234552   7.401   0.177   2.977
11536TIP3    H134553   7.349   0.238   2.924
11536TIP3    H234554   7.486   0.220   2.987
11537TIP3   OH234555   7.517   3.537   1.910
11537TIP3    H134556   7.431   3.550   1.951
11537TIP3    H234557   7.499   3.543   1.816
11538TIP3   OH234558   6.366   5.964   3.274
11538TIP3    H134559   6.284   5.916   3.269
11538TIP3    H234560   6.432   5.897   3.295
11539TIP3   OH234561   6.806   1.113   0.559
11539TIP3    H134562   6.734   1.128   0.620
11539TIP3    H234563   6.767   1.123   0.472
11540TIP3   OH234564   4.741   2.892   4.691
11540TIP3    H134565   4.649   2.898   4.666
11540TIP3    H234566   4.764   2.980   4.719
11541TIP3   OH234567   0.459   6.434   3.792
11541TIP3    H134568   0.489   6.520   3.763
11541TIP3    H234569   0.535   6.376   3.781
11542TIP3   OH234570   7.686   7.790   1.326
11542TIP3    H134571   7.727   7.876   1.337
11542TIP3    H234572   7.603   7.808   1.281
11543TIP3   OH234573   0.614   7.694   1.072
11543TIP3    H134574   0.524   7.726   1.078
11543TIP3    H234575   0.624   7.633   1.145
11544TIP3   OH234576   1.877   4.685   3.662
11544TIP3    H134577   1.823   4.717   3.734
11544TIP3    H234578   1.905   4.764   3.616
11545TIP3   OH234579   5.703   1.004   6.777
11545TIP3    H134580   5.680   0.944   6.706
11545TIP3    H234581   5.760   1.069   6.736
11546TIP3   OH234582   3.564   5.518   1.681
11546TIP3    H134583   3.649   5.562   1.673
11546TIP3    H234584   3.518   5.566   1.750
11547TIP3   OH234585   5.029   2.568   2.653
11547TIP3    H134586   5.110   2.591   2.608
11547TIP3    H234587   4.992   2.496   2.602
11548TIP3   OH234588   7.304   7.182   0.295
11548TIP3    H134589   7.220   7.190   0.340
11548TIP3    H234590   7.301   7.095   0.254
11549TIP3   OH234591   5.474   3.546   2.506
11549TIP3    H134592   5.505   3.465   2.546
11549TIP3    H234593   5.380   3.532   2.492
11550TIP3   OH234594   6.625   3.579   3.341
11550TIP3    H134595   6.563   3.601   3.410
11550TIP3    H234596   6.674   3.504   3.376
11551TIP3   OH234597   1.221   2.377   1.323
11551TIP3    H134598   1.310   2.401   1.348
11551TIP3    H234599   1.196   2.440   1.256
11552TIP3   OH234600   2.670   2.071   0.014
11552TIP3    H134601   2.671   2.160   0.050
11552TIP3    H234602   2.629   2.018   0.082
11553TIP3   OH234603   7.012   3.502   5.716
11553TIP3    H134604   6.994   3.484   5.623
11553TIP3    H234605   6.962   3.435   5.763
11554TIP3   OH234606   1.742   4.986   6.210
11554TIP3    H134607   1.673   4.996   6.276
11554TIP3    H234608   1.717   5.047   6.140
11555TIP3   OH234609   5.402   4.006   3.507
11555TIP3    H134610   5.344   4.050   3.568
11555TIP3    H234611   5.359   4.014   3.422
11556TIP3   OH234612   1.926   0.741   6.064
11556TIP3    H134613   1.967   0.701   6.141
11556TIP3    H234614   1.890   0.667   6.015
11557TIP3   OH234615   5.336   2.506   1.485
11557TIP3    H134616   5.355   2.415   1.510
11557TIP3    H234617   5.244   2.504   1.458
11558TIP3   OH234618   7.502   7.143   2.568
11558TIP3    H134619   7.413   7.113   2.550
11558TIP3    H234620   7.557   7.090   2.510
11559TIP3   OH234621   1.057   0.254   5.669
11559TIP3    H134622   1.124   0.323   5.672
11559TIP3    H234623   1.076   0.199   5.745
11560TIP3   OH234624   2.785   0.665   2.260
11560TIP3    H134625   2.755   0.719   2.187
11560TIP3    H234626   2.842   0.722   2.310
11561TIP3   OH234627   4.101   0.629   1.351
11561TIP3    H134628   4.113   0.707   1.405
11561TIP3    H234629   4.189   0.595   1.339
11562TIP3   OH234630   2.019   6.713   5.894
11562TIP3    H134631   2.106   6.684   5.924
11562TIP3    H234632   2.024   6.809   5.896
11563TIP3   OH234633   7.127   6.898   0.534
11563TIP3    H134634   7.185   6.831   0.500
11563TIP3    H234635   7.039   6.863   0.521
11564TIP3   OH234636   2.922   1.379   6.117
11564TIP3    H134637   2.936   1.466   6.153
11564TIP3    H234638   2.969   1.380   6.033
11565TIP3   OH234639   5.455   0.025   6.183
11565TIP3    H134640   5.472   0.113   6.151
11565TIP3    H234641   5.539  -0.021   6.173
11566TIP3   OH234642   7.863   2.545   5.251
11566TIP3    H134643   7.871   2.451   5.268
11566TIP3    H234644   7.941   2.583   5.289
11567TIP3   OH234645  -0.014   0.120   4.346
11567TIP3    H134646   0.040   0.091   4.273
11567TIP3    H234647   0.047   0.128   4.419
11568TIP3   OH234648   6.496   5.398   6.200
11568TIP3    H134649   6.472   5.479   6.246
11568TIP3    H234650   6.471   5.328   6.260
11569TIP3   OH234651   0.784   5.223   2.263
11569TIP3    H134652   0.870   5.251   2.295
11569TIP3    H234653   0.756   5.292   2.203
11570TIP3   OH234654   6.123   3.902   2.329
11570TIP3    H134655   6.075   3.865   2.404
11570TIP3    H234656   6.149   3.825   2.278
11571TIP3   OH234657   2.047   6.780   6.585
11571TIP3    H134658   2.039   6.770   6.680
11571TIP3    H234659   1.959   6.760   6.551
11572TIP3   OH234660   5.554   2.228   2.802
11572TIP3    H134661   5.522   2.150   2.758
11572TIP3    H234662   5.530   2.300   2.744
11573TIP3   OH234663   3.494   7.784   1.666
11573TIP3    H134664   3.438   7.738   1.729
11573TIP3    H234665   3.461   7.874   1.666
11574TIP3   OH234666   5.658   1.643   1.395
11574TIP3    H134667   5.563   1.637   1.387
11574TIP3    H234668   5.691   1.572   1.339
11575TIP3   OH234669   1.167   6.865   2.765
11575TIP3    H134670   1.111   6.804   2.718
11575TIP3    H234671   1.109   6.907   2.829
11576TIP3   OH234672   7.902   4.823   3.589
11576TIP3    H134673   7.929   4.870   3.667
11576TIP3    H234674   7.974   4.836   3.527
11577TIP3   OH234675   0.522   2.842   3.401
11577TIP3    H134676   0.562   2.821   3.486
11577TIP3    H234677   0.579   2.799   3.337
11578TIP3   OH234678   1.958   4.490   1.292
11578TIP3    H134679   1.993   4.514   1.377
11578TIP3    H234680   1.917   4.405   1.306
11579TIP3   OH234681   1.834   0.079   4.876
11579TIP3    H134682   1.772   0.058   4.806
11579TIP3    H234683   1.847  -0.004   4.922
11580TIP3   OH234684   0.894   6.190   6.691
11580TIP3    H134685   0.900   6.163   6.783
11580TIP3    H234686   0.979   6.230   6.672
11581TIP3   OH234687   3.545   0.395   0.366
11581TIP3    H134688   3.586   0.316   0.403
11581TIP3    H234689   3.493   0.431   0.439
11582TIP3   OH234690   4.373   5.980   0.138
11582TIP3    H134691   4.354   6.071   0.118
11582TIP3    H234692   4.468   5.973   0.133
11583TIP3   OH234693   6.648   3.184   3.127
11583TIP3    H134694   6.716   3.139   3.076
11583TIP3    H234695   6.636   3.128   3.204
11584TIP3   OH234696   7.121   6.777   3.844
11584TIP3    H134697   7.170   6.821   3.775
11584TIP3    H234698   7.095   6.693   3.806
11585TIP3   OH234699   8.156   6.035   4.942
11585TIP3    H134700   8.073   5.997   4.915
11585TIP3    H234701   8.132   6.105   5.004
11586TIP3   OH234702   1.306   0.408   1.811
11586TIP3    H134703   1.323   0.317   1.833
11586TIP3    H234704   1.225   0.430   1.858
11587TIP3   OH234705   3.411   5.552   4.674
11587TIP3    H134706   3.383   5.508   4.593
11587TIP3    H234707   3.483   5.609   4.647
11588TIP3   OH234708   1.833   4.554   3.987
11588TIP3    H134709   1.764   4.618   3.972
11588TIP3    H234710   1.884   4.590   4.059
11589TIP3   OH234711   0.131   6.913   3.922
11589TIP3    H134712   0.195   6.965   3.873
11589TIP3    H234713   0.099   6.848   3.859
11590TIP3   OH234714   3.656   5.961   1.962
11590TIP3    H134715   3.662   6.017   1.886
11590TIP3    H234716   3.570   5.980   2.000
11591TIP3   OH234717   7.042   3.239   4.864
11591TIP3    H134718   7.033   3.201   4.952
11591TIP3    H234719   7.075   3.327   4.879
11592TIP3   OH234720   3.246   5.436   1.770
11592TIP3    H134721   3.203   5.441   1.685
11592TIP3    H234722   3.312   5.367   1.760
11593TIP3   OH234723   6.492   0.743   1.159
11593TIP3    H134724   6.584   0.723   1.179
11593TIP3    H234725   6.461   0.792   1.235
11594TIP3   OH234726   1.943   0.087   4.245
11594TIP3    H134727   1.927  -0.001   4.211
11594TIP3    H234728   2.013   0.076   4.309
11595TIP3   OH234729   0.339   7.338   2.611
11595TIP3    H134730   0.338   7.376   2.524
11595TIP3    H234731   0.383   7.403   2.665
11596TIP3   OH234732   4.815   2.914   1.565
11596TIP3    H134733   4.764   2.893   1.643
11596TIP3    H234734   4.859   2.832   1.542
11597TIP3   OH234735   4.467   4.143   6.302
11597TIP3    H134736   4.534   4.167   6.239
11597TIP3    H234737   4.461   4.218   6.361
11598TIP3   OH234738   6.396   5.600   6.353
11598TIP3    H134739   6.445   5.639   6.425
11598TIP3    H234740   6.304   5.606   6.380
11599TIP3   OH234741   8.232   2.435   0.411
11599TIP3    H134742   8.219   2.420   0.505
11599TIP3    H234743   8.270   2.522   0.405
11600TIP3   OH234744   0.737   4.844   1.260
11600TIP3    H134745   0.700   4.761   1.229
11600TIP3    H234746   0.798   4.871   1.191
11601TIP3   OH234747   7.897   4.181   3.023
11601TIP3    H134748   7.982   4.213   3.055
11601TIP3    H234749   7.918   4.098   2.979
11602TIP3   OH234750   7.259   2.835   2.586
11602TIP3    H134751   7.301   2.905   2.636
11602TIP3    H234752   7.167   2.838   2.613
11603TIP3   OH234753   5.698   7.015   5.016
11603TIP3    H134754   5.658   7.041   4.933
11603TIP3    H234755   5.752   6.939   4.994
11604TIP3   OH234756   7.587   0.584   3.129
11604TIP3    H134757   7.502   0.610   3.094
11604TIP3    H234758   7.644   0.576   3.053
11605TIP3   OH234759   7.201   3.044   6.609
11605TIP3    H134760   7.213   3.138   6.615
11605TIP3    H234761   7.139   3.022   6.679
11606TIP3   OH234762   3.912   4.403   5.103
11606TIP3    H134763   3.870   4.345   5.040
11606TIP3    H234764   3.866   4.388   5.185
11607TIP3   OH234765   7.146   5.303   1.192
11607TIP3    H134766   7.198   5.330   1.116
11607TIP3    H234767   7.201   5.324   1.268
11608TIP3   OH234768   1.808   0.384   6.244
11608TIP3    H134769   1.850   0.319   6.301
11608TIP3    H234770   1.717   0.385   6.273
11609TIP3   OH234771   0.095   7.271   2.135
11609TIP3    H134772   0.167   7.318   2.093
11609TIP3    H234773   0.073   7.324   2.211
11610TIP3   OH234774   2.388   2.173   5.284
11610TIP3    H134775   2.352   2.084   5.292
11610TIP3    H234776   2.483   2.161   5.291
11611TIP3   OH234777   1.269   7.167   1.299
11611TIP3    H134778   1.180   7.148   1.326
11611TIP3    H234779   1.314   7.083   1.303
11612TIP3   OH234780   3.287   1.597   3.746
11612TIP3    H134781   3.348   1.658   3.786
11612TIP3    H234782   3.257   1.541   3.818
11613TIP3   OH234783   5.181   0.809   4.724
11613TIP3    H134784   5.102   0.860   4.744
11613TIP3    H234785   5.219   0.854   4.649
11614TIP3   OH234786   2.159   6.022   3.982
11614TIP3    H134787   2.114   6.058   4.058
11614TIP3    H234788   2.232   5.972   4.019
11615TIP3   OH234789   6.804   5.413   1.524
11615TIP3    H134790   6.750   5.448   1.595
11615TIP3    H234791   6.747   5.351   1.479
11616TIP3   OH234792   7.036   6.732   6.523
11616TIP3    H134793   6.998   6.813   6.490
11616TIP3    H234794   6.962   6.683   6.558
11617TIP3   OH234795   2.697   7.119   5.575
11617TIP3    H134796   2.786   7.121   5.610
11617TIP3    H234797   2.642   7.148   5.648
11618TIP3   OH234798   6.505   7.519   4.388
11618TIP3    H134799   6.454   7.547   4.464
11618TIP3    H234800   6.587   7.569   4.395
11619TIP3   OH234801   3.679   0.764   2.660
11619TIP3    H134802   3.680   0.681   2.612
11619TIP3    H234803   3.752   0.757   2.721
11620TIP3   OH234804   3.944   1.359   0.265
11620TIP3    H134805   4.017   1.380   0.207
11620TIP3    H234806   3.981   1.362   0.353
11621TIP3   OH234807   5.579   4.837   1.352
11621TIP3    H134808   5.508   4.796   1.402
11621TIP3    H234809   5.644   4.768   1.343
11622TIP3   OH234810   2.727   1.970   5.962
11622TIP3    H134811   2.658   1.981   6.028
11622TIP3    H234812   2.798   2.028   5.992
11623TIP3   OH234813   5.035   5.396   5.220
11623TIP3    H134814   5.048   5.368   5.129
11623TIP3    H234815   5.116   5.374   5.264
11624TIP3   OH234816   8.187   4.847   4.988
11624TIP3    H134817   8.275   4.820   4.963
11624TIP3    H234818   8.196   4.882   5.076
11625TIP3   OH234819   0.721   7.411   3.551
11625TIP3    H134820   0.736   7.395   3.644
11625TIP3    H234821   0.659   7.483   3.549
11626TIP3   OH234822   4.693   7.560   3.161
11626TIP3    H134823   4.682   7.653   3.182
11626TIP3    H234824   4.634   7.546   3.087
11627TIP3   OH234825   2.884   3.184   3.468
11627TIP3    H134826   2.967   3.184   3.516
11627TIP3    H234827   2.818   3.200   3.535
11628TIP3   OH234828   8.264   0.021   1.156
11628TIP3    H134829   8.206  -0.055   1.148
11628TIP3    H234830   8.238   0.079   1.084
11629TIP3   OH234831   8.283   1.323   4.615
11629TIP3    H134832   8.319   1.236   4.595
11629TIP3    H234833   8.188   1.309   4.619
11630TIP3   OH234834   8.066   3.439   0.397
11630TIP3    H134835   8.134   3.403   0.454
11630TIP3    H234836   7.987   3.390   0.419
11631TIP3   OH234837   6.238   4.316   2.957
11631TIP3    H134838   6.286   4.398   2.967
11631TIP3    H234839   6.264   4.263   3.032
11632TIP3   OH234840   6.145   3.355   2.129
11632TIP3    H134841   6.146   3.384   2.220
11632TIP3    H234842   6.057   3.379   2.098
11633TIP3   OH234843   6.153   7.694   4.895
11633TIP3    H134844   6.225   7.658   4.843
11633TIP3    H234845   6.098   7.619   4.916
11634TIP3   OH234846   6.864   7.447   1.205
11634TIP3    H134847   6.798   7.500   1.250
11634TIP3    H234848   6.933   7.510   1.183
11635TIP3   OH234849   8.123   4.006   6.160
11635TIP3    H134850   8.060   3.937   6.179
11635TIP3    H234851   8.166   4.023   6.244
11636TIP3   OH234852   8.182   4.251   2.446
11636TIP3    H134853   8.160   4.344   2.444
11636TIP3    H234854   8.269   4.246   2.407
11637TIP3   OH234855   0.765   3.955   2.866
11637TIP3    H134856   0.822   3.893   2.911
11637TIP3    H234857   0.752   4.026   2.928
11638TIP3   OH234858   3.285   2.135   4.574
11638TIP3    H134859   3.301   2.133   4.479
11638TIP3    H234860   3.231   2.213   4.587
11639TIP3   OH234861   2.409   7.489   2.621
11639TIP3    H134862   2.397   7.402   2.657
11639TIP3    H234863   2.453   7.538   2.691
11640TIP3   OH234864   1.977   2.317   0.748
11640TIP3    H134865   2.014   2.329   0.836
11640TIP3    H234866   2.003   2.228   0.724
11641TIP3   OH234867   7.771   7.271   0.273
11641TIP3    H134868   7.833   7.236   0.209
11641TIP3    H234869   7.820   7.337   0.320
11642TIP3   OH234870   0.223   5.366   3.335
11642TIP3    H134871   0.280   5.442   3.344
11642TIP3    H234872   0.134   5.401   3.341
11643TIP3   OH234873   7.595   3.605   4.714
11643TIP3    H134874   7.520   3.570   4.762
11643TIP3    H234875   7.584   3.700   4.717
11644TIP3   OH234876   2.853   5.160   1.540
11644TIP3    H134877   2.947   5.182   1.540
11644TIP3    H234878   2.823   5.185   1.627
11645TIP3   OH234879   4.051   3.012   1.935
11645TIP3    H134880   4.035   2.925   1.898
11645TIP3    H234881   4.136   3.004   1.977
11646TIP3   OH234882   3.132   7.051   4.494
11646TIP3    H134883   3.138   7.026   4.586
11646TIP3    H234884   3.219   7.032   4.458
11647TIP3   OH234885   6.887   3.988   6.708
11647TIP3    H134886   6.794   3.987   6.685
11647TIP3    H234887   6.932   3.971   6.625
11648TIP3   OH234888   5.335   3.227   6.017
11648TIP3    H134889   5.321   3.141   6.057
11648TIP3    H234890   5.356   3.207   5.925
11649TIP3   OH234891   7.606   5.093   5.098
11649TIP3    H134892   7.598   5.066   5.190
11649TIP3    H234893   7.654   5.176   5.102
11650TIP3   OH234894   2.963   2.796   3.531
11650TIP3    H134895   2.951   2.743   3.453
11650TIP3    H234896   3.003   2.737   3.595
11651TIP3   OH234897   0.138   4.897   0.857
11651TIP3    H134898   0.232   4.893   0.837
11651TIP3    H234899   0.096   4.844   0.790
11652TIP3   OH234900   3.803   7.699   0.843
11652TIP3    H134901   3.729   7.704   0.783
11652TIP3    H234902   3.857   7.775   0.821
11653TIP3   OH234903   0.338   4.424   2.228
11653TIP3    H134904   0.372   4.513   2.238
11653TIP3    H234905   0.244   4.435   2.222
11654TIP3   OH234906   3.606   4.047   0.513
11654TIP3    H134907   3.513   4.068   0.523
11654TIP3    H234908   3.652   4.130   0.526
11655TIP3   OH234909   4.742   2.268   0.744
11655TIP3    H134910   4.805   2.211   0.789
11655TIP3    H234911   4.729   2.341   0.804
11656TIP3   OH234912   1.957   1.580   1.475
11656TIP3    H134913   2.024   1.645   1.496
11656TIP3    H234914   1.991   1.498   1.510
11657TIP3   OH234915   2.472   1.192   2.065
11657TIP3    H134916   2.406   1.259   2.051
11657TIP3    H234917   2.527   1.227   2.135
11658TIP3   OH234918   2.678   0.894   5.740
11658TIP3    H134919   2.672   0.853   5.826
11658TIP3    H234920   2.600   0.865   5.694
11659TIP3   OH234921   3.753   0.006   3.186
11659TIP3    H134922   3.717   0.088   3.152
11659TIP3    H234923   3.689  -0.060   3.160
11660TIP3   OH234924   0.413   3.012   4.442
11660TIP3    H134925   0.368   3.051   4.517
11660TIP3    H234926   0.417   3.083   4.378
11661TIP3   OH234927   2.798   1.220   2.875
11661TIP3    H134928   2.869   1.228   2.938
11661TIP3    H234929   2.816   1.137   2.830
11662TIP3   OH234930   4.763   6.035   4.910
11662TIP3    H134931   4.801   5.969   4.852
11662TIP3    H234932   4.670   6.012   4.916
11663TIP3   OH234933   1.007   4.170   0.468
11663TIP3    H134934   1.034   4.078   0.467
11663TIP3    H234935   0.912   4.166   0.469
11664TIP3   OH234936   0.710   0.374   0.799
11664TIP3    H134937   0.713   0.468   0.818
11664TIP3    H234938   0.644   0.340   0.858
11665TIP3   OH234939   6.016   6.577   3.157
11665TIP3    H134940   5.956   6.651   3.157
11665TIP3    H234941   6.051   6.574   3.246
11666TIP3   OH234942   7.223   0.123   3.926
11666TIP3    H134943   7.224   0.031   3.898
11666TIP3    H234944   7.213   0.173   3.845
11667TIP3   OH234945   5.810   6.453   1.557
11667TIP3    H134946   5.797   6.527   1.616
11667TIP3    H234947   5.797   6.376   1.611
11668TIP3   OH234948   7.202   0.123   6.394
11668TIP3    H134949   7.185   0.180   6.319
11668TIP3    H234950   7.218   0.183   6.467
11669TIP3   OH234951   2.306   5.251   3.424
11669TIP3    H134952   2.238   5.263   3.490
11669TIP3    H234953   2.260   5.212   3.349
11670TIP3   OH234954   3.282   4.692   0.646
11670TIP3    H134955   3.197   4.735   0.656
11670TIP3    H234956   3.262   4.608   0.604
11671TIP3   OH234957   3.317   5.562   5.796
11671TIP3    H134958   3.409   5.582   5.809
11671TIP3    H234959   3.315   5.468   5.778
11672TIP3   OH234960   8.077   1.568   2.325
11672TIP3    H134961   8.070   1.542   2.417
11672TIP3    H234962   8.152   1.519   2.292
11673TIP3   OH234963   7.289   4.337   6.661
11673TIP3    H134964   7.364   4.394   6.648
11673TIP3    H234965   7.320   4.269   6.721
11674TIP3   OH234966   6.864   3.365   5.109
11674TIP3    H134967   6.952   3.402   5.117
11674TIP3    H234968   6.877   3.270   5.115
11675TIP3   OH234969   5.574   1.736   2.578
11675TIP3    H134970   5.663   1.748   2.611
11675TIP3    H234971   5.568   1.643   2.557
11676TIP3   OH234972   3.811   5.150   2.417
11676TIP3    H134973   3.763   5.084   2.467
11676TIP3    H234974   3.830   5.219   2.481
11677TIP3   OH234975   5.451   7.818   1.840
11677TIP3    H134976   5.528   7.868   1.867
11677TIP3    H234977   5.484   7.730   1.823
11678TIP3   OH234978   0.315   7.114   4.114
11678TIP3    H134979   0.409   7.105   4.127
11678TIP3    H234980   0.306   7.168   4.035
11679TIP3   OH234981   0.678   1.803   0.921
11679TIP3    H134982   0.607   1.853   0.882
11679TIP3    H234983   0.744   1.796   0.852
11680TIP3   OH234984   6.439   4.520   1.153
11680TIP3    H134985   6.516   4.463   1.159
11680TIP3    H234986   6.365   4.462   1.171
11681TIP3   OH234987   6.102   7.309   1.640
11681TIP3    H134988   6.194   7.306   1.615
11681TIP3    H234989   6.066   7.382   1.589
11682TIP3   OH234990   5.615   6.511   3.316
11682TIP3    H134991   5.592   6.419   3.303
11682TIP3    H234992   5.693   6.509   3.372
11683TIP3   OH234993   3.445   1.998   0.797
11683TIP3    H134994   3.369   2.036   0.752
11683TIP3    H234995   3.465   1.919   0.747
11684TIP3   OH234996   8.009   3.631   6.576
11684TIP3    H134997   7.958   3.708   6.599
11684TIP3    H234998   8.094   3.644   6.619
11685TIP3   OH234999   7.534   3.300   5.970
11685TIP3    H135000   7.561   3.249   6.046
11685TIP3    H235001   7.462   3.354   6.002
11686TIP3   OH235002   5.860   6.469   0.440
11686TIP3    H135003   5.955   6.462   0.429
11686TIP3    H235004   5.838   6.554   0.402
11687TIP3   OH235005   6.763   4.270   3.820
11687TIP3    H135006   6.693   4.211   3.792
11687TIP3    H235007   6.830   4.212   3.856
11688TIP3   OH235008   3.453   0.368   5.219
11688TIP3    H135009   3.533   0.420   5.232
11688TIP3    H235010   3.479   0.278   5.241
11689TIP3   OH235011   1.487   7.320   3.423
11689TIP3    H135012   1.495   7.300   3.330
11689TIP3    H235013   1.573   7.355   3.447
11690TIP3   OH235014   7.460   1.781   1.419
11690TIP3    H135015   7.552   1.775   1.442
11690TIP3    H235016   7.435   1.870   1.442
11691TIP3   OH235017   2.360   0.450   3.351
11691TIP3    H135018   2.322   0.526   3.307
11691TIP3    H235019   2.284   0.398   3.378
11692TIP3   OH235020   7.066   1.693   2.054
11692TIP3    H135021   6.985   1.719   2.011
11692TIP3    H235022   7.044   1.694   2.148
11693TIP3   OH235023   1.357   6.415   1.503
11693TIP3    H135024   1.355   6.510   1.496
11693TIP3    H235025   1.374   6.398   1.596
11694TIP3   OH235026   1.191   4.041   3.439
11694TIP3    H135027   1.232   3.978   3.379
11694TIP3    H235028   1.106   4.059   3.400
11695TIP3   OH235029   1.325   1.806   5.382
11695TIP3    H135030   1.325   1.716   5.350
11695TIP3    H235031   1.336   1.798   5.476
11696TIP3   OH235032   4.778   3.797   1.956
11696TIP3    H135033   4.806   3.715   1.913
11696TIP3    H235034   4.704   3.772   2.011
11697TIP3   OH235035   6.267   3.894   0.684
11697TIP3    H135036   6.350   3.855   0.656
11697TIP3    H235037   6.269   3.889   0.779
11698TIP3   OH235038   5.938   2.278   1.996
11698TIP3    H135039   5.885   2.289   2.075
11698TIP3    H235040   5.880   2.234   1.934
11699TIP3   OH235041   5.858   7.317   3.976
11699TIP3    H135042   5.820   7.236   3.943
11699TIP3    H235043   5.787   7.381   3.971
11700TIP3   OH235044   4.292   3.885   6.569
11700TIP3    H135045   4.377   3.880   6.525
11700TIP3    H235046   4.300   3.823   6.642
11701TIP3   OH235047   5.162   1.680   0.237
11701TIP3    H135048   5.222   1.611   0.268
11701TIP3    H235049   5.220   1.750   0.207
11702TIP3   OH235050   2.114   4.997   4.303
11702TIP3    H135051   2.178   5.011   4.372
11702TIP3    H235052   2.152   4.928   4.249
11703TIP3   OH235053   6.347   1.168   2.602
11703TIP3    H135054   6.430   1.129   2.629
11703TIP3    H235055   6.365   1.208   2.517
11704TIP3   OH235056   7.350   7.300   1.634
11704TIP3    H135057   7.324   7.219   1.678
11704TIP3    H235058   7.267   7.342   1.611
11705TIP3   OH235059   5.569   6.593   4.896
11705TIP3    H135060   5.490   6.645   4.911
11705TIP3    H235061   5.617   6.599   4.979
11706TIP3   OH235062   2.426   6.720   3.322
11706TIP3    H135063   2.482   6.685   3.392
11706TIP3    H235064   2.463   6.684   3.242
11707TIP3   OH235065   8.074   6.015   2.274
11707TIP3    H135066   8.042   5.942   2.221
11707TIP3    H235067   8.134   6.063   2.217
11708TIP3   OH235068   1.238   6.061   4.879
11708TIP3    H135069   1.258   5.981   4.926
11708TIP3    H235070   1.323   6.106   4.871
11709TIP3   OH235071   6.053   1.918   4.864
11709TIP3    H135072   6.076   1.854   4.796
11709TIP3    H235073   6.136   1.938   4.907
11710TIP3   OH235074   7.883   1.631   4.303
11710TIP3    H135075   7.916   1.659   4.389
11710TIP3    H235076   7.949   1.662   4.241
11711TIP3   OH235077   5.517   3.428   1.103
11711TIP3    H135078   5.427   3.458   1.096
11711TIP3    H235079   5.565   3.478   1.038
11712TIP3   OH235080   7.953   5.937   2.498
11712TIP3    H135081   7.997   5.962   2.417
11712TIP3    H235082   7.879   5.996   2.505
11713TIP3   OH235083   1.452   6.632   1.702
11713TIP3    H135084   1.373   6.654   1.751
11713TIP3    H235085   1.431   6.654   1.611
11714TIP3   OH235086   3.309   4.065   6.025
11714TIP3    H135087   3.395   4.081   5.985
11714TIP3    H235088   3.246   4.090   5.957
11715TIP3   OH235089   6.568   3.555   2.041
11715TIP3    H135090   6.482   3.576   2.004
11715TIP3    H235091   6.555   3.474   2.089
11716TIP3   OH235092   5.927   1.080   5.979
11716TIP3    H135093   5.865   1.134   5.931
11716TIP3    H235094   5.904   1.092   6.071
11717TIP3   OH235095   6.911   7.605   4.277
11717TIP3    H135096   6.952   7.519   4.284
11717TIP3    H235097   6.974   7.657   4.226
11718TIP3   OH235098   7.391   6.097   2.696
11718TIP3    H135099   7.438   6.146   2.628
11718TIP3    H235100   7.337   6.034   2.648
11719TIP3   OH235101   1.282   1.180   3.840
11719TIP3    H135102   1.214   1.116   3.819
11719TIP3    H235103   1.330   1.191   3.758
11720TIP3   OH235104   6.093   6.538   4.718
11720TIP3    H135105   6.143   6.611   4.681
11720TIP3    H235106   6.087   6.474   4.646
11721TIP3   OH235107   5.187   6.016   4.722
11721TIP3    H135108   5.177   6.045   4.631
11721TIP3    H235109   5.272   5.972   4.724
11722TIP3   OH235110   1.986   2.191   5.421
11722TIP3    H135111   1.929   2.268   5.412
11722TIP3    H235112   2.007   2.188   5.515
11723TIP3   OH235113   5.494   4.096   1.557
11723TIP3    H135114   5.456   4.012   1.581
11723TIP3    H235115   5.535   4.128   1.637
11724TIP3   OH235116   3.196   0.588   5.386
11724TIP3    H135117   3.181   0.494   5.374
11724TIP3    H235118   3.259   0.611   5.317
11725TIP3   OH235119   0.662   4.082   1.492
11725TIP3    H135120   0.634   4.008   1.546
11725TIP3    H235121   0.587   4.141   1.490
11726TIP3   OH235122   3.786   5.355   6.541
11726TIP3    H135123   3.743   5.436   6.513
11726TIP3    H235124   3.847   5.383   6.609
11727TIP3   OH235125   7.765   2.355   2.156
11727TIP3    H135126   7.714   2.392   2.228
11727TIP3    H235127   7.761   2.420   2.087
11728TIP3   OH235128   2.770   2.260   0.568
11728TIP3    H135129   2.841   2.245   0.631
11728TIP3    H235130   2.693   2.277   0.623
11729TIP3   OH235131   2.018   0.774   3.920
11729TIP3    H135132   2.035   0.771   4.014
11729TIP3    H235133   2.105   0.774   3.880
11730TIP3   OH235134   5.057   1.338   4.745
11730TIP3    H135135   4.981   1.377   4.702
11730TIP3    H235136   5.132   1.373   4.697
11731TIP3   OH235137   7.297   3.927   6.486
11731TIP3    H135138   7.390   3.945   6.501
11731TIP3    H235139   7.263   3.904   6.572
11732TIP3   OH235140   2.509   5.437   0.610
11732TIP3    H135141   2.508   5.519   0.658
11732TIP3    H235142   2.416   5.416   0.596
11733TIP3   OH235143   0.749   7.728   6.242
11733TIP3    H135144   0.667   7.755   6.285
11733TIP3    H235145   0.798   7.682   6.310
11734TIP3   OH235146   0.770   7.605   5.712
11734TIP3    H135147   0.760   7.693   5.749
11734TIP3    H235148   0.687   7.589   5.667
11735TIP3   OH235149   1.079   5.742   1.662
11735TIP3    H135150   1.127   5.660   1.654
11735TIP3    H235151   1.036   5.753   1.577
11736TIP3   OH235152   2.672   5.671   2.513
11736TIP3    H135153   2.605   5.738   2.522
11736TIP3    H235154   2.624   5.589   2.501
11737TIP3   OH235155   6.356   2.814   2.623
11737TIP3    H135156   6.379   2.750   2.556
11737TIP3    H235157   6.298   2.875   2.578
11738TIP3   OH235158   4.898   5.276   3.504
11738TIP3    H135159   4.825   5.322   3.463
11738TIP3    H235160   4.911   5.198   3.449
11739TIP3   OH235161   3.529   4.183   0.902
11739TIP3    H135162   3.590   4.116   0.932
11739TIP3    H235163   3.458   4.183   0.967
11740TIP3   OH235164   0.123   0.319   5.404
11740TIP3    H135165   0.083   0.254   5.463
11740TIP3    H235166   0.197   0.273   5.364
11741TIP3   OH235167   4.398   4.432   1.512
11741TIP3    H135168   4.345   4.373   1.458
11741TIP3    H235169   4.488   4.408   1.492
11742TIP3   OH235170   4.475   4.367   6.488
11742TIP3    H135171   4.405   4.385   6.551
11742TIP3    H235172   4.474   4.442   6.429
11743TIP3   OH235173   8.120   0.030   0.227
11743TIP3    H135174   8.073  -0.005   0.303
11743TIP3    H235175   8.210   0.044   0.258
11744TIP3   OH235176   4.270   5.803   0.393
11744TIP3    H135177   4.280   5.724   0.340
11744TIP3    H235178   4.295   5.875   0.334
11745TIP3   OH235179   7.352   0.943   4.416
11745TIP3    H135180   7.386   0.873   4.360
11745TIP3    H235181   7.293   0.898   4.477
11746TIP3   OH235182   2.683   2.854   6.352
11746TIP3    H135183   2.618   2.921   6.374
11746TIP3    H235184   2.741   2.896   6.289
11747TIP3   OH235185   1.511   1.702   3.107
11747TIP3    H135186   1.542   1.670   3.192
11747TIP3    H235187   1.522   1.628   3.048
11748TIP3   OH235188   2.306   0.564   2.499
11748TIP3    H135189   2.346   0.565   2.585
11748TIP3    H235190   2.365   0.617   2.444
11749TIP3   OH235191   5.460   6.718   0.424
11749TIP3    H135192   5.514   6.671   0.487
11749TIP3    H235193   5.384   6.747   0.474
11750TIP3   OH235194   5.002   7.350   4.765
11750TIP3    H135195   5.052   7.355   4.846
11750TIP3    H235196   4.914   7.380   4.789
11751TIP3   OH235197   6.288   3.798   6.200
11751TIP3    H135198   6.347   3.872   6.214
11751TIP3    H235199   6.292   3.749   6.282
11752TIP3   OH235200   0.338   7.388   6.042
11752TIP3    H135201   0.281   7.359   5.971
11752TIP3    H235202   0.411   7.433   5.997
11753TIP3   OH235203   2.595   4.017   6.730
11753TIP3    H135204   2.685   3.995   6.754
11753TIP3    H235205   2.547   4.016   6.813
11754TIP3   OH235206   7.866   5.185   0.766
11754TIP3    H135207   7.854   5.147   0.853
11754TIP3    H235208   7.787   5.235   0.750
11755TIP3   OH235209   0.508   1.755   0.271
11755TIP3    H135210   0.490   1.829   0.330
11755TIP3    H235211   0.421   1.726   0.242
11756TIP3   OH235212   7.647   5.977   1.933
11756TIP3    H135213   7.557   5.976   1.965
11756TIP3    H235214   7.701   5.990   2.011
11757TIP3   OH235215   2.677   4.091   3.721
11757TIP3    H135216   2.687   4.157   3.789
11757TIP3    H235217   2.710   4.134   3.641
11758TIP3   OH235218   1.381   6.417   6.384
11758TIP3    H135219   1.407   6.481   6.317
11758TIP3    H235220   1.453   6.417   6.447
11759TIP3   OH235221   1.023   2.951   6.301
11759TIP3    H135222   0.932   2.939   6.330
11759TIP3    H235223   1.065   2.867   6.321
11760TIP3   OH235224   2.353   6.089   4.629
11760TIP3    H135225   2.409   6.046   4.694
11760TIP3    H235226   2.320   6.167   4.674
11761TIP3   OH235227   6.705   0.596   1.923
11761TIP3    H135228   6.784   0.651   1.919
11761TIP3    H235229   6.660   0.613   1.841
11762TIP3   OH235230   8.259   7.425   1.037
11762TIP3    H135231   8.277   7.449   1.128
11762TIP3    H235232   8.335   7.459   0.988
11763TIP3   OH235233   2.052   6.447   4.386
11763TIP3    H135234   2.064   6.473   4.478
11763TIP3    H235235   1.981   6.384   4.389
11764TIP3   OH235236   4.417   4.857   3.328
11764TIP3    H135237   4.342   4.917   3.332
11764TIP3    H235238   4.408   4.802   3.406
11765TIP3   OH235239   3.354   5.677   1.842
11765TIP3    H135240   3.301   5.603   1.812
11765TIP3    H235241   3.307   5.754   1.812
11766TIP3   OH235242   7.245   7.854   5.597
11766TIP3    H135243   7.297   7.788   5.552
11766TIP3    H235244   7.154   7.828   5.583
11767TIP3   OH235245   7.780   0.545   2.910
11767TIP3    H135246   7.781   0.627   2.861
11767TIP3    H235247   7.871   0.532   2.936
11768TIP3   OH235248   4.081   2.178   1.727
11768TIP3    H135249   4.013   2.165   1.794
11768TIP3    H235250   4.034   2.215   1.653
11769TIP3   OH235251   0.566   5.730   3.990
11769TIP3    H135252   0.625   5.801   3.965
11769TIP3    H235253   0.622   5.664   4.030
11770TIP3   OH235254   7.205   4.643   2.466
11770TIP3    H135255   7.178   4.554   2.441
11770TIP3    H235256   7.298   4.633   2.489
11771TIP3   OH235257   7.247   2.371   6.513
11771TIP3    H135258   7.290   2.305   6.459
11771TIP3    H235259   7.159   2.380   6.475
11772TIP3   OH235260   3.974   1.517   1.535
11772TIP3    H135261   3.922   1.501   1.456
11772TIP3    H235262   3.912   1.503   1.607
11773TIP3   OH235263   5.969   6.626   4.391
11773TIP3    H135264   5.915   6.664   4.460
11773TIP3    H235265   5.907   6.582   4.334
11774TIP3   OH235266   5.719   7.579   3.644
11774TIP3    H135267   5.694   7.518   3.574
11774TIP3    H235268   5.646   7.641   3.649
11775TIP3   OH235269   7.538   0.489   5.020
11775TIP3    H135270   7.599   0.426   5.058
11775TIP3    H235271   7.471   0.436   4.977
11776TIP3   OH235272   6.610   3.284   0.249
11776TIP3    H135273   6.591   3.215   0.313
11776TIP3    H235274   6.582   3.248   0.165
11777TIP3   OH235275   5.569   0.000   1.844
11777TIP3    H135276   5.581   0.094   1.855
11777TIP3    H235277   5.539  -0.030   1.930
11778TIP3   OH235278   6.580   1.147   0.707
11778TIP3    H135279   6.573   1.212   0.777
11778TIP3    H235280   6.500   1.157   0.657
11779TIP3   OH235281   5.753   0.886   6.492
11779TIP3    H135282   5.791   0.799   6.486
11779TIP3    H235283   5.760   0.922   6.404
11780TIP3   OH235284   4.878   0.451   2.373
11780TIP3    H135285   4.871   0.539   2.409
11780TIP3    H235286   4.953   0.454   2.314
11781TIP3   OH235287   7.064   7.679   5.232
11781TIP3    H135288   7.004   7.649   5.164
11781TIP3    H235289   7.016   7.664   5.314
11782TIP3   OH235290   1.135   5.671   2.337
11782TIP3    H135291   1.169   5.750   2.294
11782TIP3    H235292   1.194   5.601   2.310
11783TIP3   OH235293   7.473   6.979   0.566
11783TIP3    H135294   7.545   7.004   0.508
11783TIP3    H235295   7.489   6.886   0.585
11784TIP3   OH235296   7.887   5.742   3.968
11784TIP3    H135297   7.924   5.750   4.056
11784TIP3    H235298   7.962   5.718   3.913
11785TIP3   OH235299   4.498   1.732   5.771
11785TIP3    H135300   4.407   1.763   5.773
11785TIP3    H235301   4.539   1.776   5.845
11786TIP3   OH235302   4.799   2.391   4.855
11786TIP3    H135303   4.883   2.364   4.894
11786TIP3    H235304   4.797   2.486   4.865
11787TIP3   OH235305   2.639   3.475   5.912
11787TIP3    H135306   2.572   3.481   5.979
11787TIP3    H235307   2.616   3.397   5.861
11788TIP3   OH235308   8.120   6.334   1.511
11788TIP3    H135309   8.157   6.369   1.592
11788TIP3    H235310   8.177   6.367   1.442
11789TIP3   OH235311   4.380   5.901   1.966
11789TIP3    H135312   4.382   5.913   2.060
11789TIP3    H235313   4.390   5.807   1.953
11790TIP3   OH235314   6.915   3.552   4.372
11790TIP3    H135315   6.895   3.575   4.282
11790TIP3    H235316   6.902   3.457   4.377
11791TIP3   OH235317   3.698   0.173   0.500
11791TIP3    H135318   3.701   0.214   0.586
11791TIP3    H235319   3.638   0.099   0.511
11792TIP3   OH235320   3.864   4.709   0.979
11792TIP3    H135321   3.809   4.747   1.047
11792TIP3    H235322   3.915   4.642   1.024
11793TIP3   OH235323   6.246   3.796   1.171
11793TIP3    H135324   6.271   3.797   1.079
11793TIP3    H235325   6.177   3.729   1.177
11794TIP3   OH235326   2.598   5.199   0.819
11794TIP3    H135327   2.565   5.266   0.759
11794TIP3    H235328   2.647   5.247   0.885
11795TIP3   OH235329   2.252   7.373   0.936
11795TIP3    H135330   2.290   7.312   1.000
11795TIP3    H235331   2.247   7.456   0.982
11796TIP3   OH235332   7.655   2.841   4.411
11796TIP3    H135333   7.642   2.815   4.502
11796TIP3    H235334   7.713   2.773   4.375
11797TIP3   OH235335   6.723   7.489   4.721
11797TIP3    H135336   6.714   7.538   4.639
11797TIP3    H235337   6.815   7.464   4.724
11798TIP3   OH235338   4.547   4.896   5.574
11798TIP3    H135339   4.482   4.861   5.634
11798TIP3    H235340   4.555   4.829   5.506
11799TIP3   OH235341   5.054   1.078   5.205
11799TIP3    H135342   5.021   1.004   5.255
11799TIP3    H235343   4.986   1.145   5.213
11800TIP3   OH235344   3.108   5.386   2.799
11800TIP3    H135345   3.031   5.336   2.827
11800TIP3    H235346   3.145   5.421   2.880
11801TIP3   OH235347   5.113   5.805   2.817
11801TIP3    H135348   5.027   5.763   2.820
11801TIP3    H235349   5.141   5.809   2.909
11802TIP3   OH235350   4.412   4.696   1.397
11802TIP3    H135351   4.379   4.616   1.438
11802TIP3    H235352   4.474   4.732   1.461
11803TIP3   OH235353   2.746   2.116   0.317
11803TIP3    H135354   2.754   2.143   0.409
11803TIP3    H235355   2.682   2.177   0.280
11804TIP3   OH235356   6.557   4.625   3.414
11804TIP3    H135357   6.640   4.640   3.458
11804TIP3    H235358   6.490   4.643   3.480
11805TIP3   OH235359   5.590   5.124   0.045
11805TIP3    H135360   5.560   5.214   0.030
11805TIP3    H235361   5.624   5.096  -0.040
11806TIP3   OH235362   1.101   1.619   1.972
11806TIP3    H135363   1.134   1.702   2.006
11806TIP3    H235364   1.151   1.605   1.891
11807TIP3   OH235365   4.588   2.912   5.753
11807TIP3    H135366   4.519   2.929   5.690
11807TIP3    H235367   4.615   2.822   5.736
11808TIP3   OH235368   2.014   4.246   3.440
11808TIP3    H135369   1.991   4.289   3.522
11808TIP3    H235370   2.109   4.235   3.445
11809TIP3   OH235371   2.698   4.146   0.467
11809TIP3    H135372   2.775   4.119   0.418
11809TIP3    H235373   2.647   4.065   0.476
11810TIP3   OH235374   2.943   6.305   0.062
11810TIP3    H135375   2.869   6.332   0.009
11810TIP3    H235376   2.968   6.219   0.028
11811TIP3   OH235377   7.958   2.547   0.776
11811TIP3    H135378   8.052   2.535   0.772
11811TIP3    H235379   7.944   2.639   0.753
11812TIP3   OH235380   4.973   0.919   4.259
11812TIP3    H135381   5.064   0.934   4.235
11812TIP3    H235382   4.943   1.002   4.294
11813TIP3   OH235383   0.624   4.674   4.976
11813TIP3    H135384   0.555   4.617   4.943
11813TIP3    H235385   0.637   4.739   4.907
11814TIP3   OH235386   4.481   0.846   5.652
11814TIP3    H135387   4.575   0.833   5.668
11814TIP3    H235388   4.477   0.919   5.590
11815TIP3   OH235389   1.336   6.708   1.463
11815TIP3    H135390   1.333   6.751   1.377
11815TIP3    H235391   1.319   6.779   1.526
11816TIP3   OH235392   2.179   7.113   5.694
11816TIP3    H135393   2.180   7.151   5.606
11816TIP3    H235394   2.091   7.076   5.703
11817TIP3   OH235395   2.529   4.372   4.393
11817TIP3    H135396   2.581   4.358   4.472
11817TIP3    H235397   2.467   4.299   4.392
11818TIP3   OH235398   0.314   0.470   4.336
11818TIP3    H135399   0.397   0.471   4.289
11818TIP3    H235400   0.288   0.562   4.341
11819TIP3   OH235401   6.795   7.132   6.488
11819TIP3    H135402   6.871   7.090   6.448
11819TIP3    H235403   6.786   7.215   6.441
11820TIP3   OH235404   3.671   4.036   4.444
11820TIP3    H135405   3.593   4.036   4.389
11820TIP3    H235406   3.661   4.114   4.499
11821TIP3   OH235407   5.986   6.875   3.343
11821TIP3    H135408   5.944   6.825   3.274
11821TIP3    H235409   6.071   6.834   3.355
11822TIP3   OH235410   5.146   1.749   6.059
11822TIP3    H135411   5.233   1.786   6.074
11822TIP3    H235412   5.086   1.813   6.098
11823TIP3   OH235413   3.105   3.235   4.538
11823TIP3    H135414   3.056   3.315   4.556
11823TIP3    H235415   3.043   3.164   4.554
11824TIP3   OH235416   3.955   0.976   1.652
11824TIP3    H135417   3.862   0.951   1.655
11824TIP3    H235418   3.956   1.069   1.676
11825TIP3   OH235419   6.070   6.988   5.433
11825TIP3    H135420   6.024   6.918   5.387
11825TIP3    H235421   6.011   7.063   5.430
11826TIP3   OH235422   6.516   0.452   1.752
11826TIP3    H135423   6.585   0.464   1.687
11826TIP3    H235424   6.502   0.357   1.754
11827TIP3   OH235425   3.172   0.993   2.856
11827TIP3    H135426   3.157   0.960   2.767
11827TIP3    H235427   3.145   1.085   2.852
11828TIP3   OH235428   7.509   3.361   6.658
11828TIP3    H135429   7.509   3.342   6.564
11828TIP3    H235430   7.495   3.456   6.662
11829TIP3   OH235431   4.681   7.398   4.753
11829TIP3    H135432   4.605   7.452   4.773
11829TIP3    H235433   4.686   7.336   4.826
11830TIP3   OH235434   2.036   5.567   3.397
11830TIP3    H135435   1.970   5.529   3.456
11830TIP3    H235436   2.115   5.574   3.450
11831TIP3   OH235437   5.414   4.226   5.110
11831TIP3    H135438   5.457   4.311   5.093
11831TIP3    H235439   5.452   4.196   5.193
11832TIP3   OH235440   5.917   5.136   4.099
11832TIP3    H135441   5.948   5.050   4.127
11832TIP3    H235442   5.822   5.130   4.105
11833TIP3   OH235443   7.404   6.958   4.908
11833TIP3    H135444   7.436   6.906   4.833
11833TIP3    H235445   7.414   6.900   4.983
11834TIP3   OH235446   7.009   7.051   3.436
11834TIP3    H135447   6.925   7.089   3.412
11834TIP3    H235448   6.990   6.957   3.446
11835TIP3   OH235449   7.333   5.203   5.530
11835TIP3    H135450   7.412   5.154   5.552
11835TIP3    H235451   7.262   5.152   5.568
11836TIP3   OH235452   6.519   5.531   5.975
11836TIP3    H135453   6.558   5.464   5.919
11836TIP3    H235454   6.520   5.492   6.063
11837TIP3   OH235455   8.223   1.835   6.694
11837TIP3    H135456   8.210   1.743   6.714
11837TIP3    H235457   8.276   1.868   6.767
11838TIP3   OH235458   7.021   0.989   5.319
11838TIP3    H135459   6.938   0.950   5.292
11838TIP3    H235460   7.006   1.083   5.315
11839TIP3   OH235461   1.629   7.109   6.222
11839TIP3    H135462   1.587   7.195   6.222
11839TIP3    H235463   1.581   7.059   6.289
11840TIP3   OH235464   2.892   1.301   1.537
11840TIP3    H135465   2.891   1.391   1.503
11840TIP3    H235466   2.800   1.282   1.555
11841TIP3   OH235467   3.802   1.782   2.480
11841TIP3    H135468   3.755   1.706   2.514
11841TIP3    H235469   3.892   1.769   2.509
11842TIP3   OH235470   5.029   4.682   0.072
11842TIP3    H135471   5.021   4.664   0.166
11842TIP3    H235472   5.082   4.762   0.067
11843TIP3   OH235473   1.055   1.002   3.833
11843TIP3    H135474   0.981   1.045   3.876
11843TIP3    H235475   1.059   0.915   3.873
11844TIP3   OH235476   4.701   5.105   1.661
11844TIP3    H135477   4.782   5.146   1.632
11844TIP3    H235478   4.678   5.152   1.741
11845TIP3   OH235479   2.458   6.554   5.915
11845TIP3    H135480   2.435   6.472   5.872
11845TIP3    H235481   2.378   6.607   5.910
11846TIP3   OH235482   0.165   4.748   4.971
11846TIP3    H135483   0.129   4.674   4.923
11846TIP3    H235484   0.126   4.741   5.059
11847TIP3   OH235485   0.966   1.436   1.286
11847TIP3    H135486   0.989   1.497   1.217
11847TIP3    H235487   1.036   1.370   1.284
11848TIP3   OH235488   3.892   2.544   3.423
11848TIP3    H135489   3.930   2.457   3.437
11848TIP3    H235490   3.938   2.578   3.346
11849TIP3   OH235491   1.607   0.062   4.684
11849TIP3    H135492   1.667  -0.006   4.652
11849TIP3    H235493   1.621   0.136   4.625
11850TIP3   OH235494   6.174   5.411   3.217
11850TIP3    H135495   6.131   5.413   3.303
11850TIP3    H235496   6.188   5.503   3.196
11851TIP3   OH235497   1.995   2.732   4.842
11851TIP3    H135498   2.008   2.691   4.927
11851TIP3    H235499   2.029   2.668   4.779
11852TIP3   OH235500   3.855   5.049   3.539
11852TIP3    H135501   3.880   5.117   3.601
11852TIP3    H235502   3.854   4.968   3.590
11853TIP3   OH235503   4.747   0.730   5.624
11853TIP3    H135504   4.828   0.778   5.641
11853TIP3    H235505   4.777   0.644   5.593
11854TIP3   OH235506   2.673   3.046   4.558
11854TIP3    H135507   2.687   2.993   4.479
11854TIP3    H235508   2.761   3.066   4.590
11855TIP3   OH235509   3.641   2.125   5.168
11855TIP3    H135510   3.591   2.055   5.127
11855TIP3    H235511   3.674   2.086   5.249
11856TIP3   OH235512   0.778   1.480   2.938
11856TIP3    H135513   0.841   1.504   2.870
11856TIP3    H235514   0.731   1.560   2.957
11857TIP3   OH235515   0.716   0.752   2.834
11857TIP3    H135516   0.774   0.816   2.793
11857TIP3    H235517   0.643   0.804   2.867
11858TIP3   OH235518   4.695   5.584   0.882
11858TIP3    H135519   4.690   5.667   0.929
11858TIP3    H235520   4.788   5.570   0.867
11859TIP3   OH235521   4.503   7.681   3.848
11859TIP3    H135522   4.523   7.587   3.850
11859TIP3    H235523   4.427   7.690   3.905
11860TIP3   OH235524   1.938   5.528   3.829
11860TIP3    H135525   1.904   5.543   3.917
11860TIP3    H235526   1.925   5.434   3.814
11861TIP3   OH235527   5.835   5.347   0.426
11861TIP3    H135528   5.752   5.326   0.385
11861TIP3    H235529   5.840   5.289   0.502
11862TIP3   OH235530   3.734   5.806   1.276
11862TIP3    H135531   3.698   5.721   1.253
11862TIP3    H235532   3.805   5.820   1.212
11863TIP3   OH235533   3.414   2.907   4.754
11863TIP3    H135534   3.482   2.965   4.718
11863TIP3    H235535   3.400   2.940   4.843
11864TIP3   OH235536   8.148   7.289   4.527
11864TIP3    H135537   8.139   7.204   4.483
11864TIP3    H235538   8.206   7.271   4.601
11865TIP3   OH235539   5.173   7.200   6.238
11865TIP3    H135540   5.105   7.134   6.253
11865TIP3    H235541   5.218   7.171   6.158
11866TIP3   OH235542   1.493   0.985   6.582
11866TIP3    H135543   1.497   1.075   6.552
11866TIP3    H235544   1.475   0.934   6.503
11867TIP3   OH235545   1.757   6.715   5.982
11867TIP3    H135546   1.729   6.631   5.946
11867TIP3    H235547   1.843   6.730   5.945
11868TIP3   OH235548   6.986   1.646   1.327
11868TIP3    H135549   7.064   1.701   1.328
11868TIP3    H235550   6.913   1.708   1.326
11869TIP3   OH235551   6.726   7.702   5.676
11869TIP3    H135552   6.717   7.780   5.731
11869TIP3    H235553   6.639   7.662   5.675
11870TIP3   OH235554   5.242   2.564   5.316
11870TIP3    H135555   5.211   2.483   5.276
11870TIP3    H235556   5.332   2.546   5.341
11871TIP3   OH235557   5.873   4.153   2.902
11871TIP3    H135558   5.868   4.232   2.848
11871TIP3    H235559   5.902   4.184   2.987
11872TIP3   OH235560   5.421   3.571   4.449
11872TIP3    H135561   5.433   3.589   4.356
11872TIP3    H235562   5.398   3.656   4.487
11873TIP3   OH235563   0.363   1.763   4.885
11873TIP3    H135564   0.375   1.742   4.977
11873TIP3    H235565   0.443   1.809   4.860
11874TIP3   OH235566   3.966   2.154   6.371
11874TIP3    H135567   3.967   2.194   6.458
11874TIP3    H235568   3.874   2.134   6.355
11875TIP3   OH235569   6.724   3.132   2.148
11875TIP3    H135570   6.818   3.144   2.136
11875TIP3    H235571   6.705   3.049   2.104
11876TIP3   OH235572   0.705   7.350   0.308
11876TIP3    H135573   0.783   7.388   0.347
11876TIP3    H235574   0.658   7.309   0.381
11877TIP3   OH235575   7.800   2.217   0.707
11877TIP3    H135576   7.717   2.197   0.751
11877TIP3    H235577   7.780   2.290   0.650
11878TIP3   OH235578   4.184   0.579   5.800
11878TIP3    H135579   4.270   0.538   5.796
11878TIP3    H235580   4.190   0.654   5.741
11879TIP3   OH235581   6.463   6.224   1.378
11879TIP3    H135582   6.405   6.270   1.317
11879TIP3    H235583   6.414   6.146   1.405
11880TIP3   OH235584   6.443   0.270   0.436
11880TIP3    H135585   6.419   0.182   0.408
11880TIP3    H235586   6.498   0.256   0.513
11881TIP3   OH235587   5.395   6.273   5.805
11881TIP3    H135588   5.360   6.225   5.880
11881TIP3    H235589   5.463   6.330   5.842
11882TIP3   OH235590   2.803   1.492   6.761
11882TIP3    H135591   2.808   1.505   6.667
11882TIP3    H235592   2.887   1.524   6.795
11883TIP3   OH235593   4.677   2.133   2.258
11883TIP3    H135594   4.607   2.137   2.193
11883TIP3    H235595   4.638   2.089   2.333
11884TIP3   OH235596   7.272   0.316   6.548
11884TIP3    H135597   7.355   0.324   6.501
11884TIP3    H235598   7.265   0.397   6.597
11885TIP3   OH235599   3.843   1.693   6.308
11885TIP3    H135600   3.937   1.678   6.323
11885TIP3    H235601   3.809   1.607   6.284
11886TIP3   OH235602   4.362   7.353   5.924
11886TIP3    H135603   4.301   7.338   5.996
11886TIP3    H235604   4.393   7.442   5.936
11887TIP3   OH235605   6.091   7.314   5.270
11887TIP3    H135606   6.072   7.273   5.186
11887TIP3    H235607   6.145   7.390   5.247
11888TIP3   OH235608   3.060   0.276   5.704
11888TIP3    H135609   3.025   0.365   5.702
11888TIP3    H235610   3.100   0.268   5.791
11889TIP3   OH235611   7.482   7.267   4.295
11889TIP3    H135612   7.509   7.177   4.272
11889TIP3    H235613   7.453   7.261   4.386
11890TIP3   OH235614   5.925   4.524   1.572
11890TIP3    H135615   6.016   4.500   1.554
11890TIP3    H235616   5.894   4.565   1.491
11891TIP3   OH235617   4.798   4.060   1.912
11891TIP3    H135618   4.790   3.974   1.952
11891TIP3    H235619   4.845   4.113   1.977
11892TIP3   OH235620   2.563   6.362   4.942
11892TIP3    H135621   2.586   6.276   4.976
11892TIP3    H235622   2.640   6.388   4.890
11893TIP3   OH235623   4.152   7.183   3.174
11893TIP3    H135624   4.130   7.268   3.137
11893TIP3    H235625   4.196   7.136   3.103
11894TIP3   OH235626   1.912   3.660   4.704
11894TIP3    H135627   1.844   3.631   4.765
11894TIP3    H235628   1.886   3.748   4.679
11895TIP3   OH235629   5.466   5.998   5.668
11895TIP3    H135630   5.503   5.984   5.755
11895TIP3    H235631   5.499   6.084   5.641
11896TIP3   OH235632   3.903   4.379   0.338
11896TIP3    H135633   3.866   4.400   0.423
11896TIP3    H235634   3.997   4.395   0.348
11897TIP3   OH235635   5.077   2.424   4.343
11897TIP3    H135636   5.032   2.392   4.422
11897TIP3    H235637   5.101   2.344   4.296
11898TIP3   OH235638   2.947   6.881   3.639
11898TIP3    H135639   2.988   6.795   3.636
11898TIP3    H235640   2.983   6.928   3.564
11899TIP3   OH235641   1.168   3.248   0.947
11899TIP3    H135642   1.215   3.323   0.983
11899TIP3    H235643   1.196   3.174   1.000
11900TIP3   OH235644   3.402   2.596   5.267
11900TIP3    H135645   3.321   2.566   5.310
11900TIP3    H235646   3.438   2.661   5.328
11901TIP3   OH235647   2.624   4.706   3.880
11901TIP3    H135648   2.613   4.779   3.820
11901TIP3    H235649   2.624   4.745   3.967
11902TIP3   OH235650   7.520   6.436   5.890
11902TIP3    H135651   7.485   6.361   5.842
11902TIP3    H235652   7.547   6.498   5.822
11903TIP3   OH235653   4.915   0.672   0.757
11903TIP3    H135654   4.862   0.743   0.721
11903TIP3    H235655   4.919   0.690   0.851
11904TIP3   OH235656   1.313   5.998   5.777
11904TIP3    H135657   1.333   6.016   5.869
11904TIP3    H235658   1.397   5.974   5.738
11905TIP3   OH235659   5.431   0.885   4.968
11905TIP3    H135660   5.432   0.955   4.903
11905TIP3    H235661   5.447   0.805   4.918
11906TIP3   OH235662   1.857   2.155   6.596
11906TIP3    H135663   1.845   2.095   6.669
11906TIP3    H235664   1.939   2.129   6.555
11907TIP3   OH235665   7.210   4.699   1.474
11907TIP3    H135666   7.252   4.785   1.481
11907TIP3    H235667   7.239   4.665   1.390
11908TIP3   OH235668   4.371   1.491   6.639
11908TIP3    H135669   4.303   1.532   6.585
11908TIP3    H235670   4.364   1.398   6.619
11909TIP3   OH235671   7.275   4.639   2.118
11909TIP3    H135672   7.319   4.577   2.059
11909TIP3    H235673   7.287   4.601   2.205
11910TIP3   OH235674   6.167   4.434   1.487
11910TIP3    H135675   6.213   4.461   1.407
11910TIP3    H235676   6.212   4.355   1.515
11911TIP3   OH235677   3.958   1.576   2.667
11911TIP3    H135678   4.042   1.593   2.708
11911TIP3    H235679   3.894   1.618   2.725
11912TIP3   OH235680   3.010   4.458   1.889
11912TIP3    H135681   3.060   4.528   1.846
11912TIP3    H235682   3.029   4.380   1.836
11913TIP3   OH235683   7.932   7.605   6.571
11913TIP3    H135684   7.953   7.669   6.503
11913TIP3    H235685   7.860   7.553   6.535
11914TIP3   OH235686   7.820   4.645   3.800
11914TIP3    H135687   7.840   4.703   3.726
11914TIP3    H235688   7.900   4.595   3.814
11915TIP3   OH235689   6.300   0.246   2.498
11915TIP3    H135690   6.336   0.332   2.478
11915TIP3    H235691   6.373   0.197   2.536
11916TIP3   OH235692   2.340   6.585   4.872
11916TIP3    H135693   2.373   6.584   4.962
11916TIP3    H235694   2.413   6.555   4.819
11917TIP3   OH235695   1.081   1.981   2.241
11917TIP3    H135696   1.041   2.039   2.176
11917TIP3    H235697   1.020   1.909   2.251
11918TIP3   OH235698   7.735   6.194   2.746
11918TIP3    H135699   7.664   6.202   2.682
11918TIP3    H235700   7.791   6.270   2.730
11919TIP3   OH235701   0.722   4.655   2.152
11919TIP3    H135702   0.627   4.653   2.163
11919TIP3    H235703   0.739   4.606   2.072
11920TIP3   OH235704   7.426   3.321   0.854
11920TIP3    H135705   7.354   3.278   0.808
11920TIP3    H235706   7.503   3.267   0.835
11921TIP3   OH235707   2.440   2.493   6.024
11921TIP3    H135708   2.420   2.551   6.098
11921TIP3    H235709   2.368   2.507   5.963
11922TIP3   OH235710   3.574   4.581   1.030
11922TIP3    H135711   3.633   4.556   0.959
11922TIP3    H235712   3.550   4.671   1.011
11923TIP3   OH235713   1.716   4.129   2.982
11923TIP3    H135714   1.762   4.045   2.988
11923TIP3    H235715   1.741   4.177   3.061
11924TIP3   OH235716   5.013   1.352   0.396
11924TIP3    H135717   5.098   1.322   0.362
11924TIP3    H235718   5.003   1.440   0.360
11925TIP3   OH235719   1.074   4.886   0.584
11925TIP3    H135720   1.061   4.840   0.667
11925TIP3    H235721   1.154   4.848   0.548
11926TIP3   OH235722   2.941   0.030   5.750
11926TIP3    H135723   2.846   0.022   5.752
11926TIP3    H235724   2.956   0.120   5.720
11927TIP3   OH235725   0.359   3.441   1.413
11927TIP3    H135726   0.282   3.464   1.361
11927TIP3    H235727   0.388   3.357   1.378
11928TIP3   OH235728   6.470   2.716   1.635
11928TIP3    H135729   6.432   2.638   1.593
11928TIP3    H235730   6.399   2.750   1.690
11929TIP3   OH235731   4.514   1.365   4.421
11929TIP3    H135732   4.600   1.357   4.464
11929TIP3    H235733   4.524   1.439   4.362
11930TIP3   OH235734   2.826   1.070   1.294
11930TIP3    H135735   2.897   1.072   1.230
11930TIP3    H235736   2.870   1.061   1.379
11931TIP3   OH235737   3.751   6.942   6.288
11931TIP3    H135738   3.687   6.980   6.228
11931TIP3    H235739   3.821   7.007   6.292
11932TIP3   OH235740   1.375   1.305   4.299
11932TIP3    H135741   1.468   1.282   4.294
11932TIP3    H235742   1.359   1.361   4.223
11933TIP3   OH235743   5.074   1.512   1.650
11933TIP3    H135744   5.091   1.452   1.723
11933TIP3    H235745   5.112   1.469   1.574
11934TIP3   OH235746   5.395   6.586   6.598
11934TIP3    H135747   5.466   6.525   6.615
11934TIP3    H235748   5.435   6.655   6.545
11935TIP3   OH235749   2.820   1.646   0.787
11935TIP3    H135750   2.902   1.690   0.765
11935TIP3    H235751   2.842   1.553   0.786
11936TIP3   OH235752   5.508   5.633   5.760
11936TIP3    H135753   5.417   5.661   5.761
11936TIP3    H235754   5.520   5.586   5.842
11937TIP3   OH235755   6.840   1.087   3.706
11937TIP3    H135756   6.884   1.157   3.659
11937TIP3    H235757   6.836   1.014   3.644
11938TIP3   OH235758   2.937   2.148   5.984
11938TIP3    H135759   2.946   2.231   5.937
11938TIP3    H235760   2.990   2.160   6.063
11939TIP3   OH235761   7.528   7.084   0.053
11939TIP3    H135762   7.575   7.162   0.023
11939TIP3    H235763   7.596   7.023   0.080
11940TIP3   OH235764   2.362   6.169   6.523
11940TIP3    H135765   2.329   6.111   6.592
11940TIP3    H235766   2.370   6.254   6.566
11941TIP3   OH235767   7.818   0.848   4.658
11941TIP3    H135768   7.806   0.941   4.641
11941TIP3    H235769   7.852   0.844   4.747
11942TIP3   OH235770   3.881   4.487   2.593
11942TIP3    H135771   3.815   4.500   2.525
11942TIP3    H235772   3.861   4.402   2.631
11943TIP3   OH235773   2.418   6.280   6.103
11943TIP3    H135774   2.359   6.261   6.177
11943TIP3    H235775   2.469   6.356   6.133
11944TIP3   OH235776   1.264   3.961   1.978
11944TIP3    H135777   1.297   4.019   2.047
11944TIP3    H235778   1.269   4.013   1.898
11945TIP3   OH235779   4.400   3.067   2.284
11945TIP3    H135780   4.348   3.034   2.357
11945TIP3    H235781   4.359   3.029   2.206
11946TIP3   OH235782   1.570   1.495   6.382
11946TIP3    H135783   1.655   1.525   6.415
11946TIP3    H235784   1.571   1.400   6.398
11947TIP3   OH235785   6.619   1.863   2.618
11947TIP3    H135786   6.591   1.786   2.569
11947TIP3    H235787   6.563   1.933   2.587
11948TIP3   OH235788   0.580   2.488   2.177
11948TIP3    H135789   0.488   2.505   2.157
11948TIP3    H235790   0.626   2.510   2.096
11949TIP3   OH235791   2.217   4.816   6.311
11949TIP3    H135792   2.295   4.871   6.299
11949TIP3    H235793   2.143   4.875   6.298
11950TIP3   OH235794   1.031   0.739   4.666
11950TIP3    H135795   1.050   0.784   4.584
11950TIP3    H235796   1.024   0.809   4.731
11951TIP3   OH235797   1.877   3.522   2.502
11951TIP3    H135798   1.895   3.572   2.422
11951TIP3    H235799   1.945   3.551   2.563
11952TIP3   OH235800   3.444   4.376   0.270
11952TIP3    H135801   3.488   4.415   0.346
11952TIP3    H235802   3.387   4.445   0.237
11953TIP3   OH235803   0.244   2.085   2.469
11953TIP3    H135804   0.247   2.176   2.442
11953TIP3    H235805   0.164   2.050   2.428
11954TIP3   OH235806   2.654   1.137   0.014
11954TIP3    H135807   2.644   1.043   0.033
11954TIP3    H235808   2.608   1.181   0.085
11955TIP3   OH235809   3.577   4.441   3.182
11955TIP3    H135810   3.507   4.452   3.118
11955TIP3    H235811   3.532   4.436   3.266
11956TIP3   OH235812   1.807   6.319   3.424
11956TIP3    H135813   1.871   6.374   3.470
11956TIP3    H235814   1.845   6.303   3.338
11957TIP3   OH235815   4.226   1.813   5.754
11957TIP3    H135816   4.179   1.893   5.778
11957TIP3    H235817   4.177   1.779   5.679
11958TIP3   OH235818   1.840   6.598   3.769
11958TIP3    H135819   1.778   6.635   3.705
11958TIP3    H235820   1.791   6.530   3.814
11959TIP3   OH235821   6.658   2.429   2.587
11959TIP3    H135822   6.672   2.334   2.582
11959TIP3    H235823   6.687   2.453   2.675
11960TIP3   OH235824   5.589   0.519   6.588
11960TIP3    H135825   5.636   0.598   6.564
11960TIP3    H235826   5.656   0.451   6.590
11961TIP3   OH235827   3.070   7.380   2.017
11961TIP3    H135828   3.152   7.397   1.971
11961TIP3    H235829   3.037   7.299   1.978
11962TIP3   OH235830   5.315   0.776   0.296
11962TIP3    H135831   5.221   0.775   0.317
11962TIP3    H235832   5.339   0.868   0.300
11963TIP3   OH235833   2.916   5.850   2.619
11963TIP3    H135834   2.917   5.789   2.692
11963TIP3    H235835   2.826   5.883   2.616
11964TIP3   OH235836   2.379   2.709   2.331
11964TIP3    H135837   2.340   2.743   2.250
11964TIP3    H235838   2.353   2.772   2.398
11965TIP3   OH235839   7.870   1.408   5.306
11965TIP3    H135840   7.790   1.397   5.357
11965TIP3    H235841   7.909   1.488   5.341
11966TIP3   OH235842   8.077   1.879   4.410
11966TIP3    H135843   8.158   1.892   4.460
11966TIP3    H235844   8.009   1.914   4.467
11967TIP3   OH235845   7.175   1.753   3.686
11967TIP3    H135846   7.171   1.766   3.591
11967TIP3    H235847   7.168   1.659   3.698
11968TIP3   OH235848   3.273   6.230   0.819
11968TIP3    H135849   3.228   6.306   0.782
11968TIP3    H235850   3.323   6.194   0.747
11969TIP3   OH235851   3.293   0.875   2.128
11969TIP3    H135852   3.385   0.853   2.113
11969TIP3    H235853   3.279   0.955   2.076
11970TIP3   OH235854   6.878   3.769   4.554
11970TIP3    H135855   6.808   3.808   4.502
11970TIP3    H235856   6.891   3.682   4.517
11971TIP3   OH235857   4.601   0.524   1.106
11971TIP3    H135858   4.585   0.478   1.189
11971TIP3    H235859   4.582   0.459   1.039
11972TIP3   OH235860   3.594   6.075   3.714
11972TIP3    H135861   3.648   6.005   3.677
11972TIP3    H235862   3.504   6.045   3.702
11973TIP3   OH235863   0.215   0.577   5.439
11973TIP3    H135864   0.171   0.493   5.429
11973TIP3    H235865   0.247   0.577   5.529
11974TIP3   OH235866   5.531   5.924   3.652
11974TIP3    H135867   5.618   5.899   3.620
11974TIP3    H235868   5.549   5.969   3.735
11975TIP3   OH235869   3.632   4.979   0.256
11975TIP3    H135870   3.673   5.055   0.214
11975TIP3    H235871   3.672   4.903   0.214
11976TIP3   OH235872   5.245   4.073   2.178
11976TIP3    H135873   5.306   4.060   2.105
11976TIP3    H235874   5.302   4.097   2.252
11977TIP3   OH235875   7.177   1.972   6.535
11977TIP3    H135876   7.126   2.025   6.473
11977TIP3    H235877   7.182   1.886   6.494
11978TIP3   OH235878   6.361   7.326   1.581
11978TIP3    H135879   6.427   7.371   1.528
11978TIP3    H235880   6.408   7.256   1.624
11979TIP3   OH235881   3.932   6.175   2.294
11979TIP3    H135882   3.854   6.174   2.239
11979TIP3    H235883   3.919   6.250   2.352
11980TIP3   OH235884   1.061   5.272   4.496
11980TIP3    H135885   1.127   5.204   4.483
11980TIP3    H235886   1.093   5.347   4.446
11981TIP3   OH235887   6.445   2.188   2.307
11981TIP3    H135888   6.410   2.273   2.283
11981TIP3    H235889   6.537   2.205   2.328
11982TIP3   OH235890   6.806   6.506   5.899
11982TIP3    H135891   6.809   6.415   5.931
11982TIP3    H235892   6.763   6.554   5.970
11983TIP3   OH235893   2.061   4.737   6.020
11983TIP3    H135894   2.051   4.816   6.073
11983TIP3    H235895   2.138   4.754   5.965
11984TIP3   OH235896   0.532   3.163   3.650
11984TIP3    H135897   0.609   3.141   3.597
11984TIP3    H235898   0.500   3.245   3.613
11985TIP3   OH235899   6.137   6.773   0.392
11985TIP3    H135900   6.210   6.827   0.362
11985TIP3    H235901   6.122   6.711   0.322
11986TIP3   OH235902   4.484   2.134   5.526
11986TIP3    H135903   4.460   2.208   5.471
11986TIP3    H235904   4.542   2.081   5.471
11987TIP3   OH235905   7.316   5.612   5.129
11987TIP3    H135906   7.335   5.520   5.143
11987TIP3    H235907   7.290   5.618   5.037
11988TIP3   OH235908   5.928   5.706   5.158
11988TIP3    H135909   6.007   5.662   5.128
11988TIP3    H235910   5.960   5.771   5.221
11989TIP3   OH235911   3.960   6.885   1.037
11989TIP3    H135912   3.983   6.824   1.107
11989TIP3    H235913   3.973   6.836   0.956
11990TIP3   OH235914   1.604   6.288   3.609
11990TIP3    H135915   1.532   6.345   3.582
11990TIP3    H235916   1.669   6.296   3.540
11991TIP3   OH235917   1.981   0.529   6.611
11991TIP3    H135918   1.887   0.529   6.629
11991TIP3    H235919   2.016   0.599   6.665
11992TIP3   OH235920   7.235   3.679   0.147
11992TIP3    H135921   7.299   3.727   0.094
11992TIP3    H235922   7.198   3.745   0.205
11993TIP3   OH235923   3.431   1.730   0.668
11993TIP3    H135924   3.359   1.673   0.696
11993TIP3    H235925   3.410   1.752   0.577
11994TIP3   OH235926   7.208   4.357   5.966
11994TIP3    H135927   7.156   4.437   5.972
11994TIP3    H235928   7.284   4.382   5.913
11995TIP3   OH235929   4.014   3.952   3.477
11995TIP3    H135930   4.040   3.897   3.551
11995TIP3    H235931   3.959   4.020   3.515
11996TIP3   OH235932   4.517   3.243   6.743
11996TIP3    H135933   4.475   3.303   6.804
11996TIP3    H235934   4.601   3.222   6.784
11997TIP3   OH235935   6.081   3.203   0.907
11997TIP3    H135936   5.998   3.229   0.868
11997TIP3    H235937   6.113   3.131   0.853
11998TIP3   OH235938   3.781   4.768   3.593
11998TIP3    H135939   3.766   4.767   3.687
11998TIP3    H235940   3.708   4.718   3.557
11999TIP3   OH235941   0.024   6.352   4.667
11999TIP3    H135942   0.097   6.335   4.727
11999TIP3    H235943  -0.030   6.273   4.673
12000TIP3   OH235944   2.656   1.349   2.705
12000TIP3    H135945   2.699   1.301   2.776
12000TIP3    H235946   2.705   1.431   2.699
12001TIP3   OH235947   2.225   5.208   5.140
12001TIP3    H135948   2.152   5.259   5.106
12001TIP3    H235949   2.263   5.165   5.063
12002TIP3   OH235950   4.386   0.975   0.461
12002TIP3    H135951   4.434   0.899   0.429
12002TIP3    H235952   4.317   0.988   0.396
12003TIP3   OH235953   4.489   7.612   1.690
12003TIP3    H135954   4.508   7.538   1.632
12003TIP3    H235955   4.393   7.614   1.693
12004TIP3   OH235956   1.680   6.380   4.963
12004TIP3    H135957   1.764   6.400   5.004
12004TIP3    H235958   1.614   6.409   5.026
12005TIP3   OH235959   4.814   3.345   5.705
12005TIP3    H135960   4.758   3.368   5.631
12005TIP3    H235961   4.831   3.251   5.693
12006TIP3   OH235962   6.555   7.710   1.488
12006TIP3    H135963   6.466   7.742   1.504
12006TIP3    H235964   6.554   7.619   1.518
12007TIP3   OH235965   5.330   3.055   2.345
12007TIP3    H135966   5.380   2.981   2.310
12007TIP3    H235967   5.264   3.016   2.401
12008TIP3   OH235968   6.776   7.245   5.736
12008TIP3    H135969   6.864   7.253   5.701
12008TIP3    H235970   6.721   7.225   5.660
12009TIP3   OH235971   5.500   6.263   3.502
12009TIP3    H135972   5.547   6.278   3.420
12009TIP3    H235973   5.443   6.187   3.484
12010TIP3   OH235974   8.222   0.780   4.483
12010TIP3    H135975   8.164   0.730   4.540
12010TIP3    H235976   8.231   0.726   4.404
12011TIP3   OH235977   0.747   0.848   5.670
12011TIP3    H135978   0.722   0.828   5.579
12011TIP3    H235979   0.823   0.905   5.662
12012TIP3   OH235980   1.890   1.109   3.059
12012TIP3    H135981   1.962   1.167   3.032
12012TIP3    H235982   1.863   1.143   3.144
12013TIP3   OH235983   0.897   2.531   0.858
12013TIP3    H135984   0.965   2.471   0.828
12013TIP3    H235985   0.916   2.613   0.813
12014TIP3   OH235986   7.267   6.808   1.738
12014TIP3    H135987   7.345   6.754   1.727
12014TIP3    H235988   7.230   6.815   1.650
12015TIP3   OH235989   3.885   0.915   3.387
12015TIP3    H135990   3.791   0.897   3.385
12015TIP3    H235991   3.898   0.980   3.318
12016TIP3   OH235992   7.173   6.515   4.908
12016TIP3    H135993   7.190   6.603   4.940
12016TIP3    H235994   7.258   6.485   4.874
12017TIP3   OH235995   0.878   4.307   1.745
12017TIP3    H135996   0.912   4.318   1.656
12017TIP3    H235997   0.805   4.247   1.736
12018TIP3   OH235998   0.398   3.489   0.574
12018TIP3    H135999   0.482   3.490   0.621
12018TIP3    H236000   0.393   3.400   0.538
12019TIP3   OH236001   3.522   3.225   1.771
12019TIP3    H136002   3.488   3.229   1.861
12019TIP3    H236003   3.612   3.194   1.781
12020TIP3   OH236004   4.573   1.998   3.046
12020TIP3    H136005   4.627   2.070   3.014
12020TIP3    H236006   4.626   1.956   3.114
12021TIP3   OH236007   3.347   5.220   4.849
12021TIP3    H136008   3.442   5.231   4.853
12021TIP3    H236009   3.329   5.200   4.757
12022TIP3   OH236010   1.828   2.415   2.618
12022TIP3    H136011   1.861   2.335   2.578
12022TIP3    H236012   1.862   2.413   2.707
12023TIP3   OH236013   0.755   7.543   6.452
12023TIP3    H136014   0.700   7.542   6.531
12023TIP3    H236015   0.704   7.493   6.388
12024TIP3   OH236016   4.763   4.755   4.541
12024TIP3    H136017   4.825   4.783   4.473
12024TIP3    H236018   4.726   4.673   4.508
12025TIP3   OH236019   3.677   5.597   3.345
12025TIP3    H136020   3.756   5.625   3.391
12025TIP3    H236021   3.610   5.660   3.370
12026TIP3   OH236022   3.199   2.022   0.681
12026TIP3    H136023   3.242   1.980   0.606
12026TIP3    H236024   3.118   1.972   0.693
12027TIP3   OH236025   0.947   0.245   3.638
12027TIP3    H136026   1.004   0.262   3.713
12027TIP3    H236027   0.952   0.326   3.586
12028TIP3   OH236028   0.016   2.406   1.630
12028TIP3    H136029   0.018   2.357   1.547
12028TIP3    H236030   0.028   2.339   1.697
12029TIP3   OH236031   1.648   7.481   6.436
12029TIP3    H136032   1.681   7.395   6.461
12029TIP3    H236033   1.605   7.514   6.515
12030TIP3   OH236034   7.389   3.157   1.277
12030TIP3    H136035   7.358   3.216   1.345
12030TIP3    H236036   7.381   3.206   1.196
12031TIP3   OH236037   5.033   4.816   4.057
12031TIP3    H136038   5.016   4.879   4.127
12031TIP3    H236039   5.004   4.861   3.978
12032TIP3   OH236040   6.858   4.557   0.506
12032TIP3    H136041   6.905   4.584   0.428
12032TIP3    H236042   6.927   4.543   0.572
12033TIP3   OH236043   4.020   0.675   4.315
12033TIP3    H136044   4.010   0.735   4.389
12033TIP3    H236045   3.983   0.723   4.241
12034TIP3   OH236046   1.512   1.629   3.739
12034TIP3    H136047   1.532   1.722   3.747
12034TIP3    H236048   1.422   1.622   3.773
12035TIP3   OH236049   7.013   2.027   1.972
12035TIP3    H136050   7.065   2.015   2.051
12035TIP3    H236051   6.937   1.970   1.984
12036TIP3   OH236052   7.287   6.200   0.052
12036TIP3    H136053   7.341   6.273   0.081
12036TIP3    H236054   7.349   6.131   0.030
12037TIP3   OH236055   3.831   5.434   4.873
12037TIP3    H136056   3.880   5.363   4.831
12037TIP3    H236057   3.769   5.463   4.806
12038TIP3   OH236058   3.760   7.024   5.153
12038TIP3    H136059   3.833   7.087   5.154
12038TIP3    H236060   3.779   6.966   5.079
12039TIP3   OH236061   5.319   2.748   5.506
12039TIP3    H136062   5.368   2.826   5.481
12039TIP3    H236063   5.305   2.701   5.424
12040TIP3   OH236064   6.858   6.095   2.159
12040TIP3    H136065   6.832   6.048   2.239
12040TIP3    H236066   6.847   6.187   2.181
12041TIP3   OH236067   8.213   3.334   5.053
12041TIP3    H136068   8.262   3.393   5.110
12041TIP3    H236069   8.160   3.281   5.113
12042TIP3   OH236070   4.738   5.136   5.023
12042TIP3    H136071   4.680   5.159   4.950
12042TIP3    H236072   4.682   5.088   5.084
12043TIP3   OH236073   4.863   7.331   3.844
12043TIP3    H136074   4.803   7.329   3.768
12043TIP3    H236075   4.860   7.421   3.874
12044TIP3   OH236076   0.337   0.225   2.829
12044TIP3    H136077   0.429   0.233   2.803
12044TIP3    H236078   0.298   0.167   2.764
12045TIP3   OH236079   2.933   5.896   3.547
12045TIP3    H136080   2.945   5.841   3.469
12045TIP3    H236081   2.978   5.848   3.617
12046TIP3   OH236082   6.763   1.337   3.106
12046TIP3    H136083   6.697   1.344   3.174
12046TIP3    H236084   6.716   1.351   3.024
12047TIP3   OH236085   4.136   3.637   0.869
12047TIP3    H136086   4.093   3.667   0.789
12047TIP3    H236087   4.122   3.708   0.932
12048TIP3   OH236088   6.751   4.574   1.474
12048TIP3    H136089   6.671   4.546   1.518
12048TIP3    H236090   6.778   4.653   1.521
12049TIP3   OH236091   8.052  -0.007   5.572
12049TIP3    H136092   8.064   0.087   5.563
12049TIP3    H236093   8.098  -0.044   5.496
12050TIP3   OH236094   2.932   6.124   2.210
12050TIP3    H136095   2.969   6.070   2.280
12050TIP3    H236096   2.846   6.151   2.243
12051TIP3   OH236097   3.571   6.319   2.042
12051TIP3    H136098   3.523   6.259   1.984
12051TIP3    H236099   3.599   6.263   2.115
12052TIP3   OH236100   3.925   2.918   1.129
12052TIP3    H136101   3.908   2.957   1.214
12052TIP3    H236102   3.977   2.839   1.149
12053TIP3   OH236103   2.765   5.885   4.630
12053TIP3    H136104   2.808   5.961   4.667
12053TIP3    H236105   2.741   5.912   4.541
12054TIP3   OH236106   0.892   3.536   4.093
12054TIP3    H136107   0.878   3.528   4.187
12054TIP3    H236108   0.915   3.628   4.080
12055TIP3   OH236109   6.028   5.930   5.288
12055TIP3    H136110   5.943   5.974   5.283
12055TIP3    H236111   6.073   5.975   5.360
12056TIP3   OH236112   4.403   6.348   6.348
12056TIP3    H136113   4.410   6.304   6.433
12056TIP3    H236114   4.374   6.279   6.288
12057TIP3   OH236115   7.063   2.889   5.240
12057TIP3    H136116   7.005   2.852   5.307
12057TIP3    H236117   7.114   2.955   5.287
12058TIP3   OH236118   0.001   3.268   0.173
12058TIP3    H136119   0.037   3.354   0.196
12058TIP3    H236120  -0.004   3.269   0.077
12059TIP3   OH236121   7.383   3.109   5.595
12059TIP3    H136122   7.416   3.082   5.681
12059TIP3    H236123   7.441   3.181   5.569
12060TIP3   OH236124   3.314   5.615   0.019
12060TIP3    H136125   3.407   5.602   0.005
12060TIP3    H236126   3.276   5.527   0.013
12061TIP3   OH236127   6.503   7.752   6.085
12061TIP3    H136128   6.519   7.660   6.063
12061TIP3    H236129   6.411   7.767   6.062
12062TIP3   OH236130   7.149   6.352   0.326
12062TIP3    H136131   7.188   6.277   0.369
12062TIP3    H236132   7.218   6.387   0.271
12063TIP3   OH236133   5.794   0.492   4.467
12063TIP3    H136134   5.826   0.424   4.526
12063TIP3    H236135   5.789   0.449   4.382
12064TIP3   OH236136   0.652   3.977   4.471
12064TIP3    H136137   0.605   4.036   4.412
12064TIP3    H236138   0.729   3.949   4.421
12065TIP3   OH236139   3.790   6.710   5.282
12065TIP3    H136140   3.822   6.623   5.304
12065TIP3    H236141   3.866   6.753   5.241
12066TIP3   OH236142   7.505   2.324   6.631
12066TIP3    H136143   7.467   2.270   6.701
12066TIP3    H236144   7.432   2.375   6.598
12067TIP3   OH236145   2.237   3.546   5.830
12067TIP3    H136146   2.286   3.547   5.748
12067TIP3    H236147   2.255   3.632   5.869
12068TIP3   OH236148   2.770   4.184   3.476
12068TIP3    H136149   2.866   4.183   3.482
12068TIP3    H236150   2.752   4.238   3.398
12069TIP3   OH236151  -0.032   3.342   0.646
12069TIP3    H136152   0.031   3.297   0.589
12069TIP3    H236153   0.020   3.372   0.720
12070TIP3   OH236154   2.882   3.150   6.450
12070TIP3    H136155   2.886   3.057   6.474
12070TIP3    H236156   2.796   3.179   6.481
12071TIP3   OH236157   3.876   0.249   4.743
12071TIP3    H136158   3.928   0.328   4.759
12071TIP3    H236159   3.799   0.260   4.799
12072TIP3   OH236160   5.839   2.020   5.178
12072TIP3    H136161   5.773   2.070   5.225
12072TIP3    H236162   5.919   2.073   5.184
12073TIP3   OH236163   2.162   3.276   2.925
12073TIP3    H136164   2.255   3.297   2.910
12073TIP3    H236165   2.151   3.283   3.020
12074TIP3   OH236166   1.925   2.193   5.692
12074TIP3    H136167   1.830   2.182   5.700
12074TIP3    H236168   1.962   2.125   5.749
12075TIP3   OH236169   3.472   4.357   5.507
12075TIP3    H136170   3.437   4.268   5.501
12075TIP3    H236171   3.530   4.354   5.584
12076TIP3   OH236172   1.288   4.475   5.407
12076TIP3    H136173   1.332   4.558   5.388
12076TIP3    H236174   1.288   4.428   5.323
12077TIP3   OH236175   6.372   3.172   1.554
12077TIP3    H136176   6.436   3.159   1.484
12077TIP3    H236177   6.293   3.203   1.509
12078TIP3   OH236178   5.740   6.343   5.457
12078TIP3    H136179   5.723   6.292   5.536
12078TIP3    H236180   5.827   6.315   5.428
12079TIP3   OH236181   5.650   0.410   5.100
12079TIP3    H136182   5.731   0.360   5.090
12079TIP3    H236183   5.596   0.385   5.025
12080TIP3   OH236184   5.042   7.778   4.795
12080TIP3    H136185   5.028   7.872   4.792
12080TIP3    H236186   4.976   7.746   4.856
12081TIP3   OH236187   3.715   0.087   1.201
12081TIP3    H136188   3.780   0.019   1.220
12081TIP3    H236189   3.691   0.073   1.110
12082TIP3   OH236190   2.035   3.327   4.604
12082TIP3    H136191   1.958   3.368   4.565
12082TIP3    H236192   2.032   3.355   4.696
12083TIP3   OH236193   5.565   1.370   0.790
12083TIP3    H136194   5.475   1.340   0.778
12083TIP3    H236195   5.571   1.448   0.736
12084TIP3   OH236196   3.382   3.021   4.304
12084TIP3    H136197   3.446   3.027   4.375
12084TIP3    H236198   3.344   2.934   4.313
12085TIP3   OH236199   5.477   2.251   5.440
12085TIP3    H136200   5.505   2.161   5.455
12085TIP3    H236201   5.396   2.260   5.490
12086TIP3   OH236202   0.519   5.424   6.344
12086TIP3    H136203   0.551   5.495   6.400
12086TIP3    H236204   0.548   5.449   6.256
12087TIP3   OH236205   3.991   3.503   5.713
12087TIP3    H136206   4.031   3.422   5.744
12087TIP3    H236207   4.059   3.570   5.726
12088TIP3   OH236208   4.613   3.247   0.982
12088TIP3    H136209   4.584   3.251   0.891
12088TIP3    H236210   4.558   3.311   1.027
12089TIP3   OH236211   7.453   5.418   4.024
12089TIP3    H136212   7.545   5.390   4.027
12089TIP3    H236213   7.428   5.426   4.116
12090TIP3   OH236214   6.345   2.275   1.169
12090TIP3    H136215   6.370   2.198   1.219
12090TIP3    H236216   6.258   2.254   1.134
12091TIP3   OH236217   2.275   2.633   5.249
12091TIP3    H136218   2.185   2.665   5.243
12091TIP3    H236219   2.273   2.568   5.318
12092TIP3   OH236220   3.773   2.463   0.617
12092TIP3    H136221   3.755   2.457   0.711
12092TIP3    H236222   3.687   2.457   0.575
12093TIP3   OH236223   8.007   1.923   2.453
12093TIP3    H136224   8.090   1.952   2.414
12093TIP3    H236225   8.031   1.846   2.505
12094TIP3   OH236226   5.314   6.431   4.557
12094TIP3    H136227   5.404   6.462   4.568
12094TIP3    H236228   5.283   6.414   4.646
12095TIP3   OH236229   2.493   0.110   3.379
12095TIP3    H136230   2.546   0.040   3.341
12095TIP3    H236231   2.410   0.107   3.331
12096TIP3   OH236232   8.252   2.481   6.660
12096TIP3    H136233   8.206   2.527   6.590
12096TIP3    H236234   8.303   2.549   6.704
12097TIP3   OH236235   3.603   7.138   2.733
12097TIP3    H136236   3.677   7.155   2.674
12097TIP3    H236237   3.526   7.144   2.676
12098TIP3   OH236238   7.850   4.075   5.901
12098TIP3    H136239   7.774   4.127   5.872
12098TIP3    H236240   7.924   4.135   5.891
12099TIP3   OH236241   1.546   0.450   0.449
12099TIP3    H136242   1.552   0.516   0.380
12099TIP3    H236243   1.616   0.388   0.428
12100TIP3   OH236244   7.385   5.985   6.622
12100TIP3    H136245   7.344   5.918   6.567
12100TIP3    H236246   7.445   5.937   6.679
12101TIP3   OH236247   4.896   7.063   4.802
12101TIP3    H136248   4.990   7.079   4.806
12101TIP3    H236249   4.875   7.064   4.709
12102TIP3   OH236250   1.862   0.152   4.001
12102TIP3    H136251   1.921   0.133   4.073
12102TIP3    H236252   1.831   0.241   4.018
12103TIP3   OH236253   0.327   5.180   2.536
12103TIP3    H136254   0.374   5.144   2.611
12103TIP3    H236255   0.330   5.275   2.549
12104TIP3   OH236256   7.733   1.768   1.443
12104TIP3    H136257   7.787   1.841   1.413
12104TIP3    H236258   7.786   1.690   1.428
12105TIP3   OH236259   6.147   2.422   1.347
12105TIP3    H136260   6.118   2.331   1.333
12105TIP3    H236261   6.202   2.419   1.425
12106TIP3   OH236262   7.357   6.283   4.630
12106TIP3    H136263   7.443   6.311   4.662
12106TIP3    H236264   7.360   6.299   4.536
12107TIP3   OH236265   1.934   1.694   2.345
12107TIP3    H136266   1.846   1.727   2.327
12107TIP3    H236267   1.920   1.609   2.385
12108TIP3   OH236268   3.272   4.838   4.618
12108TIP3    H136269   3.292   4.895   4.544
12108TIP3    H236270   3.316   4.755   4.597
12109TIP3   OH236271   5.848   0.660   3.152
12109TIP3    H136272   5.773   0.602   3.156
12109TIP3    H236273   5.838   0.718   3.227
12110TIP3   OH236274   1.599   4.669   4.280
12110TIP3    H136275   1.606   4.746   4.224
12110TIP3    H236276   1.689   4.636   4.286
12111TIP3   OH236277   1.261   2.791   0.224
12111TIP3    H136278   1.352   2.820   0.228
12111TIP3    H236279   1.225   2.836   0.147
12112TIP3   OH236280   4.553   6.360   1.892
12112TIP3    H136281   4.605   6.390   1.966
12112TIP3    H236282   4.575   6.267   1.884
12113TIP3   OH236283   5.746   6.485   2.282
12113TIP3    H136284   5.829   6.515   2.245
12113TIP3    H236285   5.699   6.566   2.303
12114TIP3   OH236286   1.752   7.180   2.505
12114TIP3    H136287   1.736   7.088   2.484
12114TIP3    H236288   1.832   7.179   2.558
12115TIP3   OH236289   7.953   2.612   1.862
12115TIP3    H136290   7.947   2.694   1.911
12115TIP3    H236291   7.864   2.599   1.829
12116TIP3   OH236292   1.524   5.264   1.947
12116TIP3    H136293   1.600   5.310   1.912
12116TIP3    H236294   1.559   5.181   1.979
12117TIP3   OH236295   6.296   1.224   2.909
12117TIP3    H136296   6.212   1.267   2.895
12117TIP3    H236297   6.303   1.160   2.838
12118TIP3   OH236298   4.891   0.209   2.123
12118TIP3    H136299   4.850   0.125   2.144
12118TIP3    H236300   4.839   0.274   2.171
12119TIP3   OH236301   7.639   7.723   1.594
12119TIP3    H136302   7.645   7.732   1.499
12119TIP3    H236303   7.638   7.628   1.609
12120TIP3   OH236304   5.418   1.500   1.448
12120TIP3    H136305   5.431   1.421   1.396
12120TIP3    H236306   5.383   1.469   1.531
12121TIP3   OH236307   5.313   3.074   4.338
12121TIP3    H136308   5.317   3.161   4.376
12121TIP3    H236309   5.310   3.089   4.243
12122TIP3   OH236310   2.817   6.981   4.194
12122TIP3    H136311   2.895   6.933   4.220
12122TIP3    H236312   2.759   6.914   4.158
12123TIP3   OH236313   0.911   3.044   3.624
12123TIP3    H136314   0.913   3.118   3.563
12123TIP3    H236315   0.936   3.082   3.708
12124TIP3   OH236316   7.321   2.749   1.623
12124TIP3    H136317   7.276   2.834   1.626
12124TIP3    H236318   7.413   2.771   1.639
12125TIP3   OH236319   2.576   7.250   5.266
12125TIP3    H136320   2.589   7.213   5.179
12125TIP3    H236321   2.642   7.208   5.321
12126TIP3   OH236322   4.529   1.921   6.360
12126TIP3    H136323   4.455   1.979   6.379
12126TIP3    H236324   4.596   1.947   6.423
12127TIP3   OH236325   2.464   5.763   6.725
12127TIP3    H136326   2.425   5.849   6.743
12127TIP3    H236327   2.435   5.742   6.636
12128TIP3   OH236328   2.630   0.879   4.508
12128TIP3    H136329   2.625   0.971   4.484
12128TIP3    H236330   2.667   0.879   4.597
12129TIP3   OH236331   5.707   7.447   5.837
12129TIP3    H136332   5.799   7.471   5.836
12129TIP3    H236333   5.670   7.488   5.759
12130TIP3   OH236334   4.298   4.923   4.136
12130TIP3    H136335   4.354   4.992   4.098
12130TIP3    H236336   4.338   4.841   4.106
12131TIP3   OH236337   5.267   3.262   2.155
12131TIP3    H136338   5.275   3.168   2.171
12131TIP3    H236339   5.303   3.303   2.233
12132TIP3   OH236340   2.355   2.443   1.019
12132TIP3    H136341   2.320   2.361   1.054
12132TIP3    H236342   2.331   2.508   1.085
12133TIP3   OH236343   2.763   4.560   1.759
12133TIP3    H136344   2.835   4.526   1.812
12133TIP3    H236345   2.685   4.551   1.815
12134TIP3   OH236346   2.636   3.817   5.454
12134TIP3    H136347   2.663   3.758   5.524
12134TIP3    H236348   2.623   3.759   5.379
12135TIP3   OH236349   3.404   6.387   6.129
12135TIP3    H136350   3.319   6.362   6.165
12135TIP3    H236351   3.438   6.307   6.091
12136TIP3   OH236352   8.242   4.990   5.210
12136TIP3    H136353   8.194   5.072   5.227
12136TIP3    H236354   8.334   5.018   5.202
12137TIP3   OH236355   1.037   1.909   6.058
12137TIP3    H136356   1.074   1.994   6.081
12137TIP3    H236357   0.950   1.909   6.099
12138TIP3   OH236358   7.924   6.363   2.649
12138TIP3    H136359   7.995   6.336   2.591
12138TIP3    H236360   7.968   6.407   2.722
12139TIP3   OH236361   1.079   3.912   5.966
12139TIP3    H136362   1.162   3.886   6.007
12139TIP3    H236363   1.104   3.941   5.879
12140TIP3   OH236364   0.658   7.814   1.563
12140TIP3    H136365   0.739   7.852   1.531
12140TIP3    H236366   0.685   7.737   1.613
12141TIP3   OH236367   1.406   3.947   4.671
12141TIP3    H136368   1.408   3.984   4.760
12141TIP3    H236369   1.313   3.942   4.650
12142TIP3   OH236370   2.794   5.868   0.877
12142TIP3    H136371   2.802   5.913   0.961
12142TIP3    H236372   2.850   5.791   0.885
12143TIP3   OH236373   5.527   4.837   1.058
12143TIP3    H136374   5.530   4.813   1.151
12143TIP3    H236375   5.573   4.921   1.054
12144TIP3   OH236376   2.321   3.209   0.172
12144TIP3    H136377   2.409   3.184   0.144
12144TIP3    H236378   2.332   3.295   0.213
12145TIP3   OH236379   5.305   3.096   4.042
12145TIP3    H136380   5.394   3.092   4.006
12145TIP3    H236381   5.265   3.013   4.015
12146TIP3   OH236382   2.748   1.815   1.617
12146TIP3    H136383   2.720   1.878   1.551
12146TIP3    H236384   2.786   1.869   1.687
12147TIP3   OH236385   3.154   2.148   3.564
12147TIP3    H136386   3.127   2.230   3.604
12147TIP3    H236387   3.176   2.171   3.474
12148TIP3   OH236388   7.499   3.525   1.012
12148TIP3    H136389   7.464   3.438   0.992
12148TIP3    H236390   7.586   3.525   0.971
12149TIP3   OH236391   5.922   5.272   1.147
12149TIP3    H136392   5.987   5.340   1.130
12149TIP3    H236393   5.972   5.191   1.155
12150TIP3   OH236394   6.376   0.383   6.585
12150TIP3    H136395   6.306   0.334   6.543
12150TIP3    H236396   6.439   0.316   6.612
12151TIP3   OH236397   4.553   1.513   5.204
12151TIP3    H136398   4.495   1.569   5.255
12151TIP3    H236399   4.606   1.467   5.269
12152TIP3   OH236400   1.292   5.072   5.977
12152TIP3    H136401   1.359   5.010   5.950
12152TIP3    H236402   1.224   5.017   6.016
12153TIP3   OH236403   7.347   6.753   0.768
12153TIP3    H136404   7.305   6.688   0.711
12153TIP3    H236405   7.303   6.835   0.746
12154TIP3   OH236406   3.923   0.731   4.995
12154TIP3    H136407   3.990   0.664   4.982
12154TIP3    H236408   3.962   0.792   5.058
12155TIP3   OH236409   7.191   7.245   3.089
12155TIP3    H136410   7.234   7.328   3.071
12155TIP3    H236411   7.255   7.195   3.139
12156TIP3   OH236412   0.766   2.070   6.743
12156TIP3    H136413   0.836   2.027   6.791
12156TIP3    H236414   0.793   2.066   6.651
12157TIP3   OH236415   6.252   4.473   0.189
12157TIP3    H136416   6.256   4.377   0.189
12157TIP3    H236417   6.341   4.500   0.166
12158TIP3   OH236418   6.136   5.473   6.122
12158TIP3    H136419   6.187   5.507   6.049
12158TIP3    H236420   6.131   5.546   6.184
12159TIP3   OH236421   2.099   4.944   5.688
12159TIP3    H136422   2.157   4.920   5.760
12159TIP3    H236423   2.051   4.863   5.668
12160TIP3   OH236424   2.063   5.841   3.412
12160TIP3    H136425   2.081   5.756   3.370
12160TIP3    H236426   2.066   5.822   3.506
12161TIP3   OH236427   6.378   4.701   1.440
12161TIP3    H136428   6.445   4.756   1.399
12161TIP3    H236429   6.425   4.622   1.467
12162TIP3   OH236430   0.921   2.214   0.703
12162TIP3    H136431   0.890   2.175   0.785
12162TIP3    H236432   0.873   2.168   0.635
12163TIP3   OH236433   6.062   7.082   1.010
12163TIP3    H136434   5.996   7.111   1.072
12163TIP3    H236435   6.015   7.024   0.950
12164TIP3   OH236436   5.361   2.572   6.383
12164TIP3    H136437   5.323   2.628   6.450
12164TIP3    H236438   5.393   2.495   6.431
12165TIP3   OH236439   7.173   5.869   2.590
12165TIP3    H136440   7.081   5.842   2.591
12165TIP3    H236441   7.193   5.881   2.497
12166TIP3   OH236442   3.735   3.069   0.146
12166TIP3    H136443   3.797   3.099   0.079
12166TIP3    H236444   3.790   3.043   0.220
12167TIP3   OH236445   3.299   1.845   2.295
12167TIP3    H136446   3.262   1.933   2.302
12167TIP3    H236447   3.339   1.842   2.209
12168TIP3   OH236448   2.417   4.238   5.117
12168TIP3    H136449   2.382   4.170   5.176
12168TIP3    H236450   2.367   4.227   5.036
12169TIP3   OH236451   1.408   5.906   0.417
12169TIP3    H136452   1.409   5.992   0.458
12169TIP3    H236453   1.489   5.903   0.366
12170TIP3   OH236454   5.827   0.179   0.373
12170TIP3    H136455   5.772   0.112   0.332
12170TIP3    H236456   5.769   0.255   0.383
12171TIP3   OH236457   5.692   6.643   3.758
12171TIP3    H136458   5.767   6.592   3.788
12171TIP3    H236459   5.707   6.730   3.795
12172TIP3   OH236460   3.279   2.128   2.743
12172TIP3    H136461   3.346   2.080   2.696
12172TIP3    H236462   3.327   2.182   2.806
12173TIP3   OH236463   2.858   5.173   6.246
12173TIP3    H136464   2.831   5.157   6.337
12173TIP3    H236465   2.805   5.247   6.218
12174TIP3   OH236466   6.091   4.522   1.811
12174TIP3    H136467   6.044   4.503   1.730
12174TIP3    H236468   6.034   4.584   1.857
12175TIP3   OH236469   6.322   5.340   5.409
12175TIP3    H136470   6.404   5.386   5.389
12175TIP3    H236471   6.333   5.253   5.370
12176TIP3   OH236472   4.969   3.612   5.474
12176TIP3    H136473   5.058   3.617   5.510
12176TIP3    H236474   4.913   3.602   5.550
12177TIP3   OH236475   6.450   0.024   3.080
12177TIP3    H136476   6.513   0.035   3.009
12177TIP3    H236477   6.490  -0.041   3.138
12178TIP3   OH236478   5.420   4.497   5.130
12178TIP3    H136479   5.345   4.511   5.072
12178TIP3    H236480   5.382   4.500   5.218
12179TIP3   OH236481   7.021   2.092   5.177
12179TIP3    H136482   7.073   2.075   5.099
12179TIP3    H236483   6.998   2.005   5.210
12180TIP3   OH236484   3.941   6.970   3.109
12180TIP3    H136485   4.006   7.033   3.142
12180TIP3    H236486   3.959   6.965   3.015
12181TIP3   OH236487   2.381   5.676   4.551
12181TIP3    H136488   2.317   5.617   4.512
12181TIP3    H236489   2.402   5.637   4.636
12182TIP3   OH236490   5.578   5.423   0.537
12182TIP3    H136491   5.555   5.502   0.585
12182TIP3    H236492   5.495   5.385   0.509
12183TIP3   OH236493   4.853   0.236   0.261
12183TIP3    H136494   4.765   0.273   0.268
12183TIP3    H236495   4.895   0.259   0.343
12184TIP3   OH236496   7.871   7.587   5.659
12184TIP3    H136497   7.961   7.612   5.641
12184TIP3    H236498   7.877   7.506   5.708
12185TIP3   OH236499   1.686   5.849   4.296
12185TIP3    H136500   1.777   5.824   4.306
12185TIP3    H236501   1.638   5.793   4.357
12186TIP3   OH236502   7.616   3.479   4.051
12186TIP3    H136503   7.695   3.533   4.053
12186TIP3    H236504   7.648   3.389   4.063
12187TIP3   OH236505   1.854   4.760   4.169
12187TIP3    H136506   1.790   4.831   4.174
12187TIP3    H236507   1.914   4.777   4.241
12188TIP3   OH236508   5.510   5.445   1.485
12188TIP3    H136509   5.602   5.444   1.513
12188TIP3    H236510   5.514   5.438   1.390
12189TIP3   OH236511   5.473   5.116   3.538
12189TIP3    H136512   5.528   5.195   3.537
12189TIP3    H236513   5.430   5.117   3.624
12190TIP3   OH236514   4.480   3.039   0.320
12190TIP3    H136515   4.462   2.959   0.271
12190TIP3    H236516   4.411   3.042   0.386
12191TIP3   OH236517   6.068   0.425   3.754
12191TIP3    H136518   6.041   0.516   3.743
12191TIP3    H236519   6.163   0.427   3.742
12192TIP3   OH236520   4.287   1.454   4.540
12192TIP3    H136521   4.362   1.413   4.498
12192TIP3    H236522   4.311   1.547   4.546
12193TIP3   OH236523   5.508   2.905   4.674
12193TIP3    H136524   5.476   2.818   4.701
12193TIP3    H236525   5.429   2.956   4.659
12194TIP3   OH236526   2.073   2.996   5.817
12194TIP3    H136527   2.107   2.907   5.812
12194TIP3    H236528   2.025   2.999   5.900
12195TIP3   OH236529   3.368   2.981   2.137
12195TIP3    H136530   3.378   3.077   2.135
12195TIP3    H236531   3.437   2.951   2.195
12196TIP3   OH236532   5.217   7.067   0.534
12196TIP3    H136533   5.156   7.097   0.467
12196TIP3    H236534   5.169   7.001   0.583
12197TIP3   OH236535   5.387   3.844   4.884
12197TIP3    H136536   5.480   3.845   4.860
12197TIP3    H236537   5.363   3.937   4.890
12198TIP3   OH236538   6.155   3.951   6.022
12198TIP3    H136539   6.198   3.892   6.084
12198TIP3    H236540   6.220   3.965   5.953
12199TIP3   OH236541   4.429   5.000   0.609
12199TIP3    H136542   4.420   5.077   0.666
12199TIP3    H236543   4.474   5.033   0.531
12200TIP3   OH236544   3.041   5.935   5.827
12200TIP3    H136545   3.079   6.018   5.856
12200TIP3    H236546   3.091   5.868   5.873
12201TIP3   OH236547   5.800   3.198   0.914
12201TIP3    H136548   5.720   3.250   0.910
12201TIP3    H236549   5.780   3.120   0.861
12202TIP3   OH236550   5.335   1.720   3.521
12202TIP3    H136551   5.353   1.677   3.438
12202TIP3    H236552   5.409   1.779   3.535
12203TIP3   OH236553   7.227   3.392   1.209
12203TIP3    H136554   7.236   3.443   1.129
12203TIP3    H236555   7.293   3.429   1.268
12204TIP3   OH236556   7.113   6.043   1.521
12204TIP3    H136557   7.147   6.102   1.454
12204TIP3    H236558   7.163   6.065   1.600
12205TIP3   OH236559   7.721   4.155   5.292
12205TIP3    H136560   7.704   4.184   5.382
12205TIP3    H236561   7.794   4.209   5.262
12206TIP3   OH236562   4.582   0.364   0.656
12206TIP3    H136563   4.656   0.403   0.702
12206TIP3    H236564   4.517   0.434   0.651
12207TIP3   OH236565   7.704   7.824   4.380
12207TIP3    H136566   7.696   7.731   4.402
12207TIP3    H236567   7.757   7.825   4.301
12208TIP3   OH236568   2.143   0.949   1.493
12208TIP3    H136569   2.062   0.897   1.496
12208TIP3    H236570   2.202   0.905   1.555
12209TIP3   OH236571   6.132   3.715   0.199
12209TIP3    H136572   6.152   3.791   0.254
12209TIP3    H236573   6.039   3.698   0.214
12210TIP3   OH236574   7.678   3.276   1.367
12210TIP3    H136575   7.741   3.206   1.355
12210TIP3    H236576   7.618   3.243   1.433
12211TIP3   OH236577   3.743   3.067   5.837
12211TIP3    H136578   3.696   2.993   5.876
12211TIP3    H236579   3.776   3.116   5.912
12212TIP3   OH236580   1.498   1.277   6.651
12212TIP3    H136581   1.585   1.289   6.611
12212TIP3    H236582   1.440   1.264   6.576
12213TIP3   OH236583   5.794   0.698   4.617
12213TIP3    H136584   5.867   0.710   4.678
12213TIP3    H236585   5.827   0.635   4.553
12214TIP3   OH236586   7.157   4.677   2.884
12214TIP3    H136587   7.181   4.607   2.945
12214TIP3    H236588   7.128   4.630   2.805
12215TIP3   OH236589   4.937   5.709   2.416
12215TIP3    H136590   4.967   5.642   2.478
12215TIP3    H236591   4.972   5.681   2.332
12216TIP3   OH236592   1.249   3.661   1.661
12216TIP3    H136593   1.274   3.739   1.611
12216TIP3    H236594   1.185   3.693   1.725
12217TIP3   OH236595   8.117   6.865   2.691
12217TIP3    H136596   8.186   6.932   2.695
12217TIP3    H236597   8.158   6.786   2.726
12218TIP3   OH236598   3.951   2.485   5.800
12218TIP3    H136599   4.034   2.520   5.833
12218TIP3    H236600   3.941   2.401   5.845
12219TIP3   OH236601   0.119   1.522   2.936
12219TIP3    H136602   0.060   1.448   2.952
12219TIP3    H236603   0.199   1.499   2.984
12220TIP3   OH236604   0.045   3.728   3.693
12220TIP3    H136605   0.061   3.692   3.606
12220TIP3    H236606  -0.047   3.753   3.692
12221TIP3   OH236607   5.053   7.515   3.558
12221TIP3    H136608   5.114   7.542   3.627
12221TIP3    H236609   5.093   7.438   3.518
12222TIP3   OH236610   3.192   4.247   3.250
12222TIP3    H136611   3.269   4.283   3.205
12222TIP3    H236612   3.217   4.157   3.271
12223TIP3   OH236613   2.842   1.715   4.680
12223TIP3    H136614   2.790   1.688   4.755
12223TIP3    H236615   2.781   1.766   4.626
12224TIP3   OH236616   2.388   3.456   4.606
12224TIP3    H136617   2.318   3.521   4.600
12224TIP3    H236618   2.368   3.393   4.537
12225TIP3   OH236619   6.494   2.779   3.060
12225TIP3    H136620   6.435   2.849   3.088
12225TIP3    H236621   6.468   2.761   2.970
12226TIP3   OH236622   5.156   0.958   0.699
12226TIP3    H136623   5.130   0.995   0.614
12226TIP3    H236624   5.101   1.003   0.763
12227TIP3   OH236625   4.559   3.886   2.352
12227TIP3    H136626   4.584   3.955   2.290
12227TIP3    H236627   4.483   3.845   2.311
12228TIP3   OH236628   1.083   0.779   3.990
12228TIP3    H136629   1.148   0.798   4.057
12228TIP3    H236630   1.041   0.698   4.018
12229TIP3   OH236631   5.288   6.446   6.233
12229TIP3    H136632   5.237   6.408   6.161
12229TIP3    H236633   5.229   6.508   6.275
12230TIP3   OH236634   4.032   1.150   2.893
12230TIP3    H136635   3.958   1.116   2.944
12230TIP3    H236636   4.105   1.149   2.955
12231TIP3   OH236637   0.752   6.004   5.055
12231TIP3    H136638   0.837   6.037   5.025
12231TIP3    H236639   0.762   5.909   5.053
12232TIP3   OH236640   2.070   6.031   5.984
12232TIP3    H136641   2.118   6.017   6.066
12232TIP3    H236642   2.011   5.956   5.978
12233TIP3   OH236643   2.489   5.406   3.575
12233TIP3    H136644   2.432   5.347   3.526
12233TIP3    H236645   2.447   5.492   3.567
12234TIP3   OH236646   5.056   4.851   5.773
12234TIP3    H136647   5.143   4.867   5.737
12234TIP3    H236648   4.996   4.875   5.702
12235TIP3   OH236649   6.018   6.083   5.734
12235TIP3    H136650   6.081   6.145   5.771
12235TIP3    H236651   5.967   6.053   5.808
12236TIP3   OH236652   5.361   4.203   2.928
12236TIP3    H136653   5.376   4.172   2.839
12236TIP3    H236654   5.370   4.125   2.983
12237TIP3   OH236655   7.469   1.804   3.656
12237TIP3    H136656   7.433   1.716   3.647
12237TIP3    H236657   7.437   1.851   3.579
12238TIP3   OH236658   5.571   3.105   3.927
12238TIP3    H136659   5.604   3.149   4.005
12238TIP3    H236660   5.644   3.049   3.899
12239TIP3   OH236661   7.948   5.902   5.894
12239TIP3    H136662   7.948   5.808   5.876
12239TIP3    H236663   7.890   5.912   5.970
12240TIP3   OH236664   2.089   1.749   0.279
12240TIP3    H136665   2.003   1.781   0.252
12240TIP3    H236666   2.144   1.760   0.202
12241TIP3   OH236667   5.083   6.354   6.086
12241TIP3    H136668   5.030   6.322   6.159
12241TIP3    H236669   5.021   6.375   6.017
12242TIP3   OH236670   3.008   3.858   1.759
12242TIP3    H136671   3.006   3.774   1.712
12242TIP3    H236672   3.021   3.924   1.691
12243TIP3   OH236673   7.618   5.320   6.122
12243TIP3    H136674   7.525   5.316   6.100
12243TIP3    H236675   7.651   5.233   6.101
12244TIP3   OH236676   6.451   5.311   3.260
12244TIP3    H136677   6.487   5.326   3.173
12244TIP3    H236678   6.356   5.318   3.248
12245TIP3   OH236679   6.321   5.705   1.403
12245TIP3    H136680   6.381   5.644   1.361
12245TIP3    H236681   6.349   5.791   1.372
12246TIP3   OH236682   7.944   3.415   3.639
12246TIP3    H136683   7.996   3.449   3.711
12246TIP3    H236684   7.862   3.385   3.679
12247TIP3   OH236685   2.167   7.548   2.493
12247TIP3    H136686   2.262   7.542   2.503
12247TIP3    H236687   2.139   7.459   2.473
12248TIP3   OH236688   3.892   6.053   0.413
12248TIP3    H136689   3.863   5.992   0.481
12248TIP3    H236690   3.987   6.046   0.413
12249TIP3   OH236691   3.186   3.941   6.709
12249TIP3    H136692   3.195   3.975   6.798
12249TIP3    H236693   3.198   4.017   6.653
12250TIP3   OH236694   7.564   4.862   6.280
12250TIP3    H136695   7.644   4.914   6.277
12250TIP3    H236696   7.493   4.924   6.262
12251TIP3   OH236697   1.752   7.553   0.989
12251TIP3    H136698   1.733   7.475   0.936
12251TIP3    H236699   1.718   7.626   0.937
12252TIP3   OH236700   4.607   1.875   1.803
12252TIP3    H136701   4.679   1.823   1.766
12252TIP3    H236702   4.563   1.815   1.862
12253TIP3   OH236703   1.267   6.235   2.077
12253TIP3    H136704   1.248   6.278   2.161
12253TIP3    H236705   1.239   6.297   2.011
12254TIP3   OH236706   6.920   1.891   3.063
12254TIP3    H136707   6.861   1.838   3.010
12254TIP3    H236708   6.922   1.847   3.148
12255TIP3   OH236709   4.290   5.123   4.337
12255TIP3    H136710   4.223   5.191   4.333
12255TIP3    H236711   4.263   5.058   4.273
12256TIP3   OH236712   1.533   2.130   5.960
12256TIP3    H136713   1.579   2.189   6.020
12256TIP3    H236714   1.448   2.115   6.001
12257TIP3   OH236715   6.907   7.638   5.023
12257TIP3    H136716   6.927   7.714   4.969
12257TIP3    H236717   6.816   7.650   5.049
12258TIP3   OH236718   4.776   6.119   2.192
12258TIP3    H136719   4.749   6.182   2.259
12258TIP3    H236720   4.821   6.050   2.240
12259TIP3   OH236721   6.975   1.160   4.026
12259TIP3    H136722   6.928   1.085   4.062
12259TIP3    H236723   6.925   1.236   4.055
12260TIP3   OH236724   7.286   0.190   0.782
12260TIP3    H136725   7.236   0.256   0.830
12260TIP3    H236726   7.219   0.134   0.742
12261TIP3   OH236727   0.242   1.296   6.127
12261TIP3    H136728   0.298   1.372   6.142
12261TIP3    H236729   0.203   1.277   6.212
12262TIP3   OH236730   3.522   1.168   1.923
12262TIP3    H136731   3.511   1.246   1.868
12262TIP3    H236732   3.589   1.193   1.987
12263TIP3   OH236733   6.118   0.530   1.793
12263TIP3    H136734   6.114   0.473   1.870
12263TIP3    H236735   6.178   0.485   1.734
12264TIP3   OH236736   3.268   4.619   6.260
12264TIP3    H136737   3.229   4.683   6.199
12264TIP3    H236738   3.357   4.605   6.227
12265TIP3   OH236739   6.024   4.937   1.790
12265TIP3    H136740   6.049   4.886   1.867
12265TIP3    H236741   5.943   4.981   1.817
12266TIP3   OH236742   3.221   3.783   4.018
12266TIP3    H136743   3.151   3.770   4.082
12266TIP3    H236744   3.302   3.777   4.069
12267TIP3   OH236745   0.376   0.091   6.764
12267TIP3    H136746   0.438   0.136   6.821
12267TIP3    H236747   0.419   0.092   6.678
12268TIP3   OH236748   0.921   5.929   3.036
12268TIP3    H136749   0.936   5.989   3.110
12268TIP3    H236750   0.992   5.865   3.042
12269TIP3   OH236751   6.454   3.483   4.497
12269TIP3    H136752   6.451   3.570   4.537
12269TIP3    H236753   6.414   3.494   4.411
12270TIP3   OH236754   0.285   6.851   1.110
12270TIP3    H136755   0.297   6.894   1.026
12270TIP3    H236756   0.212   6.897   1.152
12271TIP3   OH236757   7.392   3.921   3.909
12271TIP3    H136758   7.383   3.907   3.814
12271TIP3    H236759   7.410   3.833   3.944
12272TIP3   OH236760   1.423   1.220   3.147
12272TIP3    H136761   1.388   1.196   3.061
12272TIP3    H236762   1.495   1.160   3.161
12273TIP3   OH236763   0.534   0.880   0.909
12273TIP3    H136764   0.467   0.843   0.967
12273TIP3    H236765   0.556   0.964   0.948
12274TIP3   OH236766   7.748   3.652   0.542
12274TIP3    H136767   7.661   3.626   0.570
12274TIP3    H236768   7.757   3.743   0.570
12275TIP3   OH236769   4.885   0.344   5.017
12275TIP3    H136770   4.897   0.325   5.110
12275TIP3    H236771   4.967   0.316   4.976
12276TIP3   OH236772   2.567   6.035   4.803
12276TIP3    H136773   2.629   6.062   4.871
12276TIP3    H236774   2.623   6.005   4.730
12277TIP3   OH236775   4.106   7.811   0.469
12277TIP3    H136776   4.168   7.883   0.480
12277TIP3    H236777   4.137   7.763   0.392
12278TIP3   OH236778   4.917   5.224   2.261
12278TIP3    H136779   4.936   5.134   2.235
12278TIP3    H236780   4.827   5.239   2.232
12279TIP3   OH236781   1.162   3.187   6.716
12279TIP3    H136782   1.165   3.181   6.620
12279TIP3    H236783   1.251   3.210   6.742
12280TIP3   OH236784   7.018   4.972   6.185
12280TIP3    H136785   6.938   4.928   6.215
12280TIP3    H236786   7.066   4.905   6.137
12281TIP3   OH236787   5.819   7.544   1.525
12281TIP3    H136788   5.810   7.610   1.594
12281TIP3    H236789   5.905   7.562   1.486
12282TIP3   OH236790   5.580   4.395   1.214
12282TIP3    H136791   5.502   4.394   1.269
12282TIP3    H236792   5.653   4.380   1.275
12283TIP3   OH236793   4.797   2.448   1.319
12283TIP3    H136794   4.849   2.391   1.263
12283TIP3    H236795   4.724   2.476   1.264
12284TIP3   OH236796   5.983   1.332   4.486
12284TIP3    H136797   6.046   1.261   4.472
12284TIP3    H236798   6.038   1.409   4.499
12285TIP3   OH236799   5.887   5.124   4.379
12285TIP3    H136800   5.968   5.113   4.328
12285TIP3    H236801   5.819   5.085   4.325
12286TIP3   OH236802   7.634   5.292   2.756
12286TIP3    H136803   7.561   5.330   2.706
12286TIP3    H236804   7.674   5.368   2.800
12287TIP3   OH236805   2.313   3.435   1.597
12287TIP3    H136806   2.248   3.494   1.557
12287TIP3    H236807   2.293   3.437   1.691
12288TIP3   OH236808   3.512   2.399   2.160
12288TIP3    H136809   3.485   2.485   2.126
12288TIP3    H236810   3.430   2.352   2.173
12289TIP3   OH236811   2.795   4.350   2.027
12289TIP3    H136812   2.794   4.292   1.951
12289TIP3    H236813   2.876   4.401   2.018
12290TIP3   OH236814   1.959   4.627   2.156
12290TIP3    H136815   1.931   4.536   2.164
12290TIP3    H236816   2.029   4.625   2.090
12291TIP3   OH236817   5.462   4.670   1.523
12291TIP3    H136818   5.518   4.677   1.600
12291TIP3    H236819   5.489   4.587   1.483
12292TIP3   OH236820   0.983   3.563   0.151
12292TIP3    H136821   0.937   3.484   0.122
12292TIP3    H236822   1.042   3.532   0.220
12293TIP3   OH236823   5.448   4.926   2.105
12293TIP3    H136824   5.358   4.901   2.086
12293TIP3    H236825   5.441   4.991   2.175
12294TIP3   OH236826   2.796   0.214   2.215
12294TIP3    H136827   2.766   0.299   2.247
12294TIP3    H236828   2.847   0.234   2.136
12295TIP3   OH236829   4.289   3.035   0.054
12295TIP3    H136830   4.341   3.115   0.060
12295TIP3    H236831   4.326   2.988  -0.022
12296TIP3   OH236832   2.025   7.180   3.727
12296TIP3    H136833   1.980   7.152   3.807
12296TIP3    H236834   2.000   7.272   3.717
12297TIP3   OH236835   4.945   3.409   4.975
12297TIP3    H136836   4.909   3.495   4.956
12297TIP3    H236837   5.033   3.427   5.009
12298TIP3   OH236838   4.080   2.738   6.066
12298TIP3    H136839   4.055   2.662   6.120
12298TIP3    H236840   4.135   2.701   5.998
12299TIP3   OH236841   5.208   0.161   0.474
12299TIP3    H136842   5.281   0.126   0.525
12299TIP3    H236843   5.249   0.212   0.405
12300TIP3   OH236844   4.207   7.013   5.244
12300TIP3    H136845   4.171   7.088   5.292
12300TIP3    H236846   4.131   6.957   5.227
12301TIP3   OH236847   3.541   1.142   6.708
12301TIP3    H136848   3.634   1.157   6.722
12301TIP3    H236849   3.529   1.048   6.721
12302TIP3   OH236850   2.700   4.665   0.466
12302TIP3    H136851   2.651   4.612   0.528
12302TIP3    H236852   2.776   4.611   0.443
12303TIP3   OH236853   2.724   6.158   3.266
12303TIP3    H136854   2.782   6.120   3.200
12303TIP3    H236855   2.769   6.141   3.349
12304TIP3   OH236856   6.438   2.316   6.322
12304TIP3    H136857   6.386   2.291   6.399
12304TIP3    H236858   6.478   2.399   6.345
12305TIP3   OH236859   2.334   1.669   2.534
12305TIP3    H136860   2.311   1.591   2.484
12305TIP3    H236861   2.425   1.687   2.511
12306TIP3   OH236862   4.011   4.134   1.419
12306TIP3    H136863   4.036   4.082   1.496
12306TIP3    H236864   3.977   4.070   1.357
12307TIP3   OH236865   0.990   4.831   2.884
12307TIP3    H136866   0.973   4.791   2.969
12307TIP3    H236867   0.917   4.891   2.870
12308TIP3   OH236868   1.151   4.479   4.949
12308TIP3    H136869   1.148   4.544   5.019
12308TIP3    H236870   1.222   4.507   4.891
12309TIP3   OH236871   5.458   0.838   1.212
12309TIP3    H136872   5.420   0.831   1.124
12309TIP3    H236873   5.520   0.910   1.206
12310TIP3   OH236874   6.090   5.397   3.509
12310TIP3    H136875   6.016   5.340   3.532
12310TIP3    H236876   6.064   5.484   3.540
12311TIP3   OH236877   1.292   4.723   6.723
12311TIP3    H136878   1.382   4.691   6.729
12311TIP3    H236879   1.277   4.769   6.806
12312TIP3   OH236880   3.101   4.701   0.898
12312TIP3    H136881   3.177   4.653   0.930
12312TIP3    H236882   3.086   4.667   0.810
12313TIP3   OH236883   4.379   0.821   2.759
12313TIP3    H136884   4.308   0.804   2.698
12313TIP3    H236885   4.456   0.781   2.718
12314TIP3   OH236886   0.774   7.291   4.459
12314TIP3    H136887   0.821   7.327   4.534
12314TIP3    H236888   0.709   7.358   4.437
12315TIP3   OH236889   5.667   0.051   2.893
12315TIP3    H136890   5.738   0.115   2.889
12315TIP3    H236891   5.703  -0.028   2.852
12316TIP3   OH236892   6.633   6.242   2.051
12316TIP3    H136893   6.704   6.281   2.102
12316TIP3    H236894   6.553   6.267   2.097
12317TIP3   OH236895   4.148   0.373   1.109
12317TIP3    H136896   4.181   0.284   1.122
12317TIP3    H236897   4.204   0.427   1.166
12318TIP3   OH236898   2.373   5.881   1.521
12318TIP3    H136899   2.451   5.838   1.555
12318TIP3    H236900   2.362   5.958   1.577
12319TIP3   OH236901   6.881   6.199   6.711
12319TIP3    H136902   6.857   6.154   6.630
12319TIP3    H236903   6.836   6.151   6.780
12320TIP3   OH236904   4.215   6.584   4.006
12320TIP3    H136905   4.211   6.550   3.916
12320TIP3    H236906   4.186   6.675   3.998
12321TIP3   OH236907   2.767   0.494   4.355
12321TIP3    H136908   2.857   0.483   4.384
12321TIP3    H236909   2.722   0.530   4.431
12322TIP3   OH236910   4.768   7.012   0.821
12322TIP3    H136911   4.778   6.972   0.907
12322TIP3    H236912   4.856   7.011   0.784
12323TIP3   OH236913   5.749   3.902   6.693
12323TIP3    H136914   5.765   3.844   6.619
12323TIP3    H236915   5.835   3.914   6.733
12324TIP3   OH236916   3.473   0.505   4.303
12324TIP3    H136917   3.563   0.494   4.335
12324TIP3    H236918   3.480   0.569   4.232
12325TIP3   OH236919   2.766   0.505   3.340
12325TIP3    H136920   2.815   0.557   3.277
12325TIP3    H236921   2.829   0.486   3.409
12326TIP3   OH236922   4.543   2.484   2.851
12326TIP3    H136923   4.483   2.413   2.870
12326TIP3    H236924   4.615   2.443   2.802
12327TIP3   OH236925   0.444   3.408   3.550
12327TIP3    H136926   0.391   3.370   3.481
12327TIP3    H236927   0.392   3.481   3.584
12328TIP3   OH236928   0.970   3.794   6.652
12328TIP3    H136929   0.912   3.718   6.662
12328TIP3    H236930   0.974   3.809   6.558
12329TIP3   OH236931   4.785   2.668   4.918
12329TIP3    H136932   4.803   2.752   4.961
12329TIP3    H236933   4.700   2.681   4.876
12330TIP3   OH236934   3.834   0.258   1.671
12330TIP3    H136935   3.854   0.297   1.756
12330TIP3    H236936   3.769   0.317   1.632
12331TIP3   OH236937   7.391   1.122   1.858
12331TIP3    H136938   7.314   1.130   1.802
12331TIP3    H236939   7.420   1.213   1.871
12332TIP3   OH236940   5.631   3.454   2.242
12332TIP3    H136941   5.596   3.543   2.250
12332TIP3    H236942   5.569   3.399   2.291
12333TIP3   OH236943   8.054   0.045   4.920
12333TIP3    H136944   7.972   0.006   4.889
12333TIP3    H236945   8.057   0.131   4.877
12334TIP3   OH236946   2.504   4.422   0.147
12334TIP3    H136947   2.463   4.507   0.159
12334TIP3    H236948   2.519   4.390   0.236
12335TIP3   OH236949   4.371   2.179   1.667
12335TIP3    H136950   4.293   2.144   1.709
12335TIP3    H236951   4.358   2.162   1.574
12336TIP3   OH236952   7.626   5.020   0.091
12336TIP3    H136953   7.609   5.073   0.170
12336TIP3    H236954   7.546   4.968   0.081
12337TIP3   OH236955   6.700   3.530   6.508
12337TIP3    H136956   6.737   3.571   6.586
12337TIP3    H236957   6.631   3.590   6.480
12338TIP3   OH236958   7.748   7.589   3.306
12338TIP3    H136959   7.675   7.644   3.279
12338TIP3    H236960   7.822   7.619   3.254
12339TIP3   OH236961   3.527   7.122   5.047
12339TIP3    H136962   3.606   7.079   5.077
12339TIP3    H236963   3.504   7.182   5.118
12340TIP3   OH236964   2.185   6.756   1.805
12340TIP3    H136965   2.149   6.674   1.838
12340TIP3    H236966   2.110   6.816   1.805
12341TIP3   OH236967   7.471   2.633   0.285
12341TIP3    H136968   7.567   2.624   0.285
12341TIP3    H236969   7.442   2.574   0.215
12342TIP3   OH236970   0.350   6.684   0.009
12342TIP3    H136971   0.332   6.698   0.102
12342TIP3    H236972   0.383   6.769  -0.022
12343TIP3   OH236973   6.626   2.908   1.963
12343TIP3    H136974   6.624   2.994   1.922
12343TIP3    H236975   6.543   2.867   1.938
12344TIP3   OH236976   1.335   2.169   0.003
12344TIP3    H136977   1.363   2.151   0.093
12344TIP3    H236978   1.252   2.121  -0.006
12345TIP3   OH236979   0.337   2.633   6.565
12345TIP3    H136980   0.361   2.540   6.576
12345TIP3    H236981   0.405   2.680   6.613
12346TIP3   OH236982   0.497   5.463   0.297
12346TIP3    H136983   0.552   5.539   0.279
12346TIP3    H236984   0.446   5.452   0.216
12347TIP3   OH236985   4.287   2.157   3.502
12347TIP3    H136986   4.235   2.128   3.577
12347TIP3    H236987   4.247   2.114   3.427
12348TIP3   OH236988   4.161   6.583   0.338
12348TIP3    H136989   4.228   6.540   0.285
12348TIP3    H236990   4.211   6.639   0.398
12349TIP3   OH236991   7.901   4.399   3.667
12349TIP3    H136992   7.856   4.328   3.714
12349TIP3    H236993   7.952   4.443   3.734
12350TIP3   OH236994   2.750   2.307   6.643
12350TIP3    H136995   2.692   2.357   6.586
12350TIP3    H236996   2.813   2.372   6.676
12351TIP3   OH236997   3.714   2.116   3.227
12351TIP3    H136998   3.699   2.136   3.135
12351TIP3    H236999   3.713   2.201   3.271
12352TIP3   OH237000   3.689   6.282   3.563
12352TIP3    H137001   3.643   6.365   3.578
12352TIP3    H237002   3.660   6.225   3.634
12353TIP3   OH237003   0.667   3.438   0.657
12353TIP3    H137004   0.695   3.526   0.682
12353TIP3    H237005   0.734   3.409   0.594
12354TIP3   OH237006   0.292   3.821   4.111
12354TIP3    H137007   0.350   3.895   4.099
12354TIP3    H237008   0.351   3.748   4.134
12355TIP3   OH237009   7.970   1.593   0.079
12355TIP3    H137010   7.970   1.685   0.051
12355TIP3    H237011   7.922   1.547   0.011
12356TIP3   OH237012   1.647   0.578   3.399
12356TIP3    H137013   1.576   0.588   3.335
12356TIP3    H237014   1.626   0.640   3.469
12357TIP3   OH237015   7.188   6.344   4.221
12357TIP3    H137016   7.261   6.346   4.283
12357TIP3    H237017   7.224   6.382   4.141
12358TIP3   OH237018   1.386   3.198   5.399
12358TIP3    H137019   1.310   3.238   5.356
12358TIP3    H237020   1.456   3.205   5.334
12359TIP3   OH237021   0.720   6.858   4.599
12359TIP3    H137022   0.761   6.929   4.649
12359TIP3    H237023   0.679   6.903   4.525
12360TIP3   OH237024   5.066   0.516   6.270
12360TIP3    H137025   4.978   0.531   6.304
12360TIP3    H237026   5.061   0.432   6.225
12361TIP3   OH237027   0.681   2.008   3.496
12361TIP3    H137028   0.733   2.080   3.531
12361TIP3    H237029   0.604   2.050   3.457
12362TIP3   OH237030   4.790   0.379   0.840
12362TIP3    H137031   4.873   0.425   0.829
12362TIP3    H237032   4.801   0.327   0.920
12363TIP3   OH237033   3.076   3.580   3.431
12363TIP3    H137034   2.984   3.603   3.440
12363TIP3    H237035   3.082   3.542   3.343
12364TIP3   OH237036   3.933   7.665   0.107
12364TIP3    H137037   3.864   7.612   0.067
12364TIP3    H237038   3.899   7.754   0.107
12365TIP3   OH237039   0.551   2.003   2.705
12365TIP3    H137040   0.522   2.052   2.781
12365TIP3    H237041   0.635   1.965   2.731
12366TIP3   OH237042   7.239   4.842   3.911
12366TIP3    H137043   7.319   4.891   3.893
12366TIP3    H237044   7.175   4.877   3.849
12367TIP3   OH237045   3.639   6.526   3.644
12367TIP3    H137046   3.568   6.562   3.697
12367TIP3    H237047   3.651   6.589   3.573
12368TIP3   OH237048   6.351   0.410   3.501
12368TIP3    H137049   6.361   0.496   3.462
12368TIP3    H237050   6.281   0.368   3.451
12369TIP3   OH237051   3.468   5.389   3.366
12369TIP3    H137052   3.513   5.305   3.373
12369TIP3    H237053   3.537   5.451   3.344
12370TIP3   OH237054   2.201   5.730   6.308
12370TIP3    H137055   2.122   5.679   6.292
12370TIP3    H237056   2.273   5.668   6.291
12371TIP3   OH237057   4.715   5.005   6.348
12371TIP3    H137058   4.677   5.049   6.425
12371TIP3    H237059   4.667   4.923   6.342
12372TIP3   OH237060   5.175   6.044   5.254
12372TIP3    H137061   5.257   6.083   5.223
12372TIP3    H237062   5.197   6.011   5.341
12373TIP3   OH237063   4.646   4.362   1.398
12373TIP3    H137064   4.657   4.267   1.394
12373TIP3    H237065   4.724   4.398   1.355
12374TIP3   OH237066   1.742   5.073   0.570
12374TIP3    H137067   1.721   5.141   0.506
12374TIP3    H237068   1.665   5.068   0.626
12375TIP3   OH237069   5.692   1.442   5.126
12375TIP3    H137070   5.666   1.395   5.046
12375TIP3    H237071   5.770   1.396   5.156
12376TIP3   OH237072   3.536   7.346   1.749
12376TIP3    H137073   3.567   7.265   1.789
12376TIP3    H237074   3.615   7.393   1.725
12377TIP3   OH237075   5.558   1.352   5.360
12377TIP3    H137076   5.519   1.275   5.318
12377TIP3    H237077   5.588   1.407   5.287
12378TIP3   OH237078   3.626   5.258   1.906
12378TIP3    H137079   3.541   5.214   1.904
12378TIP3    H237080   3.685   5.197   1.862
12379TIP3   OH237081   2.229   6.553   3.857
12379TIP3    H137082   2.212   6.647   3.850
12379TIP3    H237083   2.144   6.515   3.878
12380TIP3   OH237084   3.608   7.704   4.259
12380TIP3    H137085   3.546   7.638   4.291
12380TIP3    H237086   3.571   7.787   4.286
12381TIP3   OH237087   1.213   3.247   2.086
12381TIP3    H137088   1.177   3.328   2.122
12381TIP3    H237089   1.159   3.177   2.124
12382TIP3   OH237090   3.586   3.915   3.253
12382TIP3    H137091   3.552   3.838   3.208
12382TIP3    H237092   3.672   3.930   3.215
12383TIP3   OH237093   2.375   0.372   3.900
12383TIP3    H137094   2.409   0.289   3.935
12383TIP3    H237095   2.280   0.358   3.895
12384TIP3   OH237096   1.291   7.714   0.615
12384TIP3    H137097   1.374   7.667   0.615
12384TIP3    H237098   1.314   7.804   0.593
12385TIP3   OH237099   6.993   2.209   6.706
12385TIP3    H137100   7.082   2.206   6.673
12385TIP3    H237101   6.965   2.117   6.706
12386TIP3   OH237102   6.987   5.050   1.727
12386TIP3    H137103   7.019   5.116   1.788
12386TIP3    H237104   6.894   5.040   1.749
12387TIP3   OH237105   0.242   0.409   3.861
12387TIP3    H137106   0.197   0.326   3.845
12387TIP3    H237107   0.280   0.432   3.776
12388TIP3   OH237108   7.120   5.567   4.614
12388TIP3    H137109   7.206   5.604   4.595
12388TIP3    H237110   7.125   5.477   4.582
12389TIP3   OH237111   4.648   5.973   3.743
12389TIP3    H137112   4.729   6.002   3.785
12389TIP3    H237113   4.617   6.049   3.695
12390TIP3   OH237114   6.584   0.231   4.567
12390TIP3    H137115   6.545   0.148   4.538
12390TIP3    H237116   6.646   0.206   4.635
12391TIP3   OH237117   6.690   1.779   3.889
12391TIP3    H137118   6.645   1.696   3.902
12391TIP3    H237119   6.762   1.778   3.951
12392TIP3   OH237120   7.742   0.372   5.744
12392TIP3    H137121   7.736   0.364   5.649
12392TIP3    H237122   7.716   0.462   5.762
12393TIP3   OH237123   5.972   5.226   4.597
12393TIP3    H137124   5.943   5.183   4.516
12393TIP3    H237125   5.934   5.173   4.667
12394TIP3   OH237126   3.437   7.552   0.237
12394TIP3    H137127   3.518   7.563   0.286
12394TIP3    H237128   3.408   7.641   0.218
12395TIP3   OH237129   6.118   5.766   4.298
12395TIP3    H137130   6.147   5.857   4.293
12395TIP3    H237131   6.110   5.738   4.207
12396TIP3   OH237132   6.299   2.517   3.776
12396TIP3    H137133   6.308   2.611   3.793
12396TIP3    H237134   6.382   2.491   3.737
12397TIP3   OH237135   1.213   2.253   0.281
12397TIP3    H137136   1.146   2.287   0.340
12397TIP3    H237137   1.218   2.318   0.211
12398TIP3   OH237138   3.091   1.794   1.008
12398TIP3    H137139   3.173   1.841   0.998
12398TIP3    H237140   3.057   1.785   0.919
12399TIP3   OH237141   2.751   1.183   2.489
12399TIP3    H137142   2.707   1.253   2.537
12399TIP3    H237143   2.795   1.132   2.557
12400TIP3   OH237144   3.277   1.022   1.913
12400TIP3    H137145   3.367   1.054   1.915
12400TIP3    H237146   3.223   1.100   1.918
12401TIP3   OH237147   5.944   6.812   2.826
12401TIP3    H137148   6.021   6.857   2.860
12401TIP3    H237149   5.974   6.723   2.806
12402TIP3   OH237150   6.417   6.386   6.248
12402TIP3    H137151   6.422   6.312   6.188
12402TIP3    H237152   6.365   6.452   6.201
12403TIP3   OH237153   0.670   4.888   0.518
12403TIP3    H137154   0.714   4.970   0.538
12403TIP3    H237155   0.700   4.827   0.586
12404TIP3   OH237156   7.486   4.131   2.152
12404TIP3    H137157   7.477   4.217   2.193
12404TIP3    H237158   7.400   4.091   2.161
12405TIP3   OH237159   7.426   6.822   0.101
12405TIP3    H137160   7.507   6.870   0.120
12405TIP3    H237161   7.358   6.869   0.149
12406TIP3   OH237162   7.337   3.934   0.349
12406TIP3    H137163   7.401   3.943   0.420
12406TIP3    H237164   7.388   3.948   0.269
12407TIP3   OH237165   3.367   6.250   3.624
12407TIP3    H137166   3.396   6.289   3.706
12407TIP3    H237167   3.272   6.246   3.632
12408TIP3   OH237168   2.217   2.406   1.350
12408TIP3    H137169   2.300   2.419   1.396
12408TIP3    H237170   2.176   2.332   1.396
12409TIP3   OH237171   1.624   2.325   6.756
12409TIP3    H137172   1.706   2.352   6.714
12409TIP3    H237173   1.579   2.407   6.775
12410TIP3   OH237174   1.637   6.598   2.003
12410TIP3    H137175   1.644   6.643   1.919
12410TIP3    H237176   1.608   6.510   1.981
12411TIP3   OH237177   5.110   5.091   0.935
12411TIP3    H137178   5.158   5.011   0.917
12411TIP3    H237179   5.127   5.109   1.028
12412TIP3   OH237180   4.974   5.747   0.092
12412TIP3    H137181   5.070   5.754   0.096
12412TIP3    H237182   4.945   5.838   0.082
12413TIP3   OH237183   0.190   6.936   4.773
12413TIP3    H137184   0.280   6.928   4.742
12413TIP3    H237185   0.194   6.910   4.865
12414TIP3   OH237186   5.064   3.337   4.631
12414TIP3    H137187   5.126   3.332   4.705
12414TIP3    H237188   4.991   3.281   4.658
12415TIP3   OH237189   3.138   7.608   4.692
12415TIP3    H137190   3.202   7.623   4.623
12415TIP3    H237191   3.056   7.593   4.646
12416TIP3   OH237192   0.207   2.839   1.935
12416TIP3    H137193   0.124   2.836   1.983
12416TIP3    H237194   0.190   2.899   1.863
12417TIP3   OH237195   7.658   6.708   4.926
12417TIP3    H137196   7.590   6.724   4.860
12417TIP3    H237197   7.710   6.637   4.889
12418TIP3   OH237198   8.131   1.323   3.852
12418TIP3    H137199   8.062   1.389   3.861
12418TIP3    H237200   8.085   1.239   3.855
12419TIP3   OH237201   2.240   1.668   4.849
12419TIP3    H137202   2.292   1.588   4.849
12419TIP3    H237203   2.170   1.651   4.912
12420TIP3   OH237204   3.863   1.899   6.586
12420TIP3    H137205   3.906   1.833   6.640
12420TIP3    H237206   3.921   1.910   6.510
12421TIP3   OH237207   0.681   4.540   3.629
12421TIP3    H137208   0.706   4.472   3.692
12421TIP3    H237209   0.588   4.524   3.613
12422TIP3   OH237210   2.782   4.490   0.167
12422TIP3    H137211   2.789   4.419   0.231
12422TIP3    H237212   2.708   4.464   0.112
12423TIP3   OH237213   0.193   4.227   1.985
12423TIP3    H137214   0.216   4.135   1.994
12423TIP3    H237215   0.114   4.227   1.931
12424TIP3   OH237216   3.943   1.408   5.215
12424TIP3    H137217   3.943   1.326   5.166
12424TIP3    H237218   3.967   1.474   5.150
12425TIP3   OH237219   5.590   0.491   3.237
12425TIP3    H137220   5.585   0.473   3.331
12425TIP3    H237221   5.579   0.406   3.195
12426TIP3   OH237222   0.740   5.973   5.483
12426TIP3    H137223   0.807   5.946   5.420
12426TIP3    H237224   0.757   5.920   5.560
12427TIP3   OH237225   3.849   5.115   6.420
12427TIP3    H137226   3.781   5.048   6.431
12427TIP3    H237227   3.811   5.193   6.460
12428TIP3   OH237228   8.097   5.210   1.610
12428TIP3    H137229   8.107   5.233   1.702
12428TIP3    H237230   8.019   5.155   1.607
12429TIP3   OH237231   1.463   6.198   0.855
12429TIP3    H137232   1.493   6.111   0.831
12429TIP3    H237233   1.494   6.254   0.784
12430TIP3   OH237234   1.919   0.321   1.867
12430TIP3    H137235   1.884   0.326   1.956
12430TIP3    H237236   1.842   0.303   1.812
12431TIP3   OH237237   6.572   3.715   4.637
12431TIP3    H137238   6.499   3.723   4.698
12431TIP3    H237239   6.593   3.804   4.612
12432TIP3   OH237240   2.854   4.135   1.229
12432TIP3    H137241   2.768   4.094   1.221
12432TIP3    H237242   2.835   4.224   1.260
12433TIP3   OH237243   5.215   0.240   1.657
12433TIP3    H137244   5.239   0.201   1.574
12433TIP3    H237245   5.205   0.166   1.717
12434TIP3   OH237246   2.168   7.229   5.436
12434TIP3    H137247   2.209   7.166   5.377
12434TIP3    H237248   2.234   7.297   5.448
12435TIP3   OH237249   7.869   4.804   0.463
12435TIP3    H137250   7.959   4.825   0.487
12435TIP3    H237251   7.870   4.798   0.368
12436TIP3   OH237252   6.140   6.144   1.596
12436TIP3    H137253   6.107   6.115   1.681
12436TIP3    H237254   6.133   6.068   1.539
12437TIP3   OH237255   3.986   2.752   0.585
12437TIP3    H137256   3.941   2.669   0.597
12437TIP3    H237257   3.969   2.801   0.666
12438TIP3   OH237258   0.022   2.679   1.621
12438TIP3    H137259  -0.073   2.688   1.614
12438TIP3    H237260   0.039   2.585   1.615
12439TIP3   OH237261   7.810   1.595   3.289
12439TIP3    H137262   7.785   1.518   3.238
12439TIP3    H237263   7.730   1.647   3.293
12440TIP3   OH237264   7.962   0.517   4.399
12440TIP3    H137265   7.980   0.554   4.486
12440TIP3    H237266   8.034   0.457   4.383
12441TIP3   OH237267   0.897   2.722   4.649
12441TIP3    H137268   0.887   2.658   4.719
12441TIP3    H237269   0.887   2.807   4.692
12442TIP3   OH237270   5.791   0.324   6.553
12442TIP3    H137271   5.806   0.287   6.466
12442TIP3    H237272   5.773   0.249   6.609
12443TIP3   OH237273   0.151   2.192   4.554
12443TIP3    H137274   0.081   2.164   4.613
12443TIP3    H237275   0.216   2.122   4.559
12444TIP3   OH237276   0.262   5.759   1.240
12444TIP3    H137277   0.198   5.710   1.290
12444TIP3    H237278   0.342   5.707   1.246
12445TIP3   OH237279   6.872   3.228   3.676
12445TIP3    H137280   6.799   3.168   3.660
12445TIP3    H237281   6.830   3.312   3.692
12446TIP3   OH237282   5.817   1.343   2.706
12446TIP3    H137283   5.829   1.263   2.655
12446TIP3    H237284   5.726   1.339   2.736
12447TIP3   OH237285   1.562   7.285   2.707
12447TIP3    H137286   1.639   7.335   2.734
12447TIP3    H237287   1.578   7.265   2.615
12448TIP3   OH237288   3.015   0.462   0.211
12448TIP3    H137289   3.041   0.423   0.127
12448TIP3    H237290   3.011   0.387   0.271
12449TIP3   OH237291   5.896   3.946   3.363
12449TIP3    H137292   5.953   4.015   3.329
12449TIP3    H237293   5.826   3.939   3.299
12450TIP3   OH237294   7.408   2.535   0.051
12450TIP3    H137295   7.353   2.608   0.021
12450TIP3    H237296   7.473   2.524  -0.019
12451TIP3   OH237297   6.516   5.190   6.406
12451TIP3    H137298   6.515   5.184   6.501
12451TIP3    H237299   6.558   5.109   6.378
12452TIP3   OH237300   2.097   5.609   6.739
12452TIP3    H137301   2.051   5.526   6.732
12452TIP3    H237302   2.030   5.673   6.763
12453TIP3   OH237303   5.341   1.895   4.383
12453TIP3    H137304   5.312   1.952   4.311
12453TIP3    H237305   5.265   1.841   4.403
12454TIP3   OH237306   5.726   3.764   6.457
12454TIP3    H137307   5.649   3.759   6.400
12454TIP3    H237308   5.731   3.678   6.498
12455TIP3   OH237309   1.430   4.202   3.461
12455TIP3    H137310   1.501   4.144   3.436
12455TIP3    H237311   1.350   4.156   3.436
12456TIP3   OH237312   7.877   6.838   5.786
12456TIP3    H137313   7.786   6.862   5.803
12456TIP3    H237314   7.926   6.877   5.858
12457TIP3   OH237315   2.663   4.516   4.745
12457TIP3    H137316   2.680   4.435   4.697
12457TIP3    H237317   2.698   4.585   4.689
12458TIP3   OH237318   7.412   0.347   5.517
12458TIP3    H137319   7.326   0.366   5.480
12458TIP3    H237320   7.395   0.328   5.609
12459TIP3   OH237321   1.024   6.450   6.357
12459TIP3    H137322   1.095   6.453   6.420
12459TIP3    H237323   1.017   6.358   6.332
12460TIP3   OH237324   0.207   4.261   5.294
12460TIP3    H137325   0.292   4.280   5.253
12460TIP3    H237326   0.219   4.174   5.333
12461TIP3   OH237327   7.143   5.588   0.932
12461TIP3    H137328   7.081   5.574   1.004
12461TIP3    H237329   7.124   5.677   0.901
12462TIP3   OH237330   4.749   1.100   0.543
12462TIP3    H137331   4.745   1.195   0.555
12462TIP3    H237332   4.712   1.086   0.456
12463TIP3   OH237333   2.374   4.675   2.939
12463TIP3    H137334   2.294   4.723   2.920
12463TIP3    H237335   2.347   4.583   2.942
12464TIP3   OH237336   7.879   5.985   1.439
12464TIP3    H137337   7.804   6.008   1.385
12464TIP3    H237338   7.953   6.029   1.396
12465TIP3   OH237339   7.479   5.392   3.149
12465TIP3    H137340   7.508   5.310   3.108
12465TIP3    H237341   7.538   5.459   3.114
12466TIP3   OH237342   0.521   6.087   4.935
12466TIP3    H137343   0.607   6.054   4.962
12466TIP3    H237344   0.512   6.058   4.844
12467TIP3   OH237345   0.828   2.445   0.339
12467TIP3    H137346   0.889   2.482   0.276
12467TIP3    H237347   0.881   2.386   0.393
12468TIP3   OH237348   0.687   3.531   1.514
12468TIP3    H137349   0.620   3.536   1.583
12468TIP3    H237350   0.637   3.508   1.435
12469TIP3   OH237351   7.440   5.995   5.449
12469TIP3    H137352   7.505   6.017   5.382
12469TIP3    H237353   7.386   5.927   5.409
12470TIP3   OH237354   8.234   3.102   5.835
12470TIP3    H137355   8.152   3.052   5.833
12470TIP3    H237356   8.209   3.190   5.806
12471TIP3   OH237357   6.502   4.134   5.658
12471TIP3    H137358   6.413   4.149   5.690
12471TIP3    H237359   6.534   4.061   5.711
12472TIP3   OH237360   3.558   2.978   1.473
12472TIP3    H137361   3.491   3.040   1.500
12472TIP3    H237362   3.611   3.026   1.409
12473TIP3   OH237363   3.762   3.422   6.238
12473TIP3    H137364   3.709   3.476   6.180
12473TIP3    H237365   3.818   3.485   6.283
12474TIP3   OH237366   1.104   0.368   3.201
12474TIP3    H137367   1.144   0.312   3.134
12474TIP3    H237368   1.158   0.353   3.279
12475TIP3   OH237369   4.991   7.183   2.540
12475TIP3    H137370   4.997   7.239   2.618
12475TIP3    H237371   5.080   7.181   2.505
12476TIP3   OH237372   7.199   3.487   0.905
12476TIP3    H137373   7.150   3.524   0.832
12476TIP3    H237374   7.277   3.450   0.865
12477TIP3   OH237375   4.182   4.422   4.997
12477TIP3    H137376   4.235   4.342   5.004
12477TIP3    H237377   4.095   4.395   5.025
12478TIP3   OH237378   6.247   0.172   2.231
12478TIP3    H137379   6.166   0.166   2.282
12478TIP3    H237380   6.304   0.229   2.283
12479TIP3   OH237381   1.906   4.988   0.169
12479TIP3    H137382   1.978   4.928   0.149
12479TIP3    H237383   1.943   5.075   0.158
12480TIP3   OH237384   4.891   4.107   0.883
12480TIP3    H137385   4.816   4.048   0.875
12480TIP3    H237386   4.900   4.121   0.977
12481TIP3   OH237387   2.524   6.643   2.135
12481TIP3    H137388   2.473   6.724   2.135
12481TIP3    H237389   2.545   6.628   2.043
12482TIP3   OH237390   4.413   6.400   5.969
12482TIP3    H137391   4.430   6.323   6.024
12482TIP3    H237392   4.435   6.371   5.880
12483TIP3   OH237393   1.633   1.087   2.455
12483TIP3    H137394   1.649   1.157   2.519
12483TIP3    H237395   1.716   1.040   2.449
12484TIP3   OH237396   8.056   0.287   4.212
12484TIP3    H137397   8.132   0.230   4.224
12484TIP3    H237398   8.085   0.351   4.148
12485TIP3   OH237399   3.198   1.838   5.154
12485TIP3    H137400   3.179   1.854   5.247
12485TIP3    H237401   3.261   1.906   5.131
12486TIP3   OH237402   1.282   1.749   1.512
12486TIP3    H137403   1.191   1.772   1.492
12486TIP3    H237404   1.276   1.688   1.585
12487TIP3   OH237405   1.269   4.979   1.390
12487TIP3    H137406   1.221   4.908   1.433
12487TIP3    H237407   1.276   4.952   1.299
12488TIP3   OH237408   7.344   0.424   1.799
12488TIP3    H137409   7.319   0.501   1.850
12488TIP3    H237410   7.305   0.350   1.847
12489TIP3   OH237411   3.367   2.989   5.933
12489TIP3    H137412   3.444   2.949   5.973
12489TIP3    H237413   3.395   3.078   5.913
12490TIP3   OH237414   5.814   0.861   0.401
12490TIP3    H137415   5.764   0.783   0.424
12490TIP3    H237416   5.852   0.891   0.484
12491TIP3   OH237417   7.671   0.182   3.299
12491TIP3    H137418   7.733   0.124   3.255
12491TIP3    H237419   7.597   0.126   3.322
12492TIP3   OH237420   8.234   5.733   1.872
12492TIP3    H137421   8.261   5.717   1.962
12492TIP3    H237422   8.282   5.668   1.820
12493TIP3   OH237423   3.118   7.692   0.934
12493TIP3    H137424   3.058   7.641   0.879
12493TIP3    H237425   3.188   7.630   0.956
12494TIP3   OH237426   3.151   3.695   0.491
12494TIP3    H137427   3.209   3.639   0.440
12494TIP3    H237428   3.141   3.775   0.439
12495TIP3   OH237429   3.956   1.416   3.853
12495TIP3    H137430   3.895   1.343   3.837
12495TIP3    H237431   4.037   1.373   3.880
12496TIP3   OH237432   2.484   3.352   2.852
12496TIP3    H137433   2.482   3.446   2.872
12496TIP3    H237434   2.571   3.338   2.814
12497TIP3   OH237435   1.963   0.409   5.113
12497TIP3    H137436   2.038   0.376   5.063
12497TIP3    H237437   1.887   0.371   5.069
12498TIP3   OH237438   1.072   0.460   5.397
12498TIP3    H137439   0.995   0.485   5.346
12498TIP3    H237440   1.045   0.380   5.443
12499TIP3   OH237441   3.474   5.048   4.514
12499TIP3    H137442   3.387   5.077   4.541
12499TIP3    H237443   3.520   5.030   4.597
12500TIP3   OH237444   4.932   6.336   5.227
12500TIP3    H137445   4.888   6.376   5.302
12500TIP3    H237446   4.867   6.275   5.192
12501TIP3   OH237447   7.399   4.901   3.178
12501TIP3    H137448   7.361   4.933   3.096
12501TIP3    H237449   7.358   4.816   3.193
12502TIP3   OH237450   6.063   6.103   3.791
12502TIP3    H137451   6.122   6.179   3.799
12502TIP3    H237452   5.988   6.125   3.847
12503TIP3   OH237453   5.189   4.222   0.599
12503TIP3    H137454   5.267   4.183   0.560
12503TIP3    H237455   5.129   4.149   0.612
12504TIP3   OH237456   5.702   4.414   4.636
12504TIP3    H137457   5.674   4.469   4.562
12504TIP3    H237458   5.756   4.346   4.596
12505TIP3   OH237459   0.999   7.236   1.136
12505TIP3    H137460   1.078   7.237   1.082
12505TIP3    H237461   1.025   7.191   1.216
12506TIP3   OH237462   0.102   0.139   6.781
12506TIP3    H137463   0.025   0.083   6.774
12506TIP3    H237464   0.168   0.096   6.728
12507TIP3   OH237465   1.428   1.518   2.256
12507TIP3    H137466   1.442   1.488   2.166
12507TIP3    H237467   1.337   1.548   2.257
12508TIP3   OH237468   4.539   7.736   5.826
12508TIP3    H137469   4.541   7.670   5.896
12508TIP3    H237470   4.625   7.732   5.786
12509TIP3   OH237471   0.256   0.196   6.062
12509TIP3    H137472   0.161   0.206   6.070
12509TIP3    H237473   0.268   0.109   6.024
12510TIP3   OH237474   5.694   2.454   4.051
12510TIP3    H137475   5.627   2.522   4.047
12510TIP3    H237476   5.766   2.495   4.099
12511TIP3   OH237477   7.500   6.075   2.943
12511TIP3    H137478   7.444   6.090   2.867
12511TIP3    H237479   7.584   6.115   2.920
12512TIP3   OH237480   0.861   7.758   0.278
12512TIP3    H137481   0.936   7.769   0.220
12512TIP3    H237482   0.888   7.689   0.339
12513TIP3   OH237483   3.467   3.470   1.066
12513TIP3    H137484   3.430   3.480   1.154
12513TIP3    H237485   3.546   3.417   1.079
12514TIP3   OH237486   2.929   4.358   6.337
12514TIP3    H137487   2.989   4.419   6.381
12514TIP3    H237488   2.919   4.394   6.249
12515TIP3   OH237489   5.435   6.007   6.257
12515TIP3    H137490   5.415   5.923   6.298
12515TIP3    H237491   5.474   6.059   6.328
12516TIP3   OH237492   6.391   0.453   2.343
12516TIP3    H137493   6.344   0.537   2.341
12516TIP3    H237494   6.430   0.446   2.256
12517TIP3   OH237495   1.015   3.903   2.424
12517TIP3    H137496   0.933   3.852   2.423
12517TIP3    H237497   1.001   3.971   2.359
12518TIP3   OH237498   4.158   5.771   5.203
12518TIP3    H137499   4.179   5.683   5.234
12518TIP3    H237500   4.114   5.757   5.119
12519TIP3   OH237501   4.701   0.308   5.997
12519TIP3    H137502   4.625   0.255   5.974
12519TIP3    H237503   4.719   0.286   6.088
12520TIP3   OH237504   6.494   3.756   3.515
12520TIP3    H137505   6.418   3.783   3.568
12520TIP3    H237506   6.569   3.773   3.571
12521TIP3   OH237507   4.197   5.178   2.283
12521TIP3    H137508   4.224   5.270   2.291
12521TIP3    H237509   4.174   5.152   2.373
12522TIP3   OH237510   3.180   3.297   2.762
12522TIP3    H137511   3.164   3.339   2.677
12522TIP3    H237512   3.093   3.286   2.800
12523TIP3   OH237513   0.131   7.024   1.478
12523TIP3    H137514   0.176   7.093   1.527
12523TIP3    H237515   0.052   7.066   1.445
12524TIP3   OH237516   2.561   5.372   5.048
12524TIP3    H137517   2.478   5.363   5.095
12524TIP3    H237518   2.597   5.283   5.046
12525TIP3   OH237519   4.314   4.895   5.114
12525TIP3    H137520   4.316   4.854   5.200
12525TIP3    H237521   4.230   4.940   5.110
12526TIP3   OH237522   7.625   2.529   6.392
12526TIP3    H137523   7.546   2.584   6.390
12526TIP3    H237524   7.613   2.473   6.468
12527TIP3   OH237525   5.440   4.880   3.408
12527TIP3    H137526   5.426   4.962   3.454
12527TIP3    H237527   5.504   4.833   3.462
12528TIP3   OH237528   6.312   0.472   0.547
12528TIP3    H137529   6.336   0.408   0.480
12528TIP3    H237530   6.254   0.534   0.502
12529TIP3   OH237531   1.496   4.458   1.749
12529TIP3    H137532   1.572   4.449   1.807
12529TIP3    H237533   1.529   4.438   1.662
12530TIP3   OH237534   7.631   4.499   0.565
12530TIP3    H137535   7.600   4.579   0.522
12530TIP3    H237536   7.659   4.528   0.652
12531TIP3   OH237537   4.421   6.862   0.925
12531TIP3    H137538   4.332   6.844   0.896
12531TIP3    H237539   4.439   6.796   0.991
12532TIP3   OH237540   6.792   4.839   4.921
12532TIP3    H137541   6.698   4.856   4.924
12532TIP3    H237542   6.803   4.781   4.845
12533TIP3   OH237543   3.117   3.334   1.170
12533TIP3    H137544   3.112   3.416   1.122
12533TIP3    H237545   3.205   3.332   1.206
12534TIP3   OH237546   5.394   0.580   6.782
12534TIP3    H137547   5.374   0.637   6.708
12534TIP3    H237548   5.482   0.547   6.763
12535TIP3   OH237549   7.681   4.918   2.315
12535TIP3    H137550   7.659   5.010   2.331
12535TIP3    H237551   7.765   4.906   2.359
12536TIP3   OH237552   2.078   7.273   2.451
12536TIP3    H137553   2.023   7.295   2.376
12536TIP3    H237554   2.018   7.234   2.514
12537TIP3   OH237555   3.144   4.071   1.291
12537TIP3    H137556   3.096   3.993   1.319
12537TIP3    H237557   3.083   4.143   1.306
12538TIP3   OH237558   1.348   4.636   2.907
12538TIP3    H137559   1.268   4.606   2.863
12538TIP3    H237560   1.401   4.557   2.918
12539TIP3   OH237561   1.523   2.110   3.457
12539TIP3    H137562   1.572   2.029   3.441
12539TIP3    H237563   1.437   2.080   3.487
12540TIP3   OH237564   3.827   4.434   4.184
12540TIP3    H137565   3.920   4.417   4.198
12540TIP3    H237566   3.803   4.378   4.110
12541TIP3   OH237567   7.601   2.071   1.601
12541TIP3    H137568   7.539   2.004   1.631
12541TIP3    H237569   7.553   2.121   1.535
12542TIP3   OH237570   7.400   5.088   6.274
12542TIP3    H137571   7.359   5.136   6.202
12542TIP3    H237572   7.405   5.151   6.345
12543TIP3   OH237573   0.739   3.713   5.869
12543TIP3    H137574   0.675   3.726   5.939
12543TIP3    H237575   0.807   3.658   5.910
12544TIP3   OH237576   0.491   6.718   0.754
12544TIP3    H137577   0.564   6.779   0.762
12544TIP3    H237578   0.531   6.637   0.722
12545TIP3   OH237579   1.953   3.447   6.089
12545TIP3    H137580   2.024   3.511   6.095
12545TIP3    H237581   1.978   3.377   6.150
12546TIP3   OH237582   5.669   1.135   5.084
12546TIP3    H137583   5.632   1.105   5.001
12546TIP3    H237584   5.754   1.173   5.061
12547TIP3   OH237585   7.491   1.026   0.182
12547TIP3    H137586   7.545   1.021   0.103
12547TIP3    H237587   7.445   1.110   0.174
12548TIP3   OH237588   4.362   1.177   3.724
12548TIP3    H137589   4.292   1.234   3.756
12548TIP3    H237590   4.423   1.169   3.797
12549TIP3   OH237591   1.884   2.415   6.682
12549TIP3    H137592   1.908   2.428   6.590
12549TIP3    H237593   1.894   2.321   6.695
12550TIP3   OH237594   3.131   6.711   0.113
12550TIP3    H137595   3.087   6.629   0.137
12550TIP3    H237596   3.098   6.775   0.176
12551TIP3   OH237597   7.625   5.847   5.176
12551TIP3    H137598   7.578   5.905   5.116
12551TIP3    H237599   7.713   5.884   5.180
12552TIP3   OH237600   5.332   5.173   3.778
12552TIP3    H137601   5.270   5.230   3.735
12552TIP3    H237602   5.278   5.107   3.822
12553TIP3   OH237603   2.355   2.251   6.205
12553TIP3    H137604   2.330   2.245   6.298
12553TIP3    H237605   2.360   2.345   6.188
12554TIP3   OH237606   0.425   5.883   3.631
12554TIP3    H137607   0.441   5.974   3.655
12554TIP3    H237608   0.473   5.871   3.549
12555TIP3   OH237609   3.851   0.629   6.083
12555TIP3    H137610   3.893   0.707   6.045
12555TIP3    H237611   3.841   0.569   6.009
12556TIP3   OH237612   5.326   2.721   0.626
12556TIP3    H137613   5.339   2.811   0.654
12556TIP3    H237614   5.282   2.728   0.541
12557TIP3   OH237615   6.465   5.258   1.755
12557TIP3    H137616   6.460   5.255   1.850
12557TIP3    H237617   6.523   5.331   1.736
12558TIP3   OH237618   1.439   2.567   3.229
12558TIP3    H137619   1.354   2.565   3.273
12558TIP3    H237620   1.425   2.516   3.149
12559TIP3   OH237621   5.747   3.846   5.025
12559TIP3    H137622   5.824   3.903   5.035
12559TIP3    H237623   5.772   3.765   5.069
12560TIP3   OH237624   2.692   4.658   1.346
12560TIP3    H137625   2.680   4.721   1.417
12560TIP3    H237626   2.615   4.671   1.290
12561TIP3   OH237627   0.257   4.967   2.086
12561TIP3    H137628   0.314   4.982   2.161
12561TIP3    H237629   0.205   5.046   2.079
12562TIP3   OH237630   2.712   0.736   6.632
12562TIP3    H137631   2.732   0.643   6.620
12562TIP3    H237632   2.667   0.762   6.551
12563TIP3   OH237633   2.911   1.518   3.321
12563TIP3    H137634   2.856   1.515   3.399
12563TIP3    H237635   2.968   1.594   3.335
12564TIP3   OH237636   1.855   3.433   0.486
12564TIP3    H137637   1.809   3.442   0.570
12564TIP3    H237638   1.816   3.355   0.446
12565TIP3   OH237639   0.875   1.771   0.705
12565TIP3    H137640   0.955   1.823   0.708
12565TIP3    H237641   0.849   1.772   0.613
12566TIP3   OH237642   0.188   3.390   1.966
12566TIP3    H137643   0.245   3.320   1.935
12566TIP3    H237644   0.157   3.434   1.887
12567TIP3   OH237645   8.131   5.075   4.810
12567TIP3    H137646   8.131   4.991   4.856
12567TIP3    H237647   8.140   5.052   4.718
12568TIP3   OH237648   2.473   0.153   6.414
12568TIP3    H137649   2.479   0.060   6.394
12568TIP3    H237650   2.452   0.157   6.507
12569TIP3   OH237651   2.846   2.676   4.561
12569TIP3    H137652   2.840   2.728   4.481
12569TIP3    H237653   2.757   2.677   4.597
12570TIP3   OH237654   7.386   0.771   1.667
12570TIP3    H137655   7.293   0.793   1.667
12570TIP3    H237656   7.397   0.714   1.591
12571TIP3   OH237657   4.905   6.098   4.470
12571TIP3    H137658   4.909   6.047   4.550
12571TIP3    H237659   4.982   6.154   4.473
12572TIP3   OH237660   1.826   2.090   5.227
12572TIP3    H137661   1.880   2.118   5.301
12572TIP3    H237662   1.777   2.015   5.260
12573TIP3   OH237663   1.233   1.261   2.397
12573TIP3    H137664   1.239   1.319   2.472
12573TIP3    H237665   1.144   1.275   2.363
12574TIP3   OH237666   6.607   2.594   5.359
12574TIP3    H137667   6.618   2.665   5.296
12574TIP3    H237668   6.528   2.548   5.330
12575TIP3   OH237669   1.974   7.285   0.610
12575TIP3    H137670   1.944   7.348   0.544
12575TIP3    H237671   2.001   7.340   0.684
12576TIP3   OH237672   6.521   3.749   0.665
12576TIP3    H137673   6.509   3.737   0.571
12576TIP3    H237674   6.582   3.680   0.690
12577TIP3   OH237675   2.778   6.013   1.410
12577TIP3    H137676   2.723   6.083   1.374
12577TIP3    H237677   2.825   6.054   1.482
12578TIP3   OH237678   4.883   4.135   4.031
12578TIP3    H137679   4.797   4.095   4.036
12578TIP3    H237680   4.866   4.224   3.999
12579TIP3   OH237681   6.739   6.033   2.380
12579TIP3    H137682   6.653   6.074   2.381
12579TIP3    H237683   6.722   5.940   2.397
12580TIP3   OH237684   6.068   6.132   1.866
12580TIP3    H137685   6.135   6.100   1.927
12580TIP3    H237686   6.069   6.227   1.878
12581TIP3   OH237687   7.325   6.054   6.206
12581TIP3    H137688   7.246   6.095   6.242
12581TIP3    H237689   7.396   6.114   6.228
12582TIP3   OH237690   4.348   0.805   5.953
12582TIP3    H137691   4.306   0.811   5.867
12582TIP3    H237692   4.379   0.894   5.970
12583TIP3   OH237693   2.207   3.399   2.432
12583TIP3    H137694   2.140   3.335   2.458
12583TIP3    H237695   2.185   3.478   2.481
12584TIP3   OH237696   2.304   1.648   1.604
12584TIP3    H137697   2.362   1.605   1.541
12584TIP3    H237698   2.257   1.575   1.645
12585TIP3   OH237699   0.306   6.260   1.519
12585TIP3    H137700   0.286   6.170   1.496
12585TIP3    H237701   0.221   6.303   1.525
12586TIP3   OH237702   7.116   1.619   4.405
12586TIP3    H137703   7.114   1.684   4.475
12586TIP3    H237704   7.209   1.608   4.385
12587TIP3   OH237705   1.159   4.599   4.286
12587TIP3    H137706   1.240   4.549   4.282
12587TIP3    H237707   1.092   4.539   4.252
12588TIP3   OH237708   7.129   0.999   3.872
12588TIP3    H137709   7.085   1.070   3.919
12588TIP3    H237710   7.174   0.949   3.940
12589TIP3   OH237711   0.294   3.836   4.476
12589TIP3    H137712   0.211   3.864   4.514
12589TIP3    H237713   0.286   3.859   4.383
12590TIP3   OH237714   7.427   2.758   6.343
12590TIP3    H137715   7.418   2.843   6.386
12590TIP3    H237716   7.345   2.713   6.361
12591TIP3   OH237717   0.275   3.284   1.633
12591TIP3    H137718   0.296   3.219   1.566
12591TIP3    H237719   0.205   3.337   1.595
12592TIP3   OH237720   5.474   2.242   3.233
12592TIP3    H137721   5.533   2.312   3.262
12592TIP3    H237722   5.393   2.287   3.208
12593TIP3   OH237723   1.013   0.048   4.429
12593TIP3    H137724   0.997   0.028   4.337
12593TIP3    H237725   1.088   0.108   4.427
12594TIP3   OH237726   1.453   5.415   6.044
12594TIP3    H137727   1.471   5.328   6.081
12594TIP3    H237728   1.449   5.473   6.120
12595TIP3   OH237729   2.930   2.615   0.180
12595TIP3    H137730   3.013   2.648   0.216
12595TIP3    H237731   2.892   2.562   0.250
12596TIP3   OH237732   0.155   2.401   3.364
12596TIP3    H137733   0.225   2.383   3.427
12596TIP3    H237734   0.086   2.338   3.386
12597TIP3   OH237735   4.895   1.785   0.205
12597TIP3    H137736   4.984   1.807   0.230
12597TIP3    H237737   4.895   1.689   0.200
12598TIP3   OH237738   3.969   7.366   5.607
12598TIP3    H137739   4.055   7.340   5.641
12598TIP3    H237740   3.943   7.441   5.661
12599TIP3   OH237741   6.776   6.212   4.223
12599TIP3    H137742   6.786   6.295   4.271
12599TIP3    H237743   6.687   6.184   4.243
12600TIP3   OH237744   5.280   3.687   1.276
12600TIP3    H137745   5.199   3.738   1.279
12600TIP3    H237746   5.262   3.617   1.212
12601TIP3   OH237747   3.628   2.860   5.068
12601TIP3    H137748   3.690   2.902   5.127
12601TIP3    H237749   3.642   2.766   5.081
12602TIP3   OH237750   1.344   3.113   1.898
12602TIP3    H137751   1.279   3.057   1.857
12602TIP3    H237752   1.293   3.175   1.950
12603TIP3   OH237753   4.328   2.324   2.938
12603TIP3    H137754   4.318   2.238   2.898
12603TIP3    H237755   4.342   2.306   3.030
12604TIP3   OH237756   0.289   2.842   1.406
12604TIP3    H137757   0.333   2.892   1.474
12604TIP3    H237758   0.279   2.754   1.443
12605TIP3   OH237759   3.738   5.571   4.343
12605TIP3    H137760   3.820   5.581   4.392
12605TIP3    H237761   3.765   5.557   4.252
12606TIP3   OH237762   4.547   3.637   3.785
12606TIP3    H137763   4.463   3.621   3.742
12606TIP3    H237764   4.594   3.696   3.725
12607TIP3   OH237765   0.384   4.310   6.644
12607TIP3    H137766   0.339   4.344   6.721
12607TIP3    H237767   0.470   4.353   6.645
12608TIP3   OH237768   0.927   7.473   2.047
12608TIP3    H137769   1.014   7.445   2.074
12608TIP3    H237770   0.936   7.567   2.032
12609TIP3   OH237771   3.492   2.446   4.650
12609TIP3    H137772   3.469   2.373   4.708
12609TIP3    H237773   3.473   2.524   4.702
12610TIP3   OH237774   6.043   6.362   5.660
12610TIP3    H137775   6.009   6.298   5.597
12610TIP3    H237776   6.085   6.308   5.727
12611TIP3   OH237777   8.088   0.149   6.021
12611TIP3    H137778   8.089   0.195   5.937
12611TIP3    H237779   8.008   0.178   6.064
12612TIP3   OH237780   1.067   6.054   6.427
12612TIP3    H137781   1.030   5.966   6.416
12612TIP3    H237782   1.028   6.086   6.509
12613TIP3   OH237783   4.941   7.130   3.659
12613TIP3    H137784   4.969   7.039   3.671
12613TIP3    H237785   4.909   7.157   3.745
12614TIP3   OH237786   7.466   7.407   1.186
12614TIP3    H137787   7.452   7.425   1.093
12614TIP3    H237788   7.412   7.473   1.231
12615TIP3   OH237789   3.248   6.567   6.550
12615TIP3    H137790   3.319   6.599   6.495
12615TIP3    H237791   3.176   6.628   6.535
12616TIP3   OH237792   6.736   6.289   1.364
12616TIP3    H137793   6.784   6.314   1.443
12616TIP3    H237794   6.653   6.254   1.396
12617TIP3   OH237795   1.421   3.391   1.755
12617TIP3    H137796   1.442   3.323   1.819
12617TIP3    H237797   1.506   3.426   1.728
12618TIP3   OH237798   6.336   6.964   0.323
12618TIP3    H137799   6.345   7.058   0.338
12618TIP3    H237800   6.403   6.943   0.259
12619TIP3   OH237801   6.052   6.642   5.059
12619TIP3    H137802   6.132   6.594   5.035
12619TIP3    H237803   6.028   6.607   5.145
12620TIP3   OH237804   4.643   4.255   0.961
12620TIP3    H137805   4.587   4.186   0.926
12620TIP3    H237806   4.605   4.276   1.047
12621TIP3   OH237807   2.745   0.958   0.356
12621TIP3    H137808   2.781   0.958   0.267
12621TIP3    H237809   2.659   1.000   0.348
12622TIP3   OH237810   2.523   5.513   2.364
12622TIP3    H137811   2.481   5.526   2.279
12622TIP3    H237812   2.562   5.426   2.359
12623TIP3   OH237813   3.090   7.412   5.567
12623TIP3    H137814   3.054   7.439   5.652
12623TIP3    H237815   3.082   7.316   5.568
12624TIP3   OH237816   8.279   3.819   5.480
12624TIP3    H137817   8.198   3.850   5.522
12624TIP3    H237818   8.314   3.755   5.542
12625TIP3   OH237819   3.665   4.380   5.773
12625TIP3    H137820   3.680   4.289   5.745
12625TIP3    H237821   3.749   4.408   5.809
12626TIP3   OH237822   4.067   6.057   6.203
12626TIP3    H137823   4.100   6.059   6.293
12626TIP3    H237824   3.995   5.994   6.206
12627TIP3   OH237825   6.363   4.041   2.346
12627TIP3    H137826   6.417   3.985   2.290
12627TIP3    H237827   6.291   3.984   2.374
12628TIP3   OH237828   7.895   6.646   4.426
12628TIP3    H137829   7.944   6.682   4.500
12628TIP3    H237830   7.872   6.558   4.453
12629TIP3   OH237831   4.723   6.284   6.106
12629TIP3    H137832   4.735   6.234   6.025
12629TIP3    H237833   4.689   6.221   6.169
12630TIP3   OH237834   2.423   6.562   0.504
12630TIP3    H137835   2.386   6.530   0.422
12630TIP3    H237836   2.517   6.564   0.489
12631TIP3   OH237837   0.499   4.240   2.069
12631TIP3    H137838   0.430   4.305   2.084
12631TIP3    H237839   0.574   4.292   2.041
12632TIP3   OH237840   2.193   4.760   4.853
12632TIP3    H137841   2.288   4.757   4.867
12632TIP3    H237842   2.183   4.755   4.758
12633TIP3   OH237843   7.416   4.163   6.371
12633TIP3    H137844   7.434   4.145   6.464
12633TIP3    H237845   7.473   4.236   6.350
12634TIP3   OH237846   4.705   3.004   0.487
12634TIP3    H137847   4.638   3.030   0.425
12634TIP3    H237848   4.657   2.972   0.563
12635TIP3   OH237849   3.637   1.012   2.164
12635TIP3    H137850   3.596   0.986   2.081
12635TIP3    H237851   3.663   0.930   2.205
12636TIP3   OH237852   5.448   3.711   4.228
12636TIP3    H137853   5.381   3.775   4.252
12636TIP3    H237854   5.427   3.688   4.137
12637TIP3   OH237855   5.287   6.642   0.230
12637TIP3    H137856   5.348   6.647   0.303
12637TIP3    H237857   5.305   6.720   0.178
12638TIP3   OH237858   5.000   7.595   1.996
12638TIP3    H137859   4.957   7.681   1.994
12638TIP3    H237860   5.092   7.613   1.977
12639TIP3   OH237861   0.831   7.586   1.658
12639TIP3    H137862   0.907   7.546   1.701
12639TIP3    H237863   0.839   7.563   1.566
12640TIP3   OH237864   4.745   2.988   2.939
12640TIP3    H137865   4.728   3.068   2.890
12640TIP3    H237866   4.820   2.949   2.895
12641TIP3   OH237867   0.397   2.992   5.970
12641TIP3    H137868   0.302   2.996   5.956
12641TIP3    H237869   0.434   3.038   5.895
12642TIP3   OH237870   3.430   0.831   0.969
12642TIP3    H137871   3.413   0.751   0.919
12642TIP3    H237872   3.495   0.878   0.917
12643TIP3   OH237873   3.611   0.217   6.387
12643TIP3    H137874   3.677   0.151   6.406
12643TIP3    H237875   3.657   0.300   6.395
12644TIP3   OH237876   0.325   1.033   1.083
12644TIP3    H137877   0.403   1.057   1.134
12644TIP3    H237878   0.307   0.943   1.108
12645TIP3   OH237879   7.235   1.713   2.699
12645TIP3    H137880   7.324   1.747   2.693
12645TIP3    H237881   7.229   1.674   2.786
12646TIP3   OH237882   0.815   6.957   5.919
12646TIP3    H137883   0.820   7.009   5.839
12646TIP3    H237884   0.861   7.010   5.984
12647TIP3   OH237885   3.074   5.794   6.463
12647TIP3    H137886   3.094   5.887   6.454
12647TIP3    H237887   2.982   5.792   6.491
12648TIP3   OH237888   2.097   5.356   1.694
12648TIP3    H137889   2.085   5.300   1.617
12648TIP3    H237890   2.112   5.296   1.766
12649TIP3   OH237891   6.715   1.133   1.509
12649TIP3    H137892   6.776   1.141   1.582
12649TIP3    H237893   6.700   1.223   1.480
12650TIP3   OH237894   7.143   1.659   3.105
12650TIP3    H137895   7.057   1.639   3.066
12650TIP3    H237896   7.197   1.584   3.081
12651TIP3   OH237897   1.808   3.015   3.500
12651TIP3    H137898   1.863   2.940   3.476
12651TIP3    H237899   1.870   3.084   3.522
12652TIP3   OH237900   0.489   1.923   0.496
12652TIP3    H137901   0.540   2.001   0.473
12652TIP3    H237902   0.412   1.957   0.541
12653TIP3   OH237903   0.220   6.667   6.126
12653TIP3    H137904   0.188   6.592   6.176
12653TIP3    H237905   0.304   6.639   6.091
12654TIP3   OH237906   4.199   7.139   0.090
12654TIP3    H137907   4.209   7.224   0.134
12654TIP3    H237908   4.284   7.123   0.050
12655TIP3   OH237909   4.889   5.235   6.592
12655TIP3    H137910   4.869   5.293   6.665
12655TIP3    H237911   4.805   5.198   6.567
12656TIP3   OH237912   1.832   6.561   4.695
12656TIP3    H137913   1.896   6.493   4.717
12656TIP3    H237914   1.751   6.513   4.677
12657TIP3   OH237915   5.813   7.389   0.790
12657TIP3    H137916   5.904   7.362   0.776
12657TIP3    H237917   5.761   7.312   0.765
12658TIP3   OH237918   3.007   5.692   0.838
12658TIP3    H137919   3.078   5.628   0.839
12658TIP3    H237920   3.043   5.766   0.790
12659TIP3   OH237921   2.237   0.576   0.990
12659TIP3    H137922   2.151   0.615   0.977
12659TIP3    H237923   2.242   0.505   0.927
12660TIP3   OH237924   6.007   1.832   0.631
12660TIP3    H137925   6.036   1.768   0.696
12660TIP3    H237926   6.086   1.856   0.583
12661TIP3   OH237927   7.859   4.481   1.966
12661TIP3    H137928   7.841   4.421   2.039
12661TIP3    H237929   7.880   4.423   1.893
12662TIP3   OH237930   6.776   5.957   0.049
12662TIP3    H137931   6.863   5.938   0.086
12662TIP3    H237932   6.715   5.931   0.117
12663TIP3   OH237933   7.307   1.676   3.996
12663TIP3    H137934   7.286   1.736   3.924
12663TIP3    H237935   7.391   1.638   3.971
12664TIP3   OH237936   0.840   2.910   3.371
12664TIP3    H137937   0.842   2.884   3.464
12664TIP3    H237938   0.929   2.895   3.340
12665TIP3   OH237939   3.436   0.969   4.371
12665TIP3    H137940   3.364   0.937   4.317
12665TIP3    H237941   3.409   0.951   4.461
12666TIP3   OH237942   7.342   2.021   1.488
12666TIP3    H137943   7.373   2.108   1.462
12666TIP3    H237944   7.249   2.034   1.509
12667TIP3   OH237945   1.041   5.912   4.462
12667TIP3    H137946   0.964   5.856   4.469
12667TIP3    H237947   1.077   5.893   4.375
12668TIP3   OH237948   4.025   7.078   6.393
12668TIP3    H137949   4.044   6.988   6.419
12668TIP3    H237950   4.028   7.128   6.475
12669TIP3   OH237951   3.456   7.808   4.573
12669TIP3    H137952   3.461   7.721   4.534
12669TIP3    H237953   3.452   7.868   4.499
12670TIP3   OH237954   4.492   7.059   4.805
12670TIP3    H137955   4.586   7.075   4.801
12670TIP3    H237956   4.456   7.139   4.844
12671TIP3   OH237957   0.481   1.995   2.427
12671TIP3    H137958   0.397   2.040   2.420
12671TIP3    H237959   0.500   1.993   2.521
12672TIP3   OH237960   2.125   3.630   0.239
12672TIP3    H137961   2.134   3.650   0.146
12672TIP3    H237962   2.114   3.716   0.281
12673TIP3   OH237963   7.897   4.744   1.962
12673TIP3    H137964   7.912   4.758   1.869
12673TIP3    H237965   7.887   4.649   1.970
12674TIP3   OH237966   5.499   7.114   1.660
12674TIP3    H137967   5.553   7.171   1.605
12674TIP3    H237968   5.422   7.096   1.607
12675TIP3   OH237969   4.028   2.655   1.134
12675TIP3    H137970   3.984   2.675   1.051
12675TIP3    H237971   4.009   2.562   1.149
12676TIP3   OH237972   2.408   1.766   6.293
12676TIP3    H137973   2.423   1.704   6.365
12676TIP3    H237974   2.352   1.834   6.331
12677TIP3   OH237975   1.594   5.373   4.266
12677TIP3    H137976   1.561   5.398   4.352
12677TIP3    H237977   1.683   5.342   4.282
12678TIP3   OH237978   5.056   0.397   3.768
12678TIP3    H137979   5.122   0.414   3.836
12678TIP3    H237980   4.972   0.413   3.811
12679TIP3   OH237981   2.576   6.548   6.688
12679TIP3    H137982   2.621   6.632   6.700
12679TIP3    H237983   2.579   6.507   6.775
12680TIP3   OH237984   0.839   6.094   1.045
12680TIP3    H137985   0.928   6.077   1.074
12680TIP3    H237986   0.844   6.091   0.950
12681TIP3   OH237987   1.350   2.751   2.824
12681TIP3    H137988   1.311   2.826   2.868
12681TIP3    H237989   1.339   2.770   2.730
12682TIP3   OH237990   0.170   5.059   6.660
12682TIP3    H137991   0.175   5.133   6.598
12682TIP3    H237992   0.219   5.089   6.737
12683TIP3   OH237993   2.116   5.733   1.833
12683TIP3    H137994   2.102   5.746   1.927
12683TIP3    H237995   2.203   5.770   1.816
12684TIP3   OH237996   2.241   5.059   2.865
12684TIP3    H137997   2.147   5.074   2.876
12684TIP3    H237998   2.253   4.965   2.883
12685TIP3   OH237999   8.144   0.443   4.965
12685TIP3    H138000   8.139   0.348   4.950
12685TIP3    H238001   8.054   0.469   4.983
12686TIP3   OH238002   3.041   2.119   5.332
12686TIP3    H138003   3.121   2.071   5.353
12686TIP3    H238004   3.008   2.151   5.416
12687TIP3   OH238005   6.406   4.296   2.041
12687TIP3    H138006   6.350   4.374   2.049
12687TIP3    H238007   6.345   4.223   2.048
12688TIP3   OH238008   5.862   2.625   3.044
12688TIP3    H138009   5.776   2.663   3.058
12688TIP3    H238010   5.923   2.697   3.059
12689TIP3   OH238011   1.829   7.801   3.537
12689TIP3    H138012   1.821   7.751   3.455
12689TIP3    H238013   1.829   7.893   3.508
12690TIP3   OH238014   5.286   4.181   0.240
12690TIP3    H138015   5.313   4.134   0.319
12690TIP3    H238016   5.350   4.251   0.230
12691TIP3   OH238017   3.135   6.562   1.545
12691TIP3    H138018   3.085   6.482   1.560
12691TIP3    H238019   3.105   6.622   1.613
12692TIP3   OH238020   7.186   3.280   4.489
12692TIP3    H138021   7.246   3.309   4.558
12692TIP3    H238022   7.244   3.248   4.419
12693TIP3   OH238023   7.330   3.943   4.209
12693TIP3    H138024   7.405   3.885   4.191
12693TIP3    H238025   7.309   3.981   4.124
12694TIP3   OH238026   2.570   3.495   1.693
12694TIP3    H138027   2.642   3.434   1.678
12694TIP3    H238028   2.491   3.446   1.670
12695TIP3   OH238029   6.036   3.552   3.828
12695TIP3    H138030   6.046   3.615   3.756
12695TIP3    H238031   6.008   3.605   3.902
12696TIP3   OH238032   4.502   3.068   0.704
12696TIP3    H138033   4.472   3.151   0.669
12696TIP3    H238034   4.451   3.055   0.784
12697TIP3   OH238035   7.093   1.566   4.852
12697TIP3    H138036   7.012   1.616   4.850
12697TIP3    H238037   7.074   1.487   4.802
12698TIP3   OH238038   5.743   6.221   0.458
12698TIP3    H138039   5.783   6.308   0.458
12698TIP3    H238040   5.667   6.229   0.515
12699TIP3   OH238041   7.771   2.698   3.318
12699TIP3    H138042   7.676   2.714   3.321
12699TIP3    H238043   7.809   2.770   3.367
12700TIP3   OH238044   7.435   3.099   1.732
12700TIP3    H138045   7.441   3.150   1.651
12700TIP3    H238046   7.473   3.015   1.710
12701TIP3   OH238047   0.110   6.450   1.555
12701TIP3    H138048   0.091   6.521   1.617
12701TIP3    H238049   0.074   6.480   1.472
12702TIP3   OH238050   2.119   6.772   4.531
12702TIP3    H138051   2.155   6.846   4.580
12702TIP3    H238052   2.161   6.778   4.445
12703TIP3   OH238053   1.651   4.726   6.134
12703TIP3    H138054   1.698   4.785   6.075
12703TIP3    H238055   1.663   4.763   6.221
12704TIP3   OH238056   6.747   0.772   2.728
12704TIP3    H138057   6.793   0.693   2.699
12704TIP3    H238058   6.704   0.746   2.810
12705TIP3   OH238059   1.212   1.766   2.841
12705TIP3    H138060   1.174   1.778   2.928
12705TIP3    H238061   1.273   1.693   2.852
12706TIP3   OH238062   6.947   0.903   0.683
12706TIP3    H138063   6.940   0.986   0.635
12706TIP3    H238064   6.912   0.923   0.770
12707TIP3   OH238065   3.144   7.389   4.234
12707TIP3    H138066   3.138   7.406   4.328
12707TIP3    H238067   3.057   7.354   4.211
12708TIP3   OH238068   5.445   2.351   6.502
12708TIP3    H138069   5.377   2.329   6.566
12708TIP3    H238070   5.512   2.283   6.514
12709TIP3   OH238071   2.784   6.550   4.420
12709TIP3    H138072   2.815   6.498   4.494
12709TIP3    H238073   2.760   6.635   4.459
12710TIP3   OH238074   4.009   5.410   2.390
12710TIP3    H138075   4.027   5.401   2.297
12710TIP3    H238076   4.085   5.373   2.433
12711TIP3   OH238077   2.891   5.979   5.420
12711TIP3    H138078   2.888   5.894   5.377
12711TIP3    H238079   2.826   5.974   5.489
12712TIP3   OH238080   1.000   1.235   4.154
12712TIP3    H138081   0.943   1.222   4.078
12712TIP3    H238082   1.040   1.321   4.140
12713TIP3   OH238083   0.032   5.089   0.632
12713TIP3    H138084   0.110   5.068   0.683
12713TIP3    H238085  -0.023   5.140   0.691
12714TIP3   OH238086   0.627   2.091   2.163
12714TIP3    H138087   0.624   2.026   2.233
12714TIP3    H238088   0.636   2.175   2.208
12715TIP3   OH238089   5.469   2.967   1.535
12715TIP3    H138090   5.469   3.030   1.608
12715TIP3    H238091   5.425   2.890   1.571
12716TIP3   OH238092   1.449   2.565   1.050
12716TIP3    H138093   1.359   2.533   1.053
12716TIP3    H238094   1.496   2.509   1.111
12717TIP3   OH238095   6.098   3.267   6.194
12717TIP3    H138096   6.098   3.198   6.260
12717TIP3    H238097   6.180   3.315   6.209
12718TIP3   OH238098   4.688   3.079   3.341
12718TIP3    H138099   4.759   3.032   3.297
12718TIP3    H238100   4.611   3.064   3.286
12719TIP3   OH238101   1.616   6.469   2.500
12719TIP3    H138102   1.694   6.494   2.550
12719TIP3    H238103   1.587   6.387   2.539
12720TIP3   OH238104   2.213   3.134   0.429
12720TIP3    H138105   2.246   3.131   0.339
12720TIP3    H238106   2.207   3.227   0.449
12721TIP3   OH238107   4.480   5.910   2.804
12721TIP3    H138108   4.451   5.850   2.735
12721TIP3    H238109   4.406   5.917   2.864
12722TIP3   OH238110   2.664   6.752   3.745
12722TIP3    H138111   2.697   6.836   3.714
12722TIP3    H238112   2.714   6.735   3.825
12723TIP3   OH238113   7.740   0.126   0.222
12723TIP3    H138114   7.755   0.049   0.278
12723TIP3    H238115   7.788   0.107   0.142
12724TIP3   OH238116   0.406   2.914   1.689
12724TIP3    H138117   0.311   2.904   1.682
12724TIP3    H238118   0.438   2.824   1.696
12725TIP3   OH238119   2.378   3.015   4.547
12725TIP3    H138120   2.349   2.926   4.571
12725TIP3    H238121   2.469   3.004   4.519
12726TIP3   OH238122   4.841   6.818   6.500
12726TIP3    H138123   4.855   6.829   6.594
12726TIP3    H238124   4.823   6.907   6.467
12727TIP3   OH238125   0.755   4.123   3.964
12727TIP3    H138126   0.696   4.196   3.982
12727TIP3    H238127   0.840   4.152   3.998
12728TIP3   OH238128   6.475   0.176   6.232
12728TIP3    H138129   6.457   0.105   6.295
12728TIP3    H238130   6.421   0.154   6.156
12729TIP3   OH238131   1.765   4.248   3.596
12729TIP3    H138132   1.815   4.166   3.591
12729TIP3    H238133   1.830   4.313   3.624
12730TIP3   OH238134   5.961   3.677   3.348
12730TIP3    H138135   6.048   3.651   3.378
12730TIP3    H238136   5.960   3.772   3.354
12731TIP3   OH238137   6.979   6.994   6.340
12731TIP3    H138138   7.043   7.053   6.378
12731TIP3    H238139   7.031   6.933   6.287
12732TIP3   OH238140   8.021   1.828   6.480
12732TIP3    H138141   8.085   1.849   6.548
12732TIP3    H238142   8.069   1.773   6.418
12733TIP3   OH238143   5.217   0.649   4.156
12733TIP3    H138144   5.220   0.744   4.157
12733TIP3    H238145   5.222   0.624   4.249
12734TIP3   OH238146   5.200   0.174   1.175
12734TIP3    H138147   5.155   0.121   1.240
12734TIP3    H238148   5.209   0.260   1.216
12735TIP3   OH238149   3.675   7.199   0.669
12735TIP3    H138150   3.663   7.104   0.662
12735TIP3    H238151   3.749   7.210   0.728
12736TIP3   OH238152   3.726   7.658   5.835
12736TIP3    H138153   3.752   7.597   5.904
12736TIP3    H238154   3.682   7.603   5.770
12737TIP3   OH238155   7.190   1.958   6.248
12737TIP3    H138156   7.159   1.935   6.161
12737TIP3    H238157   7.173   1.880   6.301
12738TIP3   OH238158   6.785   7.403   5.952
12738TIP3    H138159   6.798   7.330   5.892
12738TIP3    H238160   6.871   7.446   5.957
12739TIP3   OH238161   5.660   2.200   6.629
12739TIP3    H138162   5.719   2.276   6.628
12739TIP3    H238163   5.712   2.129   6.591
12740TIP3   OH238164   1.597   1.250   6.141
12740TIP3    H138165   1.637   1.200   6.212
12740TIP3    H238166   1.540   1.187   6.097
12741TIP3   OH238167   1.604   1.801   0.095
12741TIP3    H138168   1.532   1.861   0.078
12741TIP3    H238169   1.565   1.714   0.092
12742TIP3   OH238170   5.587   3.112   2.589
12742TIP3    H138171   5.576   3.029   2.542
12742TIP3    H238172   5.525   3.107   2.662
12743TIP3   OH238173   7.842   1.575   1.707
12743TIP3    H138174   7.826   1.607   1.795
12743TIP3    H238175   7.803   1.487   1.705
12744TIP3   OH238176   1.364   1.928   4.326
12744TIP3    H138177   1.442   1.916   4.380
12744TIP3    H238178   1.368   2.019   4.298
12745TIP3   OH238179   1.871   1.584   6.023
12745TIP3    H138180   1.940   1.631   6.070
12745TIP3    H238181   1.836   1.648   5.961
12746TIP3   OH238182   0.374   1.557   6.439
12746TIP3    H138183   0.287   1.583   6.469
12746TIP3    H238184   0.370   1.562   6.344
12747TIP3   OH238185   3.788   5.997   2.511
12747TIP3    H138186   3.764   5.914   2.470
12747TIP3    H238187   3.829   6.048   2.441
12748TIP3   OH238188   6.953   5.924   6.209
12748TIP3    H138189   6.873   5.949   6.256
12748TIP3    H238190   6.942   5.830   6.193
12749TIP3   OH238191   3.271   6.619   0.921
12749TIP3    H138192   3.221   6.567   0.858
12749TIP3    H238193   3.213   6.691   0.945
12750TIP3   OH238194   6.619   4.067   3.243
12750TIP3    H138195   6.687   4.006   3.271
12750TIP3    H238196   6.578   4.024   3.167
12751TIP3   OH238197   1.694   5.367   5.461
12751TIP3    H138198   1.725   5.318   5.537
12751TIP3    H238199   1.599   5.365   5.467
12752TIP3   OH238200   6.670   6.496   4.056
12752TIP3    H138201   6.725   6.570   4.031
12752TIP3    H238202   6.656   6.506   4.150
12753TIP3   OH238203   7.680   3.196   5.768
12753TIP3    H138204   7.629   3.247   5.831
12753TIP3    H238205   7.764   3.182   5.810
12754TIP3   OH238206   4.993   1.412   2.747
12754TIP3    H138207   4.998   1.468   2.824
12754TIP3    H238208   5.015   1.324   2.779
12755TIP3   OH238209   8.273   5.700   6.560
12755TIP3    H138210   8.270   5.628   6.623
12755TIP3    H238211   8.265   5.657   6.475
12756TIP3   OH238212   5.820   2.072   4.827
12756TIP3    H138213   5.747   2.074   4.889
12756TIP3    H238214   5.876   2.001   4.857
12757TIP3   OH238215   7.518   4.335   2.388
12757TIP3    H138216   7.494   4.321   2.479
12757TIP3    H238217   7.602   4.381   2.392
12758TIP3   OH238218   4.643   5.422   6.538
12758TIP3    H138219   4.698   5.468   6.474
12758TIP3    H238220   4.560   5.470   6.536
12759TIP3   OH238221   7.466   7.020   6.350
12759TIP3    H138222   7.482   7.005   6.443
12759TIP3    H238223   7.510   6.948   6.306
12760TIP3   OH238224   2.720   3.010   1.217
12760TIP3    H138225   2.734   3.102   1.241
12760TIP3    H238226   2.809   2.975   1.205
12761TIP3   OH238227   4.642   5.516   4.889
12761TIP3    H138228   4.638   5.427   4.856
12761TIP3    H238229   4.587   5.567   4.829
12762TIP3   OH238230   5.130   4.034   4.119
12762TIP3    H138231   5.055   4.086   4.087
12762TIP3    H238232   5.141   4.062   4.210
12763TIP3   OH238233   4.881   1.181   4.375
12763TIP3    H138234   4.834   1.212   4.453
12763TIP3    H238235   4.820   1.196   4.303
12764TIP3   OH238236   4.041   0.252   1.495
12764TIP3    H138237   3.969   0.241   1.557
12764TIP3    H238238   3.999   0.254   1.409
12765TIP3   OH238239   4.602   0.623   4.198
12765TIP3    H138240   4.509   0.645   4.204
12765TIP3    H238241   4.604   0.531   4.173
12766TIP3   OH238242   6.702   0.200   0.530
12766TIP3    H138243   6.724   0.110   0.505
12766TIP3    H238244   6.724   0.253   0.454
12767TIP3   OH238245   0.620   7.219   5.732
12767TIP3    H138246   0.691   7.156   5.719
12767TIP3    H238247   0.579   7.227   5.646
12768TIP3   OH238248   0.627   4.355   2.860
12768TIP3    H138249   0.552   4.298   2.877
12768TIP3    H238250   0.664   4.322   2.777
12769TIP3   OH238251   6.166   5.768   3.343
12769TIP3    H138252   6.132   5.847   3.385
12769TIP3    H238253   6.093   5.735   3.290
12770TIP3   OH238254   2.202   5.117   3.177
12770TIP3    H138255   2.239   5.041   3.131
12770TIP3    H238256   2.161   5.169   3.107
12771TIP3   OH238257   6.089   2.023   6.297
12771TIP3    H138258   6.095   1.929   6.278
12771TIP3    H238259   6.075   2.063   6.211
12772TIP3   OH238260   7.049   2.324   2.260
12772TIP3    H138261   6.967   2.286   2.291
12772TIP3    H238262   7.042   2.417   2.282
12773TIP3   OH238263   7.385   2.913   0.658
12773TIP3    H138264   7.324   2.841   0.642
12773TIP3    H238265   7.341   2.968   0.724
12774TIP3   OH238266   0.487   0.116   6.483
12774TIP3    H138267   0.580   0.135   6.499
12774TIP3    H238268   0.464   0.169   6.408
12775TIP3   OH238269   2.452   5.375   3.214
12775TIP3    H138270   2.439   5.461   3.175
12775TIP3    H238271   2.368   5.354   3.254
12776TIP3   OH238272   5.137   5.381   2.252
12776TIP3    H138273   5.108   5.466   2.218
12776TIP3    H238274   5.056   5.331   2.263
12777TIP3   OH238275   8.124   4.351   5.395
12777TIP3    H138276   8.101   4.286   5.462
12777TIP3    H238277   8.048   4.410   5.393
12778TIP3   OH238278   2.454   3.012   1.346
12778TIP3    H138279   2.490   3.086   1.394
12778TIP3    H238280   2.516   2.999   1.273
12779TIP3   OH238281   2.866   6.468   5.100
12779TIP3    H138282   2.846   6.560   5.082
12779TIP3    H238283   2.785   6.432   5.134
12780TIP3   OH238284   1.828   7.275   0.176
12780TIP3    H138285   1.781   7.193   0.192
12780TIP3    H238286   1.892   7.252   0.109
12781TIP3   OH238287   8.094   3.161   0.375
12781TIP3    H138288   8.142   3.085   0.408
12781TIP3    H238289   8.141   3.185   0.295
12782TIP3   OH238290   1.623   1.702   4.604
12782TIP3    H138291   1.717   1.684   4.604
12782TIP3    H238292   1.587   1.643   4.537
12783TIP3   OH238293   4.960   0.370   5.283
12783TIP3    H138294   5.050   0.357   5.312
12783TIP3    H238295   4.914   0.403   5.360
12784TIP3   OH238296   2.995   7.627   1.869
12784TIP3    H138297   3.053   7.673   1.929
12784TIP3    H238298   2.935   7.694   1.837
12785TIP3   OH238299   2.608   5.430   3.953
12785TIP3    H138300   2.693   5.416   3.911
12785TIP3    H238301   2.624   5.417   4.046
12786TIP3   OH238302   1.332   2.766   0.853
12786TIP3    H138303   1.364   2.698   0.912
12786TIP3    H238304   1.257   2.727   0.808
12787TIP3   OH238305   6.369   2.320   1.769
12787TIP3    H138306   6.436   2.364   1.716
12787TIP3    H238307   6.301   2.295   1.706
12788TIP3   OH238308   6.753   5.755   5.562
12788TIP3    H138309   6.690   5.761   5.634
12788TIP3    H238310   6.713   5.694   5.500
12789TIP3   OH238311   0.170   5.831   1.001
12789TIP3    H138312   0.225   5.801   1.073
12789TIP3    H238313   0.099   5.879   1.043
12790TIP3   OH238314   1.466   1.604   5.633
12790TIP3    H138315   1.463   1.566   5.721
12790TIP3    H238316   1.452   1.530   5.574
12791TIP3   OH238317   5.394   1.437   6.474
12791TIP3    H138318   5.465   1.498   6.454
12791TIP3    H238319   5.429   1.381   6.544
12792TIP3   OH238320   3.079   5.212   3.306
12792TIP3    H138321   3.038   5.134   3.344
12792TIP3    H238322   3.057   5.207   3.213
12793TIP3   OH238323   4.681   6.335   2.743
12793TIP3    H138324   4.739   6.264   2.719
12793TIP3    H238325   4.653   6.374   2.659
12794TIP3   OH238326   6.813   1.687   6.420
12794TIP3    H138327   6.874   1.720   6.354
12794TIP3    H238328   6.730   1.729   6.399
12795TIP3   OH238329   7.365   0.957   0.410
12795TIP3    H138330   7.363   0.973   0.316
12795TIP3    H238331   7.306   1.023   0.447
12796TIP3   OH238332   6.540   1.445   2.847
12796TIP3    H138333   6.481   1.480   2.780
12796TIP3    H238334   6.507   1.480   2.930
12797TIP3   OH238335   0.429   0.593   2.888
12797TIP3    H138336   0.495   0.623   2.826
12797TIP3    H238337   0.479   0.566   2.965
12798TIP3   OH238338   4.745   6.146   5.155
12798TIP3    H138339   4.777   6.077   5.098
12798TIP3    H238340   4.669   6.182   5.109
12799TIP3   OH238341   6.162   7.222   3.702
12799TIP3    H138342   6.174   7.216   3.607
12799TIP3    H238343   6.105   7.298   3.714
12800TIP3   OH238344   1.113   2.074   4.741
12800TIP3    H138345   1.198   2.046   4.774
12800TIP3    H238346   1.132   2.154   4.691
12801TIP3   OH238347   8.205   4.016   0.547
12801TIP3    H138348   8.259   3.979   0.478
12801TIP3    H238349   8.138   4.066   0.501
12802TIP3   OH238350   1.670   7.332   4.590
12802TIP3    H138351   1.730   7.305   4.521
12802TIP3    H238352   1.726   7.358   4.663
12803TIP3   OH238353   2.969   1.975   5.018
12803TIP3    H138354   3.034   1.932   5.074
12803TIP3    H238355   2.932   1.904   4.965
12804TIP3   OH238356   5.565   3.482   6.038
12804TIP3    H138357   5.563   3.392   6.005
12804TIP3    H238358   5.631   3.480   6.107
12805TIP3   OH238359   7.252   2.303   5.769
12805TIP3    H138360   7.209   2.388   5.777
12805TIP3    H238361   7.338   2.324   5.732
12806TIP3   OH238362   4.521   5.808   6.123
12806TIP3    H138363   4.508   5.870   6.194
12806TIP3    H238364   4.483   5.727   6.154
12807TIP3   OH238365   0.938   5.299   1.228
12807TIP3    H138366   0.982   5.258   1.302
12807TIP3    H238367   0.851   5.260   1.227
12808TIP3   OH238368   1.941   6.017   2.136
12808TIP3    H138369   1.934   6.010   2.232
12808TIP3    H238370   1.960   5.927   2.108
12809TIP3   OH238371   4.715   5.810   6.366
12809TIP3    H138372   4.636   5.779   6.410
12809TIP3    H238373   4.747   5.733   6.319
12810TIP3   OH238374   6.796   2.088   1.402
12810TIP3    H138375   6.837   2.152   1.459
12810TIP3    H238376   6.702   2.096   1.420
12811TIP3   OH238377   5.018   2.640   1.063
12811TIP3    H138378   4.974   2.721   1.036
12811TIP3    H238379   5.059   2.607   0.983
12812TIP3   OH238380   0.330   1.965   4.603
12812TIP3    H138381   0.415   1.967   4.648
12812TIP3    H238382   0.330   1.883   4.554
12813TIP3   OH238383   1.562   6.754   0.322
12813TIP3    H138384   1.658   6.756   0.328
12813TIP3    H238385   1.533   6.732   0.411
12814TIP3   OH238386   2.098   7.727   0.786
12814TIP3    H138387   2.159   7.799   0.769
12814TIP3    H238388   2.069   7.700   0.699
12815TIP3   OH238389   6.655   4.596   0.734
12815TIP3    H138390   6.680   4.664   0.671
12815TIP3    H238391   6.563   4.613   0.751
12816TIP3   OH238392   5.885   5.130   6.214
12816TIP3    H138393   5.800   5.171   6.225
12816TIP3    H238394   5.938   5.162   6.287
12817TIP3   OH238395   6.109   7.004   4.564
12817TIP3    H138396   6.108   7.086   4.514
12817TIP3    H238397   6.042   7.016   4.631
12818TIP3   OH238398   2.948   0.180   5.028
12818TIP3    H138399   2.876   0.135   5.072
12818TIP3    H238400   2.930   0.273   5.041
12819TIP3   OH238401   8.070   6.924   1.197
12819TIP3    H138402   8.037   6.985   1.131
12819TIP3    H238403   8.165   6.922   1.183
12820TIP3   OH238404   2.833   2.467   0.384
12820TIP3    H138405   2.763   2.528   0.409
12820TIP3    H238406   2.817   2.389   0.438
12821TIP3   OH238407   4.874   4.148   2.905
12821TIP3    H138408   4.868   4.057   2.933
12821TIP3    H238409   4.807   4.194   2.956
12822TIP3   OH238410   1.619   3.335   3.218
12822TIP3    H138411   1.690   3.276   3.193
12822TIP3    H238412   1.559   3.281   3.269
12823TIP3   OH238413   0.033   7.174   4.292
12823TIP3    H138414   0.036   7.126   4.374
12823TIP3    H238415   0.010   7.108   4.226
12824TIP3   OH238416   3.045   0.362   1.141
12824TIP3    H138417   2.961   0.407   1.148
12824TIP3    H238418   3.098   0.418   1.085
12825TIP3   OH238419   3.498   2.619   2.494
12825TIP3    H138420   3.448   2.661   2.564
12825TIP3    H238421   3.589   2.640   2.514
12826TIP3   OH238422   0.457   1.154   4.087
12826TIP3    H138423   0.425   1.071   4.121
12826TIP3    H238424   0.418   1.161   4.000
12827TIP3   OH238425   6.736   6.500   3.754
12827TIP3    H138426   6.783   6.487   3.672
12827TIP3    H238427   6.803   6.499   3.822
12828TIP3   OH238428   1.024   0.431   3.883
12828TIP3    H138429   1.076   0.403   3.959
12828TIP3    H238430   0.954   0.484   3.920
12829TIP3   OH238431   1.149   4.575   0.657
12829TIP3    H138432   1.224   4.515   0.661
12829TIP3    H238433   1.148   4.606   0.566
12830TIP3   OH238434   7.044   2.611   2.319
12830TIP3    H138435   6.998   2.602   2.402
12830TIP3    H238436   7.013   2.695   2.285
12831TIP3   OH238437   6.180   6.157   2.232
12831TIP3    H138438   6.092   6.176   2.199
12831TIP3    H238439   6.172   6.072   2.275
12832TIP3   OH238440   5.322   2.301   4.037
12832TIP3    H138441   5.328   2.313   4.132
12832TIP3    H238442   5.345   2.209   4.023
12833TIP3   OH238443   0.191   4.394   1.423
12833TIP3    H138444   0.145   4.465   1.379
12833TIP3    H238445   0.272   4.384   1.373
12834TIP3   OH238446   5.292   2.952   6.109
12834TIP3    H138447   5.217   2.901   6.141
12834TIP3    H238448   5.342   2.890   6.055
12835TIP3   OH238449   7.359   7.656   4.108
12835TIP3    H138450   7.414   7.585   4.076
12835TIP3    H238451   7.304   7.680   4.033
12836TIP3   OH238452   3.214   4.170   0.824
12836TIP3    H138453   3.193   4.262   0.838
12836TIP3    H238454   3.175   4.125   0.898
12837TIP3   OH238455   3.831   1.482   1.779
12837TIP3    H138456   3.888   1.484   1.855
12837TIP3    H238457   3.742   1.488   1.814
12838TIP3   OH238458   6.908   1.010   6.398
12838TIP3    H138459   6.941   1.086   6.351
12838TIP3    H238460   6.887   0.946   6.329
12839TIP3   OH238461   6.600   0.585   0.177
12839TIP3    H138462   6.581   0.584   0.083
12839TIP3    H238463   6.537   0.524   0.214
12840TIP3   OH238464   6.337   1.776   0.230
12840TIP3    H138465   6.419   1.767   0.280
12840TIP3    H238466   6.308   1.865   0.248
12841TIP3   OH238467   5.832   0.675   5.347
12841TIP3    H138468   5.919   0.669   5.308
12841TIP3    H238469   5.773   0.682   5.272
12842TIP3   OH238470   1.049   2.356   0.479
12842TIP3    H138471   1.024   2.299   0.552
12842TIP3    H238472   1.125   2.405   0.510
12843TIP3   OH238473   3.328   5.063   0.655
12843TIP3    H138474   3.254   5.015   0.692
12843TIP3    H238475   3.368   5.107   0.730
12844TIP3   OH238476   5.700   3.861   2.209
12844TIP3    H138477   5.616   3.816   2.222
12844TIP3    H238478   5.765   3.791   2.207
12845TIP3   OH238479   5.254   4.384   4.827
12845TIP3    H138480   5.343   4.350   4.827
12845TIP3    H238481   5.261   4.472   4.864
12846TIP3   OH238482   6.551   5.388   2.733
12846TIP3    H138483   6.460   5.361   2.717
12846TIP3    H238484   6.600   5.353   2.658
12847TIP3   OH238485   2.180   5.409   6.408
12847TIP3    H138486   2.176   5.318   6.378
12847TIP3    H238487   2.115   5.455   6.356
12848TIP3   OH238488   4.464   5.772   3.381
12848TIP3    H138489   4.398   5.838   3.363
12848TIP3    H238490   4.540   5.822   3.412
12849TIP3   OH238491   1.003   2.690   6.470
12849TIP3    H138492   0.915   2.659   6.449
12849TIP3    H238493   1.062   2.622   6.436
12850TIP3   OH238494   2.234   2.035   1.912
12850TIP3    H138495   2.266   1.980   1.841
12850TIP3    H238496   2.146   2.001   1.931
12851TIP3   OH238497   0.702   3.429   3.463
12851TIP3    H138498   0.609   3.412   3.475
12851TIP3    H238499   0.733   3.359   3.405
12852TIP3   OH238500   3.836   1.230   1.005
12852TIP3    H138501   3.850   1.288   0.930
12852TIP3    H238502   3.759   1.267   1.049
12853TIP3   OH238503   6.616   6.430   5.026
12853TIP3    H138504   6.624   6.447   5.120
12853TIP3    H238505   6.622   6.517   4.986
12854TIP3   OH238506   4.258   3.272   0.862
12854TIP3    H138507   4.191   3.293   0.797
12854TIP3    H238508   4.304   3.355   0.876
12855TIP3   OH238509   6.087   2.207   5.218
12855TIP3    H138510   6.109   2.186   5.309
12855TIP3    H238511   6.043   2.292   5.223
12856TIP3   OH238512   1.836   2.955   6.563
12856TIP3    H138513   1.767   3.020   6.558
12856TIP3    H238514   1.793   2.877   6.597
12857TIP3   OH238515   0.994   5.248   3.184
12857TIP3    H138516   1.042   5.165   3.183
12857TIP3    H238517   0.955   5.253   3.271
12858TIP3   OH238518   6.934   2.653  -0.009
12858TIP3    H138519   6.967   2.655   0.081
12858TIP3    H238520   6.890   2.568  -0.017
12859TIP3   OH238521   8.328   1.279   5.583
12859TIP3    H138522   8.351   1.220   5.511
12859TIP3    H238523   8.239   1.253   5.608
12860TIP3   OH238524   2.880   1.656   0.065
12860TIP3    H138525   2.804   1.599   0.054
12860TIP3    H238526   2.857   1.715   0.136
12861TIP3   OH238527   0.387   7.682   0.420
12861TIP3    H138528   0.444   7.746   0.375
12861TIP3    H238529   0.366   7.618   0.353
12862TIP3   OH238530   8.222   7.660   2.804
12862TIP3    H138531   8.282   7.608   2.858
12862TIP3    H238532   8.280   7.712   2.748
12863TIP3   OH238533   7.223   3.799   3.037
12863TIP3    H138534   7.141   3.816   3.083
12863TIP3    H238535   7.210   3.837   2.950
12864TIP3   OH238536   7.445   6.710   4.145
12864TIP3    H138537   7.524   6.691   4.194
12864TIP3    H238538   7.459   6.797   4.108
12865TIP3   OH238539   6.377   1.018   3.310
12865TIP3    H138540   6.323   1.092   3.337
12865TIP3    H238541   6.314   0.952   3.281
12866TIP3   OH238542   4.695   3.892   3.214
12866TIP3    H138543   4.711   3.982   3.243
12866TIP3    H238544   4.779   3.847   3.227
12867TIP3   OH238545   5.975   4.662   4.001
12867TIP3    H138546   6.054   4.642   4.051
12867TIP3    H238547   5.933   4.734   4.050
12868TIP3   OH238548   7.111   2.888   3.871
12868TIP3    H138549   7.113   2.983   3.859
12868TIP3    H238550   7.199   2.865   3.901
12869TIP3   OH238551   1.769   0.963   4.206
12869TIP3    H138552   1.803   1.009   4.283
12869TIP3    H238553   1.810   1.008   4.132
12870TIP3   OH238554   7.943   4.941   5.761
12870TIP3    H138555   7.901   4.950   5.675
12870TIP3    H238556   8.013   5.006   5.760
12871TIP3   OH238557   1.964   1.298   3.294
12871TIP3    H138558   1.926   1.369   3.243
12871TIP3    H238559   2.045   1.335   3.329
12872TIP3   OH238560   6.779   3.711   5.506
12872TIP3    H138561   6.836   3.754   5.570
12872TIP3    H238562   6.829   3.712   5.424
12873TIP3   OH238563   7.601   4.870   4.921
12873TIP3    H138564   7.507   4.859   4.907
12873TIP3    H238565   7.610   4.955   4.965
12874TIP3   OH238566   7.272   6.659   0.439
12874TIP3    H138567   7.323   6.586   0.404
12874TIP3    H238568   7.237   6.626   0.522
12875TIP3   OH238569   5.466   1.350   1.988
12875TIP3    H138570   5.504   1.399   2.061
12875TIP3    H238571   5.531   1.283   1.968
12876TIP3   OH238572   5.371   7.132   6.470
12876TIP3    H138573   5.300   7.141   6.406
12876TIP3    H238574   5.451   7.128   6.418
12877TIP3   OH238575   5.218   1.541   2.895
12877TIP3    H138576   5.124   1.550   2.912
12877TIP3    H238577   5.258   1.541   2.982
12878TIP3   OH238578   2.553   7.656   2.788
12878TIP3    H138579   2.627   7.597   2.804
12878TIP3    H238580   2.539   7.701   2.872
12879TIP3   OH238581   1.495   6.454   0.696
12879TIP3    H138582   1.511   6.504   0.777
12879TIP3    H238583   1.402   6.468   0.678
12880TIP3   OH238584   6.275   4.630   4.818
12880TIP3    H138585   6.228   4.598   4.742
12880TIP3    H238586   6.288   4.553   4.873
12881TIP3   OH238587   3.221   5.796   2.491
12881TIP3    H138588   3.295   5.746   2.456
12881TIP3    H238589   3.155   5.729   2.512
12882TIP3   OH238590   7.792   5.556   3.734
12882TIP3    H138591   7.823   5.549   3.643
12882TIP3    H238592   7.731   5.630   3.732
12883TIP3   OH238593   7.779   0.345   5.468
12883TIP3    H138594   7.805   0.286   5.397
12883TIP3    H238595   7.706   0.396   5.432
12884TIP3   OH238596   8.208   0.331   3.172
12884TIP3    H138597   8.241   0.273   3.104
12884TIP3    H238598   8.117   0.303   3.186
12885TIP3   OH238599   6.415   6.139   6.122
12885TIP3    H138600   6.437   6.096   6.039
12885TIP3    H238601   6.332   6.100   6.148
12886TIP3   OH238602   3.260   6.559   3.623
12886TIP3    H138603   3.165   6.568   3.625
12886TIP3    H238604   3.280   6.540   3.531
12887TIP3   OH238605   3.561   5.009   0.520
12887TIP3    H138606   3.471   5.038   0.535
12887TIP3    H238607   3.567   4.998   0.425
12888TIP3   OH238608   0.807   6.833   5.120
12888TIP3    H138609   0.836   6.760   5.174
12888TIP3    H238610   0.873   6.840   5.051
12889TIP3   OH238611   2.937   6.125   4.684
12889TIP3    H138612   2.968   6.133   4.774
12889TIP3    H238613   3.013   6.146   4.631
12890TIP3   OH238614   6.882   0.658   3.933
12890TIP3    H138615   6.822   0.629   4.001
12890TIP3    H238616   6.873   0.753   3.932
12891TIP3   OH238617   5.861   7.687   0.896
12891TIP3    H138618   5.888   7.603   0.858
12891TIP3    H238619   5.895   7.752   0.835
12892TIP3   OH238620   7.136   0.127   4.773
12892TIP3    H138621   7.197   0.054   4.780
12892TIP3    H238622   7.052   0.091   4.804
12893TIP3   OH238623   1.857   1.010   0.822
12893TIP3    H138624   1.843   0.956   0.744
12893TIP3    H238625   1.952   1.005   0.837
12894TIP3   OH238626   6.259   4.305   2.362
12894TIP3    H138627   6.277   4.364   2.436
12894TIP3    H238628   6.315   4.230   2.378
12895TIP3   OH238629   0.234   4.160   6.481
12895TIP3    H138630   0.289   4.208   6.543
12895TIP3    H238631   0.257   4.068   6.495
12896TIP3   OH238632   2.246   1.810   3.906
12896TIP3    H138633   2.173   1.849   3.860
12896TIP3    H238634   2.238   1.843   3.996
12897TIP3   OH238635   7.128   1.320   3.762
12897TIP3    H138636   7.072   1.361   3.696
12897TIP3    H238637   7.066   1.281   3.824
12898TIP3   OH238638   5.094   6.928   2.647
12898TIP3    H138639   5.047   7.010   2.629
12898TIP3    H238640   5.167   6.954   2.703
12899TIP3   OH238641   5.270   0.502   0.470
12899TIP3    H138642   5.360   0.490   0.502
12899TIP3    H238643   5.275   0.581   0.416
12900TIP3   OH238644   2.388   4.049   3.758
12900TIP3    H138645   2.389   4.144   3.742
12900TIP3    H238646   2.481   4.025   3.758
12901TIP3   OH238647   1.648   7.034   3.606
12901TIP3    H138648   1.732   7.041   3.560
12901TIP3    H238649   1.636   7.119   3.647
12902TIP3   OH238650   8.295   2.273   5.566
12902TIP3    H138651   8.271   2.200   5.509
12902TIP3    H238652   8.385   2.254   5.593
12903TIP3   OH238653   4.590   6.097   1.965
12903TIP3    H138654   4.649   6.106   2.039
12903TIP3    H238655   4.557   6.007   1.970
12904TIP3   OH238656   6.415   1.130   5.818
12904TIP3    H138657   6.437   1.202   5.759
12904TIP3    H238658   6.322   1.113   5.802
12905TIP3   OH238659   0.834   5.601   3.215
12905TIP3    H138660   0.921   5.582   3.181
12905TIP3    H238661   0.784   5.628   3.138
12906TIP3   OH238662   6.907   4.125   4.006
12906TIP3    H138663   6.948   4.042   3.980
12906TIP3    H238664   6.981   4.185   4.019
12907TIP3   OH238665   5.001   6.878   3.632
12907TIP3    H138666   4.922   6.826   3.644
12907TIP3    H238667   5.063   6.818   3.590
12908TIP3   OH238668   5.548   3.540   4.911
12908TIP3    H138669   5.574   3.452   4.939
12908TIP3    H238670   5.535   3.588   4.992
12909TIP3   OH238671   3.071   2.934   4.107
12909TIP3    H138672   3.004   2.868   4.121
12909TIP3    H238673   3.150   2.884   4.087
12910TIP3   OH238674   0.173   7.690   3.779
12910TIP3    H138675   0.109   7.761   3.778
12910TIP3    H238676   0.213   7.696   3.866
12911TIP3   OH238677   6.838   4.014   0.400
12911TIP3    H138678   6.744   4.031   0.399
12911TIP3    H238679   6.871   4.061   0.477
12912TIP3   OH238680   3.976   1.634   6.719
12912TIP3    H138681   3.901   1.576   6.708
12912TIP3    H238682   4.015   1.608   6.802
12913TIP3   OH238683   6.631   1.321   0.947
12913TIP3    H138684   6.722   1.348   0.941
12913TIP3    H238685   6.630   1.253   1.014
12914TIP3   OH238686   0.905   1.984   4.543
12914TIP3    H138687   0.945   2.000   4.629
12914TIP3    H238688   0.923   1.891   4.526
12915TIP3   OH238689   3.456   5.750   6.519
12915TIP3    H138690   3.388   5.809   6.551
12915TIP3    H238691   3.412   5.692   6.457
12916TIP3   OH238692   7.316   3.077   4.128
12916TIP3    H138693   7.335   3.015   4.198
12916TIP3    H238694   7.312   3.162   4.172
12917TIP3   OH238695   2.058   0.831   4.179
12917TIP3    H138696   2.040   0.925   4.191
12917TIP3    H238697   2.127   0.812   4.241
12918TIP3   OH238698   2.206   4.601   5.366
12918TIP3    H138699   2.194   4.510   5.339
12918TIP3    H238700   2.208   4.650   5.284
12919TIP3   OH238701   6.964   5.409   3.887
12919TIP3    H138702   6.925   5.342   3.942
12919TIP3    H238703   6.891   5.467   3.863
12920TIP3   OH238704   0.271   4.908   5.189
12920TIP3    H138705   0.192   4.859   5.209
12920TIP3    H238706   0.307   4.865   5.111
12921TIP3   OH238707   8.219   3.810   2.641
12921TIP3    H138708   8.165   3.731   2.634
12921TIP3    H238709   8.207   3.839   2.731
12922TIP3   OH238710   0.441   5.308   4.689
12922TIP3    H138711   0.421   5.347   4.604
12922TIP3    H238712   0.361   5.320   4.741
12923TIP3   OH238713   5.198   6.330   2.681
12923TIP3    H138714   5.157   6.252   2.643
12923TIP3    H238715   5.131   6.368   2.737
12924TIP3   OH238716   6.539   2.150   1.888
12924TIP3    H138717   6.620   2.200   1.891
12924TIP3    H238718   6.477   2.208   1.844
12925TIP3   OH238719   7.775   5.758   1.338
12925TIP3    H138720   7.709   5.774   1.405
12925TIP3    H238721   7.842   5.824   1.354
12926TIP3   OH238722   0.498   7.161   5.499
12926TIP3    H138723   0.527   7.075   5.470
12926TIP3    H238724   0.453   7.198   5.423
12927TIP3   OH238725   2.152   5.191   5.552
12927TIP3    H138726   2.219   5.212   5.617
12927TIP3    H238727   2.124   5.102   5.574
12928TIP3   OH238728   1.601   0.108   5.902
12928TIP3    H138729   1.564   0.153   5.825
12928TIP3    H238730   1.686   0.075   5.871
12929TIP3   OH238731   5.002   2.712   5.411
12929TIP3    H138732   4.959   2.719   5.326
12929TIP3    H238733   5.093   2.689   5.390
12930TIP3   OH238734   5.116   4.290   4.580
12930TIP3    H138735   5.020   4.287   4.586
12930TIP3    H238736   5.144   4.319   4.667
12931TIP3   OH238737   5.439   1.321   0.529
12931TIP3    H138738   5.498   1.326   0.454
12931TIP3    H238739   5.456   1.235   0.567
12932TIP3   OH238740   3.992   2.178   4.279
12932TIP3    H138741   3.901   2.205   4.293
12932TIP3    H238742   4.030   2.248   4.224
12933TIP3   OH238743   3.066   2.553   2.669
12933TIP3    H138744   3.040   2.539   2.578
12933TIP3    H238745   2.990   2.525   2.720
12934TIP3   OH238746   3.836   4.455   6.220
12934TIP3    H138747   3.898   4.383   6.211
12934TIP3    H238748   3.891   4.532   6.235
12935TIP3   OH238749   3.049   0.853   1.892
12935TIP3    H138750   3.110   0.925   1.910
12935TIP3    H238751   3.104   0.775   1.892
12936TIP3   OH238752   4.181   2.383   1.310
12936TIP3    H138753   4.259   2.429   1.278
12936TIP3    H238754   4.131   2.363   1.231
12937TIP3   OH238755   0.142   0.967   3.509
12937TIP3    H138756   0.150   0.996   3.600
12937TIP3    H238757   0.218   0.911   3.495
12938TIP3   OH238758   0.907   1.698   5.698
12938TIP3    H138759   0.966   1.698   5.774
12938TIP3    H238760   0.824   1.731   5.732
12939TIP3   OH238761   5.984   4.016   5.010
12939TIP3    H138762   6.018   4.071   4.940
12939TIP3    H238763   6.061   3.988   5.059
12940TIP3   OH238764   5.787   1.842   2.698
12940TIP3    H138765   5.830   1.915   2.653
12940TIP3    H238766   5.773   1.874   2.788
12941TIP3   OH238767   4.722   4.490   4.470
12941TIP3    H138768   4.782   4.462   4.401
12941TIP3    H238769   4.718   4.416   4.530
12942TIP3   OH238770   7.858   0.506   6.412
12942TIP3    H138771   7.854   0.555   6.494
12942TIP3    H238772   7.951   0.507   6.388
12943TIP3   OH238773   8.110   0.864   1.791
12943TIP3    H138774   8.100   0.781   1.837
12943TIP3    H238775   8.037   0.865   1.729
12944TIP3   OH238776   4.134   2.313   6.238
12944TIP3    H138777   4.070   2.255   6.279
12944TIP3    H238778   4.217   2.266   6.242
12945TIP3   OH238779   3.100   6.372   5.553
12945TIP3    H138780   3.191   6.346   5.546
12945TIP3    H238781   3.097   6.428   5.631
12946TIP3   OH238782   3.904   1.140   6.368
12946TIP3    H138783   3.942   1.131   6.281
12946TIP3    H238784   3.975   1.118   6.428
12947TIP3   OH238785   6.767   0.579   5.059
12947TIP3    H138786   6.747   0.528   5.137
12947TIP3    H238787   6.681   0.604   5.024
12948TIP3   OH238788   7.329   1.708   5.909
12948TIP3    H138789   7.259   1.677   5.966
12948TIP3    H238790   7.404   1.721   5.967
12949TIP3   OH238791   4.401   5.281   3.181
12949TIP3    H138792   4.457   5.249   3.252
12949TIP3    H238793   4.320   5.309   3.224
12950TIP3   OH238794   7.708   0.772   1.664
12950TIP3    H138795   7.655   0.834   1.715
12950TIP3    H238796   7.712   0.693   1.718
12951TIP3   OH238797   2.744   7.127   4.472
12951TIP3    H138798   2.810   7.095   4.409
12951TIP3    H238799   2.663   7.085   4.444
12952TIP3   OH238800   6.988   7.622   2.469
12952TIP3    H138801   6.917   7.561   2.451
12952TIP3    H238802   7.006   7.611   2.562
12953TIP3   OH238803   2.522   3.463   5.117
12953TIP3    H138804   2.466   3.386   5.119
12953TIP3    H238805   2.486   3.517   5.047
12954TIP3   OH238806   4.572   6.040   1.680
12954TIP3    H138807   4.654   6.055   1.633
12954TIP3    H238808   4.582   6.088   1.762
12955TIP3   OH238809   4.350   3.040   0.966
12955TIP3    H138810   4.318   3.127   0.942
12955TIP3    H238811   4.383   3.050   1.056
12956TIP3   OH238812   2.671   6.416   5.652
12956TIP3    H138813   2.750   6.380   5.612
12956TIP3    H238814   2.683   6.402   5.746
12957TIP3   OH238815   2.128   3.361   0.573
12957TIP3    H138816   2.105   3.394   0.660
12957TIP3    H238817   2.050   3.379   0.520
12958TIP3   OH238818   2.124   0.714   0.546
12958TIP3    H138819   2.030   0.694   0.551
12958TIP3    H238820   2.166   0.628   0.543
12959TIP3   OH238821   1.344   0.219   4.625
12959TIP3    H138822   1.400   0.296   4.629
12959TIP3    H238823   1.335   0.201   4.531
12960TIP3   OH238824   1.776   5.197   1.249
12960TIP3    H138825   1.844   5.265   1.252
12960TIP3    H238826   1.746   5.188   1.339
12961TIP3   OH238827   4.252   6.393   2.782
12961TIP3    H138828   4.197   6.447   2.724
12961TIP3    H238829   4.200   6.314   2.797
12962TIP3   OH238830   6.671   6.247   4.548
12962TIP3    H138831   6.715   6.251   4.633
12962TIP3    H238832   6.699   6.164   4.510
12963TIP3   OH238833   4.557   7.239   3.393
12963TIP3    H138834   4.476   7.191   3.381
12963TIP3    H238835   4.532   7.331   3.383
12964TIP3   OH238836   0.383   2.865   3.125
12964TIP3    H138837   0.399   2.900   3.038
12964TIP3    H238838   0.444   2.912   3.182
12965TIP3   OH238839   5.852   5.546   6.411
12965TIP3    H138840   5.845   5.623   6.354
12965TIP3    H238841   5.839   5.581   6.499
12966TIP3   OH238842   6.152   7.504   3.069
12966TIP3    H138843   6.241   7.526   3.096
12966TIP3    H238844   6.099   7.520   3.147
12967TIP3   OH238845   0.869   5.179   4.317
12967TIP3    H138846   0.858   5.089   4.348
12967TIP3    H238847   0.913   5.225   4.389
12968TIP3   OH238848   5.117   3.301   6.228
12968TIP3    H138849   5.058   3.367   6.192
12968TIP3    H238850   5.204   3.341   6.221
12969TIP3   OH238851   0.593   2.300   3.500
12969TIP3    H138852   0.540   2.316   3.578
12969TIP3    H238853   0.540   2.333   3.428
12970TIP3   OH238854   6.101   1.013   4.329
12970TIP3    H138855   6.110   1.064   4.248
12970TIP3    H238856   6.145   1.066   4.396
12971TIP3   OH238857   3.840   6.346   1.687
12971TIP3    H138858   3.924   6.362   1.643
12971TIP3    H238859   3.817   6.431   1.725
12972TIP3   OH238860   8.120   0.613   1.549
12972TIP3    H138861   8.070   0.694   1.537
12972TIP3    H238862   8.058   0.551   1.587
12973TIP3   OH238863   1.151   2.526   1.093
12973TIP3    H138864   1.102   2.607   1.080
12973TIP3    H238865   1.094   2.458   1.056
12974TIP3   OH238866   7.788   3.346   5.297
12974TIP3    H138867   7.790   3.311   5.386
12974TIP3    H238868   7.827   3.277   5.243
12975TIP3   OH238869   4.783   3.632   1.072
12975TIP3    H138870   4.781   3.680   0.989
12975TIP3    H238871   4.753   3.544   1.050
12976TIP3   OH238872   0.902   5.743   5.497
12976TIP3    H138873   0.845   5.679   5.540
12976TIP3    H238874   0.969   5.764   5.562
12977TIP3   OH238875   5.345   0.541   3.117
12977TIP3    H138876   5.348   0.534   3.212
12977TIP3    H238877   5.434   0.569   3.093
12978TIP3   OH238878   7.971   2.268   2.440
12978TIP3    H138879   7.958   2.219   2.359
12978TIP3    H238880   7.973   2.360   2.412
12979TIP3   OH238881   8.211   5.016   6.430
12979TIP3    H138882   8.143   5.052   6.488
12979TIP3    H238883   8.244   4.939   6.477
12980TIP3   OH238884   3.096   7.493   6.508
12980TIP3    H138885   3.120   7.478   6.417
12980TIP3    H238886   3.059   7.582   6.509
12981TIP3   OH238887   0.241   0.190   1.008
12981TIP3    H138888   0.191   0.121   0.964
12981TIP3    H238889   0.208   0.191   1.098
12982TIP3   OH238890   5.182   2.196   1.331
12982TIP3    H138891   5.106   2.139   1.325
12982TIP3    H238892   5.243   2.162   1.266
12983TIP3   OH238893   4.875   0.060   3.315
12983TIP3    H138894   4.833   0.143   3.337
12983TIP3    H238895   4.814   0.017   3.256
12984TIP3   OH238896   5.707   6.002   2.347
12984TIP3    H138897   5.753   5.991   2.430
12984TIP3    H238898   5.733   5.925   2.295
12985TIP3   OH238899   5.540   2.879   0.126
12985TIP3    H138900   5.462   2.892   0.180
12985TIP3    H238901   5.575   2.794   0.152
12986TIP3   OH238902   4.218   1.047   3.290
12986TIP3    H138903   4.194   1.048   3.382
12986TIP3    H238904   4.311   1.066   3.288
12987TIP3   OH238905   7.657   2.879   5.564
12987TIP3    H138906   7.613   2.856   5.482
12987TIP3    H238907   7.601   2.945   5.604
12988TIP3   OH238908   0.174   3.167   2.703
12988TIP3    H138909   0.229   3.174   2.781
12988TIP3    H238910   0.095   3.122   2.733
12989TIP3   OH238911   7.908   3.386   0.142
12989TIP3    H138912   7.987   3.392   0.196
12989TIP3    H238913   7.885   3.477   0.122
12990TIP3   OH238914   2.107   4.601   3.979
12990TIP3    H138915   2.191   4.587   3.935
12990TIP3    H238916   2.049   4.536   3.939
12991TIP3   OH238917   5.929   1.151   1.753
12991TIP3    H138918   5.926   1.150   1.849
12991TIP3    H238919   6.016   1.185   1.732
12992TIP3   OH238920   7.752   1.876   2.988
12992TIP3    H138921   7.724   1.963   2.962
12992TIP3    H238922   7.671   1.827   3.001
12993TIP3   OH238923   1.522   3.728   5.629
12993TIP3    H138924   1.499   3.798   5.567
12993TIP3    H238925   1.574   3.666   5.577
12994TIP3   OH238926   5.904   7.786   3.546
12994TIP3    H138927   5.835   7.851   3.556
12994TIP3    H238928   5.859   7.701   3.552
12995TIP3   OH238929   1.062   5.083   1.698
12995TIP3    H138930   1.000   5.079   1.771
12995TIP3    H238931   1.146   5.104   1.738
12996TIP3   OH238932   0.625   0.843   3.331
12996TIP3    H138933   0.621   0.935   3.304
12996TIP3    H238934   0.649   0.795   3.252
12997TIP3   OH238935   4.302   4.734   5.349
12997TIP3    H138936   4.285   4.643   5.323
12997TIP3    H238937   4.280   4.737   5.442
12998TIP3   OH238938   1.629   5.134   4.813
12998TIP3    H138939   1.669   5.179   4.739
12998TIP3    H238940   1.654   5.187   4.889
12999TIP3   OH238941   6.008   2.021   3.393
12999TIP3    H138942   6.051   2.098   3.431
12999TIP3    H238943   5.918   2.027   3.424
13000TIP3   OH238944   7.372   3.308   4.278
13000TIP3    H138945   7.323   3.371   4.225
13000TIP3    H238946   7.397   3.356   4.357
13001TIP3   OH238947   7.861   4.114   0.980
13001TIP3    H138948   7.802   4.173   1.027
13001TIP3    H238949   7.807   4.038   0.957
13002TIP3   OH238950   5.619   7.846  -0.006
13002TIP3    H138951   5.594   7.754  -0.018
13002TIP3    H238952   5.697   7.842   0.050
13003TIP3   OH238953   6.048   2.637   2.601
13003TIP3    H138954   6.072   2.712   2.655
13003TIP3    H238955   6.106   2.567   2.630
13004TIP3   OH238956   6.256   6.106   5.092
13004TIP3    H138957   6.250   6.052   5.013
13004TIP3    H238958   6.166   6.135   5.108
13005TIP3   OH238959   3.936   7.544   0.441
13005TIP3    H138960   3.969   7.482   0.506
13005TIP3    H238961   3.969   7.629   0.470
13006TIP3   OH238962   0.395   2.301   6.381
13006TIP3    H138963   0.422   2.307   6.473
13006TIP3    H238964   0.398   2.391   6.350
13007TIP3   OH238965   6.602   7.472   1.583
13007TIP3    H138966   6.678   7.419   1.559
13007TIP3    H238967   6.605   7.477   1.679
13008TIP3   OH238968   1.015   0.057   2.766
13008TIP3    H138969   0.957   0.015   2.702
13008TIP3    H238970   0.956   0.087   2.836
13009TIP3   OH238971   0.401   0.741   1.132
13009TIP3    H138972   0.458   0.704   1.200
13009TIP3    H238973   0.351   0.666   1.100
13010TIP3   OH238974   5.255   2.746   6.555
13010TIP3    H138975   5.300   2.785   6.629
13010TIP3    H238976   5.168   2.722   6.589
13011TIP3   OH238977   0.981   0.279   4.240
13011TIP3    H138978   0.916   0.259   4.173
13011TIP3    H238979   1.050   0.326   4.193
13012TIP3   OH238980   7.106   0.245   3.699
13012TIP3    H138981   7.092   0.325   3.750
13012TIP3    H238982   7.020   0.225   3.662
13013TIP3   OH238983   4.957   5.065   6.172
13013TIP3    H138984   4.980   5.123   6.100
13013TIP3    H238985   4.863   5.078   6.184
13014TIP3   OH238986   7.220   4.233   1.092
13014TIP3    H138987   7.205   4.260   1.182
13014TIP3    H238988   7.134   4.205   1.061
13015TIP3   OH238989   0.289   5.040   3.253
13015TIP3    H138990   0.248   5.076   3.332
13015TIP3    H238991   0.341   5.112   3.218
13016TIP3   OH238992   2.615   0.797   6.358
13016TIP3    H138993   2.551   0.788   6.288
13016TIP3    H238994   2.663   0.877   6.336
13017TIP3   OH238995   7.084   5.583   4.940
13017TIP3    H138996   7.084   5.587   4.844
13017TIP3    H238997   7.007   5.633   4.966
13018TIP3   OH238998   1.164   7.310   2.798
13018TIP3    H138999   1.200   7.278   2.715
13018TIP3    H239000   1.241   7.343   2.845
13019TIP3   OH239001   2.364   7.071   2.368
13019TIP3    H139002   2.440   7.066   2.310
13019TIP3    H239003   2.317   7.149   2.338
13020TIP3   OH239004   8.048   4.286   6.281
13020TIP3    H139005   8.139   4.261   6.297
13020TIP3    H239006   8.015   4.220   6.221
13021TIP3   OH239007   2.703   6.217   2.332
13021TIP3    H139008   2.748   6.231   2.415
13021TIP3    H239009   2.665   6.302   2.311
13022TIP3   OH239010   2.718   4.729   5.678
13022TIP3    H139011   2.812   4.745   5.679
13022TIP3    H239012   2.688   4.756   5.765
13023TIP3   OH239013   4.219   4.208   5.697
13023TIP3    H139014   4.226   4.223   5.603
13023TIP3    H239015   4.280   4.271   5.736
13024TIP3   OH239016   6.308   3.889   3.916
13024TIP3    H139017   6.354   3.945   3.854
13024TIP3    H239018   6.310   3.802   3.876
13025TIP3   OH239019   5.337   3.079   0.491
13025TIP3    H139020   5.415   3.030   0.520
13025TIP3    H239021   5.321   3.047   0.402
13026TIP3   OH239022   1.956   4.569   2.800
13026TIP3    H139023   1.970   4.483   2.760
13026TIP3    H239024   1.918   4.549   2.885
13027TIP3   OH239025   5.674   2.777   0.508
13027TIP3    H139026   5.747   2.830   0.477
13027TIP3    H239027   5.617   2.839   0.554
13028TIP3   OH239028   1.202   3.022   0.739
13028TIP3    H139029   1.192   2.938   0.782
13028TIP3    H239030   1.131   3.076   0.774
13029TIP3   OH239031   5.863   4.420   4.050
13029TIP3    H139032   5.901   4.492   3.999
13029TIP3    H239033   5.781   4.455   4.083
13030TIP3   OH239034   7.083   2.374   1.257
13030TIP3    H139035   7.156   2.318   1.230
13030TIP3    H239036   7.124   2.459   1.274
13031TIP3   OH239037   4.964   6.901   3.274
13031TIP3    H139038   5.056   6.875   3.267
13031TIP3    H239039   4.943   6.890   3.367
13032TIP3   OH239040   0.096   7.537   5.657
13032TIP3    H139041   0.054   7.523   5.742
13032TIP3    H239042   0.102   7.449   5.618
13033TIP3   OH239043   2.692   1.728   3.304
13033TIP3    H139044   2.684   1.658   3.240
13033TIP3    H239045   2.601   1.751   3.325
13034TIP3   OH239046   6.622   2.682   6.102
13034TIP3    H139047   6.624   2.736   6.023
13034TIP3    H239048   6.710   2.645   6.108
13035TIP3   OH239049   2.441   7.196   5.722
13035TIP3    H139050   2.424   7.189   5.816
13035TIP3    H239051   2.360   7.166   5.680
13036TIP3   OH239052   2.587   7.606   4.402
13036TIP3    H139053   2.622   7.557   4.476
13036TIP3    H239054   2.526   7.669   4.442
13037TIP3   OH239055   1.394   7.285   4.641
13037TIP3    H139056   1.488   7.300   4.642
13037TIP3    H239057   1.368   7.286   4.733
13038TIP3   OH239058   1.229   4.783   6.427
13038TIP3    H139059   1.302   4.784   6.366
13038TIP3    H239060   1.269   4.777   6.514
13039TIP3   OH239061   5.909   0.353   2.300
13039TIP3    H139062   5.920   0.300   2.379
13039TIP3    H239063   5.935   0.441   2.327
13040TIP3   OH239064   2.680   4.768   3.336
13040TIP3    H139065   2.689   4.751   3.242
13040TIP3    H239066   2.618   4.701   3.366
13041TIP3   OH239067   4.334   2.330   4.789
13041TIP3    H139068   4.287   2.403   4.747
13041TIP3    H239069   4.265   2.279   4.832
13042TIP3   OH239070   6.860   5.507   0.191
13042TIP3    H139071   6.954   5.493   0.187
13042TIP3    H239072   6.825   5.426   0.226
13043TIP3   OH239073   7.902   3.532   5.814
13043TIP3    H139074   7.888   3.627   5.822
13043TIP3    H239075   7.880   3.497   5.900
13044TIP3   OH239076   5.228   4.300   1.174
13044TIP3    H139077   5.230   4.219   1.223
13044TIP3    H239078   5.309   4.300   1.123
13045TIP3   OH239079   7.229   1.163   1.590
13045TIP3    H139080   7.302   1.111   1.557
13045TIP3    H239081   7.186   1.198   1.512
13046TIP3   OH239082   8.240   5.693   3.615
13046TIP3    H139083   8.332   5.716   3.626
13046TIP3    H239084   8.237   5.647   3.531
13047TIP3   OH239085   2.934   4.359   3.896
13047TIP3    H139086   2.859   4.351   3.838
13047TIP3    H239087   2.964   4.450   3.884
13048TIP3   OH239088   6.616   1.730   0.105
13048TIP3    H139089   6.652   1.730   0.016
13048TIP3    H239090   6.522   1.745   0.093
13049TIP3   OH239091   2.491   3.164   0.706
13049TIP3    H139092   2.454   3.097   0.764
13049TIP3    H239093   2.500   3.119   0.622
13050TIP3   OH239094   3.971   7.707   3.864
13050TIP3    H139095   3.896   7.708   3.924
13050TIP3    H239096   3.996   7.799   3.855
13051TIP3   OH239097   6.516   2.656   2.189
13051TIP3    H139098   6.499   2.648   2.095
13051TIP3    H239099   6.601   2.701   2.194
13052TIP3   OH239100   1.837   0.974   3.606
13052TIP3    H139101   1.893   0.897   3.596
13052TIP3    H239102   1.753   0.948   3.567
13053TIP3   OH239103   4.556   4.644   2.769
13053TIP3    H139104   4.626   4.579   2.756
13053TIP3    H239105   4.485   4.594   2.809
13054TIP3   OH239106   7.131   5.252   6.663
13054TIP3    H139107   7.181   5.333   6.650
13054TIP3    H239108   7.168   5.191   6.600
13055TIP3   OH239109   0.193   1.896   2.179
13055TIP3    H139110   0.190   1.845   2.259
13055TIP3    H239111   0.102   1.899   2.149
13056TIP3   OH239112   6.848   3.213   0.732
13056TIP3    H139113   6.896   3.240   0.653
13056TIP3    H239114   6.872   3.277   0.798
13057TIP3   OH239115   1.757   0.559   1.637
13057TIP3    H139116   1.678   0.568   1.690
13057TIP3    H239117   1.811   0.495   1.684
13058TIP3   OH239118   1.650   4.133   2.693
13058TIP3    H139119   1.654   4.042   2.724
13058TIP3    H239120   1.705   4.181   2.754
13059TIP3   OH239121   1.314   3.256   0.439
13059TIP3    H139122   1.375   3.223   0.504
13059TIP3    H239123   1.309   3.187   0.373
13060TIP3   OH239124   0.851   7.651   0.935
13060TIP3    H139125   0.836   7.710   0.861
13060TIP3    H239126   0.767   7.650   0.982
13061TIP3   OH239127   2.378   1.918   3.680
13061TIP3    H139128   2.347   1.888   3.766
13061TIP3    H239129   2.299   1.922   3.626
13062TIP3   OH239130   7.930   4.483   0.183
13062TIP3    H139131   7.882   4.534   0.118
13062TIP3    H239132   8.021   4.484   0.152
13063TIP3   OH239133   7.140   7.251   4.240
13063TIP3    H139134   7.184   7.175   4.281
13063TIP3    H239135   7.137   7.317   4.310
13064TIP3   OH239136   0.637   2.363   4.976
13064TIP3    H139137   0.692   2.410   4.914
13064TIP3    H239138   0.687   2.364   5.058
13065TIP3   OH239139   0.168   4.543   0.428
13065TIP3    H139140   0.199   4.515   0.341
13065TIP3    H239141   0.188   4.637   0.430
13066TIP3   OH239142   3.917   4.451   5.873
13066TIP3    H139143   3.949   4.535   5.905
13066TIP3    H239144   3.925   4.392   5.948
13067TIP3   OH239145   4.881   4.762   6.266
13067TIP3    H139146   4.892   4.731   6.176
13067TIP3    H239147   4.877   4.858   6.258
13068TIP3   OH239148   4.495   0.891   1.478
13068TIP3    H139149   4.495   0.981   1.445
13068TIP3    H239150   4.533   0.898   1.566
13069TIP3   OH239151   3.342   1.453   2.152
13069TIP3    H139152   3.386   1.375   2.186
13069TIP3    H239153   3.306   1.496   2.230
13070TIP3   OH239154   0.444   6.219   3.446
13070TIP3    H139155   0.433   6.300   3.395
13070TIP3    H239156   0.371   6.219   3.508
13071TIP3   OH239157   6.922   2.790   5.859
13071TIP3    H139158   6.974   2.751   5.930
13071TIP3    H239159   6.986   2.834   5.803
13072TIP3   OH239160   2.673   5.247   1.339
13072TIP3    H139161   2.734   5.222   1.409
13072TIP3    H239162   2.690   5.340   1.324
13073TIP3   OH239163   8.178   1.025   6.495
13073TIP3    H139164   8.133   1.107   6.474
13073TIP3    H239165   8.172   0.973   6.416
13074TIP3   OH239166   2.824   3.649   6.715
13074TIP3    H139167   2.826   3.588   6.641
13074TIP3    H239168   2.896   3.619   6.772
13075TIP3   OH239169   7.670   7.717   6.686
13075TIP3    H139170   7.754   7.679   6.658
13075TIP3    H239171   7.606   7.648   6.670
13076TIP3   OH239172   7.939   6.865   3.613
13076TIP3    H139173   7.990   6.904   3.685
13076TIP3    H239174   7.988   6.890   3.535
13077TIP3   OH239175   3.127   2.797   2.923
13077TIP3    H139176   3.079   2.837   2.996
13077TIP3    H239177   3.218   2.798   2.951
13078TIP3   OH239178   1.687   0.614   0.808
13078TIP3    H139179   1.633   0.670   0.864
13078TIP3    H239180   1.641   0.530   0.807
13079TIP3   OH239181   6.444   0.680   5.189
13079TIP3    H139182   6.373   0.626   5.155
13079TIP3    H239183   6.446   0.660   5.283
13080TIP3   OH239184   8.236   6.045   0.040
13080TIP3    H139185   8.162   6.099   0.013
13080TIP3    H239186   8.310   6.078  -0.011
13081TIP3   OH239187   5.484   1.072   0.699
13081TIP3    H139188   5.543   1.004   0.733
13081TIP3    H239189   5.410   1.071   0.759
13082TIP3   OH239190   5.192   6.374   5.380
13082TIP3    H139191   5.132   6.321   5.329
13082TIP3    H239192   5.207   6.322   5.460
13083TIP3   OH239193   5.856   3.861   3.029
13083TIP3    H139194   5.771   3.875   3.070
13083TIP3    H239195   5.870   3.939   2.975
13084TIP3   OH239196   4.390   0.048   1.377
13084TIP3    H139197   4.408  -0.046   1.379
13084TIP3    H239198   4.448   0.085   1.444
13085TIP3   OH239199   1.793   2.743   2.677
13085TIP3    H139200   1.818   2.653   2.656
13085TIP3    H239201   1.777   2.785   2.593
13086TIP3   OH239202   3.864   6.795   4.380
13086TIP3    H139203   3.774   6.773   4.356
13086TIP3    H239204   3.877   6.750   4.464
13087TIP3   OH239205   2.470   7.530   1.309
13087TIP3    H139206   2.535   7.600   1.306
13087TIP3    H239207   2.442   7.528   1.401
13088TIP3   OH239208   3.526   2.223   0.417
13088TIP3    H139209   3.599   2.182   0.371
13088TIP3    H239210   3.455   2.159   0.414
13089TIP3   OH239211   2.676   6.590   5.388
13089TIP3    H139212   2.670   6.686   5.390
13089TIP3    H239213   2.638   6.562   5.470
13090TIP3   OH239214   5.102   0.314   4.872
13090TIP3    H139215   5.131   0.400   4.840
13090TIP3    H239216   5.180   0.259   4.867
13091TIP3   OH239217   5.282   2.192   3.656
13091TIP3    H139218   5.196   2.154   3.675
13091TIP3    H239219   5.298   2.168   3.565
13092TIP3   OH239220   0.763   5.825   1.956
13092TIP3    H139221   0.825   5.753   1.944
13092TIP3    H239222   0.689   5.804   1.899
13093TIP3   OH239223   4.739   5.589   0.580
13093TIP3    H139224   4.819   5.543   0.603
13093TIP3    H239225   4.751   5.615   0.489
13094TIP3   OH239226   1.729   0.124   6.625
13094TIP3    H139227   1.721   0.066   6.550
13094TIP3    H239228   1.769   0.070   6.693
13095TIP3   OH239229   3.179   2.230   3.237
13095TIP3    H139230   3.144   2.254   3.151
13095TIP3    H239231   3.255   2.175   3.217
13096TIP3   OH239232   0.829   1.697   6.402
13096TIP3    H139233   0.920   1.680   6.379
13096TIP3    H239234   0.833   1.737   6.489
13097TIP3   OH239235   3.201   4.788   6.062
13097TIP3    H139236   3.256   4.865   6.048
13097TIP3    H239237   3.118   4.824   6.095
13098TIP3   OH239238   3.453   5.721   3.443
13098TIP3    H139239   3.438   5.778   3.368
13098TIP3    H239240   3.365   5.693   3.471
13099TIP3   OH239241   6.001   7.102   6.056
13099TIP3    H139242   6.012   7.072   5.966
13099TIP3    H239243   6.088   7.090   6.095
13100TIP3   OH239244   5.409   5.211   4.534
13100TIP3    H139245   5.329   5.257   4.510
13100TIP3    H239246   5.453   5.270   4.595
13101TIP3   OH239247   6.599   1.874   3.310
13101TIP3    H139248   6.591   1.878   3.406
13101TIP3    H239249   6.678   1.926   3.291
13102TIP3   OH239250   7.961   5.343   2.578
13102TIP3    H139251   7.931   5.259   2.612
13102TIP3    H239252   7.880   5.391   2.559
13103TIP3   OH239253   5.386   6.936   2.680
13103TIP3    H139254   5.432   7.016   2.705
13103TIP3    H239255   5.452   6.884   2.634
13104TIP3   OH239256   0.466   1.750   1.791
13104TIP3    H139257   0.559   1.772   1.795
13104TIP3    H239258   0.422   1.830   1.821
13105TIP3   OH239259   4.361   5.350   6.256
13105TIP3    H139260   4.347   5.293   6.333
13105TIP3    H239261   4.296   5.319   6.193
13106TIP3   OH239262   5.004   0.530   1.697
13106TIP3    H139263   5.045   0.615   1.678
13106TIP3    H239264   4.979   0.537   1.789
13107TIP3   OH239265   2.882   0.924   4.313
13107TIP3    H139266   2.964   0.968   4.290
13107TIP3    H239267   2.821   0.995   4.332
13108TIP3   OH239268   5.606   2.318   0.070
13108TIP3    H139269   5.553   2.371   0.130
13108TIP3    H239270   5.694   2.352   0.079
13109TIP3   OH239271   1.554   1.766   4.873
13109TIP3    H139272   1.620   1.745   4.939
13109TIP3    H239273   1.598   1.750   4.789
13110TIP3   OH239274   1.130   0.973   3.032
13110TIP3    H139275   1.078   1.053   3.020
13110TIP3    H239276   1.178   0.964   2.950
13111TIP3   OH239277   8.257   2.776   2.833
13111TIP3    H139278   8.297   2.697   2.871
13111TIP3    H239279   8.292   2.848   2.885
13112TIP3   OH239280   1.408   6.717   4.956
13112TIP3    H139281   1.370   6.691   4.872
13112TIP3    H239282   1.500   6.736   4.935
13113TIP3   OH239283   6.905   5.810   0.814
13113TIP3    H139284   6.972   5.865   0.775
13113TIP3    H239285   6.855   5.778   0.739
13114TIP3   OH239286   7.994   6.889   6.034
13114TIP3    H139287   7.989   6.828   6.108
13114TIP3    H239288   8.085   6.882   6.004
13115TIP3   OH239289   4.191   0.765   2.558
13115TIP3    H139290   4.129   0.705   2.600
13115TIP3    H239291   4.150   0.851   2.565
13116TIP3   OH239292   4.214   3.936   4.780
13116TIP3    H139293   4.297   3.894   4.806
13116TIP3    H239294   4.176   3.966   4.862
13117TIP3   OH239295   0.460   0.114   4.909
13117TIP3    H139296   0.531   0.050   4.895
13117TIP3    H239297   0.502   0.199   4.897
13118TIP3   OH239298   7.769   1.006   5.588
13118TIP3    H139299   7.729   1.068   5.649
13118TIP3    H239300   7.717   0.926   5.597
13119TIP3   OH239301   0.973   2.638   0.194
13119TIP3    H139302   1.036   2.607   0.128
13119TIP3    H239303   0.932   2.714   0.153
13120TIP3   OH239304   6.651   3.841   6.012
13120TIP3    H139305   6.724   3.855   6.071
13120TIP3    H239306   6.690   3.845   5.925
13121TIP3   OH239307   5.854   1.017   0.660
13121TIP3    H139308   5.856   1.102   0.705
13121TIP3    H239309   5.779   0.971   0.699
13122TIP3   OH239310   4.103   7.438   3.063
13122TIP3    H139311   4.127   7.445   2.971
13122TIP3    H239312   4.132   7.521   3.102
13123TIP3   OH239313   5.936   6.723   2.363
13123TIP3    H139314   5.957   6.779   2.438
13123TIP3    H239315   5.995   6.648   2.372
13124TIP3   OH239316   2.084   2.432   3.559
13124TIP3    H139317   1.990   2.431   3.576
13124TIP3    H239318   2.121   2.369   3.621
13125TIP3   OH239319   2.978   0.372   3.711
13125TIP3    H139320   3.026   0.398   3.790
13125TIP3    H239321   2.886   0.370   3.739
13126TIP3   OH239322   3.470   3.833   4.124
13126TIP3    H139323   3.539   3.791   4.175
13126TIP3    H239324   3.467   3.923   4.158
13127TIP3   OH239325   6.693   4.550   5.526
13127TIP3    H139326   6.673   4.513   5.440
13127TIP3    H239327   6.609   4.551   5.571
13128TIP3   OH239328   8.097   1.392   1.507
13128TIP3    H139329   8.085   1.374   1.600
13128TIP3    H239330   8.121   1.308   1.468
13129TIP3   OH239331   5.321   7.481   3.460
13129TIP3    H139332   5.414   7.505   3.459
13129TIP3    H239333   5.318   7.394   3.420
13130TIP3   OH239334   7.944   4.261   5.182
13130TIP3    H139335   8.011   4.328   5.188
13130TIP3    H239336   7.916   4.262   5.090
13131TIP3   OH239337   3.933   2.663   0.254
13131TIP3    H139338   3.981   2.712   0.187
13131TIP3    H239339   3.894   2.730   0.310
13132TIP3   OH239340   0.872   2.947   2.425
13132TIP3    H139341   0.832   2.931   2.339
13132TIP3    H239342   0.876   2.861   2.466
13133TIP3   OH239343   7.015   6.798   3.516
13133TIP3    H139344   7.028   6.705   3.532
13133TIP3    H239345   7.004   6.836   3.604
13134TIP3   OH239346   8.076   6.648   3.214
13134TIP3    H139347   7.985   6.652   3.244
13134TIP3    H239348   8.111   6.569   3.255
13135TIP3   OH239349   4.633   3.764   3.551
13135TIP3    H139350   4.707   3.808   3.510
13135TIP3    H239351   4.586   3.722   3.479
13136TIP3   OH239352   4.263   5.458   2.109
13136TIP3    H139353   4.250   5.527   2.175
13136TIP3    H239354   4.174   5.435   2.082
13137TIP3   OH239355   7.528   3.493   3.457
13137TIP3    H139356   7.535   3.418   3.398
13137TIP3    H239357   7.499   3.565   3.401
13138TIP3   OH239358   1.939   6.159   5.694
13138TIP3    H139359   1.986   6.159   5.777
13138TIP3    H239360   1.887   6.239   5.696
13139TIP3   OH239361   3.358   4.178   0.445
13139TIP3    H139362   3.440   4.221   0.421
13139TIP3    H239363   3.297   4.250   0.458
13140TIP3   OH239364   2.468   3.261   2.341
13140TIP3    H139365   2.382   3.293   2.369
13140TIP3    H239366   2.511   3.338   2.303
13141TIP3   OH239367   6.571   5.888   2.997
13141TIP3    H139368   6.488   5.841   2.991
13141TIP3    H239369   6.560   5.963   2.938
13142TIP3   OH239370   7.806   7.765   2.489
13142TIP3    H139371   7.785   7.730   2.576
13142TIP3    H239372   7.856   7.695   2.447
13143TIP3   OH239373   2.510   2.142   6.661
13143TIP3    H139374   2.496   2.199   6.585
13143TIP3    H239375   2.602   2.154   6.683
13144TIP3   OH239376   0.210   4.506   3.890
13144TIP3    H139377   0.140   4.506   3.826
13144TIP3    H239378   0.225   4.598   3.910
13145TIP3   OH239379   6.446   6.954   1.352
13145TIP3    H139380   6.404   6.904   1.422
13145TIP3    H239381   6.391   7.032   1.342
13146TIP3   OH239382   7.295   6.111   0.417
13146TIP3    H139383   7.360   6.181   0.417
13146TIP3    H239384   7.302   6.071   0.330
13147TIP3   OH239385   1.413   1.371   2.570
13147TIP3    H139386   1.426   1.403   2.481
13147TIP3    H239387   1.498   1.335   2.595
13148TIP3   OH239388   1.474   5.434   3.803
13148TIP3    H139389   1.380   5.437   3.784
13148TIP3    H239390   1.498   5.526   3.818
13149TIP3   OH239391   4.740   7.031   1.447
13149TIP3    H139392   4.774   6.946   1.475
13149TIP3    H239393   4.818   7.082   1.424
13150TIP3   OH239394   6.094   0.223   5.820
13150TIP3    H139395   6.106   0.131   5.798
13150TIP3    H239396   6.019   0.224   5.879
13151TIP3   OH239397   2.172   3.750   2.381
13151TIP3    H139398   2.227   3.711   2.312
13151TIP3    H239399   2.084   3.752   2.343
13152TIP3   OH239400   2.969   4.591   5.442
13152TIP3    H139401   2.998   4.626   5.358
13152TIP3    H239402   2.949   4.668   5.495
13153TIP3   OH239403   1.955   3.624   1.952
13153TIP3    H139404   2.005   3.577   1.886
13153TIP3    H239405   2.016   3.689   1.987
13154TIP3   OH239406   7.802   1.075   1.657
13154TIP3    H139407   7.790   1.168   1.676
13154TIP3    H239408   7.794   1.032   1.742
13155TIP3   OH239409   5.129   6.399   0.231
13155TIP3    H139410   5.176   6.328   0.188
13155TIP3    H239411   5.191   6.472   0.232
13156TIP3   OH239412   5.199   3.440   5.111
13156TIP3    H139413   5.251   3.409   5.185
13156TIP3    H239414   5.202   3.535   5.117
13157TIP3   OH239415   6.931   7.665   6.662
13157TIP3    H139416   6.953   7.719   6.586
13157TIP3    H239417   6.843   7.632   6.643
13158TIP3   OH239418   7.173   1.213   1.317
13158TIP3    H139419   7.129   1.230   1.233
13158TIP3    H239420   7.266   1.206   1.295
13159TIP3   OH239421   1.816   2.184   4.262
13159TIP3    H139422   1.766   2.109   4.230
13159TIP3    H239423   1.783   2.258   4.212
13160TIP3   OH239424   4.474   5.728   6.502
13160TIP3    H139425   4.479   5.767   6.590
13160TIP3    H239426   4.411   5.657   6.512
13161TIP3   OH239427   1.948   3.622   1.288
13161TIP3    H139428   1.869   3.623   1.233
13161TIP3    H239429   2.010   3.568   1.240
13162TIP3   OH239430   5.011   4.542   3.515
13162TIP3    H139431   5.076   4.611   3.530
13162TIP3    H239432   4.947   4.583   3.456
13163TIP3   OH239433   6.660   1.075   5.424
13163TIP3    H139434   6.668   1.002   5.362
13163TIP3    H239435   6.566   1.091   5.429
13164TIP3   OH239436   1.845   1.445   2.422
13164TIP3    H139437   1.852   1.365   2.370
13164TIP3    H239438   1.801   1.416   2.503
13165TIP3   OH239439   6.240   3.289   4.315
13165TIP3    H139440   6.228   3.242   4.232
13165TIP3    H239441   6.320   3.253   4.352
13166TIP3   OH239442   8.078   1.269   6.401
13166TIP3    H139443   8.158   1.305   6.363
13166TIP3    H239444   8.036   1.344   6.444
13167TIP3   OH239445   5.920   7.777   3.860
13167TIP3    H139446   5.866   7.699   3.845
13167TIP3    H239447   5.911   7.828   3.779
13168TIP3   OH239448   4.370   6.933   0.268
13168TIP3    H139449   4.404   6.881   0.195
13168TIP3    H239450   4.288   6.969   0.236
13169TIP3   OH239451   0.450   4.701   1.431
13169TIP3    H139452   0.385   4.677   1.497
13169TIP3    H239453   0.534   4.692   1.476
13170TIP3   OH239454   3.091   7.131   6.741
13170TIP3    H139455   3.115   7.038   6.747
13170TIP3    H239456   3.157   7.168   6.683
13171TIP3   OH239457   7.646   5.593   2.627
13171TIP3    H139458   7.629   5.575   2.535
13171TIP3    H239459   7.580   5.657   2.652
13172TIP3   OH239460   6.164   2.524   5.763
13172TIP3    H139461   6.134   2.612   5.741
13172TIP3    H239462   6.169   2.479   5.679
13173TIP3   OH239463   7.546   1.586   0.899
13173TIP3    H139464   7.486   1.589   0.974
13173TIP3    H239465   7.612   1.521   0.924
13174TIP3   OH239466   5.261   3.531   1.983
13174TIP3    H139467   5.220   3.600   2.035
13174TIP3    H239468   5.237   3.449   2.026
13175TIP3   OH239469   2.415   6.500   5.592
13175TIP3    H139470   2.497   6.453   5.605
13175TIP3    H239471   2.361   6.476   5.667
13176TIP3   OH239472   6.948   4.681   1.904
13176TIP3    H139473   7.043   4.683   1.920
13176TIP3    H239474   6.938   4.716   1.815
13177TIP3   OH239475   1.304   0.803   4.182
13177TIP3    H139476   1.352   0.729   4.219
13177TIP3    H239477   1.363   0.878   4.194
13178TIP3   OH239478   5.094   4.111   6.520
13178TIP3    H139479   5.164   4.113   6.455
13178TIP3    H239480   5.019   4.151   6.475
13179TIP3   OH239481   6.973   5.222   2.832
13179TIP3    H139482   6.925   5.162   2.890
13179TIP3    H239483   6.946   5.196   2.744
13180TIP3   OH239484   5.716   1.348   4.508
13180TIP3    H139485   5.801   1.309   4.483
13180TIP3    H239486   5.705   1.421   4.448
13181TIP3   OH239487   4.942   7.133   6.548
13181TIP3    H139488   4.871   7.082   6.509
13181TIP3    H239489   4.905   7.167   6.629
13182TIP3   OH239490   6.236   1.431   4.002
13182TIP3    H139491   6.329   1.453   3.991
13182TIP3    H239492   6.189   1.502   3.958
13183TIP3   OH239493   8.174   6.801   5.588
13183TIP3    H139494   8.084   6.809   5.555
13183TIP3    H239495   8.221   6.755   5.518
13184TIP3   OH239496   2.354   4.606   3.829
13184TIP3    H139497   2.445   4.608   3.858
13184TIP3    H239498   2.351   4.668   3.755
13185TIP3   OH239499   8.282   7.623   2.109
13185TIP3    H139500   8.338   7.566   2.162
13185TIP3    H239501   8.270   7.701   2.162
13186TIP3   OH239502   4.076   1.201   6.716
13186TIP3    H139503   4.120   1.248   6.645
13186TIP3    H239504   4.147   1.162   6.767
13187TIP3   OH239505   8.201   5.579   4.951
13187TIP3    H139506   8.276   5.637   4.935
13187TIP3    H239507   8.147   5.587   4.872
13188TIP3   OH239508   7.947   2.625   6.595
13188TIP3    H139509   7.877   2.571   6.631
13188TIP3    H239510   7.906   2.671   6.522
13189TIP3   OH239511   1.772   3.663   5.779
13189TIP3    H139512   1.841   3.711   5.826
13189TIP3    H239513   1.691   3.689   5.823
13190TIP3   OH239514   2.311   6.250   3.920
13190TIP3    H139515   2.266   6.335   3.919
13190TIP3    H239516   2.244   6.188   3.949
13191TIP3   OH239517   7.683   4.527   3.576
13191TIP3    H139518   7.763   4.480   3.600
13191TIP3    H239519   7.675   4.595   3.643
13192TIP3   OH239520   0.884   1.839   3.031
13192TIP3    H139521   0.817   1.866   3.094
13192TIP3    H239522   0.967   1.850   3.079
13193TIP3   OH239523   4.468   3.830   0.779
13193TIP3    H139524   4.384   3.865   0.750
13193TIP3    H239525   4.485   3.757   0.720
13194TIP3   OH239526   4.139   5.575   1.437
13194TIP3    H139527   4.172   5.608   1.354
13194TIP3    H239528   4.149   5.480   1.431
13195TIP3   OH239529   4.229   1.611   1.045
13195TIP3    H139530   4.202   1.588   1.134
13195TIP3    H239531   4.323   1.593   1.042
13196TIP3   OH239532   7.690   1.120   6.371
13196TIP3    H139533   7.776   1.081   6.352
13196TIP3    H239534   7.665   1.081   6.455
13197TIP3   OH239535   7.224   7.141   5.391
13197TIP3    H139536   7.164   7.135   5.317
13197TIP3    H239537   7.187   7.081   5.457
13198TIP3   OH239538   6.231   2.951   5.233
13198TIP3    H139539   6.161   2.973   5.171
13198TIP3    H239540   6.249   3.033   5.279
13199TIP3   OH239541   0.498   3.806   5.147
13199TIP3    H139542   0.533   3.726   5.106
13199TIP3    H239543   0.411   3.780   5.179
13200TIP3   OH239544   6.072   7.146   2.059
13200TIP3    H139545   6.142   7.086   2.031
13200TIP3    H239546   6.089   7.161   2.152
13201TIP3   OH239547   0.739   0.261   4.875
13201TIP3    H139548   0.826   0.293   4.851
13201TIP3    H239549   0.748   0.166   4.878
13202TIP3   OH239550   7.333   3.736   1.106
13202TIP3    H139551   7.393   3.666   1.082
13202TIP3    H239552   7.284   3.755   1.026
13203TIP3   OH239553   4.394   1.799   2.956
13203TIP3    H139554   4.440   1.882   2.966
13203TIP3    H239555   4.389   1.764   3.045
13204TIP3   OH239556   2.488   4.582   3.323
13204TIP3    H139557   2.404   4.594   3.279
13204TIP3    H239558   2.472   4.511   3.386
13205TIP3   OH239559   6.938   3.738   0.932
13205TIP3    H139560   6.924   3.800   1.004
13205TIP3    H239561   6.912   3.786   0.854
13206TIP3   OH239562   1.216   7.687   4.669
13206TIP3    H139563   1.160   7.655   4.599
13206TIP3    H239564   1.155   7.716   4.737
13207TIP3   OH239565   4.738   5.216   3.227
13207TIP3    H139566   4.711   5.187   3.140
13207TIP3    H239567   4.785   5.141   3.264
13208TIP3   OH239568   8.190   0.963   2.182
13208TIP3    H139569   8.131   1.035   2.201
13208TIP3    H239570   8.265   1.004   2.139
13209TIP3   OH239571   2.164   0.225   4.628
13209TIP3    H139572   2.139   0.133   4.626
13209TIP3    H239573   2.096   0.269   4.576
13210TIP3   OH239574   1.032   5.266   2.356
13210TIP3    H139575   1.113   5.225   2.327
13210TIP3    H239576   1.053   5.304   2.441
13211TIP3   OH239577   0.014   1.419   3.672
13211TIP3    H139578   0.095   1.369   3.684
13211TIP3    H239579  -0.032   1.412   3.755
13212TIP3   OH239580   6.102   1.313   2.533
13212TIP3    H139581   6.137   1.311   2.622
13212TIP3    H239582   6.096   1.221   2.507
13213TIP3   OH239583   8.318   3.351   5.511
13213TIP3    H139584   8.366   3.428   5.544
13213TIP3    H239585   8.229   3.362   5.546
13214TIP3   OH239586   3.559   4.464   1.936
13214TIP3    H139587   3.648   4.444   1.964
13214TIP3    H239588   3.566   4.483   1.843
13215TIP3   OH239589   1.792   3.140   3.963
13215TIP3    H139590   1.774   3.079   4.034
13215TIP3    H239591   1.707   3.178   3.941
13216TIP3   OH239592   2.682   3.060   0.430
13216TIP3    H139593   2.743   3.001   0.387
13216TIP3    H239594   2.731   3.098   0.502
13217TIP3   OH239595   0.981   6.874   3.678
13217TIP3    H139596   0.979   6.885   3.583
13217TIP3    H239597   1.024   6.953   3.711
13218TIP3   OH239598   6.320   7.284   5.507
13218TIP3    H139599   6.303   7.221   5.438
13218TIP3    H239600   6.234   7.297   5.549
13219TIP3   OH239601   4.635   0.982   2.521
13219TIP3    H139602   4.594   0.902   2.556
13219TIP3    H239603   4.646   1.038   2.597
13220TIP3   OH239604   0.813   4.237   3.688
13220TIP3    H139605   0.876   4.173   3.721
13220TIP3    H239606   0.755   4.254   3.762
13221TIP3   OH239607   3.118   5.541   1.519
13221TIP3    H139608   3.027   5.533   1.549
13221TIP3    H239609   3.150   5.621   1.561
13222TIP3   OH239610   7.122   2.618   4.466
13222TIP3    H139611   7.091   2.625   4.376
13222TIP3    H239612   7.210   2.580   4.459
13223TIP3   OH239613   7.683   6.836   1.985
13223TIP3    H139614   7.707   6.775   2.055
13223TIP3    H239615   7.733   6.915   2.004
13224TIP3   OH239616   6.831   1.474   3.850
13224TIP3    H139617   6.790   1.387   3.852
13224TIP3    H239618   6.870   1.485   3.936
13225TIP3   OH239619   5.237   0.708   6.399
13225TIP3    H139620   5.161   0.658   6.369
13225TIP3    H239621   5.291   0.718   6.321
13226TIP3   OH239622   4.036   5.870   4.682
13226TIP3    H139623   3.960   5.872   4.741
13226TIP3    H239624   4.102   5.819   4.729
13227TIP3   OH239625   4.699   2.338   6.257
13227TIP3    H139626   4.611   2.302   6.269
13227TIP3    H239627   4.757   2.267   6.284
13228TIP3   OH239628   0.137   7.831   0.847
13228TIP3    H139629   0.210   7.771   0.864
13228TIP3    H239630   0.086   7.829   0.929
13229TIP3   OH239631   2.317   6.260   0.808
13229TIP3    H139632   2.337   6.354   0.805
13229TIP3    H239633   2.232   6.252   0.764
13230TIP3   OH239634   2.700   6.932   1.922
13230TIP3    H139635   2.708   7.028   1.917
13230TIP3    H239636   2.645   6.909   1.848
13231TIP3   OH239637   3.485   4.993   6.695
13231TIP3    H139638   3.392   4.993   6.673
13231TIP3    H239639   3.528   4.968   6.614
13232TIP3   OH239640   6.247   4.753   0.632
13232TIP3    H139641   6.265   4.764   0.539
13232TIP3    H239642   6.153   4.772   0.641
13233TIP3   OH239643   5.484   7.491   4.609
13233TIP3    H139644   5.570   7.520   4.639
13233TIP3    H239645   5.433   7.481   4.689
13234TIP3   OH239646   2.303   6.929   3.450
13234TIP3    H139647   2.366   6.888   3.391
13234TIP3    H239648   2.246   6.857   3.478
13235TIP3   OH239649   2.184   0.931   0.142
13235TIP3    H139650   2.217   0.993   0.077
13235TIP3    H239651   2.095   0.911   0.113
13236TIP3   OH239652   4.461   2.998   6.651
13236TIP3    H139653   4.494   3.086   6.671
13236TIP3    H239654   4.484   2.946   6.728
13237TIP3   OH239655   6.887   5.929   1.510
13237TIP3    H139656   6.980   5.919   1.529
13237TIP3    H239657   6.884   5.974   1.426
13238TIP3   OH239658   4.563   7.255   6.575
13238TIP3    H139659   4.575   7.309   6.497
13238TIP3    H239660   4.588   7.167   6.546
13239TIP3   OH239661   1.794   4.832   4.677
13239TIP3    H139662   1.735   4.828   4.752
13239TIP3    H239663   1.811   4.740   4.656
13240TIP3   OH239664   7.017   2.769   5.010
13240TIP3    H139665   7.065   2.689   5.030
13240TIP3    H239666   7.038   2.828   5.083
13241TIP3   OH239667   3.700   3.477   5.219
13241TIP3    H139668   3.629   3.539   5.232
13241TIP3    H239669   3.742   3.470   5.304
13242TIP3   OH239670   8.008   7.413   6.137
13242TIP3    H139671   8.029   7.332   6.089
13242TIP3    H239672   7.927   7.445   6.096
13243TIP3   OH239673   7.892   1.990   3.236
13243TIP3    H139674   7.814   1.944   3.206
13243TIP3    H239675   7.953   1.921   3.261
13244TIP3   OH239676   4.806   1.947   5.869
13244TIP3    H139677   4.886   1.994   5.893
13244TIP3    H239678   4.761   2.006   5.808
13245TIP3   OH239679   3.543   6.072   5.587
13245TIP3    H139680   3.463   6.034   5.551
13245TIP3    H239681   3.608   6.003   5.579
13246TIP3   OH239682   4.623   3.454   2.646
13246TIP3    H139683   4.544   3.496   2.612
13246TIP3    H239684   4.694   3.485   2.590
13247TIP3   OH239685   7.318   6.094   1.693
13247TIP3    H139686   7.355   6.179   1.715
13247TIP3    H239687   7.390   6.047   1.649
13248TIP3   OH239688   1.286   7.497   0.009
13248TIP3    H139689   1.274   7.535   0.097
13248TIP3    H239690   1.369   7.450   0.014
13249TIP3   OH239691   5.042   7.695   1.323
13249TIP3    H139692   4.989   7.683   1.244
13249TIP3    H239693   5.091   7.776   1.307
13250TIP3   OH239694   6.656   5.716   5.814
13250TIP3    H139695   6.622   5.661   5.884
13250TIP3    H239696   6.747   5.733   5.839
13251TIP3   OH239697   7.879   0.829   4.925
13251TIP3    H139698   7.887   0.925   4.929
13251TIP3    H239699   7.922   0.799   5.006
13252TIP3   OH239700   6.978   1.561   5.204
13252TIP3    H139701   6.997   1.482   5.153
13252TIP3    H239702   6.897   1.539   5.251
13253TIP3   OH239703   3.018   0.121   3.507
13253TIP3    H139704   2.939   0.083   3.546
13253TIP3    H239705   3.044   0.189   3.569
13254TIP3   OH239706   1.614   1.086   1.413
13254TIP3    H139707   1.536   1.140   1.421
13254TIP3    H239708   1.586   1.011   1.361
13255TIP3   OH239709   7.984   0.655   6.649
13255TIP3    H139710   8.074   0.683   6.631
13255TIP3    H239711   7.994   0.571   6.695
13256TIP3   OH239712   6.972   4.132   0.624
13256TIP3    H139713   7.024   4.094   0.695
13256TIP3    H239714   7.027   4.201   0.588
13257TIP3   OH239715   2.835   6.737   5.029
13257TIP3    H139716   2.884   6.765   5.106
13257TIP3    H239717   2.801   6.818   4.991
13258TIP3   OH239718   3.725   6.343   0.259
13258TIP3    H139719   3.755   6.252   0.258
13258TIP3    H239720   3.794   6.390   0.306
13259TIP3   OH239721   7.516   7.607   5.975
13259TIP3    H139722   7.457   7.543   6.014
13259TIP3    H239723   7.461   7.683   5.955
13260TIP3   OH239724   8.127   6.921   3.051
13260TIP3    H139725   8.200   6.908   2.991
13260TIP3    H239726   8.083   6.835   3.054
13261TIP3   OH239727   0.231   5.258   4.478
13261TIP3    H139728   0.145   5.218   4.481
13261TIP3    H239729   0.288   5.192   4.438
13262TIP3   OH239730   1.402   4.976   4.263
13262TIP3    H139731   1.475   4.959   4.322
13262TIP3    H239732   1.434   4.948   4.177
13263TIP3   OH239733   7.371   6.423   2.661
13263TIP3    H139734   7.363   6.354   2.595
13263TIP3    H239735   7.370   6.504   2.610
13264TIP3   OH239736   1.927   7.626   0.092
13264TIP3    H139737   1.875   7.652   0.168
13264TIP3    H239738   1.998   7.572   0.128
13265TIP3   OH239739   5.651   0.550   5.916
13265TIP3    H139740   5.604   0.535   5.834
13265TIP3    H239741   5.719   0.614   5.895
13266TIP3   OH239742   4.557   0.733   6.381
13266TIP3    H139743   4.522   0.821   6.397
13266TIP3    H239744   4.573   0.730   6.286
13267TIP3   OH239745   6.811   4.093   5.935
13267TIP3    H139746   6.891   4.041   5.945
13267TIP3    H239747   6.762   4.049   5.866
13268TIP3   OH239748   0.821   5.611   2.817
13268TIP3    H139749   0.745   5.560   2.791
13268TIP3    H239750   0.805   5.635   2.908
13269TIP3   OH239751   7.161   4.797   6.004
13269TIP3    H139752   7.199   4.721   6.048
13269TIP3    H239753   7.131   4.764   5.920
13270TIP3   OH239754   5.423   0.764   5.262
13270TIP3    H139755   5.499   0.724   5.218
13270TIP3    H239756   5.432   0.858   5.245
13271TIP3   OH239757   3.219   6.840   6.389
13271TIP3    H139758   3.205   6.934   6.381
13271TIP3    H239759   3.269   6.816   6.311
13272TIP3   OH239760   3.595   4.917   1.243
13272TIP3    H139761   3.600   4.836   1.294
13272TIP3    H239762   3.598   4.888   1.151
13273TIP3   OH239763   6.645   7.410   1.850
13273TIP3    H139764   6.695   7.413   1.931
13273TIP3    H239765   6.651   7.319   1.821
13274TIP3   OH239766   2.664   3.858   6.261
13274TIP3    H139767   2.606   3.817   6.198
13274TIP3    H239768   2.704   3.931   6.214
13275TIP3   OH239769   7.900   4.563   5.105
13275TIP3    H139770   7.899   4.657   5.090
13275TIP3    H239771   7.845   4.527   5.035
13276TIP3   OH239772   5.488   6.347   2.070
13276TIP3    H139773   5.502   6.432   2.111
13276TIP3    H239774   5.523   6.284   2.133
13277TIP3   OH239775   6.437   2.545   3.184
13277TIP3    H139776   6.344   2.529   3.166
13277TIP3    H239777   6.464   2.608   3.118
13278TIP3   OH239778   2.220   3.483   6.248
13278TIP3    H139779   2.205   3.448   6.336
13278TIP3    H239780   2.175   3.567   6.248
13279TIP3   OH239781   7.131   6.391   1.682
13279TIP3    H139782   7.191   6.372   1.610
13279TIP3    H239783   7.184   6.436   1.747
13280TIP3   OH239784   6.984   4.756   0.727
13280TIP3    H139785   6.917   4.813   0.764
13280TIP3    H239786   6.958   4.668   0.755
13281TIP3   OH239787   4.650   6.633   1.518
13281TIP3    H139788   4.690   6.569   1.459
13281TIP3    H239789   4.590   6.582   1.572
13282TIP3   OH239790   4.360   4.382   3.539
13282TIP3    H139791   4.311   4.383   3.622
13282TIP3    H239792   4.321   4.311   3.489
13283TIP3   OH239793   1.851   0.409   5.376
13283TIP3    H139794   1.880   0.318   5.372
13283TIP3    H239795   1.865   0.443   5.288
13284TIP3   OH239796   7.167   5.764   1.270
13284TIP3    H139797   7.106   5.744   1.340
13284TIP3    H239798   7.141   5.706   1.198
13285TIP3   OH239799   1.760   4.262   0.071
13285TIP3    H139800   1.768   4.347   0.027
13285TIP3    H239801   1.847   4.223   0.064
13286TIP3   OH239802   7.993   5.418   1.908
13286TIP3    H139803   8.081   5.414   1.871
13286TIP3    H239804   7.995   5.357   1.982
13287TIP3   OH239805   6.565   5.737   6.523
13287TIP3    H139806   6.571   5.670   6.591
13287TIP3    H239807   6.655   5.749   6.493
13288TIP3   OH239808   4.512   3.507   0.368
13288TIP3    H139809   4.582   3.489   0.304
13288TIP3    H239810   4.507   3.427   0.420
13289TIP3   OH239811   0.772   5.271   0.324
13289TIP3    H139812   0.810   5.314   0.401
13289TIP3    H239813   0.678   5.268   0.343
13290TIP3   OH239814   1.560   5.195   3.764
13290TIP3    H139815   1.512   5.150   3.695
13290TIP3    H239816   1.523   5.284   3.764
13291TIP3   OH239817   6.197   0.671   6.614
13291TIP3    H139818   6.242   0.734   6.672
13291TIP3    H239819   6.239   0.683   6.529
13292TIP3   OH239820   3.034   4.092   4.754
13292TIP3    H139821   3.018   4.099   4.660
13292TIP3    H239822   2.999   4.007   4.779
13293TIP3   OH239823   7.118   7.699   3.903
13293TIP3    H139824   7.064   7.740   3.836
13293TIP3    H239825   7.123   7.607   3.878
13294TIP3   OH239826   7.300   7.169   0.849
13294TIP3    H139827   7.235   7.101   0.833
13294TIP3    H239828   7.379   7.121   0.875
13295TIP3   OH239829   7.184   0.088   1.654
13295TIP3    H139830   7.152  -0.002   1.644
13295TIP3    H239831   7.276   0.083   1.629
13296TIP3   OH239832   3.751   7.722   2.440
13296TIP3    H139833   3.672   7.672   2.460
13296TIP3    H239834   3.822   7.671   2.479
13297TIP3   OH239835   7.894   4.103   4.559
13297TIP3    H139836   7.809   4.137   4.533
13297TIP3    H239837   7.946   4.102   4.478
13298TIP3   OH239838   4.489   5.767   3.728
13298TIP3    H139839   4.567   5.822   3.741
13298TIP3    H239840   4.524   5.683   3.697
13299TIP3   OH239841   8.283   1.970   2.516
13299TIP3    H139842   8.337   1.892   2.534
13299TIP3    H239843   8.234   1.984   2.597
13300TIP3   OH239844   6.783   7.010   0.364
13300TIP3    H139845   6.710   7.002   0.425
13300TIP3    H239846   6.809   6.919   0.346
13301TIP3   OH239847   0.620   7.783   4.073
13301TIP3    H139848   0.557   7.828   4.017
13301TIP3    H239849   0.614   7.691   4.048
13302TIP3   OH239850   4.714   5.828   2.147
13302TIP3    H139851   4.726   5.733   2.150
13302TIP3    H239852   4.646   5.846   2.213
13303TIP3   OH239853   2.106   6.385   1.235
13303TIP3    H139854   2.129   6.293   1.223
13303TIP3    H239855   2.040   6.402   1.168
13304TIP3   OH239856   1.225   4.721   0.148
13304TIP3    H139857   1.265   4.657   0.089
13304TIP3    H239858   1.169   4.774   0.091
13305TIP3   OH239859   4.042   1.002   2.642
13305TIP3    H139860   3.986   0.928   2.667
13305TIP3    H239861   4.030   1.065   2.713
13306TIP3   OH239862   5.692   4.788   0.863
13306TIP3    H139863   5.723   4.697   0.861
13306TIP3    H239864   5.632   4.791   0.938
13307TIP3   OH239865   2.480   4.999   1.389
13307TIP3    H139866   2.456   5.062   1.321
13307TIP3    H239867   2.421   5.018   1.461
13308TIP3   OH239868   5.711   6.652   6.066
13308TIP3    H139869   5.621   6.682   6.079
13308TIP3    H239870   5.703   6.558   6.050
13309TIP3   OH239871   6.080   5.376   6.654
13309TIP3    H139872   6.001   5.401   6.702
13309TIP3    H239873   6.145   5.360   6.722
13310TIP3   OH239874   3.654   2.376   3.315
13310TIP3    H139875   3.726   2.438   3.319
13310TIP3    H239876   3.575   2.430   3.315
13311TIP3   OH239877   2.018   0.813   4.583
13311TIP3    H139878   2.026   0.802   4.678
13311TIP3    H239879   2.091   0.870   4.560
13312TIP3   OH239880   7.849   0.313   3.561
13312TIP3    H139881   7.837   0.232   3.611
13312TIP3    H239882   7.764   0.326   3.517
13313TIP3   OH239883   2.696   4.925   5.171
13313TIP3    H139884   2.769   4.863   5.174
13313TIP3    H239885   2.704   4.976   5.252
13314TIP3   OH239886   4.494   1.075   3.341
13314TIP3    H139887   4.532   0.988   3.352
13314TIP3    H239888   4.569   1.133   3.335
13315TIP3   OH239889   3.185   1.638   6.549
13315TIP3    H139890   3.124   1.709   6.569
13315TIP3    H239891   3.129   1.564   6.525
13316TIP3   OH239892   6.123   6.892   2.533
13316TIP3    H139893   6.176   6.928   2.461
13316TIP3    H239894   6.079   6.968   2.570
13317TIP3   OH239895   3.224   3.819   3.476
13317TIP3    H139896   3.142   3.861   3.504
13317TIP3    H239897   3.200   3.729   3.457
13318TIP3   OH239898   4.023   4.018   6.637
13318TIP3    H139899   3.991   3.931   6.614
13318TIP3    H239900   4.118   4.008   6.639
13319TIP3   OH239901   4.154   1.071   4.955
13319TIP3    H139902   4.126   0.994   4.906
13319TIP3    H239903   4.160   1.140   4.889
13320TIP3   OH239904   4.116   1.624   2.243
13320TIP3    H139905   4.211   1.625   2.257
13320TIP3    H239906   4.105   1.580   2.159
13321TIP3   OH239907   6.016   6.806  -0.005
13321TIP3    H139908   5.927   6.841  -0.017
13321TIP3    H239909   6.066   6.880   0.028
13322TIP3   OH239910   6.764   0.403   3.316
13322TIP3    H139911   6.818   0.442   3.384
13322TIP3    H239912   6.739   0.475   3.259
13323TIP3   OH239913   1.318   2.290   1.025
13323TIP3    H139914   1.340   2.197   1.018
13323TIP3    H239915   1.234   2.291   1.070
13324TIP3   OH239916   0.483   0.460   6.773
13324TIP3    H139917   0.464   0.529   6.836
13324TIP3    H239918   0.403   0.450   6.722
13325TIP3   OH239919   5.889   5.028   3.322
13325TIP3    H139920   5.916   5.014   3.413
13325TIP3    H239921   5.844   4.947   3.298
13326TIP3   OH239922   6.404   0.350   3.086
13326TIP3    H139923   6.496   0.340   3.059
13326TIP3    H239924   6.388   0.445   3.080
13327TIP3   OH239925   1.196   1.323   0.639
13327TIP3    H139926   1.277   1.297   0.597
13327TIP3    H239927   1.127   1.276   0.592
13328TIP3   OH239928   2.883   2.183   0.796
13328TIP3    H139929   2.949   2.161   0.861
13328TIP3    H239930   2.806   2.206   0.847
13329TIP3   OH239931   2.290   0.420   5.691
13329TIP3    H139932   2.329   0.422   5.604
13329TIP3    H239933   2.271   0.512   5.711
13330TIP3   OH239934   5.527   4.739   1.918
13330TIP3    H139935   5.501   4.815   1.970
13330TIP3    H239936   5.496   4.663   1.968
13331TIP3   OH239937   4.173   0.032   3.810
13331TIP3    H139938   4.125   0.109   3.780
13331TIP3    H239939   4.260   0.042   3.772
13332TIP3   OH239940   3.884   4.064   6.301
13332TIP3    H139941   3.826   4.037   6.372
13332TIP3    H239942   3.958   4.004   6.307
13333TIP3   OH239943   0.224   7.372   3.988
13333TIP3    H139944   0.184   7.340   3.907
13333TIP3    H239945   0.186   7.459   4.001
13334TIP3   OH239946   3.568   7.455   6.502
13334TIP3    H139947   3.660   7.477   6.488
13334TIP3    H239948   3.541   7.415   6.419
13335TIP3   OH239949   1.154   2.336   3.818
13335TIP3    H139950   1.075   2.301   3.777
13335TIP3    H239951   1.148   2.308   3.909
13336TIP3   OH239952   0.344   2.513   2.960
13336TIP3    H139953   0.427   2.473   2.933
13336TIP3    H239954   0.369   2.593   3.005
13337TIP3   OH239955   0.655   0.494   6.109
13337TIP3    H139956   0.589   0.560   6.132
13337TIP3    H239957   0.610   0.433   6.051
13338TIP3   OH239958   4.007   0.865   2.292
13338TIP3    H139959   3.978   0.954   2.315
13338TIP3    H239960   4.078   0.847   2.354
13339TIP3   OH239961   4.752   3.956   0.561
13339TIP3    H139962   4.701   3.905   0.498
13339TIP3    H239963   4.717   4.045   0.555
13340TIP3   OH239964   3.688   0.767   5.752
13340TIP3    H139965   3.780   0.789   5.766
13340TIP3    H239966   3.651   0.758   5.840
13341TIP3   OH239967   3.698   7.018   3.273
13341TIP3    H139968   3.675   7.073   3.198
13341TIP3    H239969   3.759   6.953   3.236
13342TIP3   OH239970   7.316   7.706   0.642
13342TIP3    H139971   7.266   7.627   0.620
13342TIP3    H239972   7.362   7.728   0.561
13343TIP3   OH239973   5.588   0.249   0.936
13343TIP3    H139974   5.619   0.280   0.852
13343TIP3    H239975   5.668   0.223   0.983
13344TIP3   OH239976   7.963   5.965   0.483
13344TIP3    H139977   7.946   5.895   0.420
13344TIP3    H239978   7.880   5.975   0.530
13345TIP3   OH239979   0.010   2.454   5.004
13345TIP3    H139980  -0.051   2.387   5.036
13345TIP3    H239981   0.088   2.405   4.979
13346TIP3   OH239982   3.927   5.643   5.772
13346TIP3    H139983   3.860   5.698   5.730
13346TIP3    H239984   3.980   5.704   5.823
13347TIP3   OH239985   7.989   3.353   3.110
13347TIP3    H139986   7.981   3.372   3.203
13347TIP3    H239987   7.967   3.260   3.102
13348TIP3   OH239988   4.033   6.009   3.281
13348TIP3    H139989   3.972   5.950   3.237
13348TIP3    H239990   3.978   6.061   3.341
13349TIP3   OH239991   1.054   5.051   1.103
13349TIP3    H139992   1.142   5.019   1.083
13349TIP3    H239993   1.065   5.109   1.178
13350TIP3   OH239994   2.056   5.996   0.909
13350TIP3    H139995   2.135   5.975   0.860
13350TIP3    H239996   2.042   5.921   0.967
13351TIP3   OH239997   4.760   6.463   0.936
13351TIP3    H139998   4.853   6.471   0.915
13351TIP3    H239999   4.756   6.393   1.000
13352TIP3   OH240000   2.702   5.762   1.423
13352TIP3    H140001   2.746   5.706   1.359
13352TIP3    H240002   2.729   5.851   1.401
13353TIP3   OH240003   6.722  -0.007   4.249
13353TIP3    H140004   6.701   0.071   4.199
13353TIP3    H240005   6.817  -0.008   4.254
13354TIP3   OH240006   7.866   5.920   5.523
13354TIP3    H140007   7.778   5.932   5.558
13354TIP3    H240008   7.861   5.954   5.433
13355TIP3   OH240009  -0.021   6.715   2.134
13355TIP3    H140010  -0.053   6.631   2.166
13355TIP3    H240011   0.029   6.751   2.207
13356TIP3   OH240012   6.149   2.650   3.522
13356TIP3    H140013   6.238   2.623   3.500
13356TIP3    H240014   6.117   2.580   3.578
13357TIP3   OH240015   1.547   1.419   3.022
13357TIP3    H140016   1.601   1.357   2.974
13357TIP3    H240017   1.484   1.364   3.069
13358TIP3   OH240018   6.836   3.876   4.807
13358TIP3    H140019   6.865   3.861   4.717
13358TIP3    H240020   6.742   3.893   4.799
13359TIP3   OH240021   2.459   2.224   4.773
13359TIP3    H140022   2.466   2.295   4.710
13359TIP3    H240023   2.515   2.251   4.846
13360TIP3   OH240024   1.837   3.671   5.490
13360TIP3    H140025   1.845   3.606   5.559
13360TIP3    H240026   1.757   3.646   5.443
13361TIP3   OH240027   3.898   1.692   3.901
13361TIP3    H140028   3.892   1.605   3.940
13361TIP3    H240029   3.824   1.696   3.840
13362TIP3   OH240030   6.051   2.622   1.611
13362TIP3    H140031   5.976   2.617   1.551
13362TIP3    H240032   6.053   2.536   1.653
13363TIP3   OH240033   7.177   3.199   0.801
13363TIP3    H140034   7.141   3.259   0.866
13363TIP3    H240035   7.111   3.130   0.793
13364TIP3   OH240036   5.843   0.624   1.156
13364TIP3    H140037   5.859   0.707   1.200
13364TIP3    H240038   5.898   0.627   1.078
13365TIP3   OH240039   0.153   3.362   3.022
13365TIP3    H140040   0.229   3.329   2.975
13365TIP3    H240041   0.156   3.457   3.009
13366TIP3   OH240042   7.296   7.709   2.698
13366TIP3    H140043   7.352   7.712   2.775
13366TIP3    H240044   7.252   7.794   2.696
13367TIP3   OH240045   1.028   1.524   2.839
13367TIP3    H140046   1.060   1.615   2.833
13367TIP3    H240047   1.080   1.485   2.910
13368TIP3   OH240048   0.932   2.384   4.987
13368TIP3    H140049   0.932   2.292   4.959
13368TIP3    H240050   1.001   2.388   5.054
13369TIP3   OH240051   1.395   4.278   4.471
13369TIP3    H140052   1.315   4.225   4.466
13369TIP3    H240053   1.466   4.215   4.459
13370TIP3   OH240054   2.009   2.497   0.080
13370TIP3    H140055   1.964   2.545   0.011
13370TIP3    H240056   2.013   2.559   0.153
13371TIP3   OH240057   7.762   4.182   0.706
13371TIP3    H140058   7.762   4.254   0.769
13371TIP3    H240059   7.746   4.104   0.759
13372TIP3   OH240060   4.763   3.442   3.734
13372TIP3    H140061   4.851   3.470   3.758
13372TIP3    H240062   4.705   3.503   3.779
13373TIP3   OH240063   8.245   0.147   6.406
13373TIP3    H140064   8.258   0.189   6.322
13373TIP3    H240065   8.325   0.095   6.419
13374TIP3   OH240066   2.317   0.134   5.055
13374TIP3    H140067   2.283   0.212   5.011
13374TIP3    H240068   2.400   0.115   5.009
13375TIP3   OH240069   1.883   1.787   0.062
13375TIP3    H140070   1.908   1.846  -0.009
13375TIP3    H240071   1.790   1.803   0.076
13376TIP3   OH240072   3.537   1.694   1.745
13376TIP3    H140073   3.476   1.717   1.674
13376TIP3    H240074   3.528   1.599   1.754
13377TIP3   OH240075   1.772   3.068   1.759
13377TIP3    H140076   1.742   3.004   1.824
13377TIP3    H240077   1.857   3.034   1.729
13378TIP3   OH240078   3.405   4.744   5.459
13378TIP3    H140079   3.358   4.670   5.420
13378TIP3    H240080   3.478   4.704   5.506
13379TIP3   OH240081   2.173   5.844   4.645
13379TIP3    H140082   2.238   5.782   4.611
13379TIP3    H240083   2.197   5.856   4.736
13380TIP3   OH240084   3.617   3.279   4.003
13380TIP3    H140085   3.601   3.311   4.092
13380TIP3    H240086   3.609   3.357   3.948
13381TIP3   OH240087   0.090   2.339   1.348
13381TIP3    H140088   0.013   2.392   1.328
13381TIP3    H240089   0.118   2.304   1.264
13382TIP3   OH240090   1.896   4.691   0.522
13382TIP3    H140091   1.817   4.705   0.470
13382TIP3    H240092   1.909   4.596   0.521
13383TIP3   OH240093   2.943   3.634   5.275
13383TIP3    H140094   2.850   3.629   5.299
13383TIP3    H240095   2.954   3.566   5.209
13384TIP3   OH240096   3.848   6.174   4.976
13384TIP3    H140097   3.856   6.209   5.065
13384TIP3    H240098   3.933   6.135   4.957
13385TIP3   OH240099   0.864   3.803   1.481
13385TIP3    H140100   0.871   3.863   1.406
13385TIP3    H240101   0.860   3.716   1.442
13386TIP3   OH240102   5.182   6.040   2.656
13386TIP3    H140103   5.157   5.971   2.718
13386TIP3    H240104   5.188   5.997   2.572
13387TIP3   OH240105   0.968   0.091   6.408
13387TIP3    H140106   0.889   0.048   6.376
13387TIP3    H240107   0.972   0.173   6.359
13388TIP3   OH240108   1.027   1.025   5.605
13388TIP3    H140109   1.026   1.056   5.696
13388TIP3    H240110   1.066   0.938   5.611
13389TIP3   OH240111   0.433   2.180   5.110
13389TIP3    H140112   0.485   2.101   5.097
13389TIP3    H240113   0.480   2.248   5.060
13390TIP3   OH240114   1.842   2.404   3.732
13390TIP3    H140115   1.792   2.481   3.707
13390TIP3    H240116   1.777   2.346   3.773
13391TIP3   OH240117   3.848   0.333   1.931
13391TIP3    H140118   3.855   0.297   2.019
13391TIP3    H240119   3.887   0.420   1.937
13392TIP3   OH240120   4.444   4.609   5.088
13392TIP3    H140121   4.400   4.694   5.095
13392TIP3    H240122   4.506   4.620   5.016
13393TIP3   OH240123   0.333   6.425   6.399
13393TIP3    H140124   0.406   6.362   6.403
13393TIP3    H240125   0.353   6.489   6.468
13394TIP3   OH240126   4.517   1.370   5.763
13394TIP3    H140127   4.579   1.334   5.826
13394TIP3    H240128   4.540   1.462   5.755
13395TIP3   OH240129   1.425   0.464   1.182
13395TIP3    H140130   1.508   0.436   1.144
13395TIP3    H240131   1.417   0.556   1.160
13396TIP3   OH240132   7.233   4.494   0.687
13396TIP3    H140133   7.163   4.460   0.631
13396TIP3    H240134   7.203   4.581   0.713
13397TIP3   OH240135   5.804   0.172   2.144
13397TIP3    H140136   5.856   0.244   2.180
13397TIP3    H240137   5.713   0.200   2.156
13398TIP3   OH240138   1.516   6.952   1.559
13398TIP3    H140139   1.569   7.026   1.588
13398TIP3    H240140   1.506   6.965   1.465
13399TIP3   OH240141   6.684   0.355   2.878
13399TIP3    H140142   6.769   0.388   2.907
13399TIP3    H240143   6.701   0.263   2.854
13400TIP3   OH240144   6.043   4.388   2.749
13400TIP3    H140145   6.036   4.305   2.702
13400TIP3    H240146   6.101   4.369   2.823
13401TIP3   OH240147   7.576   2.461   2.386
13401TIP3    H140148   7.482   2.469   2.399
13401TIP3    H240149   7.615   2.517   2.453
13402TIP3   OH240150   0.935   6.020   2.031
13402TIP3    H140151   0.968   6.027   1.941
13402TIP3    H240152   0.860   5.960   2.024
13403TIP3   OH240153   8.189   1.184   2.714
13403TIP3    H140154   8.280   1.212   2.726
13403TIP3    H240155   8.193   1.121   2.642
13404TIP3   OH240156   3.601   5.758   4.166
13404TIP3    H140157   3.587   5.714   4.082
13404TIP3    H240158   3.646   5.694   4.221
13405TIP3   OH240159   7.494   7.523   6.681
13405TIP3    H140160   7.435   7.535   6.607
13405TIP3    H240161   7.536   7.439   6.664
13406TIP3   OH240162   3.925   6.424   2.070
13406TIP3    H140163   3.922   6.329   2.058
13406TIP3    H240164   3.880   6.458   1.993
13407TIP3   OH240165   6.372   1.640   1.221
13407TIP3    H140166   6.450   1.622   1.169
13407TIP3    H240167   6.300   1.641   1.158
13408TIP3   OH240168   3.322   6.215   2.380
13408TIP3    H140169   3.345   6.303   2.352
13408TIP3    H240170   3.237   6.198   2.339
13409TIP3   OH240171   2.920   4.999   2.069
13409TIP3    H140172   2.983   5.064   2.039
13409TIP3    H240173   2.971   4.918   2.075
13410TIP3   OH240174   7.922   0.796   5.528
13410TIP3    H140175   7.887   0.883   5.548
13410TIP3    H240176   7.897   0.781   5.437
13411TIP3   OH240177   6.102   1.097   0.584
13411TIP3    H140178   6.086   1.192   0.590
13411TIP3    H240179   6.014   1.059   0.580
13412TIP3   OH240180   4.950   5.207   2.533
13412TIP3    H140181   4.928   5.218   2.440
13412TIP3    H240182   5.043   5.188   2.534
13413TIP3   OH240183   4.380   3.184   1.757
13413TIP3    H140184   4.368   3.261   1.701
13413TIP3    H240185   4.325   3.117   1.718
13414TIP3   OH240186   2.877   5.306   2.149
13414TIP3    H140187   2.915   5.355   2.076
13414TIP3    H240188   2.949   5.251   2.180
13415TIP3   OH240189   4.417   2.222   3.180
13415TIP3    H140190   4.449   2.133   3.164
13415TIP3    H240191   4.466   2.252   3.257
13416TIP3   OH240192   6.662   0.905   3.220
13416TIP3    H140193   6.714   0.948   3.152
13416TIP3    H240194   6.577   0.950   3.218
13417TIP3   OH240195   6.649   3.857   4.054
13417TIP3    H140196   6.577   3.871   3.992
13417TIP3    H240197   6.614   3.794   4.117
13418TIP3   OH240198   4.058   1.360   3.282
13418TIP3    H140199   4.006   1.285   3.253
13418TIP3    H240200   4.032   1.431   3.222
13419TIP3   OH240201   6.141   6.097   6.475
13419TIP3    H140202   6.103   6.010   6.469
13419TIP3    H240203   6.225   6.084   6.518
13420TIP3   OH240204   1.771   7.432   2.421
13420TIP3    H140205   1.848   7.374   2.427
13420TIP3    H240206   1.696   7.373   2.432
13421TIP3   OH240207   6.402   1.367   2.092
13421TIP3    H140208   6.446   1.451   2.077
13421TIP3    H240209   6.312   1.382   2.060
13422TIP3   OH240210   3.557   6.958   0.647
13422TIP3    H140211   3.586   6.915   0.566
13422TIP3    H240212   3.531   6.886   0.704
13423TIP3   OH240213   6.713   6.786   5.941
13423TIP3    H140214   6.625   6.747   5.946
13423TIP3    H240215   6.758   6.754   6.019
13424TIP3   OH240216   6.540   2.621   4.781
13424TIP3    H140217   6.618   2.641   4.833
13424TIP3    H240218   6.536   2.690   4.715
13425TIP3   OH240219   2.430   3.232   1.993
13425TIP3    H140220   2.351   3.189   2.026
13425TIP3    H240221   2.461   3.284   2.067
13426TIP3   OH240222   0.223   3.769   5.869
13426TIP3    H140223   0.194   3.860   5.878
13426TIP3    H240224   0.318   3.774   5.869
13427TIP3   OH240225   0.923   2.364   4.593
13427TIP3    H140226   0.859   2.322   4.651
13427TIP3    H240227   0.990   2.297   4.578
13428TIP3   OH240228   2.724   3.234   6.662
13428TIP3    H140229   2.632   3.252   6.682
13428TIP3    H240230   2.754   3.313   6.618
13429TIP3   OH240231   1.941   4.559   3.071
13429TIP3    H140232   1.925   4.494   3.139
13429TIP3    H240233   1.935   4.643   3.117
13430TIP3   OH240234   6.766   2.386   6.055
13430TIP3    H140235   6.819   2.417   6.128
13430TIP3    H240236   6.824   2.388   5.979
13431TIP3   OH240237   0.849   7.079   0.976
13431TIP3    H140238   0.892   7.093   0.891
13431TIP3    H240239   0.894   7.140   1.035
13432TIP3   OH240240   3.402   5.935   4.635
13432TIP3    H140241   3.418   5.916   4.728
13432TIP3    H240242   3.380   6.028   4.633
13433TIP3   OH240243   1.110   6.454   1.207
13433TIP3    H140244   1.092   6.364   1.180
13433TIP3    H240245   1.072   6.460   1.295
13434TIP3   OH240246   6.694   2.829   2.808
13434TIP3    H140247   6.622   2.891   2.819
13434TIP3    H240248   6.663   2.768   2.742
13435TIP3   OH240249   7.736   7.448   5.412
13435TIP3    H140250   7.677   7.517   5.381
13435TIP3    H240251   7.755   7.471   5.502
13436TIP3   OH240252   7.030   1.417   1.462
13436TIP3    H140253   7.028   1.360   1.385
13436TIP3    H240254   7.027   1.506   1.426
13437TIP3   OH240255   1.292   1.750   4.140
13437TIP3    H140256   1.312   1.799   4.220
13437TIP3    H240257   1.374   1.704   4.120
13438TIP3   OH240258   6.258   4.344   6.677
13438TIP3    H140259   6.206   4.264   6.679
13438TIP3    H240260   6.257   4.375   6.768
13439TIP3   OH240261   0.417   7.752   3.379
13439TIP3    H140262   0.358   7.802   3.437
13439TIP3    H240263   0.362   7.730   3.303
13440TIP3   OH240264   7.329   6.999   5.800
13440TIP3    H140265   7.368   7.031   5.718
13440TIP3    H240266   7.363   7.058   5.867
13441TIP3   OH240267   3.843   7.071   5.527
13441TIP3    H140268   3.904   7.065   5.601
13441TIP3    H240269   3.833   6.981   5.496
13442TIP3   OH240270   6.141   4.537   2.529
13442TIP3    H140271   6.099   4.501   2.606
13442TIP3    H240272   6.232   4.552   2.555
13443TIP3   OH240273   8.145   4.072   0.831
13443TIP3    H140274   8.051   4.073   0.849
13443TIP3    H240275   8.151   4.042   0.740
13444TIP3   OH240276   7.626   1.253   4.295
13444TIP3    H140277   7.609   1.304   4.374
13444TIP3    H240278   7.539   1.227   4.264
13445TIP3   OH240279   7.221   1.020   6.671
13445TIP3    H140280   7.256   1.016   6.760
13445TIP3    H240281   7.126   1.018   6.683
13446TIP3   OH240282   7.884   5.015   5.506
13446TIP3    H140283   7.834   5.090   5.473
13446TIP3    H240284   7.915   4.969   5.428
13447TIP3   OH240285   3.630   1.850   0.276
13447TIP3    H140286   3.682   1.780   0.316
13447TIP3    H240287   3.591   1.809   0.199
13448TIP3   OH240288   3.325   7.445   1.205
13448TIP3    H140289   3.364   7.442   1.292
13448TIP3    H240290   3.237   7.410   1.217
13449TIP3   OH240291   8.066   0.626   1.923
13449TIP3    H140292   8.121   0.666   1.990
13449TIP3    H240293   7.976   0.637   1.955
13450TIP3   OH240294   5.367   0.288   0.273
13450TIP3    H140295   5.402   0.223   0.212
13450TIP3    H240296   5.318   0.349   0.218
13451TIP3   OH240297   5.507   7.740   2.483
13451TIP3    H140298   5.479   7.668   2.426
13451TIP3    H240299   5.574   7.785   2.432
13452TIP3   OH240300   0.597   5.425   3.462
13452TIP3    H140301   0.686   5.458   3.453
13452TIP3    H240302   0.581   5.421   3.556
13453TIP3   OH240303   5.082   7.745   0.379
13453TIP3    H140304   5.143   7.780   0.444
13453TIP3    H240305   5.084   7.650   0.393
13454TIP3   OH240306   8.298   0.800   2.967
13454TIP3    H140307   8.347   0.729   3.008
13454TIP3    H240308   8.276   0.860   3.039
13455TIP3   OH240309   2.635   2.299   6.036
13455TIP3    H140310   2.655   2.259   5.951
13455TIP3    H240311   2.580   2.375   6.014
13456TIP3   OH240312   2.502   1.379   0.843
13456TIP3    H140313   2.448   1.303   0.820
13456TIP3    H240314   2.463   1.452   0.794
13457TIP3   OH240315   0.047   5.712   4.501
13457TIP3    H140316   0.071   5.648   4.433
13457TIP3    H240317   0.054   5.663   4.583
13458TIP3   OH240318   1.993   1.684   5.267
13458TIP3    H140319   2.045   1.682   5.348
13458TIP3    H240320   2.004   1.773   5.234
13459TIP3   OH240321   0.713   2.503   0.643
13459TIP3    H140322   0.744   2.475   0.557
13459TIP3    H240323   0.791   2.536   0.687
13460TIP3   OH240324   5.739   1.684   4.596
13460TIP3    H140325   5.831   1.664   4.615
13460TIP3    H240326   5.740   1.774   4.563
13461TIP3   OH240327   3.288   2.611   5.032
13461TIP3    H140328   3.294   2.592   5.126
13461TIP3    H240329   3.378   2.615   5.002
13462TIP3   OH240330   6.338   2.412   2.217
13462TIP3    H140331   6.327   2.470   2.142
13462TIP3    H240332   6.255   2.415   2.263
13463TIP3   OH240333   3.828   1.070   5.662
13463TIP3    H140334   3.861   1.082   5.573
13463TIP3    H240335   3.828   0.975   5.675
13464TIP3   OH240336   6.260   5.906   3.839
13464TIP3    H140337   6.269   5.864   3.754
13464TIP3    H240338   6.215   5.989   3.820
13465TIP3   OH240339   4.183   3.916   3.035
13465TIP3    H140340   4.234   3.996   3.049
13465TIP3    H240341   4.243   3.858   2.987
13466TIP3   OH240342   5.296   2.003   1.649
13466TIP3    H140343   5.312   1.917   1.610
13466TIP3    H240344   5.359   2.060   1.607
13467TIP3   OH240345   1.855   3.026   2.073
13467TIP3    H140346   1.879   3.103   2.022
13467TIP3    H240347   1.826   3.060   2.157
13468TIP3   OH240348   2.416   1.159   5.318
13468TIP3    H140349   2.390   1.242   5.278
13468TIP3    H240350   2.334   1.124   5.355
13469TIP3   OH240351   8.160   4.559   2.017
13469TIP3    H140352   8.129   4.636   2.066
13469TIP3    H240353   8.082   4.505   2.007
13470TIP3   OH240354   6.939   0.651   5.748
13470TIP3    H140355   6.886   0.665   5.670
13470TIP3    H240356   7.030   0.660   5.717
13471TIP3   OH240357   0.076   2.670   0.509
13471TIP3    H140358   0.151   2.683   0.452
13471TIP3    H240359   0.063   2.755   0.550
13472TIP3   OH240360   3.639   3.442   2.388
13472TIP3    H140361   3.596   3.380   2.447
13472TIP3    H240362   3.569   3.472   2.330
13473TIP3   OH240363   7.472   6.097   3.970
13473TIP3    H140364   7.498   6.016   4.013
13473TIP3    H240365   7.552   6.127   3.926
13474TIP3   OH240366   3.536   1.511   5.258
13474TIP3    H140367   3.479   1.536   5.331
13474TIP3    H240368   3.521   1.579   5.192
13475TIP3   OH240369   0.320   6.214   0.223
13475TIP3    H140370   0.317   6.131   0.175
13475TIP3    H240371   0.400   6.209   0.276
13476TIP3   OH240372   1.824   0.720   5.200
13476TIP3    H140373   1.900   0.765   5.163
13476TIP3    H240374   1.798   0.658   5.132
13477TIP3   OH240375   8.199   6.586   3.829
13477TIP3    H140376   8.269   6.522   3.811
13477TIP3    H240377   8.220   6.620   3.916
13478TIP3   OH240378   2.923   0.271   4.654
13478TIP3    H140379   2.934   0.362   4.682
13478TIP3    H240380   2.999   0.254   4.597
13479TIP3   OH240381   4.064   4.636   4.029
13479TIP3    H140382   4.110   4.565   4.074
13479TIP3    H240383   4.098   4.633   3.939
13480TIP3   OH240384   8.211   5.015   3.230
13480TIP3    H140385   8.118   5.029   3.245
13480TIP3    H240386   8.216   4.979   3.142
13481TIP3   OH240387   6.061   3.702   1.617
13481TIP3    H140388   6.125   3.643   1.576
13481TIP3    H240389   5.977   3.678   1.578
13482TIP3   OH240390   7.773   6.304   6.235
13482TIP3    H140391   7.866   6.283   6.238
13482TIP3    H240392   7.742   6.267   6.152
13483TIP3   OH240393   5.725   1.717   5.556
13483TIP3    H140394   5.656   1.680   5.611
13483TIP3    H240395   5.692   1.706   5.466
13484TIP3   OH240396   0.633   5.178   4.949
13484TIP3    H140397   0.545   5.167   4.913
13484TIP3    H240398   0.620   5.185   5.043
13485TIP3   OH240399   0.114   4.033   5.876
13485TIP3    H140400   0.136   4.120   5.841
13485TIP3    H240401   0.018   4.032   5.878
13486TIP3   OH240402   3.013   6.877   5.537
13486TIP3    H140403   3.107   6.891   5.527
13486TIP3    H240404   3.001   6.783   5.519
13487TIP3   OH240405   6.188   4.124   2.032
13487TIP3    H140406   6.162   4.038   2.000
13487TIP3    H240407   6.114   4.153   2.086
13488TIP3   OH240408   4.570   1.178   6.590
13488TIP3    H140409   4.616   1.261   6.576
13488TIP3    H240410   4.581   1.160   6.683
13489TIP3   OH240411   1.405   0.763   5.563
13489TIP3    H140412   1.379   0.673   5.544
13489TIP3    H240413   1.500   0.764   5.550
13490TIP3   OH240414   1.836   1.372   5.194
13490TIP3    H140415   1.779   1.342   5.123
13490TIP3    H240416   1.784   1.357   5.273
13491TIP3   OH240417   4.782   3.388   5.980
13491TIP3    H140418   4.822   3.384   5.893
13491TIP3    H240419   4.838   3.332   6.034
13492TIP3   OH240420   7.002   4.357   2.951
13492TIP3    H140421   7.045   4.378   3.034
13492TIP3    H240422   6.981   4.264   2.956
13493TIP3   OH240423   5.602   0.242   6.062
13493TIP3    H140424   5.603   0.245   5.966
13493TIP3    H240425   5.569   0.327   6.089
13494TIP3   OH240426   0.824   4.928   1.014
13494TIP3    H140427   0.741   4.971   0.997
13494TIP3    H240428   0.884   4.999   1.037
13495TIP3   OH240429   2.939   1.583   1.722
13495TIP3    H140430   2.886   1.663   1.720
13495TIP3    H240431   2.986   1.583   1.639
13496TIP3   OH240432   1.664   4.162   4.994
13496TIP3    H140433   1.667   4.158   4.899
13496TIP3    H240434   1.742   4.211   5.019
13497TIP3   OH240435   2.140   7.389   6.281
13497TIP3    H140436   2.076   7.353   6.344
13497TIP3    H240437   2.195   7.447   6.333
13498TIP3   OH240438   1.535   4.949   0.970
13498TIP3    H140439   1.555   5.041   0.987
13498TIP3    H240440   1.525   4.944   0.875
13499TIP3   OH240441   0.947   5.670   3.864
13499TIP3    H140442   0.964   5.577   3.878
13499TIP3    H240443   0.869   5.688   3.916
13500TIP3   OH240444   7.706   1.515   3.549
13500TIP3    H140445   7.718   1.541   3.640
13500TIP3    H240446   7.786   1.544   3.505
13501TIP3   OH240447   4.431   1.781   0.418
13501TIP3    H140448   4.508   1.819   0.376
13501TIP3    H240449   4.466   1.725   0.487
13502TIP3   OH240450   6.537   4.084   3.510
13502TIP3    H140451   6.533   4.096   3.416
13502TIP3    H240452   6.631   4.081   3.530
13503TIP3   OH240453   4.049   4.640   3.535
13503TIP3    H140454   4.070   4.640   3.441
13503TIP3    H240455   4.016   4.728   3.552
13504TIP3   OH240456   2.347   1.422   5.221
13504TIP3    H140457   2.400   1.469   5.156
13504TIP3    H240458   2.261   1.412   5.179
13505TIP3   OH240459   3.133   6.793   0.430
13505TIP3    H140460   3.194   6.722   0.410
13505TIP3    H240461   3.190   6.869   0.445
13506TIP3   OH240462   1.911   5.963   3.878
13506TIP3    H140463   1.881   6.020   3.948
13506TIP3    H240464   1.998   5.933   3.906
13507TIP3   OH240465   5.391   7.043   3.937
13507TIP3    H140466   5.397   6.948   3.927
13507TIP3    H240467   5.347   7.073   3.857
13508TIP3   OH240468   0.714   1.696   5.007
13508TIP3    H140469   0.655   1.638   4.959
13508TIP3    H240470   0.731   1.650   5.090
13509TIP3   OH240471   5.398   3.314   0.622
13509TIP3    H140472   5.340   3.330   0.696
13509TIP3    H240473   5.361   3.238   0.578
13510TIP3   OH240474   2.318   2.032   2.338
13510TIP3    H140475   2.274   2.111   2.305
13510TIP3    H240476   2.247   1.978   2.373
13511TIP3   OH240477   3.194   5.655   3.496
13511TIP3    H140478   3.200   5.560   3.487
13511TIP3    H240479   3.126   5.681   3.435
13512TIP3   OH240480   0.266   3.884   3.420
13512TIP3    H140481   0.239   3.842   3.338
13512TIP3    H240482   0.337   3.828   3.453
13513TIP3   OH240483   6.244   3.205   5.337
13513TIP3    H140484   6.316   3.267   5.341
13513TIP3    H240485   6.197   3.228   5.256
13514TIP3   OH240486   0.599   2.764   0.033
13514TIP3    H140487   0.532   2.731  -0.027
13514TIP3    H240488   0.589   2.711   0.112
13515TIP3   OH240489   8.279   4.866   2.306
13515TIP3    H140490   8.277   4.850   2.211
13515TIP3    H240491   8.261   4.781   2.345
13516TIP3   OH240492   6.126   3.878   5.178
13516TIP3    H140493   6.208   3.841   5.209
13516TIP3    H240494   6.063   3.860   5.248
13517TIP3   OH240495   5.594   6.189   1.878
13517TIP3    H140496   5.540   6.172   1.800
13517TIP3    H240497   5.561   6.272   1.912
13518TIP3   OH240498   0.416   2.643   5.707
13518TIP3    H140499   0.331   2.624   5.747
13518TIP3    H240500   0.406   2.616   5.616
13519TIP3   OH240501   2.520   0.828   1.436
13519TIP3    H140502   2.456   0.815   1.506
13519TIP3    H240503   2.507   0.918   1.407
13520TIP3   OH240504   7.965   7.786   2.097
13520TIP3    H140505   7.960   7.728   2.021
13520TIP3    H240506   7.911   7.862   2.072
13521TIP3   OH240507   6.018   4.722   3.295
13521TIP3    H140508   6.110   4.748   3.299
13521TIP3    H240509   5.988   4.754   3.210
13522TIP3   OH240510   0.516   6.766   1.676
13522TIP3    H140511   0.477   6.839   1.628
13522TIP3    H240512   0.502   6.787   1.768
13523TIP3   OH240513   7.037   7.385   3.413
13523TIP3    H140514   7.102   7.452   3.392
13523TIP3    H240515   7.088   7.313   3.451
13524TIP3   OH240516   8.155   3.381   1.837
13524TIP3    H140517   8.107   3.464   1.829
13524TIP3    H240518   8.180   3.359   1.747
13525TIP3   OH240519   2.106   0.211   5.606
13525TIP3    H140520   2.036   0.216   5.540
13525TIP3    H240521   2.158   0.290   5.591
13526TIP3   OH240522   8.027   5.862   0.783
13526TIP3    H140523   7.988   5.949   0.790
13526TIP3    H240524   8.120   5.875   0.802
13527TIP3   OH240525   0.379   5.473   2.500
13527TIP3    H140526   0.392   5.524   2.420
13527TIP3    H240527   0.468   5.446   2.525
13528TIP3   OH240528   7.032   4.006   5.255
13528TIP3    H140529   7.123   3.989   5.232
13528TIP3    H240530   7.025   4.101   5.262
13529TIP3   OH240531   2.938   1.870   2.321
13529TIP3    H140532   2.884   1.949   2.331
13529TIP3    H240533   2.978   1.857   2.407
13530TIP3   OH240534   5.605   3.406   2.718
13530TIP3    H140535   5.532   3.394   2.778
13530TIP3    H240536   5.634   3.496   2.732
13531TIP3   OH240537   1.463   0.993   4.292
13531TIP3    H140538   1.432   0.971   4.380
13531TIP3    H240539   1.537   1.052   4.307
13532TIP3   OH240540   7.793   2.650   1.461
13532TIP3    H140541   7.779   2.722   1.400
13532TIP3    H240542   7.799   2.572   1.406
13533TIP3   OH240543   3.072   0.736   2.630
13533TIP3    H140544   3.049   0.696   2.714
13533TIP3    H240545   3.109   0.665   2.578
13534TIP3   OH240546   2.378   5.618   5.351
13534TIP3    H140547   2.326   5.538   5.346
13534TIP3    H240548   2.381   5.640   5.444
13535TIP3   OH240549   2.519   1.150   5.769
13535TIP3    H140550   2.543   1.077   5.826
13535TIP3    H240551   2.429   1.132   5.742
13536TIP3   OH240552   2.902   2.548   4.949
13536TIP3    H140553   2.901   2.457   4.919
13536TIP3    H240554   2.945   2.597   4.879
13537TIP3   OH240555   5.391   1.784   4.926
13537TIP3    H140556   5.435   1.809   5.007
13537TIP3    H240557   5.438   1.706   4.896
13538TIP3   OH240558   5.999   2.006   2.326
13538TIP3    H140559   5.916   2.045   2.354
13538TIP3    H240560   6.010   2.035   2.235
13539TIP3   OH240561   3.375   3.266   4.900
13539TIP3    H140562   3.384   3.199   4.967
13539TIP3    H240563   3.405   3.347   4.943
13540TIP3   OH240564   6.579   3.908   1.898
13540TIP3    H140565   6.573   3.958   1.979
13540TIP3    H240566   6.650   3.846   1.914
13541TIP3   OH240567   7.988   2.843   5.331
13541TIP3    H140568   8.030   2.880   5.253
13541TIP3    H240569   8.039   2.765   5.351
13542TIP3   OH240570   4.557   1.469   2.787
13542TIP3    H140571   4.579   1.486   2.696
13542TIP3    H240572   4.490   1.401   2.784
13543TIP3   OH240573   6.899   3.268   4.351
13543TIP3    H140574   6.940   3.206   4.291
13543TIP3    H240575   6.927   3.240   4.438
13544TIP3   OH240576   7.851   6.345   4.184
13544TIP3    H140577   7.880   6.255   4.204
13544TIP3    H240578   7.870   6.356   4.091
13545TIP3   OH240579   8.047   3.787   3.940
13545TIP3    H140580   8.131   3.818   3.975
13545TIP3    H240581   8.029   3.846   3.867
13546TIP3   OH240582   6.928   5.427   3.438
13546TIP3    H140583   6.858   5.441   3.375
13546TIP3    H240584   6.976   5.510   3.439
13547TIP3   OH240585   0.483   3.225   3.253
13547TIP3    H140586   0.498   3.283   3.179
13547TIP3    H240587   0.570   3.195   3.279
13548TIP3   OH240588   7.381   3.277   4.985
13548TIP3    H140589   7.345   3.216   5.050
13548TIP3    H240590   7.462   3.309   5.024
13549TIP3   OH240591   8.221   5.688   2.672
13549TIP3    H140592   8.125   5.690   2.672
13549TIP3    H240593   8.244   5.600   2.702
13550TIP3   OH240594   4.455   5.630   4.700
13550TIP3    H140595   4.405   5.691   4.645
13550TIP3    H240596   4.535   5.614   4.650
13551TIP3   OH240597   8.235   2.429   3.778
13551TIP3    H140598   8.291   2.375   3.834
13551TIP3    H240599   8.146   2.400   3.799
13552TIP3   OH240600   2.719   3.439   5.499
13552TIP3    H140601   2.787   3.385   5.539
13552TIP3    H240602   2.717   3.518   5.552
13553TIP3   OH240603   0.057   7.155   3.504
13553TIP3    H140604   0.068   7.219   3.435
13553TIP3    H240605   0.104   7.077   3.473
13554TIP3   OH240606   0.821   4.028   4.868
13554TIP3    H140607   0.731   4.043   4.839
13554TIP3    H240608   0.861   4.115   4.872
13555TIP3   OH240609   3.842   0.097   5.566
13555TIP3    H140610   3.747   0.093   5.565
13555TIP3    H240611   3.865   0.137   5.482
13556TIP3   OH240612   1.331   3.947   3.954
13556TIP3    H140613   1.303   4.007   4.023
13556TIP3    H240614   1.314   3.995   3.872
13557TIP3   OH240615   6.330   5.965   1.198
13557TIP3    H140616   6.344   5.976   1.292
13557TIP3    H240617   6.343   6.052   1.161
13558TIP3   OH240618   3.156   1.245   1.986
13558TIP3    H140619   3.065   1.223   2.004
13558TIP3    H240620   3.197   1.252   2.072
13559TIP3   OH240621   4.253   3.478   4.760
13559TIP3    H140622   4.185   3.428   4.805
13559TIP3    H240623   4.209   3.514   4.682
13560TIP3   OH240624   6.872   6.658   1.453
13560TIP3    H140625   6.874   6.580   1.397
13560TIP3    H240626   6.837   6.727   1.396
13561TIP3   OH240627   7.950   1.446   2.115
13561TIP3    H140628   8.014   1.470   2.049
13561TIP3    H240629   7.967   1.505   2.188
13562TIP3   OH240630   1.891   2.064   0.922
13562TIP3    H140631   1.974   2.081   0.878
13562TIP3    H240632   1.888   2.126   0.994
13563TIP3   OH240633   6.453   1.783   2.890
13563TIP3    H140634   6.378   1.731   2.861
13563TIP3    H240635   6.450   1.863   2.838
13564TIP3   OH240636   2.722   5.288   3.281
13564TIP3    H140637   2.631   5.312   3.299
13564TIP3    H240638   2.720   5.193   3.273
13565TIP3   OH240639   1.643   2.876   4.008
13565TIP3    H140640   1.641   2.897   3.915
13565TIP3    H240641   1.578   2.934   4.048
13566TIP3   OH240642   2.639   1.272   5.491
13566TIP3    H140643   2.566   1.327   5.463
13566TIP3    H240644   2.606   1.226   5.568
13567TIP3   OH240645   0.288   0.492   1.323
13567TIP3    H140646   0.314   0.492   1.231
13567TIP3    H240647   0.201   0.532   1.324
13568TIP3   OH240648   6.727   4.567   6.098
13568TIP3    H140649   6.759   4.480   6.073
13568TIP3    H240650   6.662   4.589   6.032
13569TIP3   OH240651   0.400   3.752   0.969
13569TIP3    H140652   0.353   3.829   1.002
13569TIP3    H240653   0.335   3.682   0.970
13570TIP3   OH240654   3.522   4.258   6.394
13570TIP3    H140655   3.481   4.172   6.392
13570TIP3    H240656   3.534   4.282   6.302
13571TIP3   OH240657   0.126   2.905   3.199
13571TIP3    H140658   0.219   2.890   3.187
13571TIP3    H240659   0.093   2.824   3.238
13572TIP3   OH240660   7.788   2.643   6.097
13572TIP3    H140661   7.717   2.693   6.137
13572TIP3    H240662   7.850   2.710   6.068
13573TIP3   OH240663   2.927   1.428   4.600
13573TIP3    H140664   2.919   1.440   4.506
13573TIP3    H240665   2.929   1.516   4.636
13574TIP3   OH240666   4.945   1.512   0.176
13574TIP3    H140667   4.961   1.418   0.170
13574TIP3    H240668   5.030   1.552   0.157
13575TIP3   OH240669   1.233   0.437   5.744
13575TIP3    H140670   1.257   0.491   5.669
13575TIP3    H240671   1.209   0.500   5.812
13576TIP3   OH240672   7.688   1.309   5.506
13576TIP3    H140673   7.665   1.379   5.566
13576TIP3    H240674   7.618   1.245   5.515
13577TIP3   OH240675   4.457   6.864   2.839
13577TIP3    H140676   4.493   6.777   2.824
13577TIP3    H240677   4.466   6.908   2.754
13578TIP3   OH240678   1.644   7.324   2.150
13578TIP3    H140679   1.597   7.403   2.124
13578TIP3    H240680   1.611   7.303   2.237
13579TIP3   OH240681   0.674   3.929   0.964
13579TIP3    H140682   0.653   3.870   0.891
13579TIP3    H240683   0.668   4.017   0.925
13580TIP3   OH240684   1.584   3.805   2.458
13580TIP3    H140685   1.517   3.743   2.487
13580TIP3    H240686   1.571   3.813   2.364
13581TIP3   OH240687   5.074   1.196   5.780
13581TIP3    H140688   5.114   1.111   5.761
13581TIP3    H240689   5.102   1.252   5.708
13582TIP3   OH240690   4.290   2.933   5.825
13582TIP3    H140691   4.205   2.975   5.811
13582TIP3    H240692   4.328   2.925   5.737
13583TIP3   OH240693   1.093   6.972   2.318
13583TIP3    H140694   1.116   6.982   2.225
13583TIP3    H240695   1.123   6.883   2.340
13584TIP3   OH240696   6.762   1.711   1.628
13584TIP3    H140697   6.774   1.620   1.656
13584TIP3    H240698   6.850   1.748   1.629
13585TIP3   OH240699   6.022   4.007   0.669
13585TIP3    H140700   6.105   3.960   0.669
13585TIP3    H240701   5.960   3.944   0.632
13586TIP3   OH240702   2.083   6.980   1.329
13586TIP3    H140703   2.133   7.060   1.342
13586TIP3    H240704   2.089   6.934   1.412
13587TIP3   OH240705   6.535   4.472   0.154
13587TIP3    H140706   6.574   4.417   0.087
13587TIP3    H240707   6.579   4.447   0.235
13588TIP3   OH240708   2.576   3.483   3.347
13588TIP3    H140709   2.526   3.457   3.270
13588TIP3    H240710   2.517   3.469   3.421
13589TIP3   OH240711   7.134   7.435   4.452
13589TIP3    H140712   7.220   7.416   4.491
13589TIP3    H240713   7.072   7.424   4.525
13590TIP3   OH240714   5.239   5.851   1.711
13590TIP3    H140715   5.199   5.765   1.722
13590TIP3    H240716   5.334   5.834   1.712
13591TIP3   OH240717   6.566   3.654   1.520
13591TIP3    H140718   6.512   3.693   1.588
13591TIP3    H240719   6.590   3.728   1.464
13592TIP3   OH240720   1.522   0.858   1.271
13592TIP3    H140721   1.476   0.865   1.188
13592TIP3    H240722   1.467   0.800   1.324
13593TIP3   OH240723   3.933   0.864   4.487
13593TIP3    H140724   3.909   0.939   4.433
13593TIP3    H240725   3.858   0.851   4.545
13594TIP3   OH240726   8.054   1.117   0.126
13594TIP3    H140727   8.109   1.039   0.136
13594TIP3    H240728   7.965   1.084   0.130
13595TIP3   OH240729   1.700   1.748   1.433
13595TIP3    H140730   1.748   1.678   1.389
13595TIP3    H240731   1.760   1.822   1.434
13596TIP3   OH240732   0.470   4.199   1.334
13596TIP3    H140733   0.411   4.256   1.285
13596TIP3    H240734   0.550   4.195   1.282
13597TIP3   OH240735   0.116   6.147   5.807
13597TIP3    H140736   0.044   6.088   5.826
13597TIP3    H240737   0.106   6.168   5.714
13598TIP3   OH240738   7.548   2.681   4.659
13598TIP3    H140739   7.534   2.746   4.728
13598TIP3    H240740   7.489   2.609   4.682
13599TIP3   OH240741   7.188   7.590   2.246
13599TIP3    H140742   7.191   7.685   2.233
13599TIP3    H240743   7.124   7.577   2.316
13600TIP3   OH240744   3.485   3.222   5.958
13600TIP3    H140745   3.539   3.294   5.925
13600TIP3    H240746   3.422   3.263   6.017
13601TIP3   OH240747   2.564   5.431   2.683
13601TIP3    H140748   2.614   5.387   2.614
13601TIP3    H240749   2.586   5.383   2.763
13602TIP3   OH240750   4.085   7.616   0.759
13602TIP3    H140751   4.025   7.547   0.785
13602TIP3    H240752   4.078   7.619   0.663
13603TIP3   OH240753   3.152   3.280   6.347
13603TIP3    H140754   3.092   3.254   6.277
13603TIP3    H240755   3.097   3.287   6.425
13604TIP3   OH240756   6.256   6.774   0.816
13604TIP3    H140757   6.339   6.728   0.830
13604TIP3    H240758   6.264   6.853   0.870
13605TIP3   OH240759   3.904   1.160   5.082
13605TIP3    H140760   3.977   1.101   5.065
13605TIP3    H240761   3.873   1.185   4.995
13606TIP3   OH240762   3.018   7.187   3.244
13606TIP3    H140763   3.012   7.235   3.327
13606TIP3    H240764   2.979   7.246   3.179
13607TIP3   OH240765   5.883   1.010   3.643
13607TIP3    H140766   5.792   1.005   3.671
13607TIP3    H240767   5.933   1.015   3.725
13608TIP3   OH240768   3.017   4.777   6.637
13608TIP3    H140769   3.030   4.856   6.585
13608TIP3    H240770   3.067   4.792   6.717
13609TIP3   OH240771   6.733   6.129   1.126
13609TIP3    H140772   6.697   6.178   1.200
13609TIP3    H240773   6.805   6.078   1.164
13610TIP3   OH240774   3.561   6.546   1.627
13610TIP3    H140775   3.565   6.462   1.580
13610TIP3    H240776   3.645   6.551   1.673
13611TIP3   OH240777   2.935   4.863   2.888
13611TIP3    H140778   2.893   4.789   2.843
13611TIP3    H240779   2.936   4.933   2.823
13612TIP3   OH240780   7.288   4.545   4.715
13612TIP3    H140781   7.274   4.545   4.809
13612TIP3    H240782   7.362   4.486   4.701
13613TIP3   OH240783   2.447   0.750   6.176
13613TIP3    H140784   2.352   0.747   6.182
13613TIP3    H240785   2.475   0.658   6.181
13614TIP3   OH240786   1.618   7.020   3.306
13614TIP3    H140787   1.696   6.965   3.314
13614TIP3    H240788   1.616   7.070   3.388
13615TIP3   OH240789   5.173   6.933   5.789
13615TIP3    H140790   5.123   7.015   5.789
13615TIP3    H240791   5.152   6.892   5.704
13616TIP3   OH240792   5.097   3.780   4.269
13616TIP3    H140793   5.177   3.804   4.315
13616TIP3    H240794   5.107   3.816   4.181
13617TIP3   OH240795   2.453   1.756   2.869
13617TIP3    H140796   2.480   1.834   2.918
13617TIP3    H240797   2.465   1.780   2.777
13618TIP3   OH240798   3.779   3.158   5.568
13618TIP3    H140799   3.700   3.142   5.517
13618TIP3    H240800   3.760   3.120   5.654
13619TIP3   OH240801   1.987   7.447   1.540
13619TIP3    H140802   2.052   7.414   1.602
13619TIP3    H240803   2.039   7.476   1.465
13620TIP3   OH240804   7.464   4.481   5.330
13620TIP3    H140805   7.406   4.408   5.352
13620TIP3    H240806   7.516   4.449   5.257
13621TIP3   OH240807   7.341   3.365   6.189
13621TIP3    H140808   7.323   3.455   6.215
13621TIP3    H240809   7.420   3.342   6.238
13622TIP3   OH240810   6.768   4.228   0.912
13622TIP3    H140811   6.742   4.141   0.881
13622TIP3    H240812   6.687   4.278   0.916
13623TIP3   OH240813   4.954   2.484   5.579
13623TIP3    H140814   4.865   2.468   5.547
13623TIP3    H240815   4.984   2.560   5.529
13624TIP3   OH240816   2.258   0.603   3.628
13624TIP3    H140817   2.280   0.673   3.566
13624TIP3    H240818   2.342   0.582   3.670
13625TIP3   OH240819   3.910   1.227   1.729
13625TIP3    H140820   3.893   1.315   1.695
13625TIP3    H240821   3.879   1.230   1.820
13626TIP3   OH240822   7.577   7.643   3.560
13626TIP3    H140823   7.608   7.719   3.511
13626TIP3    H240824   7.626   7.569   3.524
13627TIP3   OH240825   6.202   0.924   5.337
13627TIP3    H140826   6.157   0.839   5.330
13627TIP3    H240827   6.279   0.914   5.281
13628TIP3   OH240828   7.390   7.515   1.785
13628TIP3    H140829   7.445   7.492   1.860
13628TIP3    H240830   7.410   7.448   1.719
13629TIP3   OH240831   4.560   7.251   2.631
13629TIP3    H140832   4.495   7.266   2.700
13629TIP3    H240833   4.601   7.336   2.617
13630TIP3   OH240834   1.630   0.549   5.817
13630TIP3    H140835   1.625   0.476   5.755
13630TIP3    H240836   1.714   0.536   5.862
13631TIP3   OH240837   0.139   7.517   5.045
13631TIP3    H140838   0.090   7.590   5.009
13631TIP3    H240839   0.113   7.513   5.137
13632TIP3   OH240840   3.493   1.763   4.041
13632TIP3    H140841   3.428   1.714   4.091
13632TIP3    H240842   3.501   1.846   4.087
13633TIP3   OH240843   4.624   6.970   4.179
13633TIP3    H140844   4.613   7.052   4.227
13633TIP3    H240845   4.635   6.904   4.247
13634TIP3   OH240846   0.859   1.198   3.864
13634TIP3    H140847   0.797   1.132   3.834
13634TIP3    H240848   0.806   1.274   3.886
13635TIP3   OH240849   0.848   0.613   1.417
13635TIP3    H140850   0.842   0.618   1.322
13635TIP3    H240851   0.865   0.521   1.436
13636TIP3   OH240852   7.585   4.647   3.362
13636TIP3    H140853   7.617   4.602   3.440
13636TIP3    H240854   7.603   4.740   3.380
13637TIP3   OH240855   1.982   2.734   1.604
13637TIP3    H140856   1.991   2.731   1.509
13637TIP3    H240857   2.045   2.669   1.636
13638TIP3   OH240858   3.181   4.966   2.289
13638TIP3    H140859   3.275   4.976   2.299
13638TIP3    H240860   3.153   5.047   2.246
13639TIP3   OH240861   4.947   4.696   5.272
13639TIP3    H140862   5.036   4.707   5.306
13639TIP3    H240863   4.902   4.777   5.296
13640TIP3   OH240864   1.191   1.603   0.313
13640TIP3    H140865   1.098   1.589   0.297
13640TIP3    H240866   1.195   1.647   0.398
13641TIP3   OH240867   6.465   6.296   2.658
13641TIP3    H140868   6.459   6.251   2.574
13641TIP3    H240869   6.555   6.328   2.662
13642TIP3   OH240870   7.039   6.258   0.718
13642TIP3    H140871   7.020   6.315   0.644
13642TIP3    H240872   6.964   6.270   0.777
13643TIP3   OH240873   6.540   5.046   0.399
13643TIP3    H140874   6.511   5.072   0.311
13643TIP3    H240875   6.528   5.124   0.453
13644TIP3   OH240876   6.922   3.954   2.177
13644TIP3    H140877   6.918   3.938   2.083
13644TIP3    H240878   6.950   4.045   2.184
13645TIP3   OH240879   6.466   3.401   0.494
13645TIP3    H140880   6.547   3.353   0.478
13645TIP3    H240881   6.485   3.456   0.570
13646TIP3   OH240882   0.054   6.376   1.051
13646TIP3    H140883   0.119   6.341   1.112
13646TIP3    H240884   0.018   6.298   1.008
13647TIP3   OH240885   7.713   0.586   6.005
13647TIP3    H140886   7.691   0.574   5.913
13647TIP3    H240887   7.804   0.557   6.012
13648TIP3   OH240888   4.137   6.861   2.478
13648TIP3    H140889   4.097   6.790   2.428
13648TIP3    H240890   4.135   6.831   2.569
13649TIP3   OH240891   6.714   7.617   0.962
13649TIP3    H140892   6.741   7.632   1.053
13649TIP3    H240893   6.781   7.662   0.910
13650TIP3   OH240894   0.310   2.361   2.398
13650TIP3    H140895   0.243   2.409   2.351
13650TIP3    H240896   0.333   2.417   2.472
13651TIP3   OH240897   2.193   7.727   5.910
13651TIP3    H140898   2.142   7.727   5.990
13651TIP3    H240899   2.184   7.638   5.876
13652TIP3   OH240900   3.818   6.145   2.936
13652TIP3    H140901   3.903   6.141   2.893
13652TIP3    H240902   3.814   6.234   2.972
13653TIP3   OH240903   2.532   4.098   4.752
13653TIP3    H140904   2.445   4.073   4.720
13653TIP3    H240905   2.579   4.128   4.674
13654TIP3   OH240906   7.725   4.919   3.825
13654TIP3    H140907   7.812   4.959   3.820
13654TIP3    H240908   7.670   4.987   3.865
13655TIP3   OH240909   2.046   7.406   4.582
13655TIP3    H140910   2.038   7.500   4.597
13655TIP3    H240911   2.135   7.394   4.549
13656TIP3   OH240912   7.509   5.418   3.478
13656TIP3    H140913   7.478   5.474   3.550
13656TIP3    H240914   7.603   5.434   3.475
13657TIP3   OH240915   6.936   5.473   5.323
13657TIP3    H140916   6.928   5.426   5.240
13657TIP3    H240917   6.971   5.559   5.299
13658TIP3   OH240918   5.653   1.154   1.684
13658TIP3    H140919   5.743   1.136   1.709
13658TIP3    H240920   5.655   1.243   1.649
13659TIP3   OH240921   1.149   7.684   1.227
13659TIP3    H140922   1.213   7.732   1.281
13659TIP3    H240923   1.203   7.626   1.173
13660TIP3   OH240924   2.980   4.063   0.248
13660TIP3    H140925   2.950   4.073   0.157
13660TIP3    H240926   3.000   3.970   0.257
13661TIP3   OH240927   0.024   4.170   1.391
13661TIP3    H140928  -0.051   4.211   1.347
13661TIP3    H240929   0.078   4.244   1.420
13662TIP3   OH240930   6.368   3.598   1.332
13662TIP3    H140931   6.433   3.614   1.400
13662TIP3    H240932   6.355   3.683   1.291
13663TIP3   OH240933   5.283   4.892   3.815
13663TIP3    H140934   5.202   4.879   3.865
13663TIP3    H240935   5.255   4.884   3.723
13664TIP3   OH240936   7.126   7.077   1.527
13664TIP3    H140937   7.161   6.988   1.526
13664TIP3    H240938   7.196   7.132   1.492
13665TIP3   OH240939   5.570   4.087   2.153
13665TIP3    H140940   5.539   4.146   2.222
13665TIP3    H240941   5.617   4.018   2.201
13666TIP3   OH240942   5.536   4.250   4.835
13666TIP3    H140943   5.561   4.196   4.910
13666TIP3    H240944   5.617   4.262   4.785
13667TIP3   OH240945   7.087   1.012   6.024
13667TIP3    H140946   7.098   1.027   5.930
13667TIP3    H240947   7.051   0.924   6.030
13668TIP3   OH240948   7.306   6.224   3.713
13668TIP3    H140949   7.368   6.152   3.716
13668TIP3    H240950   7.233   6.196   3.768
13669TIP3   OH240951   2.450   6.795   5.259
13669TIP3    H140952   2.494   6.744   5.191
13669TIP3    H240953   2.404   6.730   5.312
13670TIP3   OH240954   6.374   2.637   2.856
13670TIP3    H140955   6.329   2.562   2.816
13670TIP3    H240956   6.373   2.704   2.788
13671TIP3   OH240957   0.456   2.555   6.264
13671TIP3    H140958   0.383   2.613   6.245
13671TIP3    H240959   0.531   2.594   6.218
13672TIP3   OH240960   6.567   7.521   0.095
13672TIP3    H140961   6.546   7.564   0.178
13672TIP3    H240962   6.571   7.592   0.031
13673TIP3   OH240963   3.896   1.851   1.877
13673TIP3    H140964   3.855   1.897   1.950
13673TIP3    H240965   3.987   1.883   1.877
13674TIP3   OH240966   6.107   4.604   3.764
13674TIP3    H140967   6.172   4.549   3.809
13674TIP3    H240968   6.057   4.644   3.835
13675TIP3   OH240969   3.770   7.196   1.501
13675TIP3    H140970   3.691   7.224   1.457
13675TIP3    H240971   3.835   7.187   1.431
13676TIP3   OH240972   6.049   3.533   3.096
13676TIP3    H140973   5.998   3.529   3.015
13676TIP3    H240974   5.995   3.582   3.157
13677TIP3   OH240975   2.325   5.917   0.747
13677TIP3    H140976   2.305   5.836   0.699
13677TIP3    H240977   2.338   5.888   0.837
13678TIP3   OH240978   4.722   7.427   6.064
13678TIP3    H140979   4.776   7.406   6.140
13678TIP3    H240980   4.766   7.501   6.023
13679TIP3   OH240981   2.888   6.722   2.570
13679TIP3    H140982   2.962   6.676   2.530
13679TIP3    H240983   2.874   6.676   2.653
13680TIP3   OH240984   3.776   4.816   5.430
13680TIP3    H140985   3.831   4.847   5.358
13680TIP3    H240986   3.709   4.763   5.388
13681TIP3   OH240987   1.999   1.167   1.425
13681TIP3    H140988   2.060   1.096   1.445
13681TIP3    H240989   1.923   1.150   1.481
13682TIP3   OH240990   1.778   6.077   2.616
13682TIP3    H140991   1.721   6.003   2.637
13682TIP3    H240992   1.727   6.130   2.555
13683TIP3   OH240993   3.682   5.218   4.151
13683TIP3    H140994   3.716   5.250   4.234
13683TIP3    H240995   3.621   5.285   4.122
13684TIP3   OH240996   0.990   3.839   3.649
13684TIP3    H140997   0.899   3.843   3.676
13684TIP3    H240998   1.033   3.908   3.700
13685TIP3   OH240999   3.637   4.414   3.820
13685TIP3    H141000   3.604   4.494   3.862
13685TIP3    H241001   3.574   4.395   3.752
13686TIP3   OH241002   6.100   2.102   4.649
13686TIP3    H141003   6.030   2.085   4.712
13686TIP3    H241004   6.127   2.192   4.667
13687TIP3   OH241005   2.753   1.399   1.828
13687TIP3    H141006   2.674   1.415   1.776
13687TIP3    H241007   2.822   1.445   1.781
13688TIP3   OH241008   1.294   5.600   5.774
13688TIP3    H141009   1.375   5.641   5.743
13688TIP3    H241010   1.309   5.506   5.762
13689TIP3   OH241011   4.481   2.843   4.634
13689TIP3    H141012   4.477   2.761   4.682
13689TIP3    H241013   4.389   2.872   4.629
13690TIP3   OH241014   7.788   0.332   0.464
13690TIP3    H141015   7.858   0.299   0.408
13690TIP3    H241016   7.830   0.400   0.518
13691TIP3   OH241017   2.830   2.913   2.691
13691TIP3    H141018   2.921   2.897   2.663
13691TIP3    H241019   2.778   2.890   2.614
13692TIP3   OH241020   0.878   4.979   5.231
13692TIP3    H141021   0.848   4.890   5.211
13692TIP3    H241022   0.863   4.989   5.325
13693TIP3   OH241023   5.329   5.261   6.208
13693TIP3    H141024   5.315   5.289   6.117
13693TIP3    H241025   5.377   5.334   6.248
13694TIP3   OH241026   3.757   2.272   2.593
13694TIP3    H141027   3.782   2.226   2.672
13694TIP3    H241028   3.814   2.349   2.591
13695TIP3   OH241029   8.074   4.499   3.860
13695TIP3    H141030   8.081   4.462   3.947
13695TIP3    H241031   8.125   4.580   3.864
13696TIP3   OH241032   3.560   1.549   4.975
13696TIP3    H141033   3.467   1.570   4.976
13696TIP3    H241034   3.604   1.633   4.971
13697TIP3   OH241035   6.297   5.265   2.695
13697TIP3    H141036   6.267   5.269   2.786
13697TIP3    H241037   6.254   5.187   2.659
13698TIP3   OH241038   6.151   0.352   1.072
13698TIP3    H141039   6.169   0.400   0.992
13698TIP3    H241040   6.210   0.276   1.069
13699TIP3   OH241041   6.990   3.313   2.976
13699TIP3    H141042   6.955   3.317   3.065
13699TIP3    H241043   6.916   3.284   2.922
13700TIP3   OH241044   1.237   4.792   0.881
13700TIP3    H141045   1.307   4.766   0.820
13700TIP3    H241046   1.176   4.718   0.881
13701TIP3   OH241047   4.545   1.104   2.984
13701TIP3    H141048   4.504   1.155   2.914
13701TIP3    H241049   4.500   1.132   3.064
13702TIP3   OH241050   0.483   6.407   2.933
13702TIP3    H141051   0.467   6.482   2.874
13702TIP3    H241052   0.397   6.387   2.970
13703TIP3   OH241053   5.031   3.008   1.870
13703TIP3    H141054   4.973   3.037   1.799
13703TIP3    H241055   5.043   3.086   1.924
13704TIP3   OH241056   3.820   5.971   6.090
13704TIP3    H141057   3.817   6.051   6.143
13704TIP3    H241058   3.839   6.001   6.001
13705TIP3   OH241059   6.047   6.306   3.146
13705TIP3    H141060   6.001   6.286   3.227
13705TIP3    H241061   6.011   6.390   3.117
13706TIP3   OH241062   0.625   0.005   5.189
13706TIP3    H141063   0.623  -0.013   5.095
13706TIP3    H241064   0.674   0.087   5.196
13707TIP3   OH241065   0.828   0.154   1.650
13707TIP3    H141066   0.826   0.059   1.633
13707TIP3    H241067   0.742   0.174   1.686
13708TIP3   OH241068   1.723   0.472   2.031
13708TIP3    H141069   1.686   0.457   1.944
13708TIP3    H241070   1.658   0.437   2.091
13709TIP3   OH241071   0.789   4.131   5.204
13709TIP3    H141072   0.799   4.135   5.299
13709TIP3    H241073   0.868   4.171   5.169
13710TIP3   OH241074   7.599   6.813   6.245
13710TIP3    H141075   7.549   6.748   6.294
13710TIP3    H241076   7.636   6.765   6.171
13711TIP3   OH241077   0.081  -0.005   0.843
13711TIP3    H141078   0.116   0.038   0.765
13711TIP3    H241079   0.156  -0.053   0.879
13712TIP3   OH241080   2.043   5.503   5.777
13712TIP3    H141081   2.112   5.556   5.738
13712TIP3    H241082   2.089   5.446   5.839
13713TIP3   OH241083   1.899   0.854   0.316
13713TIP3    H141084   1.919   0.943   0.343
13713TIP3    H241085   1.931   0.799   0.388
13714TIP3   OH241086   5.505   5.238   5.806
13714TIP3    H141087   5.491   5.146   5.828
13714TIP3    H241088   5.584   5.238   5.752
13715TIP3   OH241089   3.309   7.141   4.196
13715TIP3    H141090   3.403   7.142   4.215
13715TIP3    H241091   3.272   7.202   4.260
13716TIP3   OH241092   6.275   6.351   2.858
13716TIP3    H141093   6.345   6.326   2.798
13716TIP3    H241094   6.201   6.296   2.831
13717TIP3   OH241095   0.284   6.714   2.965
13717TIP3    H141096   0.215   6.665   2.920
13717TIP3    H241097   0.301   6.789   2.908
13718TIP3   OH241098   8.127   5.139   5.736
13718TIP3    H141099   8.170   5.070   5.685
13718TIP3    H241100   8.117   5.211   5.674
13719TIP3   OH241101   1.160   7.069   4.675
13719TIP3    H141102   1.243   7.117   4.678
13719TIP3    H241103   1.184   6.981   4.647
13720TIP3   OH241104   3.546   2.762   0.520
13720TIP3    H141105   3.505   2.840   0.485
13720TIP3    H241106   3.487   2.732   0.589
13721TIP3   OH241107   1.861   4.432   6.624
13721TIP3    H141108   1.878   4.522   6.651
13721TIP3    H241109   1.933   4.411   6.564
13722TIP3   OH241110   6.925   7.263   2.250
13722TIP3    H141111   7.007   7.312   2.260
13722TIP3    H241112   6.878   7.309   2.181
13723TIP3   OH241113   2.344   3.428   0.811
13723TIP3    H141114   2.380   3.454   0.726
13723TIP3    H241115   2.374   3.338   0.823
13724TIP3   OH241116   1.178   1.226   1.330
13724TIP3    H141117   1.214   1.201   1.415
13724TIP3    H241118   1.253   1.256   1.279
13725TIP3   OH241119   7.725   6.910   0.169
13725TIP3    H141120   7.749   6.834   0.116
13725TIP3    H241121   7.807   6.957   0.184
13726TIP3   OH241122   3.001   3.760   4.566
13726TIP3    H141123   2.971   3.783   4.654
13726TIP3    H241124   3.097   3.763   4.572
13727TIP3   OH241125   3.311   0.016   4.353
13727TIP3    H141126   3.383  -0.040   4.325
13727TIP3    H241127   3.347   0.105   4.347
13728TIP3   OH241128   6.783   6.493   0.184
13728TIP3    H141129   6.794   6.448   0.100
13728TIP3    H241130   6.693   6.527   0.181
13729TIP3   OH241131   3.751   0.525   2.482
13729TIP3    H141132   3.742   0.556   2.392
13729TIP3    H241133   3.748   0.430   2.475
13730TIP3   OH241134   0.330   4.032   3.070
13730TIP3    H141135   0.325   4.110   3.014
13730TIP3    H241136   0.410   4.045   3.122
13731TIP3   OH241137   3.434   7.519   6.085
13731TIP3    H141138   3.450   7.492   5.995
13731TIP3    H241139   3.521   7.516   6.127
13732TIP3   OH241140   0.255   5.129   4.078
13732TIP3    H141141   0.323   5.183   4.038
13732TIP3    H241142   0.174   5.179   4.065
13733TIP3   OH241143   7.770   0.614   5.352
13733TIP3    H141144   7.693   0.637   5.404
13733TIP3    H241145   7.763   0.668   5.273
13734TIP3   OH241146   5.193   1.831   3.171
13734TIP3    H141147   5.175   1.850   3.078
13734TIP3    H241148   5.226   1.741   3.171
13735TIP3   OH241149   4.355   7.190   2.433
13735TIP3    H141150   4.315   7.269   2.396
13735TIP3    H241151   4.441   7.220   2.464
13736TIP3   OH241152   2.211   3.124   4.854
13736TIP3    H141153   2.304   3.139   4.835
13736TIP3    H241154   2.186   3.052   4.796
13737TIP3   OH241155   6.018   0.304   0.783
13737TIP3    H141156   6.033   0.262   0.699
13737TIP3    H241157   6.099   0.351   0.801
13738TIP3   OH241158   0.753   0.691   6.754
13738TIP3    H141159   0.664   0.700   6.721
13738TIP3    H241160   0.808   0.685   6.676
13739TIP3   OH241161   5.414   5.468   1.748
13739TIP3    H141162   5.452   5.476   1.661
13739TIP3    H241163   5.472   5.407   1.794
13740TIP3   OH241164   7.800   5.873   6.657
13740TIP3    H141165   7.867   5.921   6.706
13740TIP3    H241166   7.833   5.784   6.653
13741TIP3   OH241167   1.859   1.968   1.466
13741TIP3    H141168   1.938   1.955   1.519
13741TIP3    H241169   1.813   2.039   1.510
13742TIP3   OH241170   0.631   3.272   5.157
13742TIP3    H141171   0.552   3.256   5.207
13742TIP3    H241172   0.600   3.300   5.071
13743TIP3   OH241173   7.171   3.802   4.708
13743TIP3    H141174   7.172   3.740   4.635
13743TIP3    H241175   7.096   3.859   4.690
13744TIP3   OH241176   4.144   5.795   5.881
13744TIP3    H141177   4.239   5.808   5.877
13744TIP3    H241178   4.112   5.872   5.929
13745TIP3   OH241179   4.730   7.203   4.950
13745TIP3    H141180   4.705   7.140   5.018
13745TIP3    H241181   4.804   7.161   4.906
13746TIP3   OH241182   6.106   0.044   5.122
13746TIP3    H141183   6.191   0.020   5.159
13746TIP3    H241184   6.120   0.045   5.027
13747TIP3   OH241185   4.029   0.387   0.137
13747TIP3    H141186   4.027   0.483   0.134
13747TIP3    H241187   4.027   0.367   0.231
13748TIP3   OH241188   7.329   0.424   3.280
13748TIP3    H141189   7.350   0.332   3.267
13748TIP3    H241190   7.327   0.436   3.375
13749TIP3   OH241191   0.826   6.418   0.504
13749TIP3    H141192   0.824   6.328   0.537
13749TIP3    H241193   0.919   6.440   0.502
13750TIP3   OH241194   4.436   6.530   4.806
13750TIP3    H141195   4.500   6.513   4.737
13750TIP3    H241196   4.375   6.592   4.768
13751TIP3   OH241197   1.162   1.698   6.708
13751TIP3    H141198   1.226   1.641   6.664
13751TIP3    H241199   1.178   1.685   6.801
13752TIP3   OH241200   4.372   1.511   2.077
13752TIP3    H141201   4.441   1.463   2.032
13752TIP3    H241202   4.294   1.457   2.067
13753TIP3   OH241203   0.733   2.202   2.618
13753TIP3    H141204   0.732   2.187   2.524
13753TIP3    H241205   0.653   2.162   2.650
13754TIP3   OH241206   1.543   5.411   5.112
13754TIP3    H141207   1.488   5.418   5.034
13754TIP3    H241208   1.538   5.318   5.136
13755TIP3   OH241209   6.825   3.290   6.563
13755TIP3    H141210   6.813   3.276   6.657
13755TIP3    H241211   6.773   3.369   6.545
13756TIP3   OH241212   7.766   4.121   6.454
13756TIP3    H141213   7.761   4.155   6.365
13756TIP3    H241214   7.677   4.128   6.487
13757TIP3   OH241215   6.890   7.238   0.609
13757TIP3    H141216   6.827   7.166   0.622
13757TIP3    H241217   6.916   7.262   0.698
13758TIP3   OH241218   3.558   1.619   1.423
13758TIP3    H141219   3.614   1.679   1.471
13758TIP3    H241220   3.555   1.540   1.478
13759TIP3   OH241221   2.269   1.288   3.574
13759TIP3    H141222   2.258   1.193   3.568
13759TIP3    H241223   2.196   1.317   3.629
13760TIP3   OH241224   5.004   6.412   1.539
13760TIP3    H141225   4.917   6.451   1.533
13760TIP3    H241226   5.018   6.399   1.633
13761TIP3   OH241227   7.894   3.838   5.744
13761TIP3    H141228   7.809   3.799   5.721
13761TIP3    H241229   7.872   3.910   5.803
13762TIP3   OH241230   3.231   2.397   5.746
13762TIP3    H141231   3.313   2.444   5.762
13762TIP3    H241232   3.193   2.440   5.670
13763TIP3   OH241233   6.889   4.726   3.904
13763TIP3    H141234   6.793   4.731   3.901
13763TIP3    H241235   6.917   4.817   3.917
13764TIP3   OH241236   1.464   6.293   3.970
13764TIP3    H141237   1.448   6.199   3.962
13764TIP3    H241238   1.378   6.330   3.992
13765TIP3   OH241239   5.318   3.769   4.592
13765TIP3    H141240   5.226   3.780   4.617
13765TIP3    H241241   5.366   3.772   4.676
13766TIP3   OH241242   8.209   6.652   2.820
13766TIP3    H141243   8.147   6.583   2.844
13766TIP3    H241244   8.283   6.606   2.782
13767TIP3   OH241245   0.661   2.494   2.579
13767TIP3    H141246   0.572   2.505   2.613
13767TIP3    H241247   0.679   2.401   2.586
13768TIP3   OH241248   1.296   3.498   5.174
13768TIP3    H141249   1.390   3.510   5.188
13768TIP3    H241250   1.284   3.509   5.080
13769TIP3   OH241251   4.934   5.954   4.706
13769TIP3    H141252   4.963   5.888   4.643
13769TIP3    H241253   5.010   5.968   4.762
13770TIP3   OH241254   6.634   0.434   3.881
13770TIP3    H141255   6.589   0.352   3.901
13770TIP3    H241256   6.691   0.413   3.808
13771TIP3   OH241257   6.926   4.797   3.605
13771TIP3    H141258   6.867   4.870   3.589
13771TIP3    H241259   6.926   4.786   3.700
13772TIP3   OH241260   4.880   4.785   3.274
13772TIP3    H141261   4.938   4.714   3.245
13772TIP3    H241262   4.815   4.792   3.204
13773TIP3   OH241263   2.064   6.667   2.190
13773TIP3    H141264   2.050   6.667   2.095
13773TIP3    H241265   1.977   6.653   2.227
13774TIP3   OH241266   0.793   7.049   2.780
13774TIP3    H141267   0.784   7.045   2.684
13774TIP3    H241268   0.786   6.958   2.808
13775TIP3   OH241269   1.671   6.773   3.629
13775TIP3    H141270   1.582   6.744   3.610
13775TIP3    H241271   1.663   6.867   3.645
13776TIP3   OH241272   0.570   1.074   3.200
13776TIP3    H141273   0.624   1.129   3.143
13776TIP3    H241274   0.481   1.091   3.171
13777TIP3   OH241275   2.000   6.376   3.908
13777TIP3    H141276   1.980   6.304   3.967
13777TIP3    H241277   1.915   6.403   3.873
13778TIP3   OH241278   6.187   6.240   5.877
13778TIP3    H141279   6.143   6.289   5.947
13778TIP3    H241280   6.245   6.180   5.922
13779TIP3   OH241281   0.563   2.371   5.682
13779TIP3    H141282   0.532   2.389   5.770
13779TIP3    H241283   0.492   2.400   5.625
13780TIP3   OH241284   3.066   1.299   0.606
13780TIP3    H141285   3.026   1.218   0.575
13780TIP3    H241286   3.156   1.296   0.574
13781TIP3   OH241287   8.082   4.115   1.559
13781TIP3    H141288   8.020   4.063   1.507
13781TIP3    H241289   8.167   4.075   1.541
13782TIP3   OH241290   7.142   4.356   4.084
13782TIP3    H141291   7.207   4.288   4.101
13782TIP3    H241292   7.191   4.424   4.037
13783TIP3   OH241293   4.747   1.523   1.337
13783TIP3    H141294   4.730   1.510   1.430
13783TIP3    H241295   4.680   1.586   1.309
13784TIP3   OH241296   4.688   2.301   3.177
13784TIP3    H141297   4.714   2.289   3.268
13784TIP3    H241298   4.623   2.371   3.179
13785TIP3   OH241299   8.137   3.014   5.136
13785TIP3    H141300   8.049   3.051   5.150
13785TIP3    H241301   8.187   3.043   5.212
13786TIP3   OH241302   2.051   2.091   0.133
13786TIP3    H141303   2.079   2.012   0.087
13786TIP3    H241304   2.098   2.162   0.089
13787TIP3   OH241305   1.458   0.018   2.747
13787TIP3    H141306   1.533   0.075   2.729
13787TIP3    H241307   1.385   0.060   2.701
13788TIP3   OH241308   3.517   6.529   2.645
13788TIP3    H141309   3.421   6.531   2.643
13788TIP3    H241310   3.544   6.615   2.611
13789TIP3   OH241311   3.082   6.476   0.211
13789TIP3    H141312   3.016   6.414   0.181
13789TIP3    H241313   3.165   6.437   0.186
13790TIP3   OH241314   1.227   0.868   2.773
13790TIP3    H141315   1.243   0.943   2.715
13790TIP3    H241316   1.137   0.843   2.754
13791TIP3   OH241317   0.024   0.683   0.609
13791TIP3    H141318   0.009   0.709   0.700
13791TIP3    H241319   0.118   0.670   0.603
13792TIP3   OH241320   3.944   1.263   3.559
13792TIP3    H141321   3.995   1.318   3.500
13792TIP3    H241322   3.894   1.325   3.611
13793TIP3   OH241323   0.992   6.914   0.262
13793TIP3    H141324   0.947   6.996   0.240
13793TIP3    H241325   0.922   6.858   0.296
13794TIP3   OH241326   6.519   0.330   5.936
13794TIP3    H141327   6.441   0.370   5.898
13794TIP3    H241328   6.492   0.242   5.959
13795TIP3   OH241329   5.620   2.845   3.530
13795TIP3    H141330   5.580   2.931   3.546
13795TIP3    H241331   5.556   2.799   3.475
13796TIP3   OH241332   6.161   7.150   2.807
13796TIP3    H141333   6.167   7.068   2.856
13796TIP3    H241334   6.167   7.124   2.715
13797TIP3   OH241335   1.578   2.883   0.787
13797TIP3    H141336   1.631   2.807   0.813
13797TIP3    H241337   1.491   2.847   0.771
13798TIP3   OH241338   6.715   0.460   5.304
13798TIP3    H141339   6.747   0.431   5.390
13798TIP3    H241340   6.628   0.420   5.297
13799TIP3   OH241341   3.263   6.241   1.398
13799TIP3    H141342   3.259   6.147   1.383
13799TIP3    H241343   3.176   6.273   1.374
13800TIP3   OH241344   4.916   3.407   0.272
13800TIP3    H141345   4.976   3.479   0.254
13800TIP3    H241346   4.947   3.335   0.217
13801TIP3   OH241347   7.674   3.709   2.124
13801TIP3    H141348   7.588   3.667   2.129
13801TIP3    H241349   7.655   3.801   2.105
13802TIP3   OH241350   0.475   1.146   0.253
13802TIP3    H141351   0.562   1.116   0.230
13802TIP3    H241352   0.481   1.174   0.344
13803TIP3   OH241353   3.519   4.399   2.537
13803TIP3    H141354   3.498   4.327   2.596
13803TIP3    H241355   3.444   4.404   2.477
13804TIP3   OH241356   1.819   7.604   4.443
13804TIP3    H141357   1.896   7.651   4.409
13804TIP3    H241358   1.836   7.512   4.420
13805TIP3   OH241359   6.817   1.969   0.812
13805TIP3    H141360   6.760   1.910   0.763
13805TIP3    H241361   6.807   1.943   0.903
13806TIP3   OH241362   7.037   1.311   5.107
13806TIP3    H141363   7.007   1.238   5.053
13806TIP3    H241364   7.130   1.320   5.086
13807TIP3   OH241365   0.665   6.151   5.277
13807TIP3    H141366   0.715   6.123   5.353
13807TIP3    H241367   0.697   6.094   5.206
13808TIP3   OH241368   3.858   3.773   0.998
13808TIP3    H141369   3.782   3.725   0.965
13808TIP3    H241370   3.921   3.705   1.020
13809TIP3   OH241371   7.720   0.408   4.588
13809TIP3    H141372   7.773   0.425   4.666
13809TIP3    H241373   7.636   0.450   4.607
13810TIP3   OH241374   6.135   5.216   0.871
13810TIP3    H141375   6.156   5.163   0.795
13810TIP3    H241376   6.040   5.228   0.867
13811TIP3   OH241377   1.908   1.515   0.695
13811TIP3    H141378   1.904   1.419   0.694
13811TIP3    H241379   1.966   1.538   0.623
13812TIP3   OH241380   3.816   0.726   3.869
13812TIP3    H141381   3.861   0.757   3.790
13812TIP3    H241382   3.739   0.782   3.875
13813TIP3   OH241383   2.497   4.197   2.458
13813TIP3    H141384   2.439   4.123   2.477
13813TIP3    H241385   2.551   4.167   2.385
13814TIP3   OH241386   5.379   4.009   3.881
13814TIP3    H141387   5.474   4.018   3.872
13814TIP3    H241388   5.365   3.917   3.902
13815TIP3   OH241389   7.386   2.815   1.952
13815TIP3    H141390   7.345   2.738   1.990
13815TIP3    H241391   7.480   2.799   1.962
13816TIP3   OH241392   2.918   3.950   5.900
13816TIP3    H141393   2.941   3.934   5.808
13816TIP3    H241394   2.889   3.865   5.932
13817TIP3   OH241395   2.926   7.754   6.489
13817TIP3    H141396   2.955   7.812   6.418
13817TIP3    H241397   2.942   7.805   6.569
13818TIP3   OH241398   7.543   0.037   2.524
13818TIP3    H141399   7.488  -0.017   2.581
13818TIP3    H241400   7.485   0.107   2.494
13819TIP3   OH241401   1.656   2.709   2.031
13819TIP3    H141402   1.647   2.695   1.936
13819TIP3    H241403   1.579   2.666   2.069
13820TIP3   OH241404   1.795   6.044   1.713
13820TIP3    H141405   1.788   6.116   1.651
13820TIP3    H241406   1.876   5.998   1.687
13821TIP3   OH241407   6.386   0.934   5.077
13821TIP3    H141408   6.435   1.010   5.108
13821TIP3    H241409   6.445   0.860   5.090
13822TIP3   OH241410   3.753   5.500   2.362
13822TIP3    H141411   3.723   5.456   2.442
13822TIP3    H241412   3.846   5.481   2.358
13823TIP3   OH241413   2.964   7.409   2.996
13823TIP3    H141414   3.033   7.473   3.013
13823TIP3    H241415   2.885   7.448   3.034
13824TIP3   OH241416   2.393   7.321   2.221
13824TIP3    H141417   2.464   7.330   2.285
13824TIP3    H241418   2.402   7.397   2.164
13825TIP3   OH241419   0.584   7.788   0.251
13825TIP3    H141420   0.672   7.780   0.286
13825TIP3    H241421   0.572   7.882   0.237
13826TIP3   OH241422   2.819   0.194   1.291
13826TIP3    H141423   2.757   0.210   1.219
13826TIP3    H241424   2.874   0.273   1.292
13827TIP3   OH241425   2.915   0.304   0.851
13827TIP3    H141426   2.858   0.227   0.850
13827TIP3    H241427   2.999   0.271   0.819
13828TIP3   OH241428   4.926   6.460   4.605
13828TIP3    H141429   4.893   6.383   4.651
13828TIP3    H241430   4.867   6.531   4.630
13829TIP3   OH241431   1.727   0.250   0.879
13829TIP3    H141432   1.660   0.183   0.864
13829TIP3    H241433   1.723   0.266   0.974
13830TIP3   OH241434   1.698   0.234   4.261
13830TIP3    H141435   1.724   0.310   4.208
13830TIP3    H241436   1.775   0.177   4.260
13831TIP3   OH241437   1.377   6.068   5.216
13831TIP3    H141438   1.367   6.016   5.296
13831TIP3    H241439   1.397   6.156   5.248
13832TIP3   OH241440   0.093   3.461   3.939
13832TIP3    H141441   0.017   3.519   3.943
13832TIP3    H241442   0.058   3.378   3.906
13833TIP3   OH241443   2.673   7.312   1.587
13833TIP3    H141444   2.693   7.347   1.673
13833TIP3    H241445   2.734   7.356   1.527
13834TIP3   OH241446   5.332   3.413   0.305
13834TIP3    H141447   5.317   3.493   0.355
13834TIP3    H241448   5.418   3.382   0.334
13835TIP3   OH241449   1.489   1.681   1.906
13835TIP3    H141450   1.497   1.743   1.979
13835TIP3    H241451   1.546   1.716   1.838
13836TIP3   OH241452   0.611   0.613   4.088
13836TIP3    H141453   0.590   0.546   4.153
13836TIP3    H241454   0.568   0.693   4.120
13837TIP3   OH241455   3.773   3.871   4.620
13837TIP3    H141456   3.737   3.927   4.552
13837TIP3    H241457   3.787   3.930   4.695
13838TIP3   OH241458   1.488   1.770   5.994
13838TIP3    H141459   1.461   1.699   6.053
13838TIP3    H241460   1.569   1.738   5.954
13839TIP3   OH241461   2.865   1.150   3.296
13839TIP3    H141462   2.794   1.087   3.289
13839TIP3    H241463   2.842   1.204   3.372
13840TIP3   OH241464   0.621   0.164   5.912
13840TIP3    H141465   0.665   0.087   5.949
13840TIP3    H241466   0.690   0.229   5.903
13841TIP3   OH241467   7.783   4.133   3.682
13841TIP3    H141468   7.726   4.145   3.758
13841TIP3    H241469   7.795   4.039   3.675
13842TIP3   OH241470   1.390   3.687   6.152
13842TIP3    H141471   1.372   3.619   6.087
13842TIP3    H241472   1.395   3.639   6.235
13843TIP3   OH241473   0.729   1.859   3.254
13843TIP3    H141474   0.666   1.790   3.276
13843TIP3    H241475   0.765   1.886   3.338
13844TIP3   OH241476   6.164   5.572   5.089
13844TIP3    H141477   6.217   5.498   5.120
13844TIP3    H241478   6.205   5.648   5.129
13845TIP3   OH241479   0.768   2.133   0.951
13845TIP3    H141480   0.794   2.221   0.979
13845TIP3    H241481   0.676   2.126   0.978
13846TIP3   OH241482   0.907   1.460   0.570
13846TIP3    H141483   0.836   1.461   0.634
13846TIP3    H241484   0.980   1.504   0.614
13847TIP3   OH241485   1.921   3.857   2.274
13847TIP3    H141486   1.971   3.868   2.193
13847TIP3    H241487   1.872   3.776   2.261
13848TIP3   OH241488   6.758   0.353   3.663
13848TIP3    H141489   6.698   0.300   3.610
13848TIP3    H241490   6.812   0.399   3.598
13849TIP3   OH241491   0.456   2.034   1.920
13849TIP3    H141492   0.389   2.101   1.930
13849TIP3    H241493   0.501   2.033   2.005
13850TIP3   OH241494   4.941   4.011   1.131
13850TIP3    H141495   4.897   4.065   1.197
13850TIP3    H241496   4.954   3.926   1.174
13851TIP3   OH241497   2.206   7.006   6.528
13851TIP3    H141498   2.166   6.921   6.546
13851TIP3    H241499   2.270   7.017   6.598
13852TIP3   OH241500   3.989   4.915   5.842
13852TIP3    H141501   4.009   5.008   5.841
13852TIP3    H241502   4.000   4.887   5.751
13853TIP3   OH241503   5.612   1.619   0.628
13853TIP3    H141504   5.575   1.695   0.584
13853TIP3    H241505   5.651   1.567   0.558
13854TIP3   OH241506   5.770   3.013   5.054
13854TIP3    H141507   5.805   3.071   4.986
13854TIP3    H241508   5.684   2.988   5.022
13855TIP3   OH241509   7.903   5.620   5.554
13855TIP3    H141510   7.853   5.700   5.570
13855TIP3    H241511   7.837   5.556   5.527
13856TIP3   OH241512   4.363   4.523   6.309
13856TIP3    H141513   4.283   4.472   6.304
13856TIP3    H241514   4.371   4.564   6.223
13857TIP3   OH241515   1.890   4.441   2.481
13857TIP3    H141516   1.862   4.351   2.464
13857TIP3    H241517   1.841   4.494   2.419
13858TIP3   OH241518   3.816   2.423   5.564
13858TIP3    H141519   3.883   2.443   5.629
13858TIP3    H241520   3.768   2.505   5.553
13859TIP3   OH241521   4.622   6.991   5.959
13859TIP3    H141522   4.690   7.049   5.994
13859TIP3    H241523   4.595   7.033   5.877
13860TIP3   OH241524   5.750   5.509   1.170
13860TIP3    H141525   5.793   5.592   1.190
13860TIP3    H241526   5.801   5.472   1.098
13861TIP3   OH241527   6.992   5.388   3.070
13861TIP3    H141528   6.948   5.375   2.986
13861TIP3    H241529   6.992   5.302   3.111
13862TIP3   OH241530   2.003   5.408   4.717
13862TIP3    H141531   2.054   5.420   4.638
13862TIP3    H241532   1.976   5.497   4.742
13863TIP3   OH241533   6.185   4.345   6.285
13863TIP3    H141534   6.119   4.278   6.268
13863TIP3    H241535   6.135   4.424   6.305
13864TIP3   OH241536   2.720   5.376   5.514
13864TIP3    H141537   2.627   5.383   5.531
13864TIP3    H241538   2.750   5.307   5.573
13865TIP3   OH241539   0.359   6.434   0.472
13865TIP3    H141540   0.421   6.443   0.400
13865TIP3    H241541   0.352   6.340   0.486
13866TIP3   OH241542   5.071   5.714   3.912
13866TIP3    H141543   5.042   5.781   3.974
13866TIP3    H241544   5.166   5.729   3.904
13867TIP3   OH241545   1.542   3.561   1.237
13867TIP3    H141546   1.612   3.625   1.223
13867TIP3    H241547   1.468   3.596   1.187
13868TIP3   OH241548  -0.015   5.715   3.006
13868TIP3    H141549   0.043   5.677   3.072
13868TIP3    H241550   0.024   5.690   2.922
13869TIP3   OH241551   1.342   1.160   6.122
13869TIP3    H141552   1.285   1.112   6.182
13869TIP3    H241553   1.293   1.165   6.040
13870TIP3   OH241554   3.669   3.344   4.741
13870TIP3    H141555   3.664   3.249   4.752
13870TIP3    H241556   3.667   3.379   4.830
13871TIP3   OH241557   5.164   4.653   1.795
13871TIP3    H141558   5.201   4.714   1.730
13871TIP3    H241559   5.184   4.566   1.759
13872TIP3   OH241560   4.888   0.657   4.196
13872TIP3    H141561   4.916   0.748   4.202
13872TIP3    H241562   4.794   0.659   4.211
13873TIP3   OH241563   2.383   7.120   6.007
13873TIP3    H141564   2.367   7.091   6.098
13873TIP3    H241565   2.432   7.201   6.016
13874TIP3   OH241566   4.474   3.350   0.613
13874TIP3    H141567   4.453   3.385   0.700
13874TIP3    H241568   4.567   3.368   0.602
13875TIP3   OH241569   3.960   6.590   2.810
13875TIP3    H141570   3.979   6.498   2.791
13875TIP3    H241571   3.866   6.593   2.827
13876TIP3   OH241572   8.126   7.179   0.311
13876TIP3    H141573   8.164   7.208   0.228
13876TIP3    H241574   8.063   7.111   0.287
13877TIP3   OH241575   4.693   7.682   2.182
13877TIP3    H141576   4.765   7.744   2.195
13877TIP3    H241577   4.677   7.684   2.088
13878TIP3   OH241578   6.714   5.830   1.088
13878TIP3    H141579   6.621   5.844   1.103
13878TIP3    H241580   6.726   5.851   0.995
13879TIP3   OH241581   6.001   4.767   5.376
13879TIP3    H141582   5.968   4.754   5.465
13879TIP3    H241583   6.026   4.859   5.373
13880TIP3   OH241584   5.078   0.813   1.701
13880TIP3    H141585   5.006   0.861   1.742
13880TIP3    H241586   5.153   0.872   1.708
13881TIP3   OH241587   7.536   1.691   2.773
13881TIP3    H141588   7.593   1.621   2.803
13881TIP3    H241589   7.584   1.733   2.702
13882TIP3   OH241590   7.060   4.214   3.281
13882TIP3    H141591   7.138   4.160   3.294
13882TIP3    H241592   7.084   4.299   3.318
13883TIP3   OH241593   8.325   2.777   2.535
13883TIP3    H141594   8.326   2.770   2.631
13883TIP3    H241595   8.276   2.700   2.506
13884TIP3   OH241596   1.452   4.145   5.156
13884TIP3    H141597   1.461   4.091   5.234
13884TIP3    H241598   1.536   4.136   5.111
13885TIP3   OH241599   0.380   1.133   0.738
13885TIP3    H141600   0.291   1.166   0.752
13885TIP3    H241601   0.368   1.040   0.717
13886TIP3   OH241602   3.821   6.939   4.885
13886TIP3    H141603   3.761   6.876   4.845
13886TIP3    H241604   3.908   6.906   4.865
13887TIP3   OH241605   2.042   0.831   5.800
13887TIP3    H141606   1.977   0.888   5.759
13887TIP3    H241607   2.021   0.835   5.894
13888TIP3   OH241608   4.280   4.864   0.338
13888TIP3    H141609   4.248   4.918   0.266
13888TIP3    H241610   4.218   4.791   0.341
13889TIP3   OH241611   1.709   3.512   0.009
13889TIP3    H141612   1.773   3.497   0.079
13889TIP3    H241613   1.718   3.436  -0.049
13890TIP3   OH241614   3.313   2.153   4.287
13890TIP3    H141615   3.344   2.236   4.250
13890TIP3    H241616   3.263   2.112   4.217
13891TIP3   OH241617   7.398   5.253   3.693
13891TIP3    H141618   7.387   5.255   3.789
13891TIP3    H241619   7.317   5.290   3.659
13892TIP3   OH241620   1.286   0.752   1.377
13892TIP3    H141621   1.240   0.691   1.435
13892TIP3    H241622   1.218   0.789   1.321
13893TIP3   OH241623   0.652   2.737   3.753
13893TIP3    H141624   0.577   2.779   3.795
13893TIP3    H241625   0.728   2.764   3.806
13894TIP3   OH241626   5.653   1.571   4.309
13894TIP3    H141627   5.717   1.608   4.248
13894TIP3    H241628   5.621   1.647   4.358
13895TIP3   OH241629   1.421   2.406   5.298
13895TIP3    H141630   1.335   2.436   5.268
13895TIP3    H241631   1.431   2.445   5.385
13896TIP3   OH241632   0.111   5.559   4.715
13896TIP3    H141633   0.172   5.607   4.771
13896TIP3    H241634   0.112   5.470   4.750
13897TIP3   OH241635   2.908   7.444   0.150
13897TIP3    H141636   2.994   7.412   0.176
13897TIP3    H241637   2.859   7.365   0.128
13898TIP3   OH241638   5.568   3.723   5.373
13898TIP3    H141639   5.509   3.678   5.433
13898TIP3    H241640   5.641   3.752   5.428
13899TIP3   OH241641   3.615   4.436   1.655
13899TIP3    H141642   3.553   4.480   1.597
13899TIP3    H241643   3.698   4.439   1.607
13900TIP3   OH241644   1.492   4.892   5.927
13900TIP3    H141645   1.481   4.866   5.835
13900TIP3    H241646   1.586   4.893   5.940
13901TIP3   OH241647   2.728   4.285   4.589
13901TIP3    H141648   2.721   4.205   4.537
13901TIP3    H241649   2.812   4.323   4.563
13902TIP3   OH241650   0.957   3.142   1.536
13902TIP3    H141651   0.869   3.112   1.513
13902TIP3    H241652   0.955   3.237   1.523
13903TIP3   OH241653   4.453   3.662   0.590
13903TIP3    H141654   4.488   3.620   0.511
13903TIP3    H241655   4.370   3.617   0.606
13904TIP3   OH241656   3.553   0.116   4.630
13904TIP3    H141657   3.509   0.152   4.553
13904TIP3    H241658   3.646   0.117   4.606
13905TIP3   OH241659   2.258   5.366   5.375
13905TIP3    H141660   2.205   5.316   5.438
13905TIP3    H241661   2.270   5.306   5.301
13906TIP3   OH241662   1.217   6.394   2.320
13906TIP3    H141663   1.213   6.316   2.375
13906TIP3    H241664   1.126   6.413   2.298
13907TIP3   OH241665   8.154   5.649   3.871
13907TIP3    H141666   8.185   5.669   3.783
13907TIP3    H241667   8.215   5.693   3.930
13908TIP3   OH241668   5.021   6.733   1.709
13908TIP3    H141669   5.077   6.710   1.635
13908TIP3    H241670   5.054   6.818   1.739
13909TIP3   OH241671   3.312   7.244   3.288
13909TIP3    H141672   3.389   7.297   3.309
13909TIP3    H241673   3.282   7.211   3.373
13910TIP3   OH241674   7.361   6.117   5.168
13910TIP3    H141675   7.334   6.208   5.173
13910TIP3    H241676   7.308   6.080   5.098
13911TIP3   OH241677   1.628   0.778   4.500
13911TIP3    H141678   1.548   0.830   4.503
13911TIP3    H241679   1.623   0.729   4.418
13912TIP3   OH241680   3.937   1.578   3.633
13912TIP3    H141681   3.966   1.535   3.713
13912TIP3    H241682   3.851   1.541   3.615
13913TIP3   OH241683   0.793   4.979   5.494
13913TIP3    H141684   0.715   5.035   5.490
13913TIP3    H241685   0.767   4.907   5.552
13914TIP3   OH241686   0.247   3.041   0.798
13914TIP3    H141687   0.327   2.999   0.767
13914TIP3    H241688   0.176   2.986   0.764
13915TIP3   OH241689   2.151   1.412   1.653
13915TIP3    H141690   2.082   1.364   1.698
13915TIP3    H241691   2.216   1.345   1.630
13916TIP3   OH241692   2.556   3.839   5.981
13916TIP3    H141693   2.629   3.783   5.955
13916TIP3    H241694   2.592   3.928   5.978
13917TIP3   OH241695   7.943   1.084   4.906
13917TIP3    H141696   7.862   1.131   4.926
13917TIP3    H241697   7.996   1.148   4.858
13918TIP3   OH241698   0.767   0.290   4.030
13918TIP3    H141699   0.816   0.222   3.984
13918TIP3    H241700   0.681   0.251   4.047
13919TIP3   OH241701   0.391   2.746   2.731
13919TIP3    H141702   0.418   2.804   2.659
13919TIP3    H241703   0.323   2.690   2.693
13920TIP3   OH241704   2.579   7.154   6.261
13920TIP3    H141705   2.540   7.218   6.200
13920TIP3    H241706   2.524   7.159   6.339
13921TIP3   OH241707   2.950   3.628   2.518
13921TIP3    H141708   2.876   3.571   2.497
13921TIP3    H241709   2.923   3.715   2.486
13922TIP3   OH241710   3.071   5.597   5.115
13922TIP3    H141711   3.015   5.658   5.163
13922TIP3    H241712   3.155   5.642   5.109
13923TIP3   OH241713   8.114   2.220   4.013
13923TIP3    H141714   8.068   2.149   4.057
13923TIP3    H241715   8.062   2.237   3.934
13924TIP3   OH241716   2.547   0.711   2.441
13924TIP3    H141717   2.604   0.706   2.364
13924TIP3    H241718   2.526   0.804   2.450
13925TIP3   OH241719   0.807   6.572   6.772
13925TIP3    H141720   0.794   6.667   6.773
13925TIP3    H241721   0.878   6.558   6.708
13926TIP3   OH241722   0.134   5.058   5.764
13926TIP3    H141723   0.060   5.117   5.781
13926TIP3    H241724   0.113   5.017   5.680
13927TIP3   OH241725   4.042   1.007   3.856
13927TIP3    H141726   3.976   1.030   3.921
13927TIP3    H241727   4.113   1.070   3.871
13928TIP3   OH241728   1.339   0.485   5.433
13928TIP3    H141729   1.246   0.492   5.411
13928TIP3    H241730   1.370   0.409   5.384
13929TIP3   OH241731   1.470   5.669   3.520
13929TIP3    H141732   1.452   5.577   3.500
13929TIP3    H241733   1.464   5.674   3.615
13930TIP3   OH241734   8.061   6.795   4.237
13930TIP3    H141735   8.094   6.751   4.315
13930TIP3    H241736   7.993   6.735   4.203
13931TIP3   OH241737   4.179   0.392   3.882
13931TIP3    H141738   4.119   0.455   3.921
13931TIP3    H241739   4.199   0.427   3.795
13932TIP3   OH241740   7.098   0.621   3.764
13932TIP3    H141741   7.036   0.605   3.835
13932TIP3    H241742   7.076   0.708   3.731
13933TIP3   OH241743   1.504   1.085   1.841
13933TIP3    H141744   1.575   1.024   1.821
13933TIP3    H241745   1.548   1.169   1.853
13934TIP3   OH241746   4.680   7.351   4.121
13934TIP3    H141747   4.745   7.282   4.106
13934TIP3    H241748   4.730   7.432   4.120
13935TIP3   OH241749   6.671   4.873   1.985
13935TIP3    H141750   6.593   4.864   1.932
13935TIP3    H241751   6.718   4.790   1.975
13936TIP3   OH241752   3.698   1.377   6.088
13936TIP3    H141753   3.624   1.328   6.052
13936TIP3    H241754   3.659   1.436   6.152
13937TIP3   OH241755   3.404   2.792   5.462
13937TIP3    H141756   3.432   2.868   5.411
13937TIP3    H241757   3.440   2.807   5.549
13938TIP3   OH241758   4.942   6.320   2.065
13938TIP3    H141759   5.019   6.342   2.117
13938TIP3    H241760   4.893   6.257   2.119
13939TIP3   OH241761   0.999   3.674   3.310
13939TIP3    H141762   1.019   3.645   3.399
13939TIP3    H241763   1.043   3.611   3.253
13940TIP3   OH241764   6.158   5.582   5.413
13940TIP3    H141765   6.222   5.511   5.409
13940TIP3    H241766   6.210   5.661   5.399
13941TIP3   OH241767   0.831   5.073   2.689
13941TIP3    H141768   0.900   5.080   2.623
13941TIP3    H241769   0.868   5.115   2.767
13942TIP3   OH241770   3.168   0.141   0.824
13942TIP3    H141771   3.249   0.191   0.812
13942TIP3    H241772   3.167   0.120   0.917
13943TIP3   OH241773   3.898   6.204   5.240
13943TIP3    H141774   3.982   6.160   5.247
13943TIP3    H241775   3.852   6.182   5.321
13944TIP3   OH241776   4.548   5.497   6.151
13944TIP3    H141777   4.526   5.474   6.061
13944TIP3    H241778   4.487   5.447   6.205
13945TIP3   OH241779   4.450   6.031   3.137
13945TIP3    H141780   4.527   6.021   3.081
13945TIP3    H241781   4.377   6.000   3.084
13946TIP3   OH241782   3.781   5.408   3.811
13946TIP3    H141783   3.689   5.387   3.790
13946TIP3    H241784   3.830   5.336   3.772
13947TIP3   OH241785   7.329   1.396   5.094
13947TIP3    H141786   7.271   1.471   5.081
13947TIP3    H241787   7.352   1.367   5.005
13948TIP3   OH241788   7.181   0.916   4.130
13948TIP3    H141789   7.153   0.825   4.135
13948TIP3    H241790   7.128   0.961   4.195
13949TIP3   OH241791   4.786   3.992   6.274
13949TIP3    H141792   4.755   4.019   6.361
13949TIP3    H241793   4.757   4.063   6.216
13950TIP3   OH241794   2.316   2.520   6.306
13950TIP3    H141795   2.302   2.614   6.315
13950TIP3    H241796   2.228   2.482   6.305
13951TIP3   OH241797   3.419   7.570   4.958
13951TIP3    H141798   3.511   7.582   4.981
13951TIP3    H241799   3.393   7.653   4.919
13952TIP3   OH241800   1.582   5.982   5.685
13952TIP3    H141801   1.558   5.915   5.621
13952TIP3    H241802   1.588   6.062   5.633
13953TIP3   OH241803   6.726   4.102   4.235
13953TIP3    H141804   6.752   4.194   4.240
13953TIP3    H241805   6.751   4.074   4.147
13954TIP3   OH241806   5.194   6.108   4.147
13954TIP3    H141807   5.234   6.119   4.061
13954TIP3    H241808   5.119   6.168   4.147
13955TIP3   OH241809   5.465   3.063   3.627
13955TIP3    H141810   5.551   3.079   3.665
13955TIP3    H241811   5.414   3.142   3.649
13956TIP3   OH241812   3.453   3.736   1.738
13956TIP3    H141813   3.420   3.649   1.761
13956TIP3    H241814   3.396   3.797   1.785
13957TIP3   OH241815   6.857   0.618   0.250
13957TIP3    H141816   6.894   0.539   0.211
13957TIP3    H241817   6.763   0.613   0.231
13958TIP3   OH241818   1.171   1.296   5.184
13958TIP3    H141819   1.259   1.264   5.205
13958TIP3    H241820   1.117   1.267   5.258
13959TIP3   OH241821   5.271   1.511   5.837
13959TIP3    H141822   5.200   1.511   5.901
13959TIP3    H241823   5.234   1.466   5.761
13960TIP3   OH241824   5.504   2.590   4.354
13960TIP3    H141825   5.420   2.628   4.381
13960TIP3    H241826   5.495   2.578   4.259
13961TIP3   OH241827   0.220   7.079   3.154
13961TIP3    H141828   0.304   7.106   3.191
13961TIP3    H241829   0.155   7.129   3.203
13962TIP3   OH241830   4.843   1.650   6.337
13962TIP3    H141831   4.816   1.735   6.372
13962TIP3    H241832   4.806   1.586   6.398
13963TIP3   OH241833   5.214   6.144   1.185
13963TIP3    H141834   5.236   6.050   1.182
13963TIP3    H241835   5.147   6.155   1.117
13964TIP3   OH241836   6.285   6.201   0.258
13964TIP3    H141837   6.228   6.125   0.252
13964TIP3    H241838   6.358   6.181   0.200
13965TIP3   OH241839   1.418   3.465   4.500
13965TIP3    H141840   1.336   3.417   4.494
13965TIP3    H241841   1.481   3.403   4.537
13966TIP3   OH241842   8.014   0.523   1.159
13966TIP3    H141843   8.090   0.470   1.181
13966TIP3    H241844   7.940   0.462   1.162
13967TIP3   OH241845   7.677   2.186   1.867
13967TIP3    H141846   7.583   2.199   1.861
13967TIP3    H241847   7.709   2.262   1.916
13968TIP3   OH241848   1.788   6.578   2.719
13968TIP3    H141849   1.877   6.596   2.687
13968TIP3    H241850   1.777   6.636   2.794
13969TIP3   OH241851   1.865   1.164   2.028
13969TIP3    H141852   1.875   1.212   2.110
13969TIP3    H241853   1.866   1.072   2.053
13970TIP3   OH241854  -0.021   3.449   4.311
13970TIP3    H141855  -0.031   3.422   4.402
13970TIP3    H241856   0.073   3.446   4.294
13971TIP3   OH241857   6.047   4.889   6.226
13971TIP3    H141858   5.977   4.951   6.206
13971TIP3    H241859   6.087   4.924   6.306
13972TIP3   OH241860   0.898   7.008   4.033
13972TIP3    H141861   0.889   6.990   3.940
13972TIP3    H241862   0.977   6.961   4.059
13973TIP3   OH241863   7.765   6.943   0.440
13973TIP3    H141864   7.831   6.874   0.444
13973TIP3    H241865   7.743   6.949   0.347
13974TIP3   OH241866  -0.008   2.766   5.739
13974TIP3    H141867   0.057   2.777   5.670
13974TIP3    H241868  -0.040   2.677   5.729
13975TIP3   OH241869   5.687   5.309   3.537
13975TIP3    H141870   5.696   5.372   3.608
13975TIP3    H241871   5.733   5.231   3.568
13976TIP3   OH241872   4.024   4.066   4.111
13976TIP3    H141873   3.951   4.078   4.049
13976TIP3    H241874   4.050   3.974   4.099
13977TIP3   OH241875   5.335   0.019   6.748
13977TIP3    H141876   5.348   0.050   6.658
13977TIP3    H241877   5.240   0.013   6.757
13978TIP3   OH241878   6.655   7.643   3.087
13978TIP3    H141879   6.719   7.713   3.076
13978TIP3    H241880   6.708   7.563   3.088
13979TIP3   OH241881   0.712   3.094   1.434
13979TIP3    H141882   0.619   3.081   1.448
13979TIP3    H241883   0.718   3.150   1.357
13980TIP3   OH241884   4.853   3.152   0.056
13980TIP3    H141885   4.904   3.223   0.018
13980TIP3    H241886   4.799   3.120  -0.016
13981TIP3   OH241887   0.049   7.794   2.597
13981TIP3    H141888  -0.040   7.819   2.574
13981TIP3    H241889   0.095   7.790   2.514
13982TIP3   OH241890   6.793   5.402   6.174
13982TIP3    H141891   6.826   5.347   6.245
13982TIP3    H241892   6.710   5.361   6.149
13983TIP3   OH241893   2.677   0.003   1.045
13983TIP3    H141894   2.641  -0.027   0.962
13983TIP3    H241895   2.648   0.094   1.052
13984TIP3   OH241896   0.429   6.508   6.670
13984TIP3    H141897   0.433   6.562   6.749
13984TIP3    H241898   0.520   6.495   6.644
13985TIP3   OH241899   1.207   7.572   2.147
13985TIP3    H141900   1.290   7.591   2.191
13985TIP3    H241901   1.150   7.645   2.172
13986TIP3   OH241902   0.348   4.678   3.513
13986TIP3    H141903   0.356   4.663   3.419
13986TIP3    H241904   0.254   4.672   3.531
13987TIP3   OH241905   7.688   3.800   6.721
13987TIP3    H141906   7.623   3.750   6.770
13987TIP3    H241907   7.708   3.875   6.777
13988TIP3   OH241908   0.806   1.393   1.505
13988TIP3    H141909   0.855   1.414   1.425
13988TIP3    H241910   0.872   1.363   1.567
13989TIP3   OH241911   7.489   5.099   1.439
13989TIP3    H141912   7.566   5.044   1.428
13989TIP3    H241913   7.477   5.105   1.534
13990TIP3   OH241914   4.486   6.342   5.391
13990TIP3    H141915   4.510   6.329   5.483
13990TIP3    H241916   4.498   6.256   5.351
13991TIP3   OH241917   7.508   3.354   5.489
13991TIP3    H141918   7.544   3.415   5.553
13991TIP3    H241919   7.514   3.400   5.405
13992TIP3   OH241920   7.452   3.094   2.176
13992TIP3    H141921   7.385   3.107   2.108
13992TIP3    H241922   7.410   3.038   2.241
13993TIP3   OH241923   0.613   6.662   3.727
13993TIP3    H141924   0.697   6.663   3.772
13993TIP3    H241925   0.636   6.668   3.634
13994TIP3   OH241926   2.976   6.330   1.546
13994TIP3    H141927   2.928   6.322   1.464
13994TIP3    H241928   2.936   6.264   1.604
13995TIP3   OH241929   3.411   7.277   5.231
13995TIP3    H141930   3.322   7.305   5.209
13995TIP3    H241931   3.400   7.217   5.305
13996TIP3   OH241932   4.311   5.604   1.637
13996TIP3    H141933   4.249   5.617   1.566
13996TIP3    H241934   4.380   5.549   1.599
13997TIP3   OH241935   2.471   1.145   6.619
13997TIP3    H141936   2.511   1.077   6.673
13997TIP3    H241937   2.498   1.227   6.659
13998TIP3   OH241938   0.407   1.321   3.373
13998TIP3    H141939   0.495   1.311   3.337
13998TIP3    H241940   0.420   1.369   3.455
13999TIP3   OH241941   4.453   4.910   5.882
13999TIP3    H141942   4.407   4.844   5.934
13999TIP3    H241943   4.546   4.896   5.901
14000TIP3   OH241944   2.775   7.022   4.849
14000TIP3    H141945   2.705   6.959   4.865
14000TIP3    H241946   2.851   6.967   4.828
14001TIP3   OH241947   2.641   7.529   1.778
14001TIP3    H141948   2.691   7.521   1.860
14001TIP3    H241949   2.637   7.623   1.763
14002TIP3   OH241950   0.971   0.856   2.717
14002TIP3    H141951   0.998   0.828   2.630
14002TIP3    H241952   0.938   0.945   2.704
14003TIP3   OH241953   2.290   0.924   4.563
14003TIP3    H141954   2.361   0.986   4.575
14003TIP3    H241955   2.334   0.839   4.554
14004TIP3   OH241956   3.156   0.812   3.716
14004TIP3    H141957   3.246   0.833   3.694
14004TIP3    H241958   3.121   0.893   3.753
14005TIP3   OH241959   7.181   2.562   1.045
14005TIP3    H141960   7.111   2.612   1.003
14005TIP3    H241961   7.181   2.592   1.135
14006TIP3   OH241962   0.464   6.790   4.823
14006TIP3    H141963   0.421   6.724   4.877
14006TIP3    H241964   0.507   6.848   4.886
14007TIP3   OH241965   4.561   7.191   5.428
14007TIP3    H141966   4.613   7.270   5.420
14007TIP3    H241967   4.481   7.210   5.379
14008TIP3   OH241968   1.304   4.411   5.785
14008TIP3    H141969   1.228   4.415   5.843
14008TIP3    H241970   1.292   4.485   5.725
14009TIP3   OH241971   5.421   2.774   0.939
14009TIP3    H141972   5.387   2.688   0.964
14009TIP3    H241973   5.345   2.821   0.904
14010TIP3   OH241974   3.299   2.257   0.120
14010TIP3    H141975   3.376   2.296   0.077
14010TIP3    H241976   3.247   2.222   0.048
14011TIP3   OH241977   3.692   0.993   1.744
14011TIP3    H141978   3.661   1.051   1.813
14011TIP3    H241979   3.612   0.953   1.708
14012TIP3   OH241980   5.325   0.645   1.646
14012TIP3    H141981   5.301   0.639   1.553
14012TIP3    H241982   5.243   0.665   1.690
14013TIP3   OH241983   1.945   4.015   5.929
14013TIP3    H141984   1.976   4.029   6.019
14013TIP3    H241985   1.873   4.078   5.918
14014TIP3   OH241986   0.767   7.388   2.402
14014TIP3    H141987   0.749   7.468   2.354
14014TIP3    H241988   0.862   7.385   2.412
14015TIP3   OH241989   2.417   0.711   5.199
14015TIP3    H141990   2.509   0.712   5.224
14015TIP3    H241991   2.402   0.797   5.159
14016TIP3   OH241992   2.252   3.969   5.624
14016TIP3    H141993   2.318   4.014   5.677
14016TIP3    H241994   2.236   4.029   5.551
14017TIP3   OH241995   0.561   6.924   5.023
14017TIP3    H141996   0.585   7.013   4.999
14017TIP3    H241997   0.638   6.889   5.068
14018TIP3   OH241998   5.824   4.228   2.118
14018TIP3    H141999   5.890   4.202   2.183
14018TIP3    H242000   5.754   4.163   2.127
14019TIP3   OH242001   3.987   6.716   1.240
14019TIP3    H142002   3.935   6.739   1.317
14019TIP3    H242003   4.005   6.622   1.251
14020TIP3   OH242004   0.234   7.800   4.715
14020TIP3    H142005   0.260   7.892   4.704
14020TIP3    H242006   0.299   7.765   4.777
14021TIP3   OH242007   5.302   3.862   2.562
14021TIP3    H142008   5.267   3.800   2.498
14021TIP3    H242009   5.245   3.853   2.638
14022TIP3   OH242010   3.222   6.188   1.712
14022TIP3    H142011   3.239   6.231   1.629
14022TIP3    H242012   3.228   6.257   1.777
14023TIP3   OH242013   1.487   6.221   5.469
14023TIP3    H142014   1.445   6.290   5.521
14023TIP3    H242015   1.576   6.254   5.453
14024TIP3   OH242016   6.178   2.503   3.109
14024TIP3    H142017   6.085   2.508   3.131
14024TIP3    H242018   6.187   2.419   3.064
14025TIP3   OH242019   5.453   3.131   5.779
14025TIP3    H142020   5.495   3.045   5.769
14025TIP3    H242021   5.510   3.178   5.841
14026TIP3   OH242022   4.596   0.903   1.112
14026TIP3    H142023   4.591   0.989   1.069
14026TIP3    H242024   4.658   0.853   1.059
14027TIP3   OH242025   6.948   0.049   2.449
14027TIP3    H142026   6.956   0.048   2.353
14027TIP3    H242027   6.871  -0.004   2.467
14028TIP3   OH242028   4.656   0.194   3.092
14028TIP3    H142029   4.592   0.201   3.020
14028TIP3    H242030   4.603   0.173   3.169
14029TIP3   OH242031   0.888   1.736   6.688
14029TIP3    H142032   0.864   1.677   6.759
14029TIP3    H242033   0.976   1.767   6.712
14030TIP3   OH242034   6.524   5.317   2.998
14030TIP3    H142035   6.552   5.370   2.924
14030TIP3    H242036   6.523   5.227   2.965
14031TIP3   OH242037   7.727   3.540   1.259
14031TIP3    H142038   7.652   3.570   1.310
14031TIP3    H242039   7.733   3.446   1.277
14032TIP3   OH242040   4.025   5.805   0.120
14032TIP3    H142041   4.015   5.727   0.174
14032TIP3    H242042   4.088   5.780   0.052
14033TIP3   OH242043   3.342   6.868   2.466
14033TIP3    H142044   3.297   6.912   2.538
14033TIP3    H242045   3.273   6.821   2.419
14034TIP3   OH242046   2.187   1.957   6.248
14034TIP3    H142047   2.126   1.975   6.320
14034TIP3    H242048   2.194   2.041   6.201
14035TIP3   OH242049   2.337   5.037   2.426
14035TIP3    H142050   2.391   5.075   2.495
14035TIP3    H242051   2.309   4.953   2.460
14036TIP3   OH242052   7.220   3.622   1.992
14036TIP3    H142053   7.203   3.700   1.940
14036TIP3    H242054   7.151   3.561   1.966
14037TIP3   OH242055   6.343   5.082   5.303
14037TIP3    H142056   6.422   5.119   5.265
14037TIP3    H242057   6.329   5.000   5.256
14038TIP3   OH242058   7.447   3.998   3.245
14038TIP3    H142059   7.504   3.931   3.284
14038TIP3    H242060   7.364   3.989   3.291
14039TIP3   OH242061   7.384   5.736   2.647
14039TIP3    H142062   7.391   5.735   2.742
14039TIP3    H242063   7.301   5.781   2.630
14040TIP3   OH242064   5.810   5.389   6.704
14040TIP3    H142065   5.756   5.310   6.700
14040TIP3    H242066   5.763   5.448   6.763
14041TIP3   OH242067   1.198   6.830   0.029
14041TIP3    H142068   1.176   6.815  -0.063
14041TIP3    H242069   1.126   6.884   0.063
14042TIP3   OH242070   4.837   7.676   4.920
14042TIP3    H142071   4.826   7.589   4.959
14042TIP3    H242072   4.772   7.730   4.965
14043TIP3   OH242073   7.794   1.770   1.095
14043TIP3    H142074   7.812   1.678   1.078
14043TIP3    H242075   7.880   1.812   1.100
14044TIP3   OH242076   7.596   6.264   1.122
14044TIP3    H142077   7.641   6.313   1.191
14044TIP3    H242078   7.603   6.172   1.149
14045TIP3   OH242079   5.108   7.755   5.781
14045TIP3    H142080   5.120   7.662   5.802
14045TIP3    H242081   5.177   7.775   5.718
14046TIP3   OH242082   5.826   3.989   3.620
14046TIP3    H142083   5.909   3.998   3.666
14046TIP3    H242084   5.850   3.988   3.527
14047TIP3   OH242085   3.641   1.820   4.873
14047TIP3    H142086   3.612   1.899   4.826
14047TIP3    H242087   3.730   1.806   4.843
14048TIP3   OH242088   2.456   6.116   2.441
14048TIP3    H142089   2.375   6.166   2.431
14048TIP3    H242090   2.524   6.174   2.406
14049TIP3   OH242091   5.885   1.986   4.450
14049TIP3    H142092   5.942   2.040   4.504
14049TIP3    H242093   5.812   2.043   4.427
14050TIP3   OH242094   3.810   3.729   2.161
14050TIP3    H142095   3.802   3.741   2.066
14050TIP3    H242096   3.898   3.693   2.173
14051TIP3   OH242097   5.064   0.869   2.906
14051TIP3    H142098   5.112   0.842   2.828
14051TIP3    H242099   5.048   0.787   2.954
14052TIP3   OH242100   8.100   0.630   0.875
14052TIP3    H142101   8.020   0.663   0.915
14052TIP3    H242102   8.152   0.709   0.857
14053TIP3   OH242103   0.319   4.821   6.704
14053TIP3    H142104   0.239   4.872   6.694
14053TIP3    H242105   0.346   4.801   6.614
14054TIP3   OH242106   5.076   7.505   4.365
14054TIP3    H142107   5.061   7.428   4.420
14054TIP3    H242108   4.989   7.540   4.349
14055TIP3   OH242109   7.482   6.639   3.398
14055TIP3    H142110   7.541   6.693   3.450
14055TIP3    H242111   7.511   6.550   3.414
14056TIP3   OH242112   2.196   7.225   1.367
14056TIP3    H142113   2.179   7.316   1.392
14056TIP3    H242114   2.290   7.213   1.383
14057TIP3   OH242115   3.796   0.421   6.673
14057TIP3    H142116   3.792   0.421   6.578
14057TIP3    H242117   3.838   0.338   6.695
14058TIP3   OH242118   4.043   3.589   5.306
14058TIP3    H142119   4.055   3.530   5.231
14058TIP3    H242120   3.985   3.540   5.365
14059TIP3   OH242121   7.108   2.557   5.739
14059TIP3    H142122   7.013   2.552   5.728
14059TIP3    H242123   7.142   2.562   5.649
14060TIP3   OH242124   0.464   5.246   2.105
14060TIP3    H142125   0.515   5.326   2.119
14060TIP3    H242126   0.404   5.242   2.180
14061TIP3   OH242127   2.183   0.660   1.889
14061TIP3    H142128   2.267   0.641   1.931
14061TIP3    H242129   2.145   0.574   1.872
14062TIP3   OH242130   3.393   0.571   2.582
14062TIP3    H142131   3.456   0.505   2.613
14062TIP3    H242132   3.307   0.533   2.600
14063TIP3   OH242133   5.391   7.189   3.345
14063TIP3    H142134   5.454   7.125   3.379
14063TIP3    H242135   5.306   7.160   3.379
14064TIP3   OH242136   5.814   2.498   2.478
14064TIP3    H142137   5.884   2.521   2.539
14064TIP3    H242138   5.798   2.578   2.428
14065TIP3   OH242139   0.432   6.566   5.993
14065TIP3    H142140   0.406   6.567   5.901
14065TIP3    H242141   0.527   6.574   5.991
14066TIP3   OH242142   2.545   7.329   6.054
14066TIP3    H142143   2.605   7.331   5.979
14066TIP3    H242144   2.497   7.412   6.048
14067TIP3   OH242145   1.812   5.691   6.098
14067TIP3    H142146   1.752   5.765   6.105
14067TIP3    H242147   1.759   5.620   6.062
14068TIP3   OH242148   6.064   0.993   0.053
14068TIP3    H142149   6.137   0.984  -0.008
14068TIP3    H242150   5.986   0.974   0.000
14069TIP3   OH242151   0.054   3.486   6.456
14069TIP3    H142152   0.094   3.412   6.501
14069TIP3    H242153   0.041   3.552   6.525
14070TIP3   OH242154   5.144   1.580   6.514
14070TIP3    H142155   5.222   1.533   6.481
14070TIP3    H242156   5.074   1.515   6.508
14071TIP3   OH242157   1.231   5.820   4.121
14071TIP3    H142158   1.244   5.887   4.054
14071TIP3    H242159   1.319   5.792   4.145
14072TIP3   OH242160   5.464   4.256   6.388
14072TIP3    H142161   5.557   4.256   6.366
14072TIP3    H242162   5.460   4.211   6.472
14073TIP3   OH242163   0.236   3.901   0.542
14073TIP3    H142164   0.182   3.865   0.612
14073TIP3    H242165   0.197   3.865   0.462
14074TIP3   OH242166   1.837   3.812   2.555
14074TIP3    H142167   1.879   3.861   2.485
14074TIP3    H242168   1.744   3.818   2.536
14075TIP3   OH242169   4.339   0.538   0.850
14075TIP3    H142170   4.379   0.568   0.769
14075TIP3    H242171   4.308   0.617   0.893
14076TIP3   OH242172   3.906   3.547   3.749
14076TIP3    H142173   3.952   3.483   3.695
14076TIP3    H242174   3.935   3.632   3.716
14077TIP3   OH242175   0.993   4.412   5.605
14077TIP3    H142176   0.947   4.492   5.577
14077TIP3    H242177   1.085   4.438   5.608
14078TIP3   OH242178   3.216   6.515   3.021
14078TIP3    H142179   3.149   6.468   2.971
14078TIP3    H242180   3.274   6.447   3.053
14079TIP3   OH242181   2.279   1.479   0.027
14079TIP3    H142182   2.331   1.450   0.101
14079TIP3    H242183   2.189   1.480   0.059
14080TIP3   OH242184   5.415   3.398   4.725
14080TIP3    H142185   5.415   3.424   4.633
14080TIP3    H242186   5.464   3.466   4.769
14081TIP3   OH242187   2.629   6.391   3.638
14081TIP3    H142188   2.688   6.371   3.711
14081TIP3    H242189   2.595   6.307   3.610
14082TIP3   OH242190   1.227   6.697   6.582
14082TIP3    H142191   1.269   6.708   6.496
14082TIP3    H242192   1.299   6.686   6.643
14083TIP3   OH242193   1.781   2.314   5.090
14083TIP3    H142194   1.788   2.239   5.148
14083TIP3    H242195   1.783   2.276   5.002
14084TIP3   OH242196   3.512   4.801   0.732
14084TIP3    H142197   3.497   4.890   0.699
14084TIP3    H242198   3.446   4.748   0.688
14085TIP3   OH242199   3.262   2.155   5.879
14085TIP3    H142200   3.333   2.135   5.817
14085TIP3    H242201   3.231   2.242   5.852
14086TIP3   OH242202   4.256   3.027   4.927
14086TIP3    H142203   4.312   3.028   5.004
14086TIP3    H242204   4.168   3.012   4.961
14087TIP3   OH242205   0.516   0.322   0.340
14087TIP3    H142206   0.580   0.293   0.405
14087TIP3    H242207   0.560   0.393   0.293
14088TIP3   OH242208   0.715   7.385   0.750
14088TIP3    H142209   0.638   7.429   0.786
14088TIP3    H242210   0.681   7.331   0.679
14089TIP3   OH242211   6.737   1.752   1.301
14089TIP3    H142212   6.681   1.826   1.325
14089TIP3    H242213   6.735   1.694   1.377
14090TIP3   OH242214   5.899   1.388   5.406
14090TIP3    H142215   5.951   1.325   5.356
14090TIP3    H242216   5.929   1.474   5.376
14091TIP3   OH242217   0.640   3.484   2.643
14091TIP3    H142218   0.571   3.423   2.618
14091TIP3    H242219   0.633   3.556   2.580
14092TIP3   OH242220   2.843   3.680   4.326
14092TIP3    H142221   2.782   3.620   4.368
14092TIP3    H242222   2.902   3.708   4.396
14093TIP3   OH242223   7.803   5.286   5.107
14093TIP3    H142224   7.844   5.221   5.050
14093TIP3    H242225   7.869   5.355   5.115
14094TIP3   OH242226   4.569   2.199   3.435
14094TIP3    H142227   4.499   2.255   3.468
14094TIP3    H242228   4.529   2.113   3.425
14095TIP3   OH242229   5.901   3.430   5.426
14095TIP3    H142230   5.967   3.426   5.357
14095TIP3    H242231   5.819   3.447   5.381
14096TIP3   OH242232   1.944   1.276   4.086
14096TIP3    H142233   1.975   1.218   4.155
14096TIP3    H242234   1.939   1.220   4.008
14097TIP3   OH242235   2.785   4.781   0.171
14097TIP3    H142236   2.808   4.689   0.159
14097TIP3    H242237   2.691   4.785   0.156
14098TIP3   OH242238   6.097   7.212   2.342
14098TIP3    H142239   6.044   7.208   2.421
14098TIP3    H242240   6.054   7.279   2.288
14099TIP3   OH242241   2.234   6.428   0.323
14099TIP3    H142242   2.166   6.466   0.380
14099TIP3    H242243   2.233   6.335   0.345
14100TIP3   OH242244   3.254   7.817   5.538
14100TIP3    H142245   3.272   7.735   5.491
14100TIP3    H242246   3.315   7.815   5.612
14101TIP3   OH242247   2.527   3.567   1.033
14101TIP3    H142248   2.590   3.513   1.081
14101TIP3    H242249   2.515   3.522   0.949
14102TIP3   OH242250   7.952   5.499   0.017
14102TIP3    H142251   8.026   5.530   0.070
14102TIP3    H242252   7.984   5.502  -0.073
14103TIP3   OH242253   4.394   1.126   4.409
14103TIP3    H142254   4.448   1.205   4.399
14103TIP3    H242255   4.369   1.103   4.320
14104TIP3   OH242256   1.430   4.466   4.269
14104TIP3    H142257   1.447   4.422   4.352
14104TIP3    H242258   1.482   4.546   4.273
14105TIP3   OH242259   0.383   2.363   0.447
14105TIP3    H142260   0.378   2.325   0.359
14105TIP3    H242261   0.379   2.457   0.432
14106TIP3   OH242262   0.496   6.092   4.378
14106TIP3    H142263   0.528   6.179   4.351
14106TIP3    H242264   0.555   6.030   4.335
14107TIP3   OH242265   5.919   6.826   0.904
14107TIP3    H142266   5.872   6.792   0.980
14107TIP3    H242267   5.934   6.749   0.849
14108TIP3   OH242268   3.533   6.987   3.481
14108TIP3    H142269   3.605   6.949   3.531
14108TIP3    H242270   3.570   7.005   3.394
14109TIP3   OH242271   5.414   4.528   5.517
14109TIP3    H142272   5.384   4.579   5.592
14109TIP3    H242273   5.471   4.461   5.555
14110TIP3   OH242274   2.847   4.299   2.476
14110TIP3    H142275   2.789   4.371   2.447
14110TIP3    H242276   2.836   4.232   2.409
14111TIP3   OH242277   1.050   5.766   3.631
14111TIP3    H142278   1.104   5.837   3.666
14111TIP3    H242279   1.040   5.705   3.705
14112TIP3   OH242280   2.137   7.761   6.161
14112TIP3    H142281   2.098   7.822   6.223
14112TIP3    H242282   2.196   7.707   6.214
14113TIP3   OH242283   1.215   0.294   0.616
14113TIP3    H142284   1.267   0.263   0.690
14113TIP3    H242285   1.246   0.243   0.541
14114TIP3   OH242286   2.831   2.059   3.186
14114TIP3    H142287   2.797   2.138   3.145
14114TIP3    H242288   2.814   2.071   3.279
14115TIP3   OH242289   7.888   7.055   3.127
14115TIP3    H142290   7.894   7.151   3.123
14115TIP3    H242291   7.979   7.026   3.131
14116TIP3   OH242292   6.559   3.421   3.778
14116TIP3    H142293   6.540   3.363   3.852
14116TIP3    H242294   6.641   3.463   3.801
14117TIP3   OH242295   2.265   3.667   3.472
14117TIP3    H142296   2.352   3.676   3.512
14117TIP3    H242297   2.215   3.742   3.504
14118TIP3   OH242298   1.789   6.619   2.245
14118TIP3    H142299   1.734   6.656   2.313
14118TIP3    H242300   1.739   6.631   2.164
14119TIP3   OH242301   2.051   1.925   1.667
14119TIP3    H142302   2.001   1.868   1.726
14119TIP3    H242303   2.142   1.909   1.690
14120TIP3   OH242304   4.101   7.050   0.348
14120TIP3    H142305   4.060   6.968   0.321
14120TIP3    H242306   4.125   7.093   0.266
14121TIP3   OH242307   2.132   4.896   5.386
14121TIP3    H142308   2.162   4.865   5.472
14121TIP3    H242309   2.205   4.878   5.327
14122TIP3   OH242310   7.798   5.681   6.118
14122TIP3    H142311   7.848   5.600   6.112
14122TIP3    H242312   7.845   5.733   6.184
14123TIP3   OH242313   2.824   1.717   2.139
14123TIP3    H142314   2.873   1.770   2.202
14123TIP3    H242315   2.881   1.713   2.062
14124TIP3   OH242316   0.908   1.104   2.018
14124TIP3    H142317   0.982   1.059   1.978
14124TIP3    H242318   0.947   1.169   2.077
14125TIP3   OH242319   4.529   1.327   1.077
14125TIP3    H142320   4.586   1.402   1.057
14125TIP3    H242321   4.524   1.325   1.172
14126TIP3   OH242322   0.387   0.628   6.016
14126TIP3    H142323   0.393   0.536   5.989
14126TIP3    H242324   0.321   0.628   6.086
14127TIP3   OH242325   5.861   3.198   4.376
14127TIP3    H142326   5.923   3.237   4.438
14127TIP3    H242327   5.776   3.210   4.418
14128TIP3   OH242328   6.572   7.419   2.356
14128TIP3    H142329   6.620   7.476   2.295
14128TIP3    H242330   6.487   7.461   2.366
14129TIP3   OH242331   0.268   5.980   1.423
14129TIP3    H142332   0.194   5.976   1.484
14129TIP3    H242333   0.241   5.925   1.350
14130TIP3   OH242334   6.263   5.793   5.223
14130TIP3    H142335   6.173   5.812   5.251
14130TIP3    H242336   6.313   5.870   5.249
14131TIP3   OH242337   2.206   2.198   0.398
14131TIP3    H142338   2.183   2.172   0.309
14131TIP3    H242339   2.142   2.265   0.421
14132TIP3   OH242340   2.331   4.961   6.594
14132TIP3    H142341   2.379   4.906   6.532
14132TIP3    H242342   2.398   5.018   6.632
14133TIP3   OH242343   4.090   3.749   1.354
14133TIP3    H142344   4.183   3.725   1.348
14133TIP3    H242345   4.058   3.702   1.431
14134TIP3   OH242346   3.171   1.950   1.787
14134TIP3    H142347   3.196   1.916   1.873
14134TIP3    H242348   3.075   1.944   1.787
14135TIP3   OH242349   5.682   5.762   1.542
14135TIP3    H142350   5.621   5.748   1.615
14135TIP3    H242351   5.626   5.775   1.466
14136TIP3   OH242352   4.344   2.460   6.448
14136TIP3    H142353   4.375   2.372   6.464
14136TIP3    H242354   4.315   2.491   6.534
14137TIP3   OH242355   4.633   5.454   2.447
14137TIP3    H142356   4.666   5.494   2.366
14137TIP3    H242357   4.607   5.527   2.502
14138TIP3   OH242358   3.328   6.841   6.104
14138TIP3    H142359   3.397   6.821   6.041
14138TIP3    H242360   3.247   6.823   6.057
14139TIP3   OH242361   0.456   0.773   5.611
14139TIP3    H142362   0.529   0.808   5.663
14139TIP3    H242363   0.407   0.851   5.583
14140TIP3   OH242364   1.436   2.112   0.270
14140TIP3    H142365   1.368   2.163   0.315
14140TIP3    H242366   1.402   2.022   0.270
14141TIP3   OH242367   1.852   4.711   6.656
14141TIP3    H142368   1.943   4.733   6.637
14141TIP3    H242369   1.828   4.771   6.726
14142TIP3   OH242370   4.649   3.811   4.800
14142TIP3    H142371   4.555   3.806   4.817
14142TIP3    H242372   4.684   3.863   4.872
14143TIP3   OH242373   0.692   0.540   2.687
14143TIP3    H142374   0.622   0.580   2.636
14143TIP3    H242375   0.717   0.607   2.750
14144TIP3   OH242376   7.841   7.202   2.869
14144TIP3    H142377   7.839   7.107   2.886
14144TIP3    H242378   7.752   7.231   2.890
14145TIP3   OH242379   7.975   5.759   2.132
14145TIP3    H142380   7.903   5.714   2.178
14145TIP3    H242381   7.951   5.755   2.040
14146TIP3   OH242382   5.600   1.872   1.046
14146TIP3    H142383   5.509   1.867   1.018
14146TIP3    H242384   5.645   1.918   0.975
14147TIP3   OH242385   4.810   0.678   3.279
14147TIP3    H142386   4.844   0.591   3.301
14147TIP3    H242387   4.765   0.666   3.195
14148TIP3   OH242388   7.264   1.178   5.580
14148TIP3    H142389   7.198   1.247   5.568
14148TIP3    H242390   7.213   1.097   5.585
14149TIP3   OH242391   1.574   2.790   1.183
14149TIP3    H142392   1.569   2.862   1.120
14149TIP3    H242393   1.519   2.721   1.146
14150TIP3   OH242394   7.666   3.625   3.676
14150TIP3    H142395   7.691   3.568   3.749
14150TIP3    H242396   7.667   3.568   3.599
14151TIP3   OH242397   2.765   6.280   2.992
14151TIP3    H142398   2.671   6.266   2.978
14151TIP3    H242399   2.784   6.362   2.946
14152TIP3   OH242400   2.313   5.986   6.744
14152TIP3    H142401   2.285   5.973   6.834
14152TIP3    H242402   2.260   5.925   6.693
14153TIP3   OH242403   3.856   2.658   0.847
14153TIP3    H142404   3.788   2.592   0.862
14153TIP3    H242405   3.812   2.729   0.801
14154TIP3   OH242406   3.180   5.042   2.873
14154TIP3    H142407   3.222   4.991   2.943
14154TIP3    H242408   3.132   5.111   2.919
14155TIP3   OH242409   1.277   6.277   4.308
14155TIP3    H142410   1.255   6.292   4.216
14155TIP3    H242411   1.331   6.198   4.307
14156TIP3   OH242412   5.650   0.543   2.094
14156TIP3    H142413   5.714   0.528   2.024
14156TIP3    H242414   5.667   0.474   2.158
14157TIP3   OH242415   0.280   7.443   3.601
14157TIP3    H142416   0.241   7.359   3.628
14157TIP3    H242417   0.312   7.482   3.683
14158TIP3   OH242418   0.275   5.897   6.571
14158TIP3    H142419   0.237   5.964   6.515
14158TIP3    H242420   0.289   5.822   6.513
14159TIP3   OH242421   6.776   6.414   2.958
14159TIP3    H142422   6.784   6.329   2.915
14159TIP3    H242423   6.773   6.393   3.051
14160TIP3   OH242424   0.313   2.629   0.397
14160TIP3    H142425   0.372   2.703   0.413
14160TIP3    H242426   0.312   2.619   0.302
14161TIP3   OH242427   7.975   7.040   6.753
14161TIP3    H142428   7.964   7.102   6.682
14161TIP3    H242429   7.919   7.073   6.823
14162TIP3   OH242430   3.958   6.217   3.512
14162TIP3    H142431   3.869   6.228   3.546
14162TIP3    H242432   4.014   6.234   3.588
14163TIP3   OH242433   3.286   0.973   5.027
14163TIP3    H142434   3.321   0.892   4.992
14163TIP3    H242435   3.249   1.019   4.952
14164TIP3   OH242436   2.139   7.069   0.718
14164TIP3    H142437   2.150   7.114   0.801
14164TIP3    H242438   2.083   7.127   0.666
14165TIP3   OH242439   3.896   3.247   3.313
14165TIP3    H142440   3.886   3.261   3.407
14165TIP3    H242441   3.806   3.244   3.280
14166TIP3   OH242442   1.240   5.185   0.438
14166TIP3    H142443   1.214   5.118   0.502
14166TIP3    H242444   1.215   5.146   0.354
14167TIP3   OH242445   1.931   6.752   6.286
14167TIP3    H142446   1.874   6.730   6.212
14167TIP3    H242447   1.978   6.670   6.305
14168TIP3   OH242448   5.282   4.071   3.264
14168TIP3    H142449   5.188   4.058   3.251
14168TIP3    H242450   5.318   4.076   3.175
14169TIP3   OH242451   5.744   6.497   4.285
14169TIP3    H142452   5.676   6.559   4.258
14169TIP3    H242453   5.695   6.423   4.321
14170TIP3   OH242454   4.960   2.731   2.019
14170TIP3    H142455   5.004   2.791   2.079
14170TIP3    H242456   5.004   2.743   1.935
14171TIP3   OH242457   4.225   6.277   5.295
14171TIP3    H142458   4.276   6.204   5.258
14171TIP3    H242459   4.281   6.312   5.365
14172TIP3   OH242460   6.696   7.780   6.277
14172TIP3    H142461   6.631   7.802   6.344
14172TIP3    H242462   6.647   7.780   6.195
14173TIP3   OH242463  -0.014   6.079   4.211
14173TIP3    H142464  -0.016   6.082   4.115
14173TIP3    H242465   0.080   6.086   4.232
14174TIP3   OH242466   3.653   1.072   0.323
14174TIP3    H142467   3.653   1.163   0.353
14174TIP3    H242468   3.743   1.055   0.297
14175TIP3   OH242469   2.111   4.159   1.570
14175TIP3    H142470   2.205   4.176   1.577
14175TIP3    H242471   2.105   4.082   1.513
14176TIP3   OH242472   6.921   2.511   6.250
14176TIP3    H142473   6.920   2.597   6.294
14176TIP3    H242474   6.948   2.450   6.319
14177TIP3   OH242475   5.852   5.823   4.094
14177TIP3    H142476   5.861   5.854   4.185
14177TIP3    H242477   5.940   5.833   4.057
14178TIP3   OH242478   3.906   4.150   2.717
14178TIP3    H142479   3.920   4.189   2.630
14178TIP3    H242480   3.871   4.222   2.770
14179TIP3   OH242481   4.274   3.126   4.209
14179TIP3    H142482   4.349   3.069   4.191
14179TIP3    H242483   4.304   3.213   4.183
14180TIP3   OH242484   8.183   6.006   3.338
14180TIP3    H142485   8.255   5.946   3.321
14180TIP3    H242486   8.125   5.958   3.398
14181TIP3   OH242487   7.163   4.168   2.537
14181TIP3    H142488   7.094   4.106   2.516
14181TIP3    H242489   7.129   4.253   2.510
14182TIP3   OH242490   2.970   4.916   6.181
14182TIP3    H142491   2.965   5.000   6.135
14182TIP3    H242492   2.956   4.938   6.273
14183TIP3   OH242493   3.615   0.631   0.612
14183TIP3    H142494   3.586   0.633   0.521
14183TIP3    H242495   3.710   0.630   0.607
14184TIP3   OH242496   2.848   7.085   1.647
14184TIP3    H142497   2.764   7.130   1.659
14184TIP3    H242498   2.903   7.149   1.602
14185TIP3   OH242499   1.065   3.178   0.174
14185TIP3    H142500   1.004   3.145   0.239
14185TIP3    H242501   1.121   3.104   0.152
14186TIP3   OH242502   2.578   2.088   3.898
14186TIP3    H142503   2.624   2.171   3.908
14186TIP3    H242504   2.603   2.057   3.811
14187TIP3   OH242505   0.733   1.050   0.199
14187TIP3    H142506   0.750   1.138   0.235
14187TIP3    H242507   0.741   1.061   0.105
14188TIP3   OH242508   3.170   5.117   1.777
14188TIP3    H142509   3.266   5.115   1.775
14188TIP3    H242510   3.145   5.154   1.693
14189TIP3   OH242511   1.428   3.838   3.395
14189TIP3    H142512   1.353   3.826   3.336
14189TIP3    H242513   1.414   3.773   3.465
14190TIP3   OH242514   6.579   3.869   1.105
14190TIP3    H142515   6.646   3.913   1.053
14190TIP3    H242516   6.598   3.893   1.195
14191TIP3   OH242517   2.018   0.791   6.482
14191TIP3    H142518   1.927   0.803   6.454
14191TIP3    H242519   2.029   0.851   6.556
14192TIP3   OH242520   6.788   6.552   1.845
14192TIP3    H142521   6.837   6.632   1.831
14192TIP3    H242522   6.724   6.575   1.913
14193TIP3   OH242523   4.163   6.469   4.569
14193TIP3    H142524   4.115   6.454   4.487
14193TIP3    H242525   4.157   6.386   4.616
14194TIP3   OH242526   1.928   6.974   2.940
14194TIP3    H142527   2.009   7.024   2.928
14194TIP3    H242528   1.875   7.029   2.998
14195TIP3   OH242529   4.341   6.130   5.731
14195TIP3    H142530   4.351   6.039   5.760
14195TIP3    H242531   4.264   6.128   5.674
14196TIP3   OH242532   5.835   0.209   2.631
14196TIP3    H142533   5.921   0.168   2.638
14196TIP3    H242534   5.836   0.280   2.695
14197TIP3   OH242535   5.865   1.816   1.932
14197TIP3    H142536   5.797   1.817   1.999
14197TIP3    H242537   5.946   1.798   1.980
14198TIP3   OH242538   3.658   3.072   0.521
14198TIP3    H142539   3.576   3.075   0.472
14198TIP3    H242540   3.645   3.134   0.592
14199TIP3   OH242541   5.997   0.849   2.252
14199TIP3    H142542   5.948   0.805   2.183
14199TIP3    H242543   6.032   0.928   2.211
14200TIP3   OH242544   3.198   2.947   3.788
14200TIP3    H142545   3.112   2.977   3.817
14200TIP3    H242546   3.257   3.019   3.807
14201TIP3   OH242547   7.237   1.011   0.037
14201TIP3    H142548   7.216   1.026  -0.055
14201TIP3    H242549   7.275   1.093   0.067
14202TIP3   OH242550   2.683   4.228   6.397
14202TIP3    H142551   2.778   4.238   6.389
14202TIP3    H242552   2.649   4.249   6.310
14203TIP3   OH242553   3.473   2.750   3.900
14203TIP3    H142554   3.537   2.694   3.943
14203TIP3    H242555   3.464   2.712   3.812
14204TIP3   OH242556   6.537   2.563   5.617
14204TIP3    H142557   6.444   2.542   5.612
14204TIP3    H242558   6.567   2.561   5.526
14205TIP3   OH242559   3.777   5.154   5.104
14205TIP3    H142560   3.865   5.176   5.074
14205TIP3    H242561   3.744   5.235   5.144
14206TIP3   OH242562   0.525   5.854   0.055
14206TIP3    H142563   0.609   5.893   0.076
14206TIP3    H242564   0.542   5.799  -0.022
14207TIP3   OH242565   2.580   2.965   0.987
14207TIP3    H142566   2.507   2.903   0.990
14207TIP3    H242567   2.620   2.960   1.074
14208TIP3   OH242568   7.867   3.865   0.265
14208TIP3    H142569   7.847   3.912   0.184
14208TIP3    H242570   7.819   3.913   0.333
14209TIP3   OH242571   7.600   3.178   0.582
14209TIP3    H142572   7.605   3.131   0.665
14209TIP3    H242573   7.509   3.207   0.577
14210TIP3   OH242574   6.421   7.131   3.829
14210TIP3    H142575   6.345   7.188   3.844
14210TIP3    H242576   6.396   7.047   3.867
14211TIP3   OH242577   3.449   4.389   3.418
14211TIP3    H142578   3.430   4.397   3.512
14211TIP3    H242579   3.444   4.295   3.401
14212TIP3   OH242580   0.318   4.332   4.651
14212TIP3    H142581   0.412   4.329   4.630
14212TIP3    H242582   0.280   4.263   4.597
14213TIP3   OH242583   5.089   7.771   4.513
14213TIP3    H142584   5.095   7.742   4.604
14213TIP3    H242585   5.121   7.861   4.515
14214TIP3   OH242586   0.479   4.285   0.487
14214TIP3    H142587   0.502   4.365   0.534
14214TIP3    H242588   0.522   4.292   0.402
14215TIP3   OH242589   6.663   1.527   0.266
14215TIP3    H142590   6.735   1.478   0.226
14215TIP3    H242591   6.656   1.606   0.214
14216TIP3   OH242592   2.885   0.872   0.724
14216TIP3    H142593   2.908   0.942   0.663
14216TIP3    H242594   2.887   0.792   0.672
14217TIP3   OH242595   0.665   7.220   1.220
14217TIP3    H142596   0.719   7.286   1.177
14217TIP3    H242597   0.578   7.231   1.183
14218TIP3   OH242598   8.289   4.443   5.208
14218TIP3    H142599   8.368   4.391   5.223
14218TIP3    H242600   8.228   4.413   5.275
14219TIP3   OH242601   6.056   0.659   0.958
14219TIP3    H142602   6.114   0.605   0.905
14219TIP3    H242603   6.115   0.720   1.004
14220TIP3   OH242604   3.579   0.699   4.110
14220TIP3    H142605   3.533   0.746   4.041
14220TIP3    H242606   3.659   0.749   4.123
14221TIP3   OH242607   1.368   7.447   1.269
14221TIP3    H142608   1.323   7.363   1.284
14221TIP3    H242609   1.383   7.450   1.175
14222TIP3   OH242610   3.447   6.504   4.418
14222TIP3    H142611   3.530   6.509   4.466
14222TIP3    H242612   3.392   6.446   4.471
14223TIP3   OH242613   5.574   0.752   5.522
14223TIP3    H142614   5.577   0.773   5.429
14223TIP3    H242615   5.630   0.674   5.531
14224TIP3   OH242616   2.948   0.496   6.536
14224TIP3    H142617   2.887   0.454   6.595
14224TIP3    H242618   3.014   0.430   6.518
14225TIP3   OH242619   5.709   1.427   1.230
14225TIP3    H142620   5.782   1.384   1.186
14225TIP3    H242621   5.636   1.365   1.222
14226TIP3   OH242622   5.870   1.001   5.280
14226TIP3    H142623   5.833   0.913   5.292
14226TIP3    H242624   5.810   1.044   5.219
14227TIP3   OH242625   2.267   6.572   3.573
14227TIP3    H142626   2.352   6.611   3.552
14227TIP3    H242627   2.268   6.562   3.668
14228TIP3   OH242628   3.749   6.521   6.520
14228TIP3    H142629   3.799   6.550   6.596
14228TIP3    H242630   3.789   6.438   6.495
14229TIP3   OH242631   6.200   5.784   0.629
14229TIP3    H142632   6.130   5.839   0.664
14229TIP3    H242633   6.156   5.726   0.567
14230TIP3   OH242634   3.716   7.455   4.843
14230TIP3    H142635   3.743   7.427   4.930
14230TIP3    H242636   3.700   7.548   4.852
14231TIP3   OH242637   0.986   1.114   5.351
14231TIP3    H142638   0.987   1.084   5.442
14231TIP3    H242639   0.895   1.107   5.324
14232TIP3   OH242640   5.196   3.338   3.936
14232TIP3    H142641   5.273   3.384   3.970
14232TIP3    H242642   5.205   3.249   3.969
14233TIP3   OH242643   6.062   2.779   5.690
14233TIP3    H142644   6.023   2.776   5.603
14233TIP3    H242645   6.012   2.846   5.737
14234TIP3   OH242646   6.933   5.028   0.401
14234TIP3    H142647   6.890   4.955   0.358
14234TIP3    H242648   6.909   5.019   0.493
14235TIP3   OH242649   3.467   3.833   3.680
14235TIP3    H142650   3.443   3.866   3.766
14235TIP3    H242651   3.386   3.837   3.630
14236TIP3   OH242652   0.610   5.265   4.207
14236TIP3    H142653   0.698   5.232   4.224
14236TIP3    H242654   0.557   5.231   4.279
14237TIP3   OH242655   5.811   7.321   6.073
14237TIP3    H142656   5.831   7.406   6.035
14237TIP3    H242657   5.896   7.279   6.085
14238TIP3   OH242658   3.418   0.045   3.284
14238TIP3    H142659   3.348  -0.019   3.298
14238TIP3    H242660   3.387   0.099   3.212
14239TIP3   OH242661   7.536   5.051   2.858
14239TIP3    H142662   7.602   4.983   2.875
14239TIP3    H242663   7.587   5.126   2.827
14240TIP3   OH242664   6.014   1.942   4.183
14240TIP3    H142665   6.064   2.008   4.230
14240TIP3    H242666   5.933   1.933   4.233
14241TIP3   OH242667   0.169   5.990   2.079
14241TIP3    H142668   0.187   5.901   2.109
14241TIP3    H242669   0.255   6.032   2.072
14242TIP3   OH242670   0.027   6.830   3.659
14242TIP3    H142671   0.060   6.889   3.591
14242TIP3    H242672  -0.053   6.872   3.691
14243TIP3   OH242673   2.142   0.929   0.885
14243TIP3    H142674   2.232   0.939   0.919
14243TIP3    H242675   2.098   0.875   0.951
14244TIP3   OH242676   5.992   2.097   3.114
14244TIP3    H142677   5.917   2.143   3.076
14244TIP3    H242678   5.962   2.066   3.199
14245TIP3   OH242679   5.257   0.480   4.467
14245TIP3    H142680   5.288   0.438   4.547
14245TIP3    H242681   5.309   0.561   4.461
14246TIP3   OH242682   6.927   5.505   2.228
14246TIP3    H142683   6.841   5.538   2.251
14246TIP3    H242684   6.979   5.512   2.308
14247TIP3   OH242685   2.013   3.447   5.298
14247TIP3    H142686   2.043   3.457   5.207
14247TIP3    H242687   2.094   3.447   5.349
14248TIP3   OH242688   5.378   7.601   6.485
14248TIP3    H142689   5.383   7.526   6.544
14248TIP3    H242690   5.351   7.564   6.401
14249TIP3   OH242691   4.225   4.747   1.990
14249TIP3    H142692   4.200   4.782   2.076
14249TIP3    H242693   4.310   4.706   2.005
14250TIP3   OH242694   1.284   2.509   4.055
14250TIP3    H142695   1.208   2.488   4.002
14250TIP3    H242696   1.254   2.577   4.115
14251TIP3   OH242697   2.228   1.418   0.502
14251TIP3    H142698   2.272   1.392   0.421
14251TIP3    H242699   2.260   1.355   0.567
14252TIP3   OH242700   6.690   7.141   2.173
14252TIP3    H142701   6.777   7.174   2.151
14252TIP3    H242702   6.667   7.185   2.255
14253TIP3   OH242703   7.131   5.439   0.137
14253TIP3    H142704   7.119   5.344   0.138
14253TIP3    H242705   7.141   5.461   0.044
14254TIP3   OH242706   2.418   0.178   5.786
14254TIP3    H142707   2.417   0.272   5.768
14254TIP3    H242708   2.336   0.162   5.833
14255TIP3   OH242709   6.499   4.594   5.948
14255TIP3    H142710   6.504   4.532   5.874
14255TIP3    H242711   6.428   4.561   6.002
14256TIP3   OH242712   5.827   3.888   0.329
14256TIP3    H142713   5.851   3.946   0.256
14256TIP3    H242714   5.741   3.853   0.304
14257TIP3   OH242715   1.793   5.030   1.768
14257TIP3    H142716   1.698   5.020   1.775
14257TIP3    H242717   1.825   5.016   1.857
14258TIP3   OH242718   1.521   5.475   3.261
14258TIP3    H142719   1.441   5.467   3.314
14258TIP3    H242720   1.521   5.397   3.206
14259TIP3   OH242721   1.559   3.631   4.334
14259TIP3    H142722   1.500   3.572   4.382
14259TIP3    H242723   1.564   3.709   4.389
14260TIP3   OH242724   5.067   5.421   3.877
14260TIP3    H142725   4.986   5.405   3.828
14260TIP3    H242726   5.080   5.516   3.870
14261TIP3   OH242727   4.406   3.489   0.860
14261TIP3    H142728   4.443   3.501   0.948
14261TIP3    H242729   4.338   3.556   0.854
14262TIP3   OH242730   4.469   0.716   0.354
14262TIP3    H142731   4.538   0.713   0.288
14262TIP3    H242732   4.388   0.700   0.306
14263TIP3   OH242733   4.619   2.188   1.210
14263TIP3    H142734   4.696   2.159   1.161
14263TIP3    H242735   4.646   2.186   1.301
14264TIP3   OH242736   1.739   1.923   1.888
14264TIP3    H142737   1.734   1.925   1.793
14264TIP3    H242738   1.806   1.858   1.908
14265TIP3   OH242739   5.731   6.940   4.136
14265TIP3    H142740   5.737   6.845   4.131
14265TIP3    H242741   5.786   6.964   4.211
14266TIP3   OH242742   7.545   0.881   2.287
14266TIP3    H142743   7.452   0.890   2.264
14266TIP3    H242744   7.576   0.806   2.236
14267TIP3   OH242745   7.856   6.394   4.495
14267TIP3    H142746   7.848   6.369   4.403
14267TIP3    H242747   7.901   6.320   4.536
14268TIP3   OH242748   6.887   3.762   3.958
14268TIP3    H142749   6.807   3.805   3.988
14268TIP3    H242750   6.939   3.832   3.920
14269TIP3   OH242751   7.605   0.037   1.830
14269TIP3    H142752   7.562   0.107   1.878
14269TIP3    H242753   7.698   0.060   1.831
14270TIP3   OH242754   6.292   3.516   3.953
14270TIP3    H142755   6.285   3.421   3.940
14270TIP3    H242756   6.207   3.550   3.927
14271TIP3   OH242757   1.611   3.743   3.134
14271TIP3    H142758   1.612   3.693   3.216
14271TIP3    H242759   1.696   3.724   3.094
14272TIP3   OH242760   7.591   3.569   5.978
14272TIP3    H142761   7.600   3.588   6.072
14272TIP3    H242762   7.622   3.479   5.968
14273TIP3   OH242763   5.291   5.269   2.864
14273TIP3    H142764   5.285   5.361   2.891
14273TIP3    H242765   5.226   5.224   2.917
14274TIP3   OH242766   4.067   2.683   2.362
14274TIP3    H142767   4.138   2.641   2.313
14274TIP3    H242768   4.107   2.762   2.399
14275TIP3   OH242769   5.630   4.767   0.390
14275TIP3    H142770   5.631   4.736   0.300
14275TIP3    H242771   5.716   4.805   0.404
14276TIP3   OH242772   5.634   7.551   5.600
14276TIP3    H142773   5.674   7.610   5.537
14276TIP3    H242774   5.616   7.472   5.550
14277TIP3   OH242775   2.243   2.380   5.355
14277TIP3    H142776   2.157   2.357   5.320
14277TIP3    H242777   2.299   2.305   5.332
14278TIP3   OH242778   4.481   7.033   1.328
14278TIP3    H142779   4.576   7.036   1.334
14278TIP3    H242780   4.452   7.113   1.372
14279TIP3   OH242781   5.473   3.922   0.689
14279TIP3    H142782   5.525   3.849   0.722
14279TIP3    H242783   5.509   3.999   0.733
14280TIP3   OH242784   5.428   5.627   0.676
14280TIP3    H142785   5.447   5.713   0.713
14280TIP3    H242786   5.344   5.637   0.632
14281TIP3   OH242787   0.626   1.201   1.287
14281TIP3    H142788   0.566   1.269   1.256
14281TIP3    H242789   0.692   1.249   1.338
14282TIP3   OH242790   3.459   1.222   1.327
14282TIP3    H142791   3.407   1.162   1.274
14282TIP3    H242792   3.529   1.166   1.363
14283TIP3   OH242793   6.220   7.317   1.012
14283TIP3    H142794   6.173   7.248   0.965
14283TIP3    H242795   6.289   7.270   1.060
14284TIP3   OH242796   3.515   1.053   0.565
14284TIP3    H142797   3.581   1.122   0.560
14284TIP3    H242798   3.461   1.065   0.487
14285TIP3   OH242799   0.039   7.502   1.334
14285TIP3    H142800  -0.022   7.483   1.406
14285TIP3    H242801   0.053   7.596   1.340
14286TIP3   OH242802   0.371   2.472   5.501
14286TIP3    H142803   0.279   2.482   5.478
14286TIP3    H242804   0.403   2.406   5.439
14287TIP3   OH242805   1.341   6.913   3.267
14287TIP3    H142806   1.303   6.968   3.336
14287TIP3    H242807   1.378   6.838   3.314
14288TIP3   OH242808   3.313   3.089   5.527
14288TIP3    H142809   3.279   3.154   5.466
14288TIP3    H242810   3.243   3.079   5.592
14289TIP3   OH242811   0.929   2.012   0.490
14289TIP3    H142812   0.965   1.962   0.416
14289TIP3    H242813   0.998   2.007   0.557
14290TIP3   OH242814   2.679   4.967   5.843
14290TIP3    H142815   2.625   4.950   5.766
14290TIP3    H242816   2.626   5.026   5.897
14291TIP3   OH242817   4.664   1.181   3.689
14291TIP3    H142818   4.639   1.095   3.655
14291TIP3    H242819   4.586   1.235   3.676
14292TIP3   OH242820   6.401   0.181   1.269
14292TIP3    H142821   6.399   0.276   1.263
14292TIP3    H242822   6.418   0.151   1.179
14293TIP3   OH242823   6.641   4.520   2.730
14293TIP3    H142824   6.714   4.500   2.671
14293TIP3    H242825   6.664   4.476   2.812
14294TIP3   OH242826   2.702   5.592   4.183
14294TIP3    H142827   2.701   5.581   4.278
14294TIP3    H242828   2.685   5.686   4.170
14295TIP3   OH242829   1.047   3.235   3.251
14295TIP3    H142830   1.052   3.284   3.169
14295TIP3    H242831   1.073   3.299   3.318
14296TIP3   OH242832  -0.018   2.962   0.491
14296TIP3    H142833   0.054   3.021   0.466
14296TIP3    H242834   0.009   2.927   0.576
14297TIP3   OH242835   1.599   5.982   3.403
14297TIP3    H142836   1.598   6.064   3.354
14297TIP3    H242837   1.686   5.979   3.443
14298TIP3   OH242838   7.153   0.634   6.383
14298TIP3    H142839   7.155   0.676   6.470
14298TIP3    H242840   7.245   0.617   6.362
14299TIP3   OH242841   6.060   7.485   2.580
14299TIP3    H142842   5.982   7.429   2.583
14299TIP3    H242843   6.101   7.473   2.666
14300TIP3   OH242844   0.680   1.813   4.270
14300TIP3    H142845   0.626   1.844   4.343
14300TIP3    H242846   0.740   1.885   4.251
14301TIP3   OH242847   2.440   5.840   2.506
14301TIP3    H142848   2.347   5.864   2.512
14301TIP3    H242849   2.463   5.857   2.415
14302TIP3   OH242850   3.628   0.682   3.040
14302TIP3    H142851   3.698   0.644   2.987
14302TIP3    H242852   3.550   0.631   3.018
14303TIP3   OH242853   4.679   1.636   3.792
14303TIP3    H142854   4.759   1.592   3.763
14303TIP3    H242855   4.704   1.727   3.803
14304TIP3   OH242856   4.380   1.262   2.822
14304TIP3    H142857   4.338   1.234   2.741
14304TIP3    H242858   4.308   1.288   2.879
14305TIP3   OH242859   6.300   2.480   5.080
14305TIP3    H142860   6.264   2.543   5.018
14305TIP3    H242861   6.358   2.425   5.028
14306TIP3   OH242862   1.963   3.892   4.546
14306TIP3    H142863   2.025   3.950   4.590
14306TIP3    H242864   1.886   3.947   4.531
14307TIP3   OH242865   6.924   2.486   3.543
14307TIP3    H142866   6.957   2.576   3.542
14307TIP3    H242867   6.902   2.470   3.635
14308TIP3   OH242868   6.789   3.519   3.854
14308TIP3    H142869   6.814   3.542   3.943
14308TIP3    H242870   6.864   3.546   3.800
14309TIP3   OH242871   7.168   6.756   4.115
14309TIP3    H142872   7.262   6.751   4.134
14309TIP3    H242873   7.164   6.759   4.019
14310TIP3   OH242874   3.819   1.165   1.969
14310TIP3    H142875   3.870   1.084   1.969
14310TIP3    H242876   3.852   1.215   2.043
14311TIP3   OH242877   7.310   5.324   5.175
14311TIP3    H142878   7.263   5.304   5.094
14311TIP3    H242879   7.365   5.248   5.191
14312TIP3   OH242880   7.506   5.868   0.961
14312TIP3    H142881   7.506   5.850   1.055
14312TIP3    H242882   7.586   5.918   0.947
14313TIP3   OH242883   1.970   7.122   1.605
14313TIP3    H142884   2.048   7.166   1.570
14313TIP3    H242885   2.006   7.053   1.662
14314TIP3   OH242886   3.737   7.772   6.446
14314TIP3    H142887   3.726   7.800   6.537
14314TIP3    H242888   3.823   7.729   6.443
14315TIP3   OH242889   4.437   0.107   4.483
14315TIP3    H142890   4.508   0.165   4.456
14315TIP3    H242891   4.445   0.104   4.579
14316TIP3   OH242892   0.199   0.214   1.291
14316TIP3    H142893   0.220   0.283   1.355
14316TIP3    H242894   0.113   0.183   1.317
14317TIP3   OH242895   3.635   4.087   3.650
14317TIP3    H142896   3.566   4.088   3.584
14317TIP3    H242897   3.614   4.013   3.706
14318TIP3   OH242898   7.706   7.538   6.425
14318TIP3    H142899   7.689   7.452   6.386
14318TIP3    H242900   7.624   7.586   6.414
14319TIP3   OH242901   7.049   3.055   0.005
14319TIP3    H142902   7.075   3.078   0.095
14319TIP3    H242903   7.132   3.042  -0.041
14320TIP3   OH242904   1.316   5.567   2.156
14320TIP3    H142905   1.284   5.483   2.122
14320TIP3    H242906   1.275   5.632   2.099
14321TIP3   OH242907   2.601   2.656   2.152
14321TIP3    H142908   2.552   2.702   2.220
14321TIP3    H242909   2.579   2.564   2.165
14322TIP3   OH242910   7.919   1.016   2.497
14322TIP3    H142911   7.892   0.970   2.577
14322TIP3    H242912   8.012   0.994   2.488
14323TIP3   OH242913   7.628   5.482   6.348
14323TIP3    H142914   7.710   5.530   6.344
14323TIP3    H242915   7.627   5.429   6.268
14324TIP3   OH242916   4.951   3.530   4.259
14324TIP3    H142917   4.965   3.624   4.242
14324TIP3    H242918   4.976   3.519   4.351
14325TIP3   OH242919   6.577   6.089   0.882
14325TIP3    H142920   6.633   6.079   0.959
14325TIP3    H242921   6.542   6.179   0.889
14326TIP3   OH242922   6.179   2.690   4.262
14326TIP3    H142923   6.266   2.678   4.224
14326TIP3    H242924   6.154   2.602   4.292
14327TIP3   OH242925   5.529   6.055   6.512
14327TIP3    H142926   5.505   6.020   6.598
14327TIP3    H242927   5.475   6.133   6.502
14328TIP3   OH242928   2.975   6.117   2.743
14328TIP3    H142929   2.893   6.074   2.721
14328TIP3    H242930   3.041   6.048   2.737
14329TIP3   OH242931   3.623   6.114   0.443
14329TIP3    H142932   3.570   6.035   0.429
14329TIP3    H242933   3.713   6.085   0.428
14330TIP3   OH242934   3.963   0.523   3.984
14330TIP3    H142935   3.893   0.496   4.044
14330TIP3    H242936   3.917   0.572   3.915
14331TIP3   OH242937   4.862   3.351   1.641
14331TIP3    H142938   4.897   3.299   1.570
14331TIP3    H242939   4.937   3.398   1.676
14332TIP3   OH242940   3.923   1.347   2.167
14332TIP3    H142941   3.880   1.419   2.123
14332TIP3    H242942   3.910   1.364   2.261
14333TIP3   OH242943   3.320   5.888   0.129
14333TIP3    H142944   3.309   5.793   0.121
14333TIP3    H242945   3.390   5.910   0.067
14334TIP3   OH242946   5.651   3.721   0.197
14334TIP3    H142947   5.578   3.725   0.136
14334TIP3    H242948   5.612   3.688   0.278
14335TIP3   OH242949   7.167   0.294   1.946
14335TIP3    H142950   7.149   0.324   2.035
14335TIP3    H242951   7.092   0.322   1.894
14336TIP3   OH242952   3.360   0.616   3.462
14336TIP3    H142953   3.353   0.707   3.432
14336TIP3    H242954   3.417   0.621   3.539
14337TIP3   OH242955   4.719   6.338   0.196
14337TIP3    H142956   4.684   6.396   0.263
14337TIP3    H242957   4.688   6.376   0.113
14338TIP3   OH242958   4.639   1.028   5.841
14338TIP3    H142959   4.549   0.997   5.831
14338TIP3    H242960   4.630   1.114   5.883
14339TIP3   OH242961   0.132   1.537   4.447
14339TIP3    H142962   0.206   1.547   4.507
14339TIP3    H242963   0.083   1.463   4.482
14340TIP3   OH242964   2.029   0.372   5.846
14340TIP3    H142965   2.111   0.416   5.825
14340TIP3    H242966   1.990   0.352   5.761
14341TIP3   OH242967   4.586   1.721   4.441
14341TIP3    H142968   4.503   1.740   4.396
14341TIP3    H242969   4.562   1.712   4.533
14342TIP3   OH242970   7.273   5.482   5.403
14342TIP3    H142971   7.266   5.448   5.314
14342TIP3    H242972   7.270   5.404   5.459
14343TIP3   OH242973   1.542   2.881   0.169
14343TIP3    H142974   1.606   2.897   0.238
14343TIP3    H242975   1.594   2.848   0.095
14344TIP3   OH242976   5.031   0.563   4.607
14344TIP3    H142977   5.087   0.620   4.660
14344TIP3    H242978   5.092   0.517   4.550
14345TIP3   OH242979   4.235   4.393   3.197
14345TIP3    H142980   4.186   4.367   3.119
14345TIP3    H242981   4.168   4.429   3.256
14346TIP3   OH242982   2.450   6.867   1.210
14346TIP3    H142983   2.460   6.822   1.126
14346TIP3    H242984   2.455   6.960   1.188
14347TIP3   OH242985   8.278   6.317   0.697
14347TIP3    H142986   8.328   6.396   0.716
14347TIP3    H242987   8.299   6.296   0.606
14348TIP3   OH242988   4.347   1.543   6.077
14348TIP3    H142989   4.402   1.583   6.010
14348TIP3    H242990   4.382   1.576   6.160
14349TIP3   OH242991   3.117   4.372   3.469
14349TIP3    H142992   3.125   4.327   3.385
14349TIP3    H242993   3.152   4.310   3.533
14350TIP3   OH242994   0.022   6.897   4.403
14350TIP3    H142995   0.055   6.976   4.444
14350TIP3    H242996   0.080   6.882   4.328
14351TIP3   OH242997   0.470   2.417   1.581
14351TIP3    H142998   0.441   2.361   1.510
14351TIP3    H242999   0.543   2.370   1.621
14352TIP3   OH243000   2.705   2.300   6.296
14352TIP3    H143001   2.732   2.208   6.299
14352TIP3    H243002   2.685   2.316   6.204
14353TIP3   OH243003   7.309   4.976   5.201
14353TIP3    H143004   7.262   5.016   5.274
14353TIP3    H243005   7.390   4.943   5.240
14354TIP3   OH243006   2.590   0.964   6.010
14354TIP3    H143007   2.667   0.907   6.019
14354TIP3    H243008   2.524   0.924   6.066
14355TIP3   OH243009   4.346   5.015   4.890
14355TIP3    H143010   4.348   4.971   4.975
14355TIP3    H243011   4.365   4.945   4.827
14356TIP3   OH243012   1.691   5.881   4.735
14356TIP3    H143013   1.617   5.904   4.677
14356TIP3    H243014   1.650   5.834   4.807
14357TIP3   OH243015   1.130   0.641   3.710
14357TIP3    H143016   1.047   0.672   3.672
14357TIP3    H243017   1.110   0.629   3.803
14358TIP3   OH243018   1.326   2.717   5.404
14358TIP3    H143019   1.348   2.707   5.311
14358TIP3    H243020   1.391   2.779   5.437
14359TIP3   OH243021   7.945   7.293   2.587
14359TIP3    H143022   7.963   7.386   2.599
14359TIP3    H243023   7.872   7.275   2.645
14360TIP3   OH243024   1.313   3.727   0.885
14360TIP3    H143025   1.331   3.817   0.856
14360TIP3    H243026   1.240   3.698   0.830
14361TIP3   OH243027   2.842   6.511   6.322
14361TIP3    H143028   2.828   6.604   6.342
14361TIP3    H243029   2.766   6.467   6.362
14362TIP3   OH243030   7.775   1.144   4.611
14362TIP3    H143031   7.771   1.175   4.702
14362TIP3    H243032   7.684   1.141   4.583
14363TIP3   OH243033   1.442   7.273   3.695
14363TIP3    H143034   1.347   7.282   3.707
14363TIP3    H243035   1.459   7.316   3.611
14364TIP3   OH243036   7.911   2.776   1.185
14364TIP3    H143037   7.913   2.691   1.141
14364TIP3    H243038   7.989   2.777   1.240
14365TIP3   OH243039   0.861   4.630   4.820
14365TIP3    H143040   0.883   4.717   4.789
14365TIP3    H243041   0.871   4.634   4.915
14366TIP3   OH243042   0.934   5.242   0.919
14366TIP3    H143043   0.945   5.267   1.011
14366TIP3    H243044   0.965   5.152   0.914
14367TIP3   OH243045   5.843   0.696   4.038
14367TIP3    H143046   5.825   0.689   3.945
14367TIP3    H243047   5.872   0.609   4.064
14368TIP3   OH243048   0.073   3.436   2.583
14368TIP3    H143049  -0.004   3.383   2.561
14368TIP3    H243050   0.129   3.378   2.633
14369TIP3   OH243051   1.014   5.234   2.826
14369TIP3    H143052   1.066   5.230   2.906
14369TIP3    H243053   1.068   5.283   2.764
14370TIP3   OH243054   4.738   6.717   1.834
14370TIP3    H143055   4.833   6.725   1.829
14370TIP3    H243056   4.723   6.651   1.901
14371TIP3   OH243057   8.242   7.053   2.304
14371TIP3    H143058   8.228   7.122   2.369
14371TIP3    H243059   8.248   6.972   2.355
14372TIP3   OH243060   4.323   0.541   5.217
14372TIP3    H143061   4.386   0.489   5.165
14372TIP3    H243062   4.327   0.502   5.304
14373TIP3   OH243063   3.764   7.717   1.836
14373TIP3    H143064   3.806   7.643   1.879
14373TIP3    H243065   3.673   7.714   1.867
14374TIP3   OH243066   2.295   6.056   1.234
14374TIP3    H143067   2.287   6.071   1.139
14374TIP3    H243068   2.209   6.081   1.268
14375TIP3   OH243069   4.459   3.224   3.134
14375TIP3    H143070   4.375   3.253   3.171
14375TIP3    H243071   4.487   3.298   3.081
14376TIP3   OH243072   3.310   5.600   0.914
14376TIP3    H143073   3.355   5.672   0.871
14376TIP3    H243074   3.318   5.619   1.008
14377TIP3   OH243075   6.521   0.133   2.609
14377TIP3    H143076   6.504   0.043   2.581
14377TIP3    H243077   6.608   0.129   2.649
14378TIP3   OH243078   4.755   3.669   5.183
14378TIP3    H143079   4.724   3.587   5.220
14378TIP3    H243080   4.780   3.647   5.093
14379TIP3   OH243081   2.706   0.121   3.007
14379TIP3    H143082   2.656   0.090   2.932
14379TIP3    H243083   2.654   0.192   3.044
14380TIP3   OH243084   3.649   6.445   1.045
14380TIP3    H143085   3.569   6.458   1.095
14380TIP3    H243086   3.636   6.363   0.998
14381TIP3   OH243087   0.929   2.711   2.512
14381TIP3    H143088   1.012   2.677   2.479
14381TIP3    H243089   0.900   2.645   2.575
14382TIP3   OH243090   2.400   5.926   4.417
14382TIP3    H143091   2.399   5.840   4.460
14382TIP3    H243092   2.372   5.987   4.485
14383TIP3   OH243093   7.154   3.377   5.379
14383TIP3    H143094   7.177   3.403   5.290
14383TIP3    H243095   7.174   3.454   5.432
14384TIP3   OH243096   0.561   4.936   2.082
14384TIP3    H143097   0.607   4.859   2.118
14384TIP3    H243098   0.574   5.004   2.148
14385TIP3   OH243099   7.855   6.111   0.841
14385TIP3    H143100   7.774   6.123   0.792
14385TIP3    H243101   7.907   6.189   0.822
14386TIP3   OH243102   5.377   2.072   4.772
14386TIP3    H143103   5.383   1.997   4.830
14386TIP3    H243104   5.359   2.146   4.830
14387TIP3   OH243105   4.814   3.872   4.217
14387TIP3    H143106   4.764   3.828   4.149
14387TIP3    H243107   4.903   3.837   4.209
14388TIP3   OH243108   4.493   5.929   1.437
14388TIP3    H143109   4.400   5.950   1.424
14388TIP3    H243110   4.510   5.949   1.529
14389TIP3   OH243111   3.369   4.193   1.133
14389TIP3    H143112   3.422   4.238   1.199
14389TIP3    H243113   3.289   4.168   1.180
14390TIP3   OH243114   7.062   1.605   5.934
14390TIP3    H143115   7.033   1.545   6.003
14390TIP3    H243116   7.020   1.573   5.855
14391TIP3   OH243117   1.801   4.192   1.012
14391TIP3    H143118   1.749   4.163   0.936
14391TIP3    H243119   1.808   4.287   1.001
14392TIP3   OH243120   3.965   6.408   0.909
14392TIP3    H143121   3.873   6.425   0.891
14392TIP3    H243122   3.984   6.327   0.862
14393TIP3   OH243123   5.816   0.021   1.202
14393TIP3    H143124   5.830  -0.052   1.142
14393TIP3    H243125   5.811   0.098   1.146
14394TIP3   OH243126   0.173   7.345   4.616
14394TIP3    H143127   0.124   7.339   4.698
14394TIP3    H243128   0.158   7.434   4.586
14395TIP3   OH243129   0.073   3.822   4.795
14395TIP3    H143130  -0.017   3.835   4.765
14395TIP3    H243131   0.084   3.887   4.865
14396TIP3   OH243132   2.143   7.354   3.930
14396TIP3    H143133   2.157   7.435   3.881
14396TIP3    H243134   2.049   7.337   3.921
14397TIP3   OH243135   7.711   3.515   4.410
14397TIP3    H143136   7.783   3.510   4.347
14397TIP3    H243137   7.749   3.486   4.493
14398TIP3   OH243138   7.102   1.094   3.316
14398TIP3    H143139   7.072   1.005   3.296
14398TIP3    H243140   7.134   1.089   3.406
14399TIP3   OH243141   0.629   0.282   2.736
14399TIP3    H143142   0.638   0.377   2.741
14399TIP3    H243143   0.633   0.262   2.643
14400TIP3   OH243144   5.411   4.567   0.144
14400TIP3    H143145   5.434   4.659   0.129
14400TIP3    H243146   5.344   4.548   0.079
14401TIP3   OH243147   4.608   0.667   2.036
14401TIP3    H143148   4.515   0.646   2.041
14401TIP3    H243149   4.622   0.729   2.108
14402TIP3   OH243150   0.488   1.203   5.256
14402TIP3    H143151   0.448   1.118   5.274
14402TIP3    H243152   0.453   1.261   5.323
14403TIP3   OH243153   0.590   7.189   5.008
14403TIP3    H143154   0.560   7.272   4.970
14403TIP3    H243155   0.655   7.215   5.073
14404TIP3   OH243156   0.894   6.688   0.047
14404TIP3    H143157   0.911   6.746  -0.028
14404TIP3    H243158   0.826   6.734   0.097
14405TIP3   OH243159   2.110   0.372   3.888
14405TIP3    H143160   2.075   0.284   3.896
14405TIP3    H243161   2.063   0.409   3.813
14406TIP3   OH243162   7.037   7.532   2.748
14406TIP3    H143163   7.063   7.509   2.837
14406TIP3    H243164   6.965   7.594   2.760
14407TIP3   OH243165   4.204   7.044   2.932
14407TIP3    H143166   4.194   7.045   2.837
14407TIP3    H243167   4.233   6.955   2.952
14408TIP3   OH243168   2.116   5.272   3.613
14408TIP3    H143169   2.148   5.350   3.659
14408TIP3    H243170   2.045   5.239   3.668
14409TIP3   OH243171   6.136   1.789   3.719
14409TIP3    H143172   6.151   1.806   3.626
14409TIP3    H243173   6.057   1.838   3.740
14410TIP3   OH243174   2.259   0.347   0.825
14410TIP3    H143175   2.170   0.312   0.825
14410TIP3    H243176   2.300   0.308   0.748
14411TIP3   OH243177   5.620   4.992   5.631
14411TIP3    H143178   5.712   4.984   5.656
14411TIP3    H243179   5.607   4.922   5.567
14412TIP3   OH243180   7.846   7.747   4.107
14412TIP3    H143181   7.806   7.668   4.141
14412TIP3    H243182   7.933   7.750   4.147
14413TIP3   OH243183   8.143   6.778   5.020
14413TIP3    H143184   8.105   6.690   5.025
14413TIP3    H243185   8.077   6.830   4.975
14414TIP3   OH243186   0.725   4.944   2.330
14414TIP3    H143187   0.711   5.037   2.315
14414TIP3    H243188   0.820   4.934   2.333
14415TIP3   OH243189   7.676   1.337   1.513
14415TIP3    H143190   7.613   1.295   1.454
14415TIP3    H243191   7.622   1.371   1.584
14416TIP3   OH243192   3.383   6.078   2.006
14416TIP3    H143193   3.346   5.993   2.029
14416TIP3    H243194   3.352   6.095   1.917
14417TIP3   OH243195   8.177   6.868   6.614
14417TIP3    H143196   8.213   6.944   6.567
14417TIP3    H243197   8.110   6.905   6.671
14418TIP3   OH243198   0.808   6.331   4.031
14418TIP3    H143199   0.880   6.379   3.991
14418TIP3    H243200   0.748   6.312   3.958
14419TIP3   OH243201   0.087   2.320   2.771
14419TIP3    H143202   0.042   2.338   2.688
14419TIP3    H243203   0.129   2.403   2.793
14420TIP3   OH243204   6.517   5.374   4.041
14420TIP3    H143205   6.592   5.314   4.047
14420TIP3    H243206   6.478   5.372   4.129
14421TIP3   OH243207   7.385   0.795   3.962
14421TIP3    H143208   7.384   0.770   3.869
14421TIP3    H243209   7.293   0.798   3.987
14422TIP3   OH243210   0.536   2.384   4.061
14422TIP3    H143211   0.564   2.443   4.131
14422TIP3    H243212   0.567   2.298   4.089
14423TIP3   OH243213   4.946   4.432   5.454
14423TIP3    H143214   5.004   4.476   5.392
14423TIP3    H243215   5.003   4.370   5.500
14424TIP3   OH243216   4.409   4.684   3.905
14424TIP3    H143217   4.485   4.671   3.961
14424TIP3    H243218   4.395   4.599   3.864
14425TIP3   OH243219   6.191   5.018   2.444
14425TIP3    H143220   6.129   5.090   2.455
14425TIP3    H243221   6.136   4.940   2.442
14426TIP3   OH243222   6.989   5.783   6.662
14426TIP3    H143223   7.065   5.752   6.712
14426TIP3    H243224   6.935   5.829   6.726
14427TIP3   OH243225   0.580   7.783   1.917
14427TIP3    H143226   0.655   7.843   1.913
14427TIP3    H243227   0.545   7.784   1.828
14428TIP3   OH243228   6.214   7.421   2.816
14428TIP3    H143229   6.195   7.329   2.832
14428TIP3    H243230   6.192   7.465   2.898
14429TIP3   OH243231   6.898   0.569   4.551
14429TIP3    H143232   6.808   0.569   4.586
14429TIP3    H243233   6.932   0.483   4.575
14430TIP3   OH243234   5.751   3.394   1.634
14430TIP3    H143235   5.659   3.411   1.618
14430TIP3    H243236   5.797   3.466   1.591
14431TIP3   OH243237   4.042   0.911   2.019
14431TIP3    H143238   4.120   0.963   2.035
14431TIP3    H243239   4.018   0.875   2.104
14432TIP3   OH243240   8.145   7.698   3.959
14432TIP3    H143241   8.228   7.729   3.923
14432TIP3    H243242   8.099   7.778   3.985
14433TIP3   OH243243   5.305   4.030   6.148
14433TIP3    H143244   5.261   4.115   6.153
14433TIP3    H243245   5.271   3.990   6.068
14434TIP3   OH243246   3.144   0.681   2.269
14434TIP3    H143247   3.192   0.682   2.352
14434TIP3    H243248   3.195   0.738   2.211
14435TIP3   OH243249   0.742   0.866   0.741
14435TIP3    H143250   0.764   0.959   0.748
14435TIP3    H243251   0.660   0.856   0.790
14436TIP3   OH243252   4.113   3.270   5.819
14436TIP3    H143253   4.151   3.309   5.898
14436TIP3    H243254   4.043   3.213   5.853
14437TIP3   OH243255   0.977   6.637   5.231
14437TIP3    H143256   0.929   6.613   5.311
14437TIP3    H243257   1.069   6.631   5.255
14438TIP3   OH243258   5.508   2.319   6.120
14438TIP3    H143259   5.505   2.413   6.099
14438TIP3    H243260   5.559   2.315   6.201
14439TIP3   OH243261   3.954   4.068   4.428
14439TIP3    H143262   4.001   3.999   4.382
14439TIP3    H243263   3.861   4.043   4.420
14440TIP3   OH243264   0.617   0.005   3.301
14440TIP3    H143265   0.597  -0.035   3.216
14440TIP3    H243266   0.639   0.095   3.279
14441TIP3   OH243267   0.982   6.671   4.104
14441TIP3    H143268   0.915   6.708   4.162
14441TIP3    H243269   0.939   6.662   4.019
14442TIP3   OH243270   3.662   4.489   4.817
14442TIP3    H143271   3.606   4.490   4.739
14442TIP3    H243272   3.718   4.566   4.807
14443TIP3   OH243273   5.700   0.274   1.842
14443TIP3    H143274   5.644   0.332   1.790
14443TIP3    H243275   5.756   0.334   1.891
14444TIP3   OH243276   8.138   4.839   1.339
14444TIP3    H143277   8.096   4.758   1.310
14444TIP3    H243278   8.196   4.864   1.268
14445TIP3   OH243279   8.002   5.337   5.551
14445TIP3    H143280   7.941   5.350   5.624
14445TIP3    H243281   7.948   5.304   5.480
14446TIP3   OH243282   7.550   7.388   4.057
14446TIP3    H143283   7.635   7.423   4.083
14446TIP3    H243284   7.503   7.378   4.140
14447TIP3   OH243285   6.064   1.072   6.310
14447TIP3    H143286   6.132   1.035   6.366
14447TIP3    H243287   6.111   1.132   6.252
14448TIP3   OH243288   0.774   1.884   2.768
14448TIP3    H143289   0.863   1.868   2.738
14448TIP3    H243290   0.782   1.888   2.864
14449TIP3   OH243291   5.670   5.299   5.205
14449TIP3    H143292   5.729   5.370   5.231
14449TIP3    H243293   5.702   5.222   5.252
14450TIP3   OH243294   4.613   4.891   0.901
14450TIP3    H143295   4.529   4.938   0.903
14450TIP3    H243296   4.660   4.921   0.979
14451TIP3   OH243297   6.468   6.035   4.853
14451TIP3    H143298   6.460   6.130   4.861
14451TIP3    H243299   6.381   6.002   4.874
14452TIP3   OH243300   4.365   3.788   1.321
14452TIP3    H143301   4.399   3.761   1.236
14452TIP3    H243302   4.356   3.884   1.314
14453TIP3   OH243303   2.402   6.798   4.626
14453TIP3    H143304   2.434   6.709   4.640
14453TIP3    H243305   2.382   6.831   4.714
14454TIP3   OH243306   4.885   0.084   5.638
14454TIP3    H143307   4.934   0.008   5.669
14454TIP3    H243308   4.880   0.141   5.714
14455TIP3   OH243309   4.796   2.467   4.114
14455TIP3    H143310   4.874   2.412   4.100
14455TIP3    H243311   4.792   2.521   4.035
14456TIP3   OH243312   4.675   1.808   3.228
14456TIP3    H143313   4.632   1.722   3.233
14456TIP3    H243314   4.693   1.831   3.319
14457TIP3   OH243315   2.745   0.547   0.768
14457TIP3    H143316   2.796   0.501   0.835
14457TIP3    H243317   2.665   0.575   0.814
14458TIP3   OH243318   0.661   1.115   6.252
14458TIP3    H143319   0.697   1.203   6.262
14458TIP3    H243320   0.638   1.109   6.160
14459TIP3   OH243321   1.639   6.864   4.285
14459TIP3    H143322   1.700   6.824   4.347
14459TIP3    H243323   1.586   6.791   4.253
14460TIP3   OH243324   0.225   0.897   1.758
14460TIP3    H143325   0.316   0.878   1.737
14460TIP3    H243326   0.180   0.813   1.750
14461TIP3   OH243327   4.548   2.385   4.185
14461TIP3    H143328   4.633   2.422   4.161
14461TIP3    H243329   4.493   2.462   4.203
14462TIP3   OH243330   3.322   1.320   4.643
14462TIP3    H143331   3.307   1.369   4.562
14462TIP3    H243332   3.417   1.318   4.653
14463TIP3   OH243333   3.963   1.808   0.031
14463TIP3    H143334   3.961   1.792   0.125
14463TIP3    H243335   3.989   1.723  -0.007
14464TIP3   OH243336   3.833   5.232   4.368
14464TIP3    H143337   3.924   5.259   4.380
14464TIP3    H243338   3.835   5.137   4.378
14465TIP3   OH243339   1.934   6.301   1.777
14465TIP3    H143340   2.007   6.268   1.725
14465TIP3    H243341   1.945   6.260   1.863
14466TIP3   OH243342   5.554   6.358   2.434
14466TIP3    H143343   5.482   6.413   2.403
14466TIP3    H243344   5.632   6.394   2.394
14467TIP3   OH243345   0.995   2.580   2.784
14467TIP3    H143346   1.026   2.577   2.875
14467TIP3    H243347   1.055   2.523   2.737
14468TIP3   OH243348   6.359   7.307   6.195
14468TIP3    H143349   6.343   7.279   6.104
14468TIP3    H243350   6.371   7.225   6.243
14469TIP3   OH243351   5.757   2.842   6.498
14469TIP3    H143352   5.746   2.801   6.584
14469TIP3    H243353   5.683   2.809   6.447
14470TIP3   OH243354   4.624   1.666   6.677
14470TIP3    H143355   4.694   1.617   6.719
14470TIP3    H243356   4.556   1.601   6.660
14471TIP3   OH243357   4.809   7.196   1.983
14471TIP3    H143358   4.843   7.222   2.069
14471TIP3    H243359   4.869   7.238   1.920
14472TIP3   OH243360   0.523   3.709   1.852
14472TIP3    H143361   0.564   3.762   1.783
14472TIP3    H243362   0.528   3.620   1.819
14473TIP3   OH243363   7.633   0.932   0.514
14473TIP3    H143364   7.613   1.020   0.546
14473TIP3    H243365   7.566   0.915   0.447
14474TIP3   OH243366   4.900   1.219   6.480
14474TIP3    H143367   4.988   1.190   6.503
14474TIP3    H243368   4.873   1.159   6.411
14475TIP3   OH243369   4.333   7.469   3.500
14475TIP3    H143370   4.295   7.479   3.413
14475TIP3    H243371   4.309   7.381   3.527
14476TIP3   OH243372   0.817   5.276   3.797
14476TIP3    H143373   0.728   5.285   3.763
14476TIP3    H243374   0.827   5.181   3.809
14477TIP3   OH243375   7.033   6.145   5.591
14477TIP3    H143376   6.984   6.150   5.508
14477TIP3    H243377   7.124   6.161   5.566
14478TIP3   OH243378   7.959   3.744   4.956
14478TIP3    H143379   7.930   3.738   5.047
14478TIP3    H243380   7.972   3.838   4.941
14479TIP3   OH243381   8.077   2.457   4.181
14479TIP3    H143382   8.148   2.516   4.155
14479TIP3    H243383   8.071   2.394   4.109
14480TIP3   OH243384   8.305   7.564   3.570
14480TIP3    H143385   8.369   7.560   3.641
14480TIP3    H243386   8.340   7.631   3.511
14481TIP3   OH243387   4.510   2.662   6.641
14481TIP3    H143388   4.473   2.582   6.678
14481TIP3    H243389   4.593   2.634   6.602
14482TIP3   OH243390   7.407   4.398   3.499
14482TIP3    H143391   7.425   4.350   3.418
14482TIP3    H243392   7.493   4.413   3.538
14483TIP3   OH243393   6.124   5.738   4.013
14483TIP3    H143394   6.164   5.789   3.943
14483TIP3    H243395   6.110   5.651   3.975
14484TIP3   OH243396   5.838   1.099   2.582
14484TIP3    H143397   5.922   1.062   2.557
14484TIP3    H243398   5.781   1.023   2.594
14485TIP3   OH243399   3.133   2.697   3.733
14485TIP3    H143400   3.161   2.786   3.755
14485TIP3    H243401   3.147   2.648   3.814
14486TIP3   OH243402   2.508   7.597   0.911
14486TIP3    H143403   2.570   7.667   0.931
14486TIP3    H243404   2.557   7.516   0.929
14487TIP3   OH243405   0.157   5.587   5.585
14487TIP3    H143406   0.155   5.581   5.490
14487TIP3    H243407   0.081   5.536   5.613
14488TIP3   OH243408   7.058   2.300   1.962
14488TIP3    H143409   7.057   2.204   1.966
14488TIP3    H243410   7.058   2.329   2.053
14489TIP3   OH243411   4.450   2.849   2.569
14489TIP3    H143412   4.481   2.809   2.488
14489TIP3    H243413   4.520   2.834   2.633
14490TIP3   OH243414   1.850   1.015   6.109
14490TIP3    H143415   1.805   1.034   6.027
14490TIP3    H243416   1.880   0.924   6.100
14491TIP3   OH243417   3.040   4.545   0.085
14491TIP3    H143418   3.044   4.603   0.008
14491TIP3    H243419   2.946   4.531   0.099
14492TIP3   OH243420   8.199   3.189   2.801
14492TIP3    H143421   8.138   3.249   2.843
14492TIP3    H243422   8.222   3.125   2.869
14493TIP3   OH243423   2.446   0.969   5.106
14493TIP3    H143424   2.417   1.045   5.157
14493TIP3    H243425   2.527   0.997   5.065
14494TIP3   OH243426   6.731   2.775   2.310
14494TIP3    H143427   6.789   2.752   2.238
14494TIP3    H243428   6.768   2.855   2.347
14495TIP3   OH243429   6.134   6.342   4.924
14495TIP3    H143430   6.118   6.418   4.868
14495TIP3    H243431   6.210   6.299   4.885
14496TIP3   OH243432   6.588   3.031   2.396
14496TIP3    H143433   6.602   3.049   2.489
14496TIP3    H243434   6.671   3.054   2.354
14497TIP3   OH243435   6.909   5.010   3.995
14497TIP3    H143436   6.846   4.979   4.059
14497TIP3    H243437   6.859   5.070   3.939
14498TIP3   OH243438   8.132   4.255   3.511
14498TIP3    H143439   8.212   4.241   3.561
14498TIP3    H243440   8.067   4.281   3.577
14499TIP3   OH243441   3.161   7.550   2.807
14499TIP3    H143442   3.221   7.479   2.785
14499TIP3    H243443   3.218   7.621   2.837
14500TIP3   OH243444   7.319   1.452   6.495
14500TIP3    H143445   7.311   1.380   6.557
14500TIP3    H243446   7.383   1.420   6.430
14501TIP3   OH243447   4.732   2.761   0.194
14501TIP3    H143448   4.728   2.666   0.183
14501TIP3    H243449   4.657   2.781   0.250
14502TIP3   OH243450   7.833   2.275   3.444
14502TIP3    H143451   7.880   2.194   3.464
14502TIP3    H243452   7.902   2.340   3.432
14503TIP3   OH243453   7.370   5.768   4.590
14503TIP3    H143454   7.403   5.858   4.598
14503TIP3    H243455   7.423   5.717   4.652
14504TIP3   OH243456   6.072   0.453   6.713
14504TIP3    H143457   6.066   0.405   6.630
14504TIP3    H243458   6.114   0.536   6.689
14505TIP3   OH243459   6.799   5.438   2.534
14505TIP3    H143460   6.760   5.371   2.477
14505TIP3    H243461   6.782   5.520   2.488
14506TIP3   OH243462   6.953   6.188   2.512
14506TIP3    H143463   6.889   6.131   2.470
14506TIP3    H243464   7.034   6.174   2.464
14507TIP3   OH243465   4.045   5.098   6.619
14507TIP3    H143466   3.984   5.117   6.691
14507TIP3    H243467   3.992   5.104   6.540
14508TIP3   OH243468   0.503   7.135   2.795
14508TIP3    H143469   0.578   7.077   2.812
14508TIP3    H243470   0.521   7.174   2.710
14509TIP3   OH243471   0.099   0.166   4.599
14509TIP3    H143472   0.127   0.104   4.666
14509TIP3    H243473   0.090   0.249   4.644
14510TIP3   OH243474   2.328   5.792   1.003
14510TIP3    H143475   2.388   5.765   1.072
14510TIP3    H243476   2.241   5.786   1.042
14511TIP3   OH243477   1.851   5.277   4.274
14511TIP3    H143478   1.940   5.273   4.237
14511TIP3    H243479   1.853   5.213   4.346
14512TIP3   OH243480   6.466   6.529   5.669
14512TIP3    H143481   6.451   6.436   5.653
14512TIP3    H243482   6.379   6.566   5.681
14513TIP3   OH243483   4.463   4.006   5.443
14513TIP3    H143484   4.393   4.001   5.509
14513TIP3    H243485   4.447   3.932   5.385
14514TIP3   OH243486   4.924   2.195   6.295
14514TIP3    H143487   4.988   2.144   6.247
14514TIP3    H243488   4.958   2.285   6.294
14515TIP3   OH243489   5.216   7.707   2.564
14515TIP3    H143490   5.151   7.751   2.620
14515TIP3    H243491   5.285   7.772   2.551
14516TIP3   OH243492   2.297   1.594   3.758
14516TIP3    H143493   2.308   1.669   3.817
14516TIP3    H243494   2.353   1.614   3.683
14517TIP3   OH243495   1.670   2.231   0.988
14517TIP3    H143496   1.646   2.290   0.916
14517TIP3    H243497   1.614   2.155   0.976
14518TIP3   OH243498   5.826   1.187   6.418
14518TIP3    H143499   5.758   1.187   6.351
14518TIP3    H243500   5.907   1.168   6.371
14519TIP3   OH243501   2.461   1.319   6.288
14519TIP3    H143502   2.412   1.239   6.267
14519TIP3    H243503   2.536   1.317   6.230
14520TIP3   OH243504   2.632   6.677   3.152
14520TIP3    H143505   2.667   6.695   3.065
14520TIP3    H243506   2.655   6.754   3.204
14521TIP3   OH243507   3.118   2.038   6.662
14521TIP3    H143508   3.037   2.034   6.713
14521TIP3    H243509   3.144   2.130   6.665
14522TIP3   OH243510   4.502   2.761   5.354
14522TIP3    H143511   4.497   2.699   5.280
14522TIP3    H243512   4.589   2.748   5.390
14523TIP3   OH243513   5.446   4.054   2.682
14523TIP3    H143514   5.535   4.022   2.698
14523TIP3    H243515   5.395   3.975   2.663
14524TIP3   OH243516   3.780   0.750   0.133
14524TIP3    H143517   3.726   0.743   0.212
14524TIP3    H243518   3.733   0.814   0.079
14525TIP3   OH243519   7.802   1.222   3.941
14525TIP3    H143520   7.873   1.159   3.934
14525TIP3    H243521   7.820   1.270   4.022
14526TIP3   OH243522   7.753   7.693   5.095
14526TIP3    H143523   7.660   7.693   5.073
14526TIP3    H243524   7.785   7.779   5.068
14527TIP3   OH243525   7.009   3.138   5.117
14527TIP3    H143526   7.078   3.143   5.182
14527TIP3    H243527   6.973   3.049   5.126
14528TIP3   OH243528   4.565   7.687   5.435
14528TIP3    H143529   4.529   7.604   5.465
14528TIP3    H243530   4.585   7.673   5.343
14529TIP3   OH243531   2.432   3.261   4.318
14529TIP3    H143532   2.349   3.217   4.337
14529TIP3    H243533   2.409   3.353   4.308
14530TIP3   OH243534   4.132   5.048   3.923
14530TIP3    H143535   4.148   4.987   3.995
14530TIP3    H243536   4.219   5.068   3.889
14531TIP3   OH243537   2.309   4.244   4.135
14531TIP3    H143538   2.290   4.230   4.228
14531TIP3    H243539   2.228   4.218   4.091
14532TIP3   OH243540   7.923   4.778   4.037
14532TIP3    H143541   7.856   4.746   3.977
14532TIP3    H243542   8.001   4.789   3.982
14533TIP3   OH243543   6.357   0.198   4.963
14533TIP3    H143544   6.450   0.212   4.941
14533TIP3    H243545   6.312   0.275   4.928
14534TIP3   OH243546   3.665   0.550   2.178
14534TIP3    H143547   3.666   0.540   2.083
14534TIP3    H243548   3.573   0.533   2.203
14535TIP3   OH243549   1.009   6.744   4.431
14535TIP3    H143550   0.958   6.757   4.511
14535TIP3    H243551   1.095   6.780   4.452
14536TIP3   OH243552   7.935   7.343   0.649
14536TIP3    H143553   7.857   7.387   0.616
14536TIP3    H243554   7.995   7.415   0.671
14537TIP3   OH243555   2.513   6.089   5.636
14537TIP3    H143556   2.497   6.096   5.730
14537TIP3    H243557   2.604   6.117   5.625
14538TIP3   OH243558   1.873   3.037   2.773
14538TIP3    H143559   1.842   2.965   2.717
14538TIP3    H243560   1.845   3.116   2.728
14539TIP3   OH243561   6.563   4.198   6.052
14539TIP3    H143562   6.648   4.181   6.010
14539TIP3    H243563   6.581   4.190   6.146
14540TIP3   OH243564   3.941   7.677   5.653
14540TIP3    H143565   3.863   7.674   5.708
14540TIP3    H243566   4.008   7.715   5.710
14541TIP3   OH243567   7.412   7.132   6.092
14541TIP3    H143568   7.406   7.064   6.159
14541TIP3    H243569   7.380   7.211   6.135
14542TIP3   OH243570   2.779   3.888   2.450
14542TIP3    H143571   2.801   3.965   2.397
14542TIP3    H243572   2.793   3.916   2.540
14543TIP3   OH243573   3.149   3.043   5.751
14543TIP3    H143574   3.233   3.009   5.784
14543TIP3    H243575   3.139   3.128   5.793
14544TIP3   OH243576   5.118   4.303   3.082
14544TIP3    H143577   5.050   4.280   3.018
14544TIP3    H243578   5.197   4.311   3.030
14545TIP3   OH243579   3.720   6.620   3.001
14545TIP3    H143580   3.630   6.642   3.028
14545TIP3    H243581   3.709   6.552   2.935
14546TIP3   OH243582   2.715   5.023   0.626
14546TIP3    H143583   2.709   4.935   0.664
14546TIP3    H243584   2.677   5.080   0.693
14547TIP3   OH243585   6.426   6.542   3.466
14547TIP3    H143586   6.499   6.587   3.422
14547TIP3    H243587   6.413   6.591   3.547
14548TIP3   OH243588   7.740   3.092   1.715
14548TIP3    H143589   7.684   3.149   1.767
14548TIP3    H243590   7.807   3.150   1.679
14549TIP3   OH243591   6.525   6.558   4.772
14549TIP3    H143592   6.595   6.622   4.759
14549TIP3    H243593   6.474   6.562   4.691
14550TIP3   OH243594   6.295   7.534   2.421
14550TIP3    H143595   6.239   7.509   2.495
14550TIP3    H243596   6.345   7.608   2.453
14551TIP3   OH243597   6.366   4.935   6.162
14551TIP3    H143598   6.286   4.961   6.207
14551TIP3    H243599   6.340   4.920   6.072
14552TIP3   OH243600   3.869   2.962   4.704
14552TIP3    H143601   3.801   3.009   4.754
14552TIP3    H243602   3.923   3.032   4.666
14553TIP3   OH243603   2.675   4.429   5.703
14553TIP3    H143604   2.681   4.521   5.676
14553TIP3    H243605   2.601   4.395   5.653
14554TIP3   OH243606   7.733   6.427   0.462
14554TIP3    H143607   7.744   6.487   0.536
14554TIP3    H243608   7.715   6.484   0.388
14555TIP3   OH243609   6.182   2.155   5.470
14555TIP3    H143610   6.170   2.241   5.510
14555TIP3    H243611   6.215   2.099   5.541
14556TIP3   OH243612   5.201   0.676   0.708
14556TIP3    H143613   5.182   0.769   0.722
14556TIP3    H243614   5.115   0.633   0.715
14557TIP3   OH243615   5.347   3.867   1.585
14557TIP3    H143616   5.259   3.831   1.594
14557TIP3    H243617   5.398   3.823   1.653
14558TIP3   OH243618   7.279   5.654   0.246
14558TIP3    H143619   7.236   5.737   0.224
14558TIP3    H243620   7.231   5.588   0.195
14559TIP3   OH243621   0.547   4.877   5.906
14559TIP3    H143622   0.550   4.940   5.978
14559TIP3    H243623   0.461   4.837   5.913
14560TIP3   OH243624   2.257   6.365   3.317
14560TIP3    H143625   2.318   6.293   3.330
14560TIP3    H243626   2.290   6.434   3.374
14561TIP3   OH243627   5.911   6.454   2.637
14561TIP3    H143628   5.967   6.469   2.713
14561TIP3    H243629   5.964   6.400   2.579
14562TIP3   OH243630   2.364   6.090   0.276
14562TIP3    H143631   2.320   6.099   0.360
14562TIP3    H243632   2.376   6.180   0.245
14563TIP3   OH243633   7.652   5.884   2.578
14563TIP3    H143634   7.575   5.830   2.558
14563TIP3    H243635   7.670   5.868   2.670
14564TIP3   OH243636   4.770   2.330   5.180
14564TIP3    H143637   4.696   2.283   5.219
14564TIP3    H243638   4.836   2.262   5.166
14565TIP3   OH243639   4.097   6.356   6.658
14565TIP3    H143640   4.190   6.358   6.636
14565TIP3    H243641   4.086   6.272   6.703
14566TIP3   OH243642   4.017   3.589   1.589
14566TIP3    H143643   4.039   3.496   1.591
14566TIP3    H243644   3.955   3.601   1.661
14567TIP3   OH243645   7.226   1.281   5.834
14567TIP3    H143646   7.135   1.307   5.817
14567TIP3    H243647   7.248   1.222   5.763
14568TIP3   OH243648   6.819   2.951   0.398
14568TIP3    H143649   6.744   2.925   0.452
14568TIP3    H243650   6.817   2.889   0.325
14569TIP3   OH243651   1.709   4.309   3.975
14569TIP3    H143652   1.630   4.344   4.017
14569TIP3    H243653   1.757   4.387   3.947
14570TIP3   OH243654   7.768   6.269   1.624
14570TIP3    H143655   7.778   6.341   1.686
14570TIP3    H243656   7.854   6.226   1.624
14571TIP3   OH243657   1.399   4.916   5.040
14571TIP3    H143658   1.351   4.958   4.968
14571TIP3    H243659   1.332   4.866   5.087
14572TIP3   OH243660   0.428   5.313   3.976
14572TIP3    H143661   0.408   5.406   3.974
14572TIP3    H243662   0.504   5.306   4.034
14573TIP3   OH243663   5.132   2.809   6.285
14573TIP3    H143664   5.082   2.727   6.288
14573TIP3    H243665   5.195   2.802   6.357
14574TIP3   OH243666   0.772   1.484   2.131
14574TIP3    H143667   0.861   1.468   2.099
14574TIP3    H243668   0.752   1.407   2.184
14575TIP3   OH243669   6.892   2.531   5.240
14575TIP3    H143670   6.921   2.522   5.149
14575TIP3    H243671   6.861   2.621   5.247
14576TIP3   OH243672   4.725   3.587   1.607
14576TIP3    H143673   4.748   3.496   1.626
14576TIP3    H243674   4.787   3.614   1.539
14577TIP3   OH243675   1.185   6.143   0.825
14577TIP3    H143676   1.212   6.074   0.765
14577TIP3    H243677   1.267   6.181   0.856
14578TIP3   OH243678   0.594   1.531   0.413
14578TIP3    H143679   0.568   1.536   0.505
14578TIP3    H243680   0.583   1.620   0.380
14579TIP3   OH243681   6.436   2.654   4.444
14579TIP3    H143682   6.375   2.580   4.437
14579TIP3    H243683   6.454   2.678   4.353
14580TIP3   OH243684   6.048   1.786   5.769
14580TIP3    H143685   5.969   1.829   5.737
14580TIP3    H243686   6.119   1.842   5.739
14581TIP3   OH243687   0.750   0.962   4.099
14581TIP3    H143688   0.748   0.965   4.004
14581TIP3    H243689   0.661   0.935   4.124
14582TIP3   OH243690   0.990   2.723   5.642
14582TIP3    H143691   0.999   2.790   5.709
14582TIP3    H243692   0.907   2.680   5.662
14583TIP3   OH243693   7.181   0.026   5.586
14583TIP3    H143694   7.214  -0.010   5.669
14583TIP3    H243695   7.245  -0.002   5.521
14584TIP3   OH243696   3.442   2.728   0.220
14584TIP3    H143697   3.480   2.775   0.146
14584TIP3    H243698   3.505   2.659   0.240
14585TIP3   OH243699   6.324   4.481   5.061
14585TIP3    H143700   6.265   4.554   5.081
14585TIP3    H243701   6.411   4.521   5.058
14586TIP3   OH243702   5.321   6.605   5.417
14586TIP3    H143703   5.403   6.583   5.459
14586TIP3    H243704   5.284   6.521   5.389
14587TIP3   OH243705   7.796   4.976   4.698
14587TIP3    H143706   7.763   4.906   4.642
14587TIP3    H243707   7.726   4.991   4.762
14588TIP3   OH243708   1.963   3.945   5.566
14588TIP3    H143709   1.905   3.874   5.538
14588TIP3    H243710   1.982   3.926   5.658
14589TIP3   OH243711   4.327   1.973   5.323
14589TIP3    H143712   4.313   2.042   5.388
14589TIP3    H243713   4.266   1.994   5.252
14590TIP3   OH243714   6.346   2.894   2.276
14590TIP3    H143715   6.349   2.799   2.264
14590TIP3    H243716   6.424   2.914   2.328
14591TIP3   OH243717   7.189   6.576   2.854
14591TIP3    H143718   7.260   6.600   2.794
14591TIP3    H243719   7.215   6.615   2.938
14592TIP3   OH243720   2.972   5.583   0.243
14592TIP3    H143721   2.997   5.527   0.169
14592TIP3    H243722   2.947   5.522   0.312
14593TIP3   OH243723   6.665   3.917   5.750
14593TIP3    H143724   6.598   3.875   5.696
14593TIP3    H243725   6.743   3.917   5.694
14594TIP3   OH243726   0.190   6.976   0.630
14594TIP3    H143727   0.200   7.009   0.541
14594TIP3    H243728   0.150   6.890   0.619
14595TIP3   OH243729   0.862   2.034   2.024
14595TIP3    H143730   0.853   2.045   1.930
14595TIP3    H243731   0.797   2.093   2.062
14596TIP3   OH243732   6.262   0.727   0.106
14596TIP3    H143733   6.336   0.777   0.141
14596TIP3    H243734   6.251   0.761   0.017
14597TIP3   OH243735   7.588   1.305   2.224
14597TIP3    H143736   7.634   1.284   2.143
14597TIP3    H243737   7.608   1.232   2.282
14598TIP3   OH243738   6.256   7.038   6.162
14598TIP3    H143739   6.344   7.004   6.147
14598TIP3    H243740   6.228   6.999   6.245
14599TIP3   OH243741   5.933   4.763   3.026
14599TIP3    H143742   5.999   4.744   2.959
14599TIP3    H243743   5.897   4.848   3.000
14600TIP3   OH243744   1.095   3.602   4.601
14600TIP3    H143745   1.043   3.626   4.678
14600TIP3    H243746   1.090   3.506   4.597
14601TIP3   OH243747   0.825   2.773   4.181
14601TIP3    H143748   0.873   2.770   4.263
14601TIP3    H243749   0.798   2.864   4.172
14602TIP3   OH243750   3.358   7.369   4.590
14602TIP3    H143751   3.265   7.387   4.599
14602TIP3    H243752   3.373   7.292   4.645
14603TIP3   OH243753   2.713   4.067   6.026
14603TIP3    H143754   2.798   4.032   5.999
14603TIP3    H243755   2.730   4.157   6.051
14604TIP3   OH243756   0.951   1.062   6.645
14604TIP3    H143757   0.907   1.143   6.619
14604TIP3    H243758   0.908   1.037   6.727
14605TIP3   OH243759   5.019   1.494   4.098
14605TIP3    H143760   4.967   1.491   4.178
14605TIP3    H243761   4.989   1.573   4.053
14606TIP3   OH243762   1.104   5.168   6.691
14606TIP3    H143763   1.022   5.209   6.718
14606TIP3    H243764   1.084   5.127   6.607
14607TIP3   OH243765   5.793   6.506   1.281
14607TIP3    H143766   5.787   6.496   1.376
14607TIP3    H243767   5.712   6.466   1.248
14608TIP3   OH243768   6.835   4.571   5.758
14608TIP3    H143769   6.898   4.510   5.718
14608TIP3    H243770   6.758   4.565   5.703
14609TIP3   OH243771   2.182   0.147   5.923
14609TIP3    H143772   2.114   0.211   5.901
14609TIP3    H243773   2.174   0.078   5.858
14610TIP3   OH243774   7.868   1.518   1.387
14610TIP3    H143775   7.792   1.481   1.432
14610TIP3    H243776   7.940   1.506   1.448
14611TIP3   OH243777   5.931   7.171   1.814
14611TIP3    H143778   5.988   7.216   1.751
14611TIP3    H243779   5.976   7.179   1.898
14612TIP3   OH243780   7.979   5.755   1.032
14612TIP3    H143781   8.007   5.770   0.941
14612TIP3    H243782   7.970   5.659   1.039
14613TIP3   OH243783   7.149   7.211   3.612
14613TIP3    H143784   7.124   7.151   3.542
14613TIP3    H243785   7.103   7.179   3.689
14614TIP3   OH243786   7.303   1.731   1.918
14614TIP3    H143787   7.272   1.712   1.829
14614TIP3    H243788   7.230   1.707   1.975
14615TIP3   OH243789   2.242   5.697   3.910
14615TIP3    H143790   2.315   5.711   3.850
14615TIP3    H243791   2.272   5.735   3.993
14616TIP3   OH243792   5.074   3.027   3.588
14616TIP3    H143793   5.134   3.080   3.641
14616TIP3    H243794   4.987   3.058   3.612
14617TIP3   OH243795   3.643   1.848   1.211
14617TIP3    H143796   3.662   1.939   1.232
14617TIP3    H243797   3.603   1.813   1.291
14618TIP3   OH243798   7.745   4.955   1.413
14618TIP3    H143799   7.716   4.896   1.482
14618TIP3    H243800   7.758   4.899   1.337
14619TIP3   OH243801   0.286   7.425   2.007
14619TIP3    H143802   0.284   7.493   1.939
14619TIP3    H243803   0.374   7.387   2.001
14620TIP3   OH243804   0.401   4.386   3.149
14620TIP3    H143805   0.411   4.481   3.147
14620TIP3    H243806   0.488   4.354   3.175
14621TIP3   OH243807   4.562   5.229   1.217
14621TIP3    H143808   4.491   5.282   1.181
14621TIP3    H243809   4.623   5.292   1.256
14622TIP3   OH243810   0.168   5.716   4.959
14622TIP3    H143811   0.248   5.672   4.987
14622TIP3    H243812   0.182   5.808   4.983
14623TIP3   OH243813   7.048   5.963   0.656
14623TIP3    H143814   7.029   6.056   0.670
14623TIP3    H243815   7.032   5.949   0.563
14624TIP3   OH243816   0.036   5.753   2.400
14624TIP3    H143817   0.071   5.672   2.438
14624TIP3    H243818  -0.027   5.784   2.465
14625TIP3   OH243819   2.278   2.938   2.455
14625TIP3    H143820   2.241   2.981   2.532
14625TIP3    H243821   2.302   3.011   2.397
14626TIP3   OH243822   0.526   1.623   4.020
14626TIP3    H143823   0.592   1.664   4.076
14626TIP3    H243824   0.442   1.641   4.064
14627TIP3   OH243825   0.329   5.583   1.566
14627TIP3    H143826   0.259   5.641   1.535
14627TIP3    H243827   0.381   5.564   1.488
14628TIP3   OH243828   5.241   6.689   2.678
14628TIP3    H143829   5.150   6.703   2.704
14628TIP3    H243830   5.284   6.772   2.698
14629TIP3   OH243831   5.158   4.575   2.123
14629TIP3    H143832   5.165   4.484   2.151
14629TIP3    H243833   5.100   4.573   2.047
14630TIP3   OH243834   4.349   6.491   6.624
14630TIP3    H143835   4.356   6.434   6.547
14630TIP3    H243836   4.345   6.431   6.698
14631TIP3   OH243837   7.237   2.077   5.908
14631TIP3    H143838   7.315   2.079   5.965
14631TIP3    H243839   7.241   2.160   5.860
14632TIP3   OH243840   7.966   2.921   6.311
14632TIP3    H143841   7.929   2.859   6.375
14632TIP3    H243842   7.916   2.904   6.231
14633TIP3   OH243843   4.167   7.684   3.198
14633TIP3    H143844   4.249   7.715   3.235
14633TIP3    H243845   4.099   7.731   3.248
14634TIP3   OH243846   6.441   0.319   5.224
14634TIP3    H143847   6.417   0.411   5.207
14634TIP3    H243848   6.413   0.273   5.145
14635TIP3   OH243849   4.252   4.985   0.079
14635TIP3    H143850   4.221   5.059   0.027
14635TIP3    H243851   4.239   4.909   0.024
14636TIP3   OH243852   3.927   5.620   0.594
14636TIP3    H143853   3.866   5.694   0.593
14636TIP3    H243854   3.885   5.554   0.648
14637TIP3   OH243855   0.904   4.905   4.720
14637TIP3    H143856   0.813   4.877   4.730
14637TIP3    H243857   0.897   4.998   4.695
14638TIP3   OH243858   4.243   0.455   6.134
14638TIP3    H143859   4.200   0.401   6.067
14638TIP3    H243860   4.273   0.392   6.199
14639TIP3   OH243861   0.445   1.717   3.760
14639TIP3    H143862   0.475   1.691   3.847
14639TIP3    H243863   0.524   1.722   3.707
14640TIP3   OH243864   6.948   5.211   0.988
14640TIP3    H143865   6.990   5.249   1.065
14640TIP3    H243866   6.857   5.238   0.994
14641TIP3   OH243867   6.527   2.141   6.144
14641TIP3    H143868   6.505   2.203   6.213
14641TIP3    H243869   6.618   2.118   6.158
14642TIP3   OH243870   7.734   1.405   0.976
14642TIP3    H143871   7.745   1.369   1.064
14642TIP3    H243872   7.823   1.430   0.949
14643TIP3   OH243873   6.996   4.861   1.139
14643TIP3    H143874   7.061   4.793   1.158
14643TIP3    H243875   7.024   4.937   1.189
14644TIP3   OH243876   1.044   4.716   5.803
14644TIP3    H143877   1.015   4.804   5.779
14644TIP3    H243878   1.130   4.707   5.762
14645TIP3   OH243879   6.693   6.158   5.231
14645TIP3    H143880   6.780   6.160   5.271
14645TIP3    H243881   6.645   6.229   5.274
14646TIP3   OH243882   0.521   2.043   4.400
14646TIP3    H143883   0.440   2.001   4.428
14646TIP3    H243884   0.516   2.132   4.433
14647TIP3   OH243885   3.310   6.991   0.509
14647TIP3    H143886   3.357   6.962   0.587
14647TIP3    H243887   3.371   6.976   0.437
14648TIP3   OH243888   1.118   2.223   4.104
14648TIP3    H143889   1.046   2.162   4.121
14648TIP3    H243890   1.090   2.305   4.143
14649TIP3   OH243891   7.408   0.423   4.105
14649TIP3    H143892   7.371   0.336   4.118
14649TIP3    H243893   7.376   0.451   4.020
14650TIP3   OH243894   3.240   6.060   5.610
14650TIP3    H143895   3.223   6.100   5.695
14650TIP3    H243896   3.157   6.019   5.586
14651TIP3   OH243897   3.674   4.282   0.676
14651TIP3    H143898   3.765   4.285   0.707
14651TIP3    H243899   3.623   4.272   0.756
14652TIP3   OH243900   2.758   5.342   3.675
14652TIP3    H143901   2.826   5.395   3.634
14652TIP3    H243902   2.677   5.370   3.633
14653TIP3   OH243903   2.018   4.640   5.001
14653TIP3    H143904   2.095   4.590   5.029
14653TIP3    H243905   2.049   4.692   4.926
14654TIP3   OH243906   7.262   5.468   1.406
14654TIP3    H143907   7.337   5.501   1.357
14654TIP3    H243908   7.209   5.546   1.424
14655TIP3   OH243909   3.528   2.711   1.341
14655TIP3    H143910   3.551   2.804   1.335
14655TIP3    H243911   3.601   2.666   1.299
14656TIP3   OH243912   7.148   2.212   2.722
14656TIP3    H143913   7.238   2.185   2.740
14656TIP3    H243914   7.094   2.146   2.766
14657TIP3   OH243915   7.866   7.068   0.679
14657TIP3    H143916   7.900   7.152   0.650
14657TIP3    H243917   7.851   7.018   0.599
14658TIP3   OH243918   2.495   0.887   0.113
14658TIP3    H143919   2.543   0.813   0.151
14658TIP3    H243920   2.470   0.940   0.188
14659TIP3   OH243921   1.427   2.832   1.641
14659TIP3    H143922   1.513   2.792   1.631
14659TIP3    H243923   1.441   2.926   1.629
14660TIP3   OH243924   0.465   5.699   6.230
14660TIP3    H143925   0.504   5.641   6.164
14660TIP3    H243926   0.458   5.784   6.186
14661TIP3   OH243927   7.709   5.553   0.453
14661TIP3    H143928   7.737   5.602   0.530
14661TIP3    H243929   7.768   5.478   0.450
14662TIP3   OH243930   5.814   6.188   1.673
14662TIP3    H143931   5.901   6.208   1.706
14662TIP3    H243932   5.763   6.164   1.751
14663TIP3   OH243933   0.075   4.428   2.937
14663TIP3    H143934   0.066   4.335   2.913
14663TIP3    H243935   0.136   4.464   2.873
14664TIP3   OH243936   5.564   4.402   0.536
14664TIP3    H143937   5.650   4.438   0.513
14664TIP3    H243938   5.512   4.479   0.561
14665TIP3   OH243939   3.259   4.346   3.896
14665TIP3    H143940   3.233   4.403   3.968
14665TIP3    H243941   3.228   4.259   3.921
14666TIP3   OH243942   0.082   4.580   1.245
14666TIP3    H143943   0.020   4.562   1.175
14666TIP3    H243944   0.134   4.654   1.213
14667TIP3   OH243945   2.950   1.589   3.680
14667TIP3    H143946   2.971   1.678   3.655
14667TIP3    H243947   2.938   1.593   3.775
14668TIP3   OH243948   6.848   7.067   4.452
14668TIP3    H143949   6.756   7.041   4.460
14668TIP3    H243950   6.886   7.002   4.392
14669TIP3   OH243951   7.363   6.225   1.953
14669TIP3    H143952   7.296   6.156   1.949
14669TIP3    H243953   7.314   6.306   1.942
14670TIP3   OH243954   2.821   6.712   1.284
14670TIP3    H143955   2.809   6.726   1.378
14670TIP3    H243956   2.831   6.800   1.248
14671TIP3   OH243957   7.762   7.147   5.310
14671TIP3    H143958   7.680   7.146   5.261
14671TIP3    H243959   7.811   7.073   5.277
14672TIP3   OH243960   6.539   1.553   5.440
14672TIP3    H143961   6.495   1.569   5.524
14672TIP3    H243962   6.481   1.593   5.375
14673TIP3   OH243963   1.119   0.864   4.450
14673TIP3    H143964   1.122   0.817   4.366
14673TIP3    H243965   1.124   0.956   4.425
14674TIP3   OH243966   5.086   7.197   1.588
14674TIP3    H143967   5.020   7.250   1.543
14674TIP3    H243968   5.162   7.255   1.595
14675TIP3   OH243969   5.770   3.328   4.718
14675TIP3    H143970   5.777   3.420   4.741
14675TIP3    H243971   5.715   3.326   4.640
14676TIP3   OH243972   3.560   1.375   1.552
14676TIP3    H143973   3.577   1.303   1.612
14676TIP3    H243974   3.545   1.333   1.467
14677TIP3   OH243975   5.201   3.693   6.196
14677TIP3    H143976   5.132   3.754   6.171
14677TIP3    H243977   5.214   3.637   6.120
14678TIP3   OH243978   1.381   0.178   5.744
14678TIP3    H143979   1.363   0.272   5.737
14678TIP3    H243980   1.336   0.152   5.825
14679TIP3   OH243981   2.184   1.851   2.675
14679TIP3    H143982   2.116   1.792   2.709
14679TIP3    H243983   2.247   1.793   2.634
14680TIP3   OH243984   1.292   0.879   2.303
14680TIP3    H143985   1.320   0.817   2.236
14680TIP3    H243986   1.358   0.948   2.302
14681TIP3   OH243987   4.166   1.502   0.666
14681TIP3    H143988   4.140   1.516   0.758
14681TIP3    H243989   4.161   1.590   0.627
14682TIP3   OH243990   1.611   1.355   1.935
14682TIP3    H143991   1.588   1.448   1.931
14682TIP3    H243992   1.695   1.353   1.983
14683TIP3   OH243993   0.704   0.160   6.276
14683TIP3    H143994   0.770   0.217   6.237
14683TIP3    H243995   0.621   0.204   6.257
14684TIP3   OH243996   0.339   5.235   5.808
14684TIP3    H143997   0.271   5.168   5.803
14684TIP3    H243998   0.362   5.239   5.901
14685TIP3   OH243999   5.067   7.221   5.841
14685TIP3    H144000   5.043   7.299   5.791
14685TIP3    H244001   5.148   7.245   5.886
14686TIP3   OH244002   1.205   6.239   4.025
14686TIP3    H144003   1.231   6.164   3.970
14686TIP3    H244004   1.140   6.286   3.972
14687TIP3   OH244005   6.629   0.342   6.388
14687TIP3    H144006   6.566   0.292   6.336
14687TIP3    H244007   6.578   0.375   6.462
14688TIP3   OH244008   0.806   3.979   0.655
14688TIP3    H144009   0.723   4.022   0.639
14688TIP3    H244010   0.832   3.943   0.570
14689TIP3   OH244011   1.174   0.066   4.773
14689TIP3    H144012   1.210   0.126   4.708
14689TIP3    H244013   1.251   0.030   4.817
14690TIP3   OH244014   6.696   5.075   1.738
14690TIP3    H144015   6.607   5.106   1.750
14690TIP3    H244016   6.695   5.029   1.654
14691TIP3   OH244017   3.609   2.564   4.419
14691TIP3    H144018   3.586   2.654   4.440
14691TIP3    H244019   3.553   2.511   4.476
14692TIP3   OH244020   2.260   5.073   1.567
14692TIP3    H144021   2.320   5.140   1.601
14692TIP3    H244022   2.186   5.122   1.533
14693TIP3   OH244023   6.966   0.594   1.161
14693TIP3    H144024   6.991   0.617   1.072
14693TIP3    H244025   6.950   0.500   1.159
14694TIP3   OH244026   7.214   6.167   6.454
14694TIP3    H144027   7.307   6.158   6.437
14694TIP3    H244028   7.187   6.083   6.492
14695TIP3   OH244029   5.274   2.092   2.503
14695TIP3    H144030   5.251   2.163   2.563
14695TIP3    H244031   5.240   2.119   2.418
14696TIP3   OH244032   4.077   2.472   1.767
14696TIP3    H144033   4.160   2.516   1.778
14696TIP3    H244034   4.100   2.383   1.738
14697TIP3   OH244035   1.214   6.756   1.803
14697TIP3    H144036   1.212   6.835   1.750
14697TIP3    H244037   1.125   6.722   1.800
14698TIP3   OH244038   1.207   7.436   6.637
14698TIP3    H144039   1.212   7.427   6.732
14698TIP3    H244040   1.113   7.428   6.617
14699TIP3   OH244041   4.820   5.886   6.638
14699TIP3    H144042   4.801   5.897   6.545
14699TIP3    H244043   4.902   5.836   6.639
14700TIP3   OH244044   1.363   5.129   2.629
14700TIP3    H144045   1.429   5.074   2.586
14700TIP3    H244046   1.393   5.134   2.720
14701TIP3   OH244047   5.750   4.515   0.750
14701TIP3    H144048   5.778   4.433   0.709
14701TIP3    H244049   5.674   4.490   0.803
14702TIP3   OH244050   1.639   1.283   1.223
14702TIP3    H144051   1.699   1.358   1.227
14702TIP3    H244052   1.676   1.219   1.284
14703TIP3   OH244053   1.840   0.496   5.993
14703TIP3    H144054   1.917   0.463   5.948
14703TIP3    H244055   1.845   0.459   6.081
14704TIP3   OH244056   1.845   7.410   0.400
14704TIP3    H144057   1.832   7.501   0.373
14704TIP3    H244058   1.862   7.363   0.318
14705TIP3   OH244059   1.004   4.593   6.317
14705TIP3    H144060   1.097   4.614   6.305
14705TIP3    H244061   0.965   4.609   6.231
14706TIP3   OH244062   3.894   7.268   4.791
14706TIP3    H144063   3.841   7.348   4.790
14706TIP3    H244064   3.832   7.199   4.765
14707TIP3   OH244065   0.434   5.123   5.260
14707TIP3    H144066   0.443   5.135   5.354
14707TIP3    H244067   0.377   5.046   5.251
14708TIP3   OH244068   7.100   1.964   4.941
14708TIP3    H144069   7.098   2.038   4.881
14708TIP3    H244070   7.030   1.906   4.909
14709TIP3   OH244071   2.021   1.618   3.668
14709TIP3    H144072   2.091   1.569   3.709
14709TIP3    H244073   1.981   1.668   3.739
14710TIP3   OH244074   5.957   2.485   1.015
14710TIP3    H144075   5.946   2.405   1.066
14710TIP3    H244076   6.052   2.497   1.009
14711TIP3   OH244077   4.348   6.758   2.181
14711TIP3    H144078   4.379   6.842   2.215
14711TIP3    H244079   4.401   6.693   2.227
14712TIP3   OH244080   6.056   1.355   2.839
14712TIP3    H144081   6.056   1.439   2.885
14712TIP3    H244082   5.976   1.357   2.787
14713TIP3   OH244083   7.704   0.793   2.790
14713TIP3    H144084   7.709   0.787   2.694
14713TIP3    H244085   7.702   0.887   2.807
14714TIP3   OH244086   6.611   6.335   1.800
14714TIP3    H144087   6.651   6.307   1.882
14714TIP3    H244088   6.686   6.357   1.744
14715TIP3   OH244089   2.402   5.868   3.071
14715TIP3    H144090   2.428   5.906   2.987
14715TIP3    H244091   2.311   5.895   3.082
14716TIP3   OH244092   2.091   7.584   4.302
14716TIP3    H144093   2.150   7.520   4.263
14716TIP3    H244094   2.148   7.638   4.357
14717TIP3   OH244095   1.508   1.888   6.728
14717TIP3    H144096   1.588   1.860   6.684
14717TIP3    H244097   1.539   1.935   6.805
14718TIP3   OH244098   4.145   4.994   1.582
14718TIP3    H144099   4.240   4.990   1.591
14718TIP3    H244100   4.124   5.087   1.590
14719TIP3   OH244101   4.016   7.663   2.559
14719TIP3    H144102   4.018   7.705   2.645
14719TIP3    H244103   4.063   7.581   2.571
14720TIP3   OH244104   7.506   3.924   0.135
14720TIP3    H144105   7.483   3.890   0.049
14720TIP3    H244106   7.583   3.979   0.119
14721TIP3   OH244107   0.082   3.402   1.251
14721TIP3    H144108   0.004   3.408   1.196
14721TIP3    H244109   0.050   3.414   1.340
14722TIP3   OH244110   1.077   1.816   3.936
14722TIP3    H144111   1.131   1.796   4.013
14722TIP3    H244112   1.058   1.910   3.944
14723TIP3   OH244113   1.147   1.292   1.786
14723TIP3    H144114   1.177   1.238   1.860
14723TIP3    H244115   1.054   1.305   1.803
14724TIP3   OH244116   7.205   2.553   3.845
14724TIP3    H144117   7.120   2.592   3.867
14724TIP3    H244118   7.221   2.581   3.755
14725TIP3   OH244119   3.835   2.626   3.951
14725TIP3    H144120   3.761   2.637   4.010
14725TIP3    H244121   3.821   2.540   3.910
14726TIP3   OH244122   3.991   0.092   4.545
14726TIP3    H144123   4.038   0.021   4.588
14726TIP3    H244124   3.951   0.142   4.617
14727TIP3   OH244125   8.011   3.929   1.131
14727TIP3    H144126   7.948   3.862   1.104
14727TIP3    H244127   7.969   4.012   1.108
14728TIP3   OH244128   1.001   1.360   4.997
14728TIP3    H144129   1.074   1.371   5.057
14728TIP3    H244130   0.932   1.320   5.050
14729TIP3   OH244131   4.201   5.648   0.611
14729TIP3    H144132   4.107   5.649   0.592
14729TIP3    H244133   4.242   5.675   0.529
14730TIP3   OH244134   4.796   1.380   0.560
14730TIP3    H144135   4.880   1.369   0.516
14730TIP3    H244136   4.779   1.475   0.557
14731TIP3   OH244137   4.554   4.937   4.430
14731TIP3    H144138   4.494   4.862   4.435
14731TIP3    H244139   4.621   4.919   4.496
14732TIP3   OH244140   8.068   0.723   5.092
14732TIP3    H144141   8.078   0.666   5.168
14732TIP3    H244142   8.158   0.745   5.066
14733TIP3   OH244143   3.284   4.516   5.377
14733TIP3    H144144   3.275   4.458   5.301
14733TIP3    H244145   3.348   4.471   5.433
14734TIP3   OH244146   6.637   6.405   0.638
14734TIP3    H144147   6.725   6.443   0.638
14734TIP3    H244148   6.578   6.479   0.624
14735TIP3   OH244149   3.906   6.155   1.992
14735TIP3    H144150   3.999   6.153   1.967
14735TIP3    H244151   3.874   6.067   1.970
14736TIP3   OH244152   0.065   2.231   1.079
14736TIP3    H144153   0.141   2.262   1.029
14736TIP3    H244154   0.011   2.185   1.015
14737TIP3   OH244155   1.323   5.276   2.164
14737TIP3    H144156   1.381   5.277   2.088
14737TIP3    H244157   1.259   5.207   2.146
14738TIP3   OH244158   5.379  -0.016   1.617
14738TIP3    H144159   5.448  -0.024   1.683
14738TIP3    H244160   5.421  -0.041   1.535
14739TIP3   OH244161   5.731   0.369   0.724
14739TIP3    H144162   5.767   0.456   0.707
14739TIP3    H244163   5.806   0.317   0.754
14740TIP3   OH244164   0.387   6.461   2.609
14740TIP3    H144165   0.393   6.433   2.517
14740TIP3    H244166   0.464   6.422   2.650
14741TIP3   OH244167   1.107   7.304   0.059
14741TIP3    H144168   1.122   7.290   0.152
14741TIP3    H244169   1.157   7.384   0.038
14742TIP3   OH244170   7.576   3.249   3.311
14742TIP3    H144171   7.497   3.206   3.342
14742TIP3    H244172   7.647   3.188   3.331
14743TIP3   OH244173   4.762   4.706   3.711
14743TIP3    H144174   4.669   4.707   3.690
14743TIP3    H244175   4.797   4.785   3.669
14744TIP3   OH244176   2.559   5.750   6.180
14744TIP3    H144177   2.523   5.797   6.105
14744TIP3    H244178   2.653   5.745   6.162
14745TIP3   OH244179   0.627   4.065   3.197
14745TIP3    H144180   0.642   4.091   3.288
14745TIP3    H244181   0.665   3.978   3.191
14746TIP3   OH244182   7.314   2.474   4.308
14746TIP3    H144183   7.260   2.437   4.239
14746TIP3    H244184   7.396   2.498   4.264
14747TIP3   OH244185  -0.027   6.227   6.568
14747TIP3    H144186   0.003   6.256   6.654
14747TIP3    H244187   0.049   6.183   6.529
14748TIP3   OH244188   2.685   6.297   4.624
14748TIP3    H144189   2.645   6.222   4.579
14748TIP3    H244190   2.761   6.260   4.669
14749TIP3   OH244191   4.446   5.286   5.255
14749TIP3    H144192   4.485   5.230   5.323
14749TIP3    H244193   4.521   5.328   5.213
14750TIP3   OH244194   8.158   3.467   4.810
14750TIP3    H144195   8.091   3.527   4.842
14750TIP3    H244196   8.180   3.413   4.886
14751TIP3   OH244197   5.206   6.170   4.471
14751TIP3    H144198   5.176   6.194   4.384
14751TIP3    H244199   5.226   6.253   4.514
14752TIP3   OH244200   5.045   6.472   0.920
14752TIP3    H144201   5.062   6.378   0.931
14752TIP3    H244202   5.107   6.499   0.852
14753TIP3   OH244203   1.098   4.199   4.716
14753TIP3    H144204   1.098   4.285   4.674
14753TIP3    H244205   1.089   4.137   4.644
14754TIP3   OH244206   4.370   1.119   5.829
14754TIP3    H144207   4.324   1.181   5.885
14754TIP3    H244208   4.400   1.171   5.755
14755TIP3   OH244209   1.368   5.768   1.290
14755TIP3    H144210   1.340   5.680   1.266
14755TIP3    H244211   1.421   5.798   1.215
14756TIP3   OH244212   8.032   0.292   1.495
14756TIP3    H144213   7.955   0.349   1.499
14756TIP3    H244214   8.052   0.286   1.401
14757TIP3   OH244215   7.390   5.996   4.234
14757TIP3    H144216   7.341   5.939   4.174
14757TIP3    H244217   7.357   6.084   4.216
14758TIP3   OH244218   6.783   6.630   6.181
14758TIP3    H144219   6.817   6.574   6.251
14758TIP3    H244220   6.738   6.701   6.227
14759TIP3   OH244221   3.996   2.558   6.249
14759TIP3    H144222   4.016   2.465   6.238
14759TIP3    H244223   3.985   2.569   6.343
14760TIP3   OH244224   4.120   4.255   0.046
14760TIP3    H144225   4.207   4.217   0.053
14760TIP3    H244226   4.063   4.193   0.091
14761TIP3   OH244227   7.065   7.181   2.676
14761TIP3    H144228   7.107   7.254   2.630
14761TIP3    H244229   7.130   7.110   2.673
14762TIP3   OH244230   2.768   0.070   5.216
14762TIP3    H144231   2.827   0.074   5.292
14762TIP3    H244232   2.680   0.062   5.255
14763TIP3   OH244233   7.349   5.288   1.992
14763TIP3    H144234   7.275   5.320   1.940
14763TIP3    H244235   7.414   5.359   1.988
14764TIP3   OH244236   4.290   5.307   2.737
14764TIP3    H144237   4.353   5.313   2.809
14764TIP3    H244238   4.278   5.398   2.709
14765TIP3   OH244239   8.185   2.137   1.745
14765TIP3    H144240   8.269   2.144   1.791
14765TIP3    H244241   8.128   2.200   1.789
14766TIP3   OH244242   0.098   6.357   4.337
14766TIP3    H144243   0.092   6.352   4.433
14766TIP3    H244244   0.122   6.268   4.310
14767TIP3   OH244245   3.811   5.894   1.615
14767TIP3    H144246   3.891   5.945   1.601
14767TIP3    H244247   3.821   5.818   1.557
14768TIP3   OH244248   2.072   7.402   2.064
14768TIP3    H144249   2.050   7.456   2.140
14768TIP3    H244250   2.009   7.429   1.997
14769TIP3   OH244251   5.040   2.663   3.878
14769TIP3    H144252   4.946   2.677   3.892
14769TIP3    H244253   5.060   2.584   3.927
14770TIP3   OH244254   1.733   4.002   1.457
14770TIP3    H144255   1.664   3.943   1.486
14770TIP3    H244256   1.728   4.077   1.516
14771TIP3   OH244257   5.833   0.913   4.224
14771TIP3    H144258   5.858   0.839   4.168
14771TIP3    H244259   5.914   0.943   4.264
14772TIP3   OH244260   2.308   1.415   2.104
14772TIP3    H144261   2.233   1.458   2.147
14772TIP3    H244262   2.302   1.443   2.013
14773TIP3   OH244263   0.727   5.265   6.418
14773TIP3    H144264   0.643   5.298   6.386
14773TIP3    H244265   0.713   5.251   6.511
14774TIP3   OH244266   3.207   6.992   1.699
14774TIP3    H144267   3.140   6.948   1.648
14774TIP3    H244268   3.283   6.933   1.694
14775TIP3   OH244269   0.700   5.772   3.022
14775TIP3    H144270   0.618   5.813   3.049
14775TIP3    H244271   0.765   5.842   3.026
14776TIP3   OH244272   8.002   0.245   6.602
14776TIP3    H144273   8.016   0.151   6.595
14776TIP3    H244274   8.070   0.284   6.548
14777TIP3   OH244275   5.305   7.380   4.789
14777TIP3    H144276   5.308   7.288   4.764
14777TIP3    H244277   5.217   7.408   4.763
14778TIP3   OH244278   0.934   4.552   1.389
14778TIP3    H144279   0.924   4.458   1.376
14778TIP3    H244280   0.989   4.581   1.317
14779TIP3   OH244281   6.892   2.364   3.811
14779TIP3    H144282   6.964   2.303   3.828
14779TIP3    H244283   6.831   2.313   3.758
14780TIP3   OH244284   1.598   0.797   2.453
14780TIP3    H144285   1.566   0.887   2.451
14780TIP3    H244286   1.645   0.790   2.536
14781TIP3   OH244287   2.300   0.069   5.499
14781TIP3    H144288   2.228   0.119   5.537
14781TIP3    H244289   2.361   0.057   5.572
14782TIP3   OH244290   5.846   2.268   2.956
14782TIP3    H144291   5.922   2.274   2.899
14782TIP3    H244292   5.773   2.300   2.902
14783TIP3   OH244293   4.615   1.421   2.398
14783TIP3    H144294   4.623   1.341   2.345
14783TIP3    H244295   4.699   1.427   2.444
14784TIP3   OH244296   0.275   6.167   0.610
14784TIP3    H144297   0.282   6.081   0.568
14784TIP3    H244298   0.181   6.181   0.620
14785TIP3   OH244299   7.182   7.618   0.344
14785TIP3    H144300   7.225   7.578   0.419
14785TIP3    H244301   7.247   7.611   0.273
14786TIP3   OH244302   4.624   6.737   4.306
14786TIP3    H144303   4.693   6.683   4.269
14786TIP3    H244304   4.554   6.735   4.240
14787TIP3   OH244305   4.432   0.638   3.441
14787TIP3    H144306   4.411   0.620   3.533
14787TIP3    H244307   4.351   0.620   3.394
14788TIP3   OH244308   1.851   0.892   2.384
14788TIP3    H144309   1.907   0.838   2.439
14788TIP3    H244310   1.804   0.829   2.329
14789TIP3   OH244311   0.055   0.602   1.376
14789TIP3    H144312  -0.021   0.617   1.432
14789TIP3    H244313   0.019   0.596   1.287
14790TIP3   OH244314   5.400   6.924   1.096
14790TIP3    H144315   5.376   6.832   1.107
14790TIP3    H244316   5.424   6.933   1.004
14791TIP3   OH244317   5.301   3.299   4.480
14791TIP3    H144318   5.337   3.363   4.420
14791TIP3    H244319   5.228   3.344   4.522
14792TIP3   OH244320   4.432   2.179   6.537
14792TIP3    H144321   4.368   2.141   6.597
14792TIP3    H244322   4.509   2.197   6.591
14793TIP3   OH244323   5.950   3.695   4.063
14793TIP3    H144324   5.881   3.761   4.057
14793TIP3    H244325   5.991   3.710   4.148
14794TIP3   OH244326   0.885   4.215   6.159
14794TIP3    H144327   0.979   4.204   6.141
14794TIP3    H244328   0.882   4.242   6.251
14795TIP3   OH244329   2.104   2.796   0.875
14795TIP3    H144330   2.070   2.860   0.937
14795TIP3    H244331   2.177   2.841   0.832
14796TIP3   OH244332   0.917   6.181   4.400
14796TIP3    H144333   0.948   6.176   4.310
14796TIP3    H244334   0.955   6.105   4.443
14797TIP3   OH244335   1.727   1.377   5.475
14797TIP3    H144336   1.682   1.460   5.456
14797TIP3    H244337   1.760   1.387   5.564
14798TIP3   OH244338   6.251   4.351   4.664
14798TIP3    H144339   6.307   4.420   4.629
14798TIP3    H244340   6.172   4.354   4.609
14799TIP3   OH244341   1.325   0.044   1.155
14799TIP3    H144342   1.259   0.010   1.216
14799TIP3    H244343   1.286   0.124   1.120
14800TIP3   OH244344   4.199   4.347   1.733
14800TIP3    H144345   4.266   4.332   1.666
14800TIP3    H244346   4.216   4.436   1.765
14801TIP3   OH244347   0.309   3.786   0.079
14801TIP3    H144348   0.378   3.723   0.101
14801TIP3    H244349   0.227   3.737   0.091
14802TIP3   OH244350   2.107   4.120   2.439
14802TIP3    H144351   2.012   4.114   2.429
14802TIP3    H244352   2.133   4.189   2.378
14803TIP3   OH244353   2.432   0.370   6.220
14803TIP3    H144354   2.437   0.275   6.229
14803TIP3    H244355   2.440   0.402   6.310
14804TIP3   OH244356   6.010   6.363   6.071
14804TIP3    H144357   5.923   6.369   6.031
14804TIP3    H244358   5.994   6.332   6.160
14805TIP3   OH244359   2.210   6.703   0.228
14805TIP3    H144360   2.185   6.723   0.138
14805TIP3    H244361   2.193   6.610   0.238
14806TIP3   OH244362   7.934   5.049   3.230
14806TIP3    H144363   7.892   4.967   3.203
14806TIP3    H244364   7.860   5.107   3.250
14807TIP3   OH244365   1.587   2.448   0.817
14807TIP3    H144366   1.549   2.490   0.894
14807TIP3    H244367   1.630   2.520   0.770
14808TIP3   OH244368   4.939   5.582   3.431
14808TIP3    H144369   4.869   5.624   3.380
14808TIP3    H244370   4.979   5.520   3.371
14809TIP3   OH244371   5.093   5.085   4.376
14809TIP3    H144372   5.112   4.991   4.384
14809TIP3    H244373   5.025   5.090   4.309
14810TIP3   OH244374   0.876   1.328   1.834
14810TIP3    H144375   0.866   1.262   1.765
14810TIP3    H244376   0.856   1.281   1.915
14811TIP3   OH244377   4.830   0.766   0.420
14811TIP3    H144378   4.766   0.810   0.475
14811TIP3    H244379   4.837   0.678   0.458
14812TIP3   OH244380   6.601   7.747   3.362
14812TIP3    H144381   6.579   7.685   3.293
14812TIP3    H244382   6.696   7.742   3.371
14813TIP3   OH244383   6.777   1.012   5.677
14813TIP3    H144384   6.710   1.051   5.621
14813TIP3    H244385   6.758   0.919   5.676
14814TIP3   OH244386   2.571   2.873   3.823
14814TIP3    H144387   2.664   2.890   3.806
14814TIP3    H244388   2.570   2.786   3.865
14815TIP3   OH244389   6.765   2.642   1.419
14815TIP3    H144390   6.697   2.708   1.432
14815TIP3    H244391   6.846   2.687   1.440
14816TIP3   OH244392   1.261   2.991   5.616
14816TIP3    H144393   1.173   3.016   5.588
14816TIP3    H244394   1.317   3.062   5.586
14817TIP3   OH244395   1.093   0.874   0.472
14817TIP3    H144396   1.090   0.798   0.414
14817TIP3    H244397   1.062   0.841   0.557
14818TIP3   OH244398   3.668   0.070   1.477
14818TIP3    H144399   3.673   0.099   1.385
14818TIP3    H244400   3.694  -0.022   1.474
14819TIP3   OH244401   1.212   2.663   1.634
14819TIP3    H144402   1.220   2.599   1.563
14819TIP3    H244403   1.299   2.702   1.642
14820TIP3   OH244404   5.584   1.047   3.789
14820TIP3    H144405   5.580   1.140   3.767
14820TIP3    H244406   5.606   1.046   3.882
14821TIP3   OH244407   0.422   6.867   3.967
14821TIP3    H144408   0.345   6.902   4.012
14821TIP3    H244409   0.430   6.777   4.000
14822TIP3   OH244410   0.965   2.753   1.726
14822TIP3    H144411   1.048   2.724   1.688
14822TIP3    H244412   0.919   2.797   1.654
14823TIP3   OH244413   4.370   3.239   5.693
14823TIP3    H144414   4.287   3.242   5.741
14823TIP3    H244415   4.437   3.230   5.762
14824TIP3   OH244416   4.582   6.301   3.017
14824TIP3    H144417   4.561   6.373   3.076
14824TIP3    H244418   4.577   6.339   2.929
14825TIP3   OH244419   6.885   4.397   4.513
14825TIP3    H144420   6.843   4.475   4.551
14825TIP3    H244421   6.887   4.414   4.419
14826TIP3   OH244422   3.693   2.339   1.448
14826TIP3    H144423   3.714   2.403   1.380
14826TIP3    H244424   3.655   2.392   1.519
14827TIP3   OH244425   7.178   0.030   2.576
14827TIP3    H144426   7.242   0.093   2.544
14827TIP3    H244427   7.106   0.035   2.512
14828TIP3   OH244428   3.802   3.792   1.894
14828TIP3    H144429   3.846   3.860   1.843
14828TIP3    H244430   3.717   3.782   1.852
14829TIP3   OH244431   3.071   2.296   6.230
14829TIP3    H144432   3.089   2.378   6.276
14829TIP3    H244433   3.000   2.256   6.279
14830TIP3   OH244434   3.683   6.548   0.720
14830TIP3    H144435   3.658   6.460   0.750
14830TIP3    H244436   3.632   6.608   0.774
14831TIP3   OH244437   0.326   4.457   1.887
14831TIP3    H144438   0.255   4.517   1.866
14831TIP3    H244439   0.283   4.382   1.928
14832TIP3   OH244440   3.398   6.713   4.673
14832TIP3    H144441   3.429   6.669   4.752
14832TIP3    H244442   3.473   6.764   4.642
14833TIP3   OH244443   5.514   1.990   5.499
14833TIP3    H144444   5.482   1.900   5.502
14833TIP3    H244445   5.539   2.009   5.589
14834TIP3   OH244446   0.882   5.504   0.197
14834TIP3    H144447   0.831   5.436   0.240
14834TIP3    H244448   0.834   5.521   0.116
14835TIP3   OH244449   0.730   4.902   4.118
14835TIP3    H144450   0.654   4.889   4.175
14835TIP3    H244451   0.793   4.947   4.173
14836TIP3   OH244452   1.907   1.451   2.876
14836TIP3    H144453   1.981   1.439   2.817
14836TIP3    H244454   1.840   1.391   2.842
14837TIP3   OH244455   0.141   2.340   6.312
14837TIP3    H144456   0.108   2.314   6.398
14837TIP3    H244457   0.234   2.318   6.315
14838TIP3   OH244458   8.235   6.150   2.091
14838TIP3    H144459   8.308   6.088   2.101
14838TIP3    H244460   8.276   6.233   2.070
14839TIP3   OH244461   0.334   5.904   0.518
14839TIP3    H144462   0.390   5.852   0.575
14839TIP3    H244463   0.250   5.858   0.517
   8.29356   7.81925   6.77166   0.00000   0.00000  -2.76452   0.00000  -2.76452  -3.90962
