Title t=  18.00000 step= 9000
29212
    1ASP      N    1   2.051   1.160   2.044
    1ASP    HT1    2   2.104   1.106   2.115
    1ASP    HT2    3   2.027   1.251   2.088
    1ASP    HT3    4   2.106   1.168   1.956
    1ASP     CA    5   1.925   1.093   2.013
    1ASP     HA    6   1.870   1.154   1.943
    1ASP     CB    7   1.952   0.949   1.956
    1ASP    HB1    8   1.859   0.889   1.961
    1ASP    HB2    9   2.016   0.904   2.036
    1ASP     CG   10   2.012   0.958   1.812
    1ASP    OD1   11   1.979   1.056   1.738
    1ASP    OD2   12   2.073   0.854   1.777
    1ASP      C   13   1.844   1.086   2.142
    1ASP      O   14   1.883   1.134   2.245
    2GLY      N   15   1.731   1.016   2.145
    2GLY     HN   16   1.697   0.981   2.058
    2GLY     CA   17   1.645   1.025   2.259
    2GLY    HA1   18   1.708   1.015   2.346
    2GLY    HA2   19   1.562   0.955   2.260
    2GLY      C   20   1.577   1.157   2.279
    2GLY      O   21   1.585   1.249   2.198
    3ASP      N   22   1.495   1.166   2.384
    3ASP     HN   23   1.498   1.082   2.437
    3ASP     CA   24   1.389   1.270   2.407
    3ASP     HA   25   1.361   1.308   2.310
    3ASP     CB   26   1.276   1.207   2.487
    3ASP    HB1   27   1.201   1.281   2.522
    3ASP    HB2   28   1.322   1.156   2.574
    3ASP     CG   29   1.210   1.102   2.404
    3ASP    OD1   30   1.135   1.019   2.469
    3ASP    OD2   31   1.215   1.095   2.275
    3ASP      C   32   1.457   1.386   2.478
    3ASP      O   33   1.564   1.384   2.535
    4GLY      N   34   1.390   1.498   2.464
    4GLY     HN   35   1.301   1.492   2.421
    4GLY     CA   36   1.429   1.633   2.502
    4GLY    HA1   37   1.376   1.705   2.441
    4GLY    HA2   38   1.534   1.644   2.480
    4GLY      C   39   1.395   1.654   2.648
    4GLY      O   40   1.345   1.565   2.715
    5PRO      N   41   1.404   1.774   2.699
    5PRO     CD   42   1.487   1.877   2.643
    5PRO    HD1   43   1.439   1.905   2.547
    5PRO    HD2   44   1.593   1.845   2.633
    5PRO     CA   45   1.320   1.834   2.809
    5PRO     HA   46   1.377   1.804   2.896
    5PRO     CB   47   1.320   1.981   2.780
    5PRO    HB1   48   1.299   2.043   2.869
    5PRO    HB2   49   1.253   2.005   2.695
    5PRO     CG   50   1.464   1.999   2.737
    5PRO    HG1   51   1.486   2.099   2.695
    5PRO    HG2   52   1.525   1.982   2.828
    5PRO      C   53   1.181   1.782   2.841
    5PRO      O   54   1.095   1.768   2.753
    6GLY      N   55   1.162   1.745   2.968
    6GLY     HN   56   1.234   1.760   3.035
    6GLY     CA   57   1.040   1.695   3.025
    6GLY    HA1   58   1.065   1.638   3.113
    6GLY    HA2   59   0.989   1.645   2.943
    6GLY      C   60   0.952   1.806   3.071
    6GLY      O   61   0.972   1.926   3.045
    7ASP      N   62   0.850   1.766   3.147
    7ASP     HN   63   0.839   1.668   3.158
    7ASP     CA   64   0.760   1.854   3.219
    7ASP     HA   65   0.709   1.914   3.145
    7ASP     CB   66   0.666   1.775   3.313
    7ASP    HB1   67   0.614   1.835   3.392
    7ASP    HB2   68   0.720   1.703   3.378
    7ASP     CG   69   0.563   1.699   3.234
    7ASP    OD1   70   0.475   1.630   3.286
    7ASP    OD2   71   0.562   1.726   3.110
    7ASP      C   72   0.827   1.957   3.313
    7ASP      O   73   0.941   1.925   3.359
    8PRO      N   74   0.775   2.079   3.341
    8PRO     CD   75   0.652   2.127   3.283
    8PRO    HD1   76   0.584   2.039   3.291
    8PRO    HD2   77   0.671   2.164   3.180
    8PRO     CA   78   0.826   2.172   3.439
    8PRO     HA   79   0.925   2.211   3.422
    8PRO     CB   80   0.718   2.289   3.449
    8PRO    HB1   81   0.750   2.380   3.393
    8PRO    HB2   82   0.707   2.320   3.555
    8PRO     CG   83   0.589   2.243   3.373
    8PRO    HG1   84   0.526   2.194   3.450
    8PRO    HG2   85   0.530   2.315   3.311
    8PRO      C   86   0.839   2.109   3.582
    8PRO      O   87   0.758   2.027   3.618
    9GLY      N   88   0.937   2.155   3.668
    9GLY     HN   89   1.019   2.204   3.641
    9GLY     CA   90   0.925   2.128   3.813
    9GLY    HA1   91   1.013   2.156   3.868
    9GLY    HA2   92   0.900   2.024   3.826
    9GLY      C   93   0.811   2.207   3.872
    9GLY      O   94   0.760   2.299   3.812
   10ASP      N   95   0.769   2.174   3.998
   10ASP     HN   96   0.809   2.098   4.049
   10ASP     CA   97   0.667   2.249   4.074
   10ASP     HA   98   0.572   2.255   4.024
   10ASP     CB   99   0.638   2.175   4.211
   10ASP    HB1  100   0.556   2.223   4.269
   10ASP    HB2  101   0.715   2.183   4.290
   10ASP     CG  102   0.596   2.028   4.193
   10ASP    OD1  103   0.564   1.979   4.077
   10ASP    OD2  104   0.591   1.961   4.301
   10ASP      C  105   0.698   2.393   4.100
   10ASP      O  106   0.614   2.488   4.084
   11GLY      N  107   0.821   2.407   4.154
   11GLY     HN  108   0.882   2.331   4.175
   11GLY     CA  109   0.877   2.542   4.180
   11GLY    HA1  110   0.808   2.623   4.165
   11GLY    HA2  111   0.953   2.551   4.104
   11GLY      C  112   0.940   2.562   4.311
   11GLY    OT1  113   1.010   2.467   4.360
   11GLY    OT2  114   0.923   2.669   4.371
   12LIT    LIT  115   3.807   5.609   0.892
   13LIT    LIT  116   2.371   3.353   5.392
   14LIT    LIT  117   2.456   0.673   1.354
   15LIT    LIT  118   3.134   1.687   2.246
   16LIT    LIT  119   0.996   2.829   4.306
   17LIT    LIT  120   3.393   6.274   4.897
   18LIT    LIT  121   2.756   2.805   3.441
   19LIT    LIT  122   2.293   5.961   0.848
   20LIT    LIT  123   0.015   2.379   3.890
   21LIT    LIT  124   1.685   0.539   2.440
   22LIT    LIT  125   2.651   0.465   5.579
   23LIT    LIT  126   1.292   1.071   0.295
   24LIT    LIT  127   6.594   4.448   4.240
   25LIT    LIT  128   0.423   1.837   3.072
   26LIT    LIT  129   0.441   1.964   3.951
   27LIT    LIT  130   3.907   1.474   3.231
   28LIT    LIT  131   0.297   5.189   5.849
   29LIT    LIT  132   0.637   3.581   2.409
   30LIT    LIT  133   0.337   2.221   1.851
   31LIT    LIT  134   4.839   0.895   2.317
   32LIT    LIT  135   6.980   1.732   1.093
   33LIT    LIT  136   4.030   3.442   2.287
   34LIT    LIT  137   4.742   1.408   4.822
   35LIT    LIT  138   0.772   1.798   2.525
   36LIT    LIT  139   6.086   5.126   1.207
   37LIT    LIT  140   2.742   4.763   1.147
   38LIT    LIT  141   0.940   2.115   5.476
   39LIT    LIT  142   1.973   0.750   1.649
   40LIT    LIT  143   2.069   6.694   3.041
   41LIT    LIT  144   3.048   1.478   3.311
   42LIT    LIT  145   1.047   1.014   2.226
   43CLA    CLA  146   1.883   6.834   3.109
   44CLA    CLA  147   4.414   1.310   4.481
   45CLA    CLA  148   3.477   3.749   3.370
   46CLA    CLA  149   6.060   2.497   0.631
   47CLA    CLA  150   0.254   1.703   2.578
   48CLA    CLA  151   4.652   5.604  -0.001
   49CLA    CLA  152   2.661   5.936   3.887
   50CLA    CLA  153   3.552   3.799   0.885
   51CLA    CLA  154   7.201   1.916   1.669
   52CLA    CLA  155   3.852   4.619   3.391
   53CLA    CLA  156   3.828   1.496   2.797
   54CLA    CLA  157   3.248   1.499   1.835
   55CLA    CLA  158   7.017   3.248   5.347
   56CLA    CLA  159   6.823   0.952   5.369
   57CLA    CLA  160   6.578   2.143   4.149
   58CLA    CLA  161   4.205   3.405   2.150
   59CLA    CLA  162   5.027   0.586   1.216
   60CLA    CLA  163   6.532   6.766   3.384
   61CLA    CLA  164   1.306   0.330   0.568
   62CLA    CLA  165   6.712   0.337   0.630
   63CLA    CLA  166   0.172   1.219   0.778
   64CLA    CLA  167   4.420   3.238   0.480
   65CLA    CLA  168   6.215   5.211   2.382
   66CLA    CLA  169   3.538   0.047   3.116
   67CLA    CLA  170   5.418   2.147   2.721
   68CLA    CLA  171   0.074   2.942   2.380
   69CLA    CLA  172   4.675   3.965   2.207
   70TIP3   OH2  173   0.925   6.438   5.739
   70TIP3    H1  174   0.944   6.531   5.730
   70TIP3    H2  175   0.984   6.395   5.677
   71TIP3   OH2  176   0.534   5.267   3.710
   71TIP3    H1  177   0.496   5.225   3.633
   71TIP3    H2  178   0.554   5.195   3.769
   72TIP3   OH2  179   4.527   4.387   3.821
   72TIP3    H1  180   4.589   4.453   3.789
   72TIP3    H2  181   4.581   4.315   3.851
   73TIP3   OH2  182   3.942   3.683   0.687
   73TIP3    H1  183   4.001   3.740   0.737
   73TIP3    H2  184   3.859   3.687   0.735
   74TIP3   OH2  185   4.935   5.943   4.003
   74TIP3    H1  186   4.844   5.960   3.980
   74TIP3    H2  187   4.958   6.014   4.063
   75TIP3   OH2  188   3.027   3.709   1.937
   75TIP3    H1  189   3.102   3.655   1.962
   75TIP3    H2  190   2.988   3.735   2.020
   76TIP3   OH2  191   3.019   6.521   3.982
   76TIP3    H1  192   3.034   6.523   3.888
   76TIP3    H2  193   2.955   6.590   3.998
   77TIP3   OH2  194   4.781   1.649   0.926
   77TIP3    H1  195   4.742   1.567   0.894
   77TIP3    H2  196   4.706   1.699   0.961
   78TIP3   OH2  197   6.048   1.152   5.823
   78TIP3    H1  198   5.983   1.153   5.894
   78TIP3    H2  199   6.040   1.064   5.785
   79TIP3   OH2  200   1.930   3.926   4.069
   79TIP3    H1  201   1.918   3.867   4.143
   79TIP3    H2  202   1.850   3.979   4.068
   80TIP3   OH2  203   3.768   0.401   1.061
   80TIP3    H1  204   3.678   0.370   1.054
   80TIP3    H2  205   3.760   0.497   1.061
   81TIP3   OH2  206   6.913   3.202   3.217
   81TIP3    H1  207   6.818   3.202   3.228
   81TIP3    H2  208   6.942   3.123   3.264
   82TIP3   OH2  209   3.847   5.168   2.866
   82TIP3    H1  210   3.809   5.165   2.954
   82TIP3    H2  211   3.875   5.078   2.849
   83TIP3   OH2  212   0.668   3.514   0.826
   83TIP3    H1  213   0.678   3.432   0.778
   83TIP3    H2  214   0.604   3.564   0.776
   84TIP3   OH2  215   5.531   0.377   1.845
   84TIP3    H1  216   5.555   0.399   1.935
   84TIP3    H2  217   5.612   0.347   1.805
   85TIP3   OH2  218   7.018   2.139   2.911
   85TIP3    H1  219   6.924   2.157   2.918
   85TIP3    H2  220   7.044   2.180   2.829
   86TIP3   OH2  221   6.406   1.696   3.775
   86TIP3    H1  222   6.474   1.740   3.828
   86TIP3    H2  223   6.437   1.606   3.767
   87TIP3   OH2  224   2.276   0.494   2.618
   87TIP3    H1  225   2.330   0.542   2.555
   87TIP3    H2  226   2.232   0.427   2.566
   88TIP3   OH2  227   1.042   4.950   4.195
   88TIP3    H1  228   1.000   5.036   4.188
   88TIP3    H2  229   1.133   4.967   4.170
   89TIP3   OH2  230   6.702   5.103   3.011
   89TIP3    H1  231   6.692   5.118   3.105
   89TIP3    H2  232   6.613   5.115   2.976
   90TIP3   OH2  233   1.672   4.531   3.737
   90TIP3    H1  234   1.623   4.585   3.675
   90TIP3    H2  235   1.634   4.444   3.728
   91TIP3   OH2  236   2.230   3.050   5.076
   91TIP3    H1  237   2.208   2.968   5.032
   91TIP3    H2  238   2.315   3.033   5.116
   92TIP3   OH2  239   3.156   0.372   0.117
   92TIP3    H1  240   3.192   0.448   0.072
   92TIP3    H2  241   3.208   0.298   0.084
   93TIP3   OH2  242   0.034   5.665   3.863
   93TIP3    H1  243   0.050   5.736   3.801
   93TIP3    H2  244  -0.032   5.611   3.820
   94TIP3   OH2  245   3.933   1.439   1.602
   94TIP3    H1  246   3.906   1.514   1.656
   94TIP3    H2  247   3.872   1.439   1.529
   95TIP3   OH2  248   3.665   5.253   5.322
   95TIP3    H1  249   3.670   5.315   5.395
   95TIP3    H2  250   3.597   5.191   5.348
   96TIP3   OH2  251   1.415   0.489   0.794
   96TIP3    H1  252   1.372   0.465   0.712
   96TIP3    H2  253   1.466   0.412   0.819
   97TIP3   OH2  254   3.447   5.323   2.981
   97TIP3    H1  255   3.430   5.259   3.051
   97TIP3    H2  256   3.484   5.271   2.910
   98TIP3   OH2  257   6.974   1.601   2.323
   98TIP3    H1  258   6.991   1.650   2.243
   98TIP3    H2  259   7.041   1.532   2.324
   99TIP3   OH2  260   1.435   5.742   2.948
   99TIP3    H1  261   1.374   5.807   2.984
   99TIP3    H2  262   1.515   5.753   2.999
  100TIP3   OH2  263   2.591   2.944   0.097
  100TIP3    H1  264   2.605   2.939   0.003
  100TIP3    H2  265   2.678   2.964   0.133
  101TIP3   OH2  266   5.416   1.607   1.003
  101TIP3    H1  267   5.476   1.551   0.953
  101TIP3    H2  268   5.472   1.649   1.068
  102TIP3   OH2  269   2.544   0.703   2.570
  102TIP3    H1  270   2.602   0.779   2.568
  102TIP3    H2  271   2.523   0.691   2.662
  103TIP3   OH2  272   6.647   0.926   1.875
  103TIP3    H1  273   6.592   0.855   1.842
  103TIP3    H2  274   6.734   0.908   1.841
  104TIP3   OH2  275   5.178   3.176   5.518
  104TIP3    H1  276   5.226   3.256   5.537
  104TIP3    H2  277   5.092   3.206   5.490
  105TIP3   OH2  278   5.883   3.256   1.826
  105TIP3    H1  279   5.817   3.285   1.889
  105TIP3    H2  280   5.833   3.217   1.755
  106TIP3   OH2  281   3.457   1.479   4.855
  106TIP3    H1  282   3.437   1.572   4.862
  106TIP3    H2  283   3.551   1.475   4.837
  107TIP3   OH2  284   5.230   1.859   0.102
  107TIP3    H1  285   5.214   1.865   0.196
  107TIP3    H2  286   5.322   1.884   0.091
  108TIP3   OH2  287   3.713   2.224   3.094
  108TIP3    H1  288   3.683   2.270   3.015
  108TIP3    H2  289   3.677   2.135   3.084
  109TIP3   OH2  290   1.755   5.986   3.148
  109TIP3    H1  291   1.715   5.979   3.235
  109TIP3    H2  292   1.721   5.910   3.100
  110TIP3   OH2  293   1.275   0.289   2.225
  110TIP3    H1  294   1.291   0.333   2.141
  110TIP3    H2  295   1.237   0.204   2.201
  111TIP3   OH2  296   1.665  -0.029   0.137
  111TIP3    H1  297   1.684   0.059   0.170
  111TIP3    H2  298   1.742  -0.081   0.160
  112TIP3   OH2  299   7.197   1.274   5.478
  112TIP3    H1  300   7.166   1.186   5.456
  112TIP3    H2  301   7.118   1.324   5.496
  113TIP3   OH2  302   2.313   5.866   3.959
  113TIP3    H1  303   2.404   5.892   3.946
  113TIP3    H2  304   2.310   5.774   3.934
  114TIP3   OH2  305   2.863   0.545   4.837
  114TIP3    H1  306   2.871   0.459   4.796
  114TIP3    H2  307   2.794   0.589   4.788
  115TIP3   OH2  308   4.055   0.967   4.266
  115TIP3    H1  309   4.022   0.935   4.182
  115TIP3    H2  310   3.991   1.033   4.293
  116TIP3   OH2  311   3.848   3.730   0.987
  116TIP3    H1  312   3.811   3.649   0.952
  116TIP3    H2  313   3.776   3.794   0.981
  117TIP3   OH2  314   6.157   0.101   1.594
  117TIP3    H1  315   6.239   0.112   1.546
  117TIP3    H2  316   6.139   0.188   1.631
  118TIP3   OH2  317   0.238   5.152   4.255
  118TIP3    H1  318   0.285   5.230   4.284
  118TIP3    H2  319   0.146   5.177   4.259
  119TIP3   OH2  320   2.461   4.374   1.668
  119TIP3    H1  321   2.466   4.351   1.761
  119TIP3    H2  322   2.535   4.433   1.654
  120TIP3   OH2  323   2.492   0.683   2.838
  120TIP3    H1  324   2.474   0.690   2.932
  120TIP3    H2  325   2.562   0.746   2.822
  121TIP3   OH2  326   1.425   6.395   2.867
  121TIP3    H1  327   1.359   6.464   2.878
  121TIP3    H2  328   1.466   6.414   2.783
  122TIP3   OH2  329   6.955   4.147   2.917
  122TIP3    H1  330   6.884   4.209   2.898
  122TIP3    H2  331   6.989   4.124   2.831
  123TIP3   OH2  332   7.001   6.771   2.902
  123TIP3    H1  333   6.971   6.734   2.819
  123TIP3    H2  334   6.928   6.756   2.963
  124TIP3   OH2  335   5.547   1.329   1.192
  124TIP3    H1  336   5.452   1.340   1.190
  124TIP3    H2  337   5.579   1.373   1.114
  125TIP3   OH2  338   5.035   3.229   2.410
  125TIP3    H1  339   5.061   3.142   2.379
  125TIP3    H2  340   4.940   3.231   2.399
  126TIP3   OH2  341   0.066   5.752   3.233
  126TIP3    H1  342   0.078   5.779   3.323
  126TIP3    H2  343  -0.016   5.702   3.233
  127TIP3   OH2  344   3.479   4.777   0.041
  127TIP3    H1  345   3.446   4.859   0.005
  127TIP3    H2  346   3.567   4.798   0.073
  128TIP3   OH2  347   4.093   0.877   2.998
  128TIP3    H1  348   4.023   0.939   3.016
  128TIP3    H2  349   4.062   0.795   3.036
  129TIP3   OH2  350   2.592   1.911   5.350
  129TIP3    H1  351   2.665   1.919   5.412
  129TIP3    H2  352   2.522   1.870   5.400
  130TIP3   OH2  353   1.408   5.127   5.087
  130TIP3    H1  354   1.495   5.133   5.046
  130TIP3    H2  355   1.353   5.086   5.020
  131TIP3   OH2  356   2.575   6.772   5.752
  131TIP3    H1  357   2.537   6.785   5.665
  131TIP3    H2  358   2.501   6.782   5.812
  132TIP3   OH2  359   6.296   2.518   3.662
  132TIP3    H1  360   6.227   2.558   3.715
  132TIP3    H2  361   6.361   2.489   3.725
  133TIP3   OH2  362   0.504   2.296   3.736
  133TIP3    H1  363   0.494   2.369   3.676
  133TIP3    H2  364   0.597   2.295   3.759
  134TIP3   OH2  365   2.441   3.538   1.939
  134TIP3    H1  366   2.374   3.471   1.932
  134TIP3    H2  367   2.394   3.618   1.963
  135TIP3   OH2  368   0.570   4.470   4.290
  135TIP3    H1  369   0.596   4.441   4.378
  135TIP3    H2  370   0.598   4.399   4.232
  136TIP3   OH2  371   4.391   4.774   5.289
  136TIP3    H1  372   4.413   4.695   5.239
  136TIP3    H2  373   4.425   4.846   5.236
  137TIP3   OH2  374   3.084   5.086   5.303
  137TIP3    H1  375   3.019   5.115   5.238
  137TIP3    H2  376   3.093   4.992   5.287
  138TIP3   OH2  377   5.314   1.693   1.353
  138TIP3    H1  378   5.233   1.729   1.390
  138TIP3    H2  379   5.361   1.770   1.320
  139TIP3   OH2  380   4.017   6.584   3.682
  139TIP3    H1  381   4.099   6.612   3.723
  139TIP3    H2  382   3.983   6.516   3.740
  140TIP3   OH2  383   2.039   0.969   0.073
  140TIP3    H1  384   2.070   0.886   0.109
  140TIP3    H2  385   2.114   1.006   0.027
  141TIP3   OH2  386   1.385   0.512   3.373
  141TIP3    H1  387   1.363   0.455   3.447
  141TIP3    H2  388   1.475   0.540   3.390
  142TIP3   OH2  389   0.607   5.580   2.988
  142TIP3    H1  390   0.655   5.662   2.984
  142TIP3    H2  391   0.534   5.591   2.927
  143TIP3   OH2  392   0.142   6.728   1.291
  143TIP3    H1  393   0.173   6.738   1.380
  143TIP3    H2  394   0.104   6.813   1.268
  144TIP3   OH2  395   1.131   4.889   1.336
  144TIP3    H1  396   1.052   4.836   1.347
  144TIP3    H2  397   1.186   4.839   1.276
  145TIP3   OH2  398   3.842   3.716   3.167
  145TIP3    H1  399   3.798   3.753   3.243
  145TIP3    H2  400   3.927   3.761   3.164
  146TIP3   OH2  401   6.556   0.417   5.780
  146TIP3    H1  402   6.558   0.332   5.737
  146TIP3    H2  403   6.550   0.397   5.873
  147TIP3   OH2  404   2.118   5.835   3.459
  147TIP3    H1  405   2.184   5.796   3.517
  147TIP3    H2  406   2.168   5.895   3.403
  148TIP3   OH2  407   4.685   0.181   3.113
  148TIP3    H1  408   4.681   0.117   3.185
  148TIP3    H2  409   4.698   0.265   3.157
  149TIP3   OH2  410   6.423   1.845   4.215
  149TIP3    H1  411   6.452   1.932   4.243
  149TIP3    H2  412   6.451   1.838   4.124
  150TIP3   OH2  413   0.199   4.969   2.046
  150TIP3    H1  414   0.241   5.010   1.970
  150TIP3    H2  415   0.176   4.881   2.015
  151TIP3   OH2  416   5.878   0.886   3.540
  151TIP3    H1  417   5.869   0.791   3.528
  151TIP3    H2  418   5.792   0.915   3.571
  152TIP3   OH2  419   6.512   5.530   0.597
  152TIP3    H1  420   6.425   5.564   0.615
  152TIP3    H2  421   6.546   5.585   0.527
  153TIP3   OH2  422   2.223   3.482   2.911
  153TIP3    H1  423   2.214   3.445   2.999
  153TIP3    H2  424   2.299   3.438   2.874
  154TIP3   OH2  425   2.152   0.017   2.444
  154TIP3    H1  426   2.193   0.071   2.512
  154TIP3    H2  427   2.213   0.022   2.370
  155TIP3   OH2  428   2.533   1.564   0.154
  155TIP3    H1  429   2.493   1.575   0.068
  155TIP3    H2  430   2.506   1.476   0.182
  156TIP3   OH2  431   4.032   2.719   2.735
  156TIP3    H1  432   3.974   2.782   2.777
  156TIP3    H2  433   4.011   2.726   2.642
  157TIP3   OH2  434   5.511   4.716   5.519
  157TIP3    H1  435   5.419   4.733   5.495
  157TIP3    H2  436   5.529   4.780   5.588
  158TIP3   OH2  437   3.895   0.182   3.529
  158TIP3    H1  438   3.811   0.191   3.486
  158TIP3    H2  439   3.955   0.157   3.459
  159TIP3   OH2  440   1.093   3.408   5.799
  159TIP3    H1  441   1.135   3.478   5.750
  159TIP3    H2  442   1.016   3.450   5.839
  160TIP3   OH2  443   3.134   5.911   0.299
  160TIP3    H1  444   3.182   5.980   0.346
  160TIP3    H2  445   3.051   5.905   0.345
  161TIP3   OH2  446   6.067   2.096   1.480
  161TIP3    H1  447   6.091   2.013   1.522
  161TIP3    H2  448   5.991   2.075   1.427
  162TIP3   OH2  449   4.673   1.359   4.149
  162TIP3    H1  450   4.645   1.435   4.200
  162TIP3    H2  451   4.752   1.388   4.104
  163TIP3   OH2  452   0.108   5.997   4.478
  163TIP3    H1  453   0.122   6.089   4.499
  163TIP3    H2  454   0.150   5.986   4.393
  164TIP3   OH2  455   5.353   5.739   1.098
  164TIP3    H1  456   5.271   5.766   1.058
  164TIP3    H2  457   5.403   5.699   1.027
  165TIP3   OH2  458   6.989   1.589   4.932
  165TIP3    H1  459   7.076   1.621   4.955
  165TIP3    H2  460   6.977   1.614   4.840
  166TIP3   OH2  461   1.029   0.039   5.011
  166TIP3    H1  462   1.030  -0.012   5.092
  166TIP3    H2  463   1.101   0.002   4.959
  167TIP3   OH2  464   5.967   2.873   0.976
  167TIP3    H1  465   5.946   2.830   0.893
  167TIP3    H2  466   5.912   2.829   1.041
  168TIP3   OH2  467   4.168   3.720   1.555
  168TIP3    H1  468   4.203   3.766   1.632
  168TIP3    H2  469   4.176   3.783   1.484
  169TIP3   OH2  470   0.103   4.859   2.322
  169TIP3    H1  471   0.135   4.864   2.231
  169TIP3    H2  472   0.087   4.950   2.347
  170TIP3   OH2  473   5.829   1.695   0.283
  170TIP3    H1  474   5.876   1.677   0.202
  170TIP3    H2  475   5.753   1.746   0.256
  171TIP3   OH2  476   2.920   4.172   4.696
  171TIP3    H1  477   2.998   4.139   4.651
  171TIP3    H2  478   2.867   4.210   4.626
  172TIP3   OH2  479   4.479   2.480   5.442
  172TIP3    H1  480   4.554   2.453   5.495
  172TIP3    H2  481   4.464   2.407   5.383
  173TIP3   OH2  482   6.823   0.097   5.646
  173TIP3    H1  483   6.910   0.086   5.684
  173TIP3    H2  484   6.818   0.189   5.622
  174TIP3   OH2  485   2.470   0.589   1.875
  174TIP3    H1  486   2.394   0.644   1.894
  174TIP3    H2  487   2.477   0.531   1.951
  175TIP3   OH2  488   6.199   0.683   1.542
  175TIP3    H1  489   6.148   0.647   1.470
  175TIP3    H2  490   6.240   0.607   1.583
  176TIP3   OH2  491   5.963   4.493   5.657
  176TIP3    H1  492   6.032   4.547   5.697
  176TIP3    H2  493   5.978   4.405   5.692
  177TIP3   OH2  494   3.947   5.517   4.377
  177TIP3    H1  495   3.904   5.465   4.309
  177TIP3    H2  496   4.030   5.472   4.393
  178TIP3   OH2  497   3.750   3.389   2.782
  178TIP3    H1  498   3.790   3.434   2.856
  178TIP3    H2  499   3.656   3.394   2.799
  179TIP3   OH2  500   6.503   5.849   2.797
  179TIP3    H1  501   6.538   5.922   2.746
  179TIP3    H2  502   6.548   5.854   2.881
  180TIP3   OH2  503   1.317   1.764   2.191
  180TIP3    H1  504   1.234   1.811   2.192
  180TIP3    H2  505   1.379   1.824   2.233
  181TIP3   OH2  506   0.876   0.480   2.877
  181TIP3    H1  507   0.843   0.481   2.788
  181TIP3    H2  508   0.952   0.539   2.875
  182TIP3   OH2  509   0.899   1.659   2.472
  182TIP3    H1  510   0.980   1.649   2.422
  182TIP3    H2  511   0.891   1.577   2.521
  183TIP3   OH2  512   3.396   5.634   3.237
  183TIP3    H1  513   3.338   5.662   3.308
  183TIP3    H2  514   3.337   5.609   3.166
  184TIP3   OH2  515   0.478   6.579   4.203
  184TIP3    H1  516   0.486   6.550   4.112
  184TIP3    H2  517   0.531   6.517   4.253
  185TIP3   OH2  518   3.098   1.093   0.855
  185TIP3    H1  519   3.045   1.050   0.788
  185TIP3    H2  520   3.171   1.132   0.807
  186TIP3   OH2  521   3.177   2.328   2.235
  186TIP3    H1  522   3.186   2.233   2.245
  186TIP3    H2  523   3.185   2.344   2.141
  187TIP3   OH2  524   1.413   5.277   3.951
  187TIP3    H1  525   1.507   5.258   3.955
  187TIP3    H2  526   1.408   5.359   3.901
  188TIP3   OH2  527   0.544   5.442   2.216
  188TIP3    H1  528   0.458   5.458   2.178
  188TIP3    H2  529   0.601   5.508   2.178
  189TIP3   OH2  530   6.838   1.992   5.151
  189TIP3    H1  531   6.907   1.933   5.121
  189TIP3    H2  532   6.868   2.023   5.237
  190TIP3   OH2  533   4.158   3.616   0.106
  190TIP3    H1  534   4.153   3.550   0.175
  190TIP3    H2  535   4.168   3.565   0.026
  191TIP3   OH2  536   2.662   5.142   2.892
  191TIP3    H1  537   2.730   5.176   2.835
  191TIP3    H2  538   2.580   5.170   2.851
  192TIP3   OH2  539   7.027   6.126   1.117
  192TIP3    H1  540   6.997   6.212   1.144
  192TIP3    H2  541   7.122   6.128   1.130
  193TIP3   OH2  542   4.503   1.336   5.424
  193TIP3    H1  543   4.508   1.342   5.329
  193TIP3    H2  544   4.561   1.264   5.447
  194TIP3   OH2  545   0.260   3.764   0.615
  194TIP3    H1  546   0.319   3.824   0.570
  194TIP3    H2  547   0.277   3.780   0.708
  195TIP3   OH2  548   1.682   1.510   1.617
  195TIP3    H1  549   1.756   1.483   1.562
  195TIP3    H2  550   1.676   1.443   1.684
  196TIP3   OH2  551   5.300   2.716   4.191
  196TIP3    H1  552   5.278   2.705   4.098
  196TIP3    H2  553   5.259   2.640   4.234
  197TIP3   OH2  554   4.910   1.652   0.320
  197TIP3    H1  555   4.994   1.659   0.366
  197TIP3    H2  556   4.892   1.559   0.317
  198TIP3   OH2  557   2.198   6.375   3.304
  198TIP3    H1  558   2.249   6.346   3.379
  198TIP3    H2  559   2.224   6.317   3.232
  199TIP3   OH2  560   5.843   1.433   1.144
  199TIP3    H1  561   5.906   1.394   1.205
  199TIP3    H2  562   5.859   1.389   1.061
  200TIP3   OH2  563   4.530   1.900   4.003
  200TIP3    H1  564   4.480   1.896   4.085
  200TIP3    H2  565   4.499   1.826   3.952
  201TIP3   OH2  566   3.369   4.665   3.464
  201TIP3    H1  567   3.295   4.610   3.438
  201TIP3    H2  568   3.446   4.623   3.426
  202TIP3   OH2  569   1.578   2.690   2.748
  202TIP3    H1  570   1.598   2.713   2.657
  202TIP3    H2  571   1.492   2.728   2.764
  203TIP3   OH2  572   1.084   1.748   1.266
  203TIP3    H1  573   1.132   1.669   1.289
  203TIP3    H2  574   1.150   1.818   1.266
  204TIP3   OH2  575   0.925   1.566   2.059
  204TIP3    H1  576   0.927   1.584   1.965
  204TIP3    H2  577   0.956   1.476   2.067
  205TIP3   OH2  578   4.709   2.544   3.316
  205TIP3    H1  579   4.794   2.555   3.359
  205TIP3    H2  580   4.716   2.461   3.270
  206TIP3   OH2  581   0.872   4.052   2.808
  206TIP3    H1  582   0.954   4.016   2.843
  206TIP3    H2  583   0.900   4.126   2.754
  207TIP3   OH2  584   2.163   0.719   4.147
  207TIP3    H1  585   2.221   0.794   4.133
  207TIP3    H2  586   2.095   0.728   4.081
  208TIP3   OH2  587   2.427   3.535   0.833
  208TIP3    H1  588   2.393   3.611   0.784
  208TIP3    H2  589   2.502   3.569   0.881
  209TIP3   OH2  590   6.532   4.185   0.142
  209TIP3    H1  591   6.565   4.175   0.231
  209TIP3    H2  592   6.478   4.107   0.127
  210TIP3   OH2  593   6.417   5.959   3.061
  210TIP3    H1  594   6.364   5.913   3.127
  210TIP3    H2  595   6.499   5.910   3.058
  211TIP3   OH2  596   5.113   1.825   1.497
  211TIP3    H1  597   5.133   1.896   1.558
  211TIP3    H2  598   5.052   1.864   1.434
  212TIP3   OH2  599   0.186   4.956   3.404
  212TIP3    H1  600   0.239   4.902   3.463
  212TIP3    H2  601   0.120   4.995   3.460
  213TIP3   OH2  602   2.431   2.815   4.567
  213TIP3    H1  603   2.441   2.883   4.500
  213TIP3    H2  604   2.373   2.855   4.633
  214TIP3   OH2  605   6.604   2.909   3.261
  214TIP3    H1  606   6.597   2.814   3.250
  214TIP3    H2  607   6.593   2.943   3.172
  215TIP3   OH2  608   4.795   6.304   3.964
  215TIP3    H1  609   4.736   6.375   3.991
  215TIP3    H2  610   4.739   6.245   3.913
  216TIP3   OH2  611   0.723   0.247   3.227
  216TIP3    H1  612   0.694   0.163   3.263
  216TIP3    H2  613   0.816   0.251   3.249
  217TIP3   OH2  614   0.113   0.237   0.570
  217TIP3    H1  615   0.095   0.224   0.477
  217TIP3    H2  616   0.120   0.149   0.606
  218TIP3   OH2  617   0.860   0.618   4.226
  218TIP3    H1  618   0.936   0.581   4.181
  218TIP3    H2  619   0.830   0.689   4.170
  219TIP3   OH2  620   4.119   2.682   0.906
  219TIP3    H1  621   4.069   2.762   0.887
  219TIP3    H2  622   4.183   2.709   0.973
  220TIP3   OH2  623   4.115   3.945   5.733
  220TIP3    H1  624   4.208   3.966   5.721
  220TIP3    H2  625   4.115   3.878   5.801
  221TIP3   OH2  626   6.805   4.641   4.548
  221TIP3    H1  627   6.786   4.724   4.505
  221TIP3    H2  628   6.873   4.662   4.612
  222TIP3   OH2  629   5.901   5.215   2.341
  222TIP3    H1  630   5.876   5.214   2.434
  222TIP3    H2  631   5.996   5.198   2.342
  223TIP3   OH2  632   2.910   2.064   3.024
  223TIP3    H1  633   2.886   2.016   3.103
  223TIP3    H2  634   2.987   2.115   3.049
  224TIP3   OH2  635   2.653   6.514   1.265
  224TIP3    H1  636   2.596   6.437   1.262
  224TIP3    H2  637   2.742   6.478   1.269
  225TIP3   OH2  638   5.089   0.143   5.130
  225TIP3    H1  639   5.166   0.194   5.105
  225TIP3    H2  640   5.044   0.126   5.047
  226TIP3   OH2  641   4.674   1.151   5.456
  226TIP3    H1  642   4.645   1.074   5.505
  226TIP3    H2  643   4.702   1.116   5.372
  227TIP3   OH2  644   5.863   3.000   5.885
  227TIP3    H1  645   5.870   2.905   5.888
  227TIP3    H2  646   5.769   3.017   5.886
  228TIP3   OH2  647   5.233   4.207   2.164
  228TIP3    H1  648   5.310   4.262   2.149
  228TIP3    H2  649   5.162   4.253   2.121
  229TIP3   OH2  650   2.651   0.687   4.715
  229TIP3    H1  651   2.579   0.673   4.653
  229TIP3    H2  652   2.608   0.720   4.794
  230TIP3   OH2  653   5.169   0.992   2.186
  230TIP3    H1  654   5.115   0.980   2.108
  230TIP3    H2  655   5.173   0.905   2.226
  231TIP3   OH2  656   4.370   0.134   1.453
  231TIP3    H1  657   4.354   0.228   1.449
  231TIP3    H2  658   4.453   0.122   1.407
  232TIP3   OH2  659   5.969   1.495   3.590
  232TIP3    H1  660   5.912   1.505   3.666
  232TIP3    H2  661   6.041   1.555   3.606
  233TIP3   OH2  662   2.816   0.923   4.907
  233TIP3    H1  663   2.904   0.889   4.891
  233TIP3    H2  664   2.828   0.992   4.972
  234TIP3   OH2  665   3.329   2.213   1.698
  234TIP3    H1  666   3.240   2.232   1.667
  234TIP3    H2  667   3.382   2.212   1.619
  235TIP3   OH2  668   4.230   5.780   1.688
  235TIP3    H1  669   4.185   5.706   1.647
  235TIP3    H2  670   4.172   5.855   1.673
  236TIP3   OH2  671   2.040   0.382   3.581
  236TIP3    H1  672   1.995   0.443   3.639
  236TIP3    H2  673   1.971   0.347   3.525
  237TIP3   OH2  674   6.857   2.222   0.190
  237TIP3    H1  675   6.882   2.277   0.264
  237TIP3    H2  676   6.764   2.204   0.204
  238TIP3   OH2  677   4.842   2.090   4.821
  238TIP3    H1  678   4.808   2.119   4.905
  238TIP3    H2  679   4.765   2.078   4.766
  239TIP3   OH2  680   5.874   6.601   0.378
  239TIP3    H1  681   5.800   6.659   0.391
  239TIP3    H2  682   5.835   6.514   0.365
  240TIP3   OH2  683   5.375   2.581   0.809
  240TIP3    H1  684   5.348   2.521   0.878
  240TIP3    H2  685   5.293   2.617   0.775
  241TIP3   OH2  686   1.949   5.256   2.924
  241TIP3    H1  687   2.030   5.287   2.883
  241TIP3    H2  688   1.963   5.271   3.017
  242TIP3   OH2  689   4.484   2.394   4.842
  242TIP3    H1  690   4.417   2.390   4.773
  242TIP3    H2  691   4.550   2.331   4.815
  243TIP3   OH2  692   1.846   3.944   2.970
  243TIP3    H1  693   1.848   3.874   2.904
  243TIP3    H2  694   1.937   3.974   2.975
  244TIP3   OH2  695   1.221   1.177   1.840
  244TIP3    H1  696   1.253   1.124   1.767
  244TIP3    H2  697   1.241   1.267   1.815
  245TIP3   OH2  698   1.941   5.084   3.535
  245TIP3    H1  699   1.931   5.045   3.622
  245TIP3    H2  700   1.901   5.020   3.475
  246TIP3   OH2  701   4.634   3.728   5.646
  246TIP3    H1  702   4.672   3.800   5.595
  246TIP3    H2  703   4.710   3.684   5.686
  247TIP3   OH2  704   4.869   1.807   3.454
  247TIP3    H1  705   4.942   1.853   3.496
  247TIP3    H2  706   4.837   1.868   3.387
  248TIP3   OH2  707   4.415   4.865   3.916
  248TIP3    H1  708   4.373   4.949   3.901
  248TIP3    H2  709   4.498   4.887   3.958
  249TIP3   OH2  710   4.408   6.191   0.050
  249TIP3    H1  711   4.374   6.258   0.109
  249TIP3    H2  712   4.419   6.114   0.106
  250TIP3   OH2  713   4.655   0.859   2.356
  250TIP3    H1  714   4.586   0.913   2.318
  250TIP3    H2  715   4.610   0.780   2.386
  251TIP3   OH2  716   6.156   5.189   1.046
  251TIP3    H1  717   6.102   5.253   0.999
  251TIP3    H2  718   6.226   5.167   0.983
  252TIP3   OH2  719   1.708   0.187   4.107
  252TIP3    H1  720   1.684   0.130   4.033
  252TIP3    H2  721   1.628   0.237   4.125
  253TIP3   OH2  722   3.312   2.810   1.604
  253TIP3    H1  723   3.312   2.830   1.510
  253TIP3    H2  724   3.390   2.854   1.638
  254TIP3   OH2  725   4.910   0.922   5.665
  254TIP3    H1  726   4.849   0.985   5.704
  254TIP3    H2  727   4.855   0.868   5.608
  255TIP3   OH2  728   4.220   4.042   0.724
  255TIP3    H1  729   4.296   4.006   0.769
  255TIP3    H2  730   4.207   3.985   0.648
  256TIP3   OH2  731   1.933   1.649   0.226
  256TIP3    H1  732   1.875   1.664   0.151
  256TIP3    H2  733   1.911   1.719   0.287
  257TIP3   OH2  734   0.883   4.574   0.597
  257TIP3    H1  735   0.825   4.609   0.665
  257TIP3    H2  736   0.855   4.483   0.586
  258TIP3   OH2  737   5.058   3.967   4.411
  258TIP3    H1  738   5.078   3.926   4.495
  258TIP3    H2  739   4.972   4.006   4.423
  259TIP3   OH2  740   4.537   6.389   2.510
  259TIP3    H1  741   4.612   6.340   2.544
  259TIP3    H2  742   4.461   6.340   2.539
  260TIP3   OH2  743   2.147   3.919   1.188
  260TIP3    H1  744   2.199   3.867   1.126
  260TIP3    H2  745   2.088   3.970   1.133
  261TIP3   OH2  746   1.429   0.215   2.518
  261TIP3    H1  747   1.355   0.163   2.486
  261TIP3    H2  748   1.481   0.153   2.570
  262TIP3   OH2  749   3.021   3.188   4.834
  262TIP3    H1  750   3.002   3.204   4.927
  262TIP3    H2  751   2.993   3.267   4.789
  263TIP3   OH2  752   5.905   0.444   2.588
  263TIP3    H1  753   5.972   0.492   2.540
  263TIP3    H2  754   5.883   0.370   2.531
  264TIP3   OH2  755   2.904   5.569   4.242
  264TIP3    H1  756   2.845   5.641   4.224
  264TIP3    H2  757   2.909   5.565   4.338
  265TIP3   OH2  758   6.710   1.798   1.789
  265TIP3    H1  759   6.801   1.771   1.797
  265TIP3    H2  760   6.670   1.772   1.873
  266TIP3   OH2  761   0.385   1.679   1.604
  266TIP3    H1  762   0.299   1.655   1.640
  266TIP3    H2  763   0.410   1.757   1.654
  267TIP3   OH2  764   3.353   0.230   4.305
  267TIP3    H1  765   3.442   0.240   4.340
  267TIP3    H2  766   3.327   0.142   4.331
  268TIP3   OH2  767   5.394   3.097   2.340
  268TIP3    H1  768   5.300   3.078   2.332
  268TIP3    H2  769   5.413   3.153   2.265
  269TIP3   OH2  770   4.694   1.053   5.776
  269TIP3    H1  771   4.698   1.146   5.799
  269TIP3    H2  772   4.604   1.039   5.747
  270TIP3   OH2  773   3.538   3.089   2.708
  270TIP3    H1  774   3.581   3.096   2.793
  270TIP3    H2  775   3.448   3.116   2.724
  271TIP3   OH2  776   2.540   6.622   3.089
  271TIP3    H1  777   2.591   6.569   3.150
  271TIP3    H2  778   2.521   6.703   3.136
  272TIP3   OH2  779   2.196   6.103   4.506
  272TIP3    H1  780   2.241   6.030   4.464
  272TIP3    H2  781   2.107   6.070   4.521
  273TIP3   OH2  782   1.247   6.740   2.173
  273TIP3    H1  783   1.188   6.714   2.244
  273TIP3    H2  784   1.208   6.821   2.139
  274TIP3   OH2  785   3.852   0.310   4.493
  274TIP3    H1  786   3.948   0.309   4.493
  274TIP3    H2  787   3.828   0.382   4.552
  275TIP3   OH2  788   4.902   4.567   0.422
  275TIP3    H1  789   4.840   4.638   0.405
  275TIP3    H2  790   4.851   4.501   0.468
  276TIP3   OH2  791   0.090   2.501   5.291
  276TIP3    H1  792   0.079   2.539   5.378
  276TIP3    H2  793   0.114   2.575   5.235
  277TIP3   OH2  794   5.210   5.330   5.597
  277TIP3    H1  795   5.157   5.409   5.586
  277TIP3    H2  796   5.153   5.270   5.646
  278TIP3   OH2  797   4.452   5.678   2.971
  278TIP3    H1  798   4.459   5.625   3.051
  278TIP3    H2  799   4.365   5.717   2.975
  279TIP3   OH2  800   4.614   2.055   3.011
  279TIP3    H1  801   4.602   1.994   3.084
  279TIP3    H2  802   4.525   2.082   2.987
  280TIP3   OH2  803   0.931   0.048   4.459
  280TIP3    H1  804   1.019   0.011   4.461
  280TIP3    H2  805   0.929   0.099   4.378
  281TIP3   OH2  806   1.282   0.511   3.887
  281TIP3    H1  807   1.354   0.461   3.848
  281TIP3    H2  808   1.243   0.557   3.812
  282TIP3   OH2  809   4.826   4.434   2.897
  282TIP3    H1  810   4.775   4.430   2.978
  282TIP3    H2  811   4.915   4.451   2.926
  283TIP3   OH2  812   2.203   1.700   1.887
  283TIP3    H1  813   2.230   1.790   1.869
  283TIP3    H2  814   2.221   1.688   1.980
  284TIP3   OH2  815   1.551   4.047   5.550
  284TIP3    H1  816   1.595   3.970   5.514
  284TIP3    H2  817   1.476   4.062   5.493
  285TIP3   OH2  818   0.754   0.056   5.373
  285TIP3    H1  819   0.673   0.106   5.380
  285TIP3    H2  820   0.822   0.117   5.401
  286TIP3   OH2  821   3.214   6.055   4.268
  286TIP3    H1  822   3.265   6.012   4.198
  286TIP3    H2  823   3.127   6.015   4.262
  287TIP3   OH2  824   5.612   2.825   3.777
  287TIP3    H1  825   5.625   2.897   3.839
  287TIP3    H2  826   5.649   2.858   3.695
  288TIP3   OH2  827   5.367   3.467   1.868
  288TIP3    H1  828   5.325   3.440   1.786
  288TIP3    H2  829   5.301   3.450   1.935
  289TIP3   OH2  830   3.614   4.268   0.841
  289TIP3    H1  831   3.609   4.242   0.749
  289TIP3    H2  832   3.540   4.327   0.854
  290TIP3   OH2  833   1.167   5.140   1.086
  290TIP3    H1  834   1.154   5.229   1.119
  290TIP3    H2  835   1.080   5.101   1.090
  291TIP3   OH2  836   6.115   1.500   3.245
  291TIP3    H1  837   6.145   1.584   3.281
  291TIP3    H2  838   6.020   1.507   3.245
  292TIP3   OH2  839   6.644   1.441   5.059
  292TIP3    H1  840   6.647   1.536   5.051
  292TIP3    H2  841   6.698   1.409   4.986
  293TIP3   OH2  842   6.163   2.491   2.834
  293TIP3    H1  843   6.227   2.449   2.891
  293TIP3    H2  844   6.135   2.421   2.775
  294TIP3   OH2  845   0.075   2.674   3.586
  294TIP3    H1  846   0.169   2.664   3.602
  294TIP3    H2  847   0.068   2.678   3.491
  295TIP3   OH2  848   1.828   0.161   2.921
  295TIP3    H1  849   1.907   0.168   2.974
  295TIP3    H2  850   1.788   0.078   2.950
  296TIP3   OH2  851   4.969   3.969   1.583
  296TIP3    H1  852   5.023   4.048   1.586
  296TIP3    H2  853   5.016   3.905   1.637
  297TIP3   OH2  854   4.363   3.151   2.761
  297TIP3    H1  855   4.416   3.148   2.841
  297TIP3    H2  856   4.276   3.178   2.790
  298TIP3   OH2  857   6.891   3.441   1.672
  298TIP3    H1  858   6.847   3.526   1.673
  298TIP3    H2  859   6.842   3.390   1.607
  299TIP3   OH2  860   6.709   4.159   4.648
  299TIP3    H1  861   6.683   4.213   4.723
  299TIP3    H2  862   6.631   4.107   4.628
  300TIP3   OH2  863   0.888   5.985   4.364
  300TIP3    H1  864   0.816   5.926   4.382
  300TIP3    H2  865   0.847   6.070   4.346
  301TIP3   OH2  866   5.020   4.091   5.463
  301TIP3    H1  867   5.033   4.046   5.546
  301TIP3    H2  868   5.098   4.068   5.411
  302TIP3   OH2  869   3.114   3.515   3.096
  302TIP3    H1  870   3.143   3.441   3.042
  302TIP3    H2  871   3.193   3.569   3.107
  303TIP3   OH2  872   1.698   0.822   4.194
  303TIP3    H1  873   1.604   0.834   4.204
  303TIP3    H2  874   1.712   0.812   4.100
  304TIP3   OH2  875   0.405   2.957   5.040
  304TIP3    H1  876   0.346   3.007   5.096
  304TIP3    H2  877   0.444   3.023   4.982
  305TIP3   OH2  878   2.413   0.076   5.355
  305TIP3    H1  879   2.376   0.009   5.298
  305TIP3    H2  880   2.508   0.066   5.346
  306TIP3   OH2  881   3.510   1.109   4.910
  306TIP3    H1  882   3.503   1.127   5.003
  306TIP3    H2  883   3.444   1.165   4.870
  307TIP3   OH2  884   6.266   4.670   4.151
  307TIP3    H1  885   6.345   4.692   4.200
  307TIP3    H2  886   6.214   4.617   4.212
  308TIP3   OH2  887   0.797   3.618   0.313
  308TIP3    H1  888   0.800   3.603   0.218
  308TIP3    H2  889   0.811   3.712   0.322
  309TIP3   OH2  890   3.636   5.688   0.920
  309TIP3    H1  891   3.570   5.619   0.926
  309TIP3    H2  892   3.585   5.770   0.918
  310TIP3   OH2  893   0.800   0.677   2.126
  310TIP3    H1  894   0.738   0.615   2.164
  310TIP3    H2  895   0.841   0.630   2.054
  311TIP3   OH2  896   6.371   0.611   3.035
  311TIP3    H1  897   6.281   0.594   3.008
  311TIP3    H2  898   6.416   0.636   2.954
  312TIP3   OH2  899   3.638   5.385   2.433
  312TIP3    H1  900   3.548   5.355   2.427
  312TIP3    H2  901   3.690   5.305   2.439
  313TIP3   OH2  902   1.835   3.297   4.229
  313TIP3    H1  903   1.770   3.366   4.220
  313TIP3    H2  904   1.820   3.261   4.316
  314TIP3   OH2  905   2.312   1.329   4.704
  314TIP3    H1  906   2.404   1.301   4.709
  314TIP3    H2  907   2.262   1.248   4.705
  315TIP3   OH2  908   4.148   4.119   2.209
  315TIP3    H1  909   4.130   4.161   2.125
  315TIP3    H2  910   4.242   4.133   2.224
  316TIP3   OH2  911   3.880   6.137   3.318
  316TIP3    H1  912   3.870   6.122   3.224
  316TIP3    H2  913   3.863   6.231   3.330
  317TIP3   OH2  914   6.045   2.984   5.641
  317TIP3    H1  915   5.983   2.965   5.571
  317TIP3    H2  916   5.996   2.968   5.722
  318TIP3   OH2  917   2.355   0.908   4.604
  318TIP3    H1  918   2.332   0.913   4.696
  318TIP3    H2  919   2.357   0.814   4.584
  319TIP3   OH2  920   2.349   2.233   1.188
  319TIP3    H1  921   2.432   2.200   1.154
  319TIP3    H2  922   2.288   2.160   1.179
  320TIP3   OH2  923   0.725   1.902   0.679
  320TIP3    H1  924   0.645   1.858   0.708
  320TIP3    H2  925   0.788   1.831   0.666
  321TIP3   OH2  926   4.340   2.112   0.505
  321TIP3    H1  927   4.248   2.107   0.477
  321TIP3    H2  928   4.373   2.023   0.492
  322TIP3   OH2  929   2.610   3.514   3.751
  322TIP3    H1  930   2.595   3.609   3.752
  322TIP3    H2  931   2.679   3.501   3.685
  323TIP3   OH2  932   2.356   5.842   0.443
  323TIP3    H1  933   2.357   5.773   0.509
  323TIP3    H2  934   2.366   5.796   0.360
  324TIP3   OH2  935   0.636   1.992   4.588
  324TIP3    H1  936   0.650   1.997   4.493
  324TIP3    H2  937   0.631   2.084   4.616
  325TIP3   OH2  938   1.537   5.334   3.524
  325TIP3    H1  939   1.444   5.325   3.544
  325TIP3    H2  940   1.570   5.244   3.522
  326TIP3   OH2  941   6.749   6.120   0.757
  326TIP3    H1  942   6.832   6.154   0.790
  326TIP3    H2  943   6.770   6.032   0.725
  327TIP3   OH2  944   1.421   0.086   1.051
  327TIP3    H1  945   1.449   0.081   0.960
  327TIP3    H2  946   1.416  -0.005   1.080
  328TIP3   OH2  947   4.049   3.992   4.132
  328TIP3    H1  948   4.122   3.963   4.186
  328TIP3    H2  949   4.089   4.050   4.067
  329TIP3   OH2  950   3.447   0.422   4.663
  329TIP3    H1  951   3.498   0.396   4.740
  329TIP3    H2  952   3.356   0.422   4.694
  330TIP3   OH2  953   3.776   2.115   2.771
  330TIP3    H1  954   3.759   2.047   2.836
  330TIP3    H2  955   3.870   2.112   2.757
  331TIP3   OH2  956   1.150   2.351   2.428
  331TIP3    H1  957   1.181   2.327   2.516
  331TIP3    H2  958   1.185   2.439   2.414
  332TIP3   OH2  959   4.440   0.539   5.675
  332TIP3    H1  960   4.474   0.562   5.761
  332TIP3    H2  961   4.488   0.460   5.650
  333TIP3   OH2  962   6.341   6.087   4.036
  333TIP3    H1  963   6.378   6.116   4.120
  333TIP3    H2  964   6.381   6.001   4.021
  334TIP3   OH2  965   5.070   5.520   3.172
  334TIP3    H1  966   4.975   5.519   3.162
  334TIP3    H2  967   5.100   5.590   3.115
  335TIP3   OH2  968   3.267   4.650   0.278
  335TIP3    H1  969   3.251   4.724   0.336
  335TIP3    H2  970   3.181   4.608   0.269
  336TIP3   OH2  971   1.985   4.226   4.861
  336TIP3    H1  972   2.026   4.189   4.939
  336TIP3    H2  973   2.051   4.217   4.793
  337TIP3   OH2  974   0.843   1.120   1.851
  337TIP3    H1  975   0.868   1.067   1.775
  337TIP3    H2  976   0.872   1.208   1.830
  338TIP3   OH2  977   1.845   4.438   0.797
  338TIP3    H1  978   1.790   4.488   0.858
  338TIP3    H2  979   1.927   4.424   0.844
  339TIP3   OH2  980   4.207   0.337   0.054
  339TIP3    H1  981   4.119   0.303   0.070
  339TIP3    H2  982   4.192   0.428   0.026
  340TIP3   OH2  983   0.460   6.205   4.935
  340TIP3    H1  984   0.529   6.190   4.870
  340TIP3    H2  985   0.498   6.174   5.017
  341TIP3   OH2  986   1.191   0.311   1.965
  341TIP3    H1  987   1.214   0.291   1.875
  341TIP3    H2  988   1.128   0.243   1.990
  342TIP3   OH2  989   5.127   3.970   4.133
  342TIP3    H1  990   5.112   3.996   4.224
  342TIP3    H2  991   5.115   4.050   4.082
  343TIP3   OH2  992   3.192   3.726   4.927
  343TIP3    H1  993   3.104   3.764   4.927
  343TIP3    H2  994   3.229   3.751   5.012
  344TIP3   OH2  995   2.904   6.341   1.487
  344TIP3    H1  996   2.955   6.284   1.544
  344TIP3    H2  997   2.817   6.344   1.527
  345TIP3   OH2  998   3.601   4.237   4.901
  345TIP3    H1  999   3.516   4.281   4.895
  345TIP3    H2 1000   3.665   4.308   4.895
  346TIP3   OH2 1001   4.303   5.448   2.452
  346TIP3    H1 1002   4.352   5.419   2.528
  346TIP3    H2 1003   4.329   5.388   2.382
  347TIP3   OH2 1004   0.553   1.839   1.314
  347TIP3    H1 1005   0.511   1.914   1.271
  347TIP3    H2 1006   0.509   1.831   1.398
  348TIP3   OH2 1007   5.555   5.360   1.073
  348TIP3    H1 1008   5.502   5.305   1.016
  348TIP3    H2 1009   5.621   5.398   1.015
  349TIP3   OH2 1010   5.233   5.400   2.037
  349TIP3    H1 1011   5.246   5.376   2.129
  349TIP3    H2 1012   5.249   5.495   2.035
  350TIP3   OH2 1013   2.952   3.612   5.164
  350TIP3    H1 1014   2.933   3.644   5.076
  350TIP3    H2 1015   2.941   3.688   5.220
  351TIP3   OH2 1016   5.217   3.216   5.187
  351TIP3    H1 1017   5.311   3.214   5.166
  351TIP3    H2 1018   5.205   3.145   5.249
  352TIP3   OH2 1019   4.306   6.075   3.873
  352TIP3    H1 1020   4.289   6.076   3.967
  352TIP3    H2 1021   4.272   6.159   3.842
  353TIP3   OH2 1022   5.090   3.479   0.951
  353TIP3    H1 1023   5.145   3.557   0.942
  353TIP3    H2 1024   5.085   3.463   1.045
  354TIP3   OH2 1025   5.644   1.480   0.369
  354TIP3    H1 1026   5.711   1.535   0.329
  354TIP3    H2 1027   5.618   1.419   0.300
  355TIP3   OH2 1028   4.097   6.702   4.524
  355TIP3    H1 1029   4.098   6.619   4.571
  355TIP3    H2 1030   4.059   6.765   4.586
  356TIP3   OH2 1031   3.474   0.911   2.192
  356TIP3    H1 1032   3.524   0.847   2.243
  356TIP3    H2 1033   3.408   0.944   2.254
  357TIP3   OH2 1034   0.272   3.406   3.832
  357TIP3    H1 1035   0.259   3.332   3.772
  357TIP3    H2 1036   0.224   3.381   3.911
  358TIP3   OH2 1037   5.523   2.302   5.032
  358TIP3    H1 1038   5.462   2.286   4.960
  358TIP3    H2 1039   5.604   2.330   4.989
  359TIP3   OH2 1040   2.357   5.436   1.366
  359TIP3    H1 1041   2.352   5.462   1.274
  359TIP3    H2 1042   2.415   5.501   1.406
  360TIP3   OH2 1043   1.404   1.253   3.109
  360TIP3    H1 1044   1.381   1.343   3.132
  360TIP3    H2 1045   1.439   1.259   3.020
  361TIP3   OH2 1046   5.217   4.288   3.324
  361TIP3    H1 1047   5.187   4.281   3.234
  361TIP3    H2 1048   5.298   4.338   3.318
  362TIP3   OH2 1049   6.058   6.574   2.860
  362TIP3    H1 1050   6.111   6.552   2.936
  362TIP3    H2 1051   6.110   6.637   2.810
  363TIP3   OH2 1052   4.476   3.372   4.839
  363TIP3    H1 1053   4.473   3.312   4.765
  363TIP3    H2 1054   4.437   3.323   4.911
  364TIP3   OH2 1055   4.665   6.403   0.221
  364TIP3    H1 1056   4.595   6.338   0.215
  364TIP3    H2 1057   4.619   6.488   0.219
  365TIP3   OH2 1058   2.513   4.308   0.418
  365TIP3    H1 1059   2.537   4.283   0.507
  365TIP3    H2 1060   2.527   4.230   0.365
  366TIP3   OH2 1061   6.292   3.191   3.011
  366TIP3    H1 1062   6.266   3.147   3.091
  366TIP3    H2 1063   6.380   3.226   3.030
  367TIP3   OH2 1064   4.279   6.085   5.234
  367TIP3    H1 1065   4.224   6.015   5.266
  367TIP3    H2 1066   4.219   6.146   5.191
  368TIP3   OH2 1067   6.576   5.401   3.315
  368TIP3    H1 1068   6.583   5.461   3.241
  368TIP3    H2 1069   6.537   5.322   3.278
  369TIP3   OH2 1070   4.298   1.487   2.660
  369TIP3    H1 1071   4.343   1.562   2.621
  369TIP3    H2 1072   4.369   1.428   2.686
  370TIP3   OH2 1073   6.238   0.565   4.809
  370TIP3    H1 1074   6.280   0.651   4.803
  370TIP3    H2 1075   6.303   0.504   4.776
  371TIP3   OH2 1076   0.972   3.944   1.391
  371TIP3    H1 1077   0.970   4.017   1.329
  371TIP3    H2 1078   1.022   3.876   1.346
  372TIP3   OH2 1079   1.831   4.641   0.599
  372TIP3    H1 1080   1.837   4.557   0.646
  372TIP3    H2 1081   1.770   4.623   0.527
  373TIP3   OH2 1082   1.909   1.181   3.730
  373TIP3    H1 1083   1.995   1.170   3.772
  373TIP3    H2 1084   1.869   1.255   3.777
  374TIP3   OH2 1085   6.385   5.465   4.081
  374TIP3    H1 1086   6.323   5.400   4.113
  374TIP3    H2 1087   6.353   5.548   4.116
  375TIP3   OH2 1088   2.989   6.778   2.591
  375TIP3    H1 1089   2.941   6.803   2.513
  375TIP3    H2 1090   2.925   6.728   2.643
  376TIP3   OH2 1091   5.230   1.950   0.370
  376TIP3    H1 1092   5.308   2.004   0.387
  376TIP3    H2 1093   5.169   2.010   0.327
  377TIP3   OH2 1094   3.397   2.435   3.092
  377TIP3    H1 1095   3.467   2.401   3.037
  377TIP3    H2 1096   3.361   2.358   3.136
  378TIP3   OH2 1097   0.815   4.233   3.848
  378TIP3    H1 1098   0.747   4.298   3.867
  378TIP3    H2 1099   0.896   4.272   3.880
  379TIP3   OH2 1100   4.907   3.865   5.843
  379TIP3    H1 1101   4.967   3.889   5.914
  379TIP3    H2 1102   4.964   3.833   5.773
  380TIP3   OH2 1103   6.289   3.029   2.785
  380TIP3    H1 1104   6.316   2.942   2.812
  380TIP3    H2 1105   6.286   3.080   2.866
  381TIP3   OH2 1106   2.578   3.774   3.616
  381TIP3    H1 1107   2.595   3.868   3.619
  381TIP3    H2 1108   2.663   3.734   3.634
  382TIP3   OH2 1109   4.596   3.548   4.683
  382TIP3    H1 1110   4.644   3.602   4.745
  382TIP3    H2 1111   4.551   3.483   4.738
  383TIP3   OH2 1112   6.102   3.238   0.374
  383TIP3    H1 1113   6.047   3.174   0.328
  383TIP3    H2 1114   6.189   3.197   0.378
  384TIP3   OH2 1115   3.749   6.583   2.988
  384TIP3    H1 1116   3.751   6.490   2.963
  384TIP3    H2 1117   3.825   6.593   3.046
  385TIP3   OH2 1118   2.577   0.817   1.296
  385TIP3    H1 1119   2.648   0.845   1.354
  385TIP3    H2 1120   2.583   0.875   1.220
  386TIP3   OH2 1121   4.159   1.729   0.556
  386TIP3    H1 1122   4.144   1.662   0.490
  386TIP3    H2 1123   4.213   1.795   0.511
  387TIP3   OH2 1124   6.857   5.424   2.460
  387TIP3    H1 1125   6.855   5.508   2.414
  387TIP3    H2 1126   6.949   5.410   2.482
  388TIP3   OH2 1127   4.193   4.720   2.627
  388TIP3    H1 1128   4.162   4.719   2.536
  388TIP3    H2 1129   4.281   4.683   2.623
  389TIP3   OH2 1130   0.998   4.035   1.696
  389TIP3    H1 1131   0.932   4.022   1.764
  389TIP3    H2 1132   1.033   4.122   1.713
  390TIP3   OH2 1133   4.951   4.958   2.490
  390TIP3    H1 1134   4.861   4.976   2.516
  390TIP3    H2 1135   4.944   4.923   2.401
  391TIP3   OH2 1136   2.229   2.982   0.655
  391TIP3    H1 1137   2.301   3.036   0.687
  391TIP3    H2 1138   2.262   2.893   0.658
  392TIP3   OH2 1139   1.078   4.658   3.640
  392TIP3    H1 1140   1.068   4.664   3.545
  392TIP3    H2 1141   1.157   4.606   3.653
  393TIP3   OH2 1142   3.848   5.650   5.399
  393TIP3    H1 1143   3.757   5.665   5.376
  393TIP3    H2 1144   3.875   5.574   5.346
  394TIP3   OH2 1145   4.473   1.405   5.689
  394TIP3    H1 1146   4.532   1.347   5.736
  394TIP3    H2 1147   4.456   1.360   5.606
  395TIP3   OH2 1148   5.813   5.947   1.657
  395TIP3    H1 1149   5.735   5.999   1.636
  395TIP3    H2 1150   5.784   5.887   1.726
  396TIP3   OH2 1151   0.918   6.376   4.682
  396TIP3    H1 1152   0.926   6.470   4.664
  396TIP3    H2 1153   1.008   6.346   4.690
  397TIP3   OH2 1154   1.136   2.710   1.689
  397TIP3    H1 1155   1.077   2.697   1.615
  397TIP3    H2 1156   1.157   2.804   1.687
  398TIP3   OH2 1157   7.209   2.150   5.753
  398TIP3    H1 1158   7.183   2.111   5.837
  398TIP3    H2 1159   7.141   2.215   5.736
  399TIP3   OH2 1160   5.440   0.218   1.174
  399TIP3    H1 1161   5.509   0.275   1.207
  399TIP3    H2 1162   5.359   0.257   1.207
  400TIP3   OH2 1163   7.093   5.077   0.890
  400TIP3    H1 1164   7.097   5.159   0.842
  400TIP3    H2 1165   7.011   5.083   0.940
  401TIP3   OH2 1166   1.383   4.250   0.514
  401TIP3    H1 1167   1.326   4.273   0.440
  401TIP3    H2 1168   1.398   4.333   0.559
  402TIP3   OH2 1169   4.216   2.541   1.434
  402TIP3    H1 1170   4.138   2.489   1.418
  402TIP3    H2 1171   4.233   2.532   1.527
  403TIP3   OH2 1172   1.817   2.415   0.583
  403TIP3    H1 1173   1.767   2.488   0.547
  403TIP3    H2 1174   1.817   2.430   0.678
  404TIP3   OH2 1175   1.198   2.964   3.373
  404TIP3    H1 1176   1.216   2.879   3.413
  404TIP3    H2 1177   1.245   3.026   3.428
  405TIP3   OH2 1178   1.498   2.603   3.055
  405TIP3    H1 1179   1.594   2.597   3.052
  405TIP3    H2 1180   1.475   2.657   2.979
  406TIP3   OH2 1181   0.177   2.782   5.158
  406TIP3    H1 1182   0.218   2.841   5.096
  406TIP3    H2 1183   0.138   2.839   5.224
  407TIP3   OH2 1184   5.554   1.709   3.024
  407TIP3    H1 1185   5.576   1.717   2.931
  407TIP3    H2 1186   5.476   1.654   3.026
  408TIP3   OH2 1187   1.426   4.506   3.049
  408TIP3    H1 1188   1.419   4.570   3.121
  408TIP3    H2 1189   1.335   4.484   3.028
  409TIP3   OH2 1190   4.845   3.185   5.775
  409TIP3    H1 1191   4.769   3.242   5.783
  409TIP3    H2 1192   4.918   3.238   5.806
  410TIP3   OH2 1193   6.709   2.348   0.620
  410TIP3    H1 1194   6.768   2.379   0.688
  410TIP3    H2 1195   6.623   2.348   0.660
  411TIP3   OH2 1196   2.674   5.348   0.799
  411TIP3    H1 1197   2.579   5.357   0.800
  411TIP3    H2 1198   2.699   5.360   0.707
  412TIP3   OH2 1199   3.683   0.249   0.223
  412TIP3    H1 1200   3.629   0.299   0.162
  412TIP3    H2 1201   3.702   0.167   0.177
  413TIP3   OH2 1202   3.694   3.722   1.943
  413TIP3    H1 1203   3.749   3.749   2.016
  413TIP3    H2 1204   3.744   3.743   1.865
  414TIP3   OH2 1205   3.565   0.227   2.111
  414TIP3    H1 1206   3.525   0.207   2.026
  414TIP3    H2 1207   3.599   0.316   2.102
  415TIP3   OH2 1208   1.205   0.039   0.378
  415TIP3    H1 1209   1.250   0.063   0.459
  415TIP3    H2 1210   1.186  -0.054   0.388
  416TIP3   OH2 1211   5.200   3.169   1.134
  416TIP3    H1 1212   5.133   3.233   1.154
  416TIP3    H2 1213   5.274   3.220   1.100
  417TIP3   OH2 1214   2.365   4.659   1.153
  417TIP3    H1 1215   2.455   4.681   1.130
  417TIP3    H2 1216   2.367   4.565   1.172
  418TIP3   OH2 1217   5.563   3.483   3.761
  418TIP3    H1 1218   5.539   3.528   3.681
  418TIP3    H2 1219   5.637   3.427   3.737
  419TIP3   OH2 1220   6.148   5.168   0.578
  419TIP3    H1 1221   6.061   5.177   0.616
  419TIP3    H2 1222   6.198   5.119   0.643
  420TIP3   OH2 1223   4.888   1.781   4.325
  420TIP3    H1 1224   4.920   1.720   4.258
  420TIP3    H2 1225   4.911   1.740   4.408
  421TIP3   OH2 1226   2.761   2.261   2.898
  421TIP3    H1 1227   2.822   2.202   2.943
  421TIP3    H2 1228   2.739   2.328   2.963
  422TIP3   OH2 1229   0.764   6.531   0.538
  422TIP3    H1 1230   0.755   6.626   0.537
  422TIP3    H2 1231   0.699   6.502   0.602
  423TIP3   OH2 1232   7.073   0.922   1.962
  423TIP3    H1 1233   7.162   0.953   1.948
  423TIP3    H2 1234   7.083   0.843   2.016
  424TIP3   OH2 1235   5.712   3.783   1.610
  424TIP3    H1 1236   5.776   3.769   1.680
  424TIP3    H2 1237   5.640   3.829   1.653
  425TIP3   OH2 1238   0.706   3.618   3.190
  425TIP3    H1 1239   0.614   3.639   3.206
  425TIP3    H2 1240   0.704   3.532   3.149
  426TIP3   OH2 1241   0.568   6.524   4.801
  426TIP3    H1 1242   0.478   6.514   4.833
  426TIP3    H2 1243   0.611   6.442   4.825
  427TIP3   OH2 1244   6.416   1.462   0.395
  427TIP3    H1 1245   6.468   1.452   0.315
  427TIP3    H2 1246   6.345   1.399   0.384
  428TIP3   OH2 1247   1.993   6.330   1.697
  428TIP3    H1 1248   1.961   6.391   1.764
  428TIP3    H2 1249   1.938   6.345   1.621
  429TIP3   OH2 1250   6.706   1.985   2.381
  429TIP3    H1 1251   6.761   2.062   2.366
  429TIP3    H2 1252   6.649   2.010   2.454
  430TIP3   OH2 1253   3.861   0.286   4.136
  430TIP3    H1 1254   3.832   0.358   4.192
  430TIP3    H2 1255   3.947   0.314   4.105
  431TIP3   OH2 1256   1.621   3.843   1.699
  431TIP3    H1 1257   1.572   3.762   1.711
  431TIP3    H2 1258   1.706   3.826   1.740
  432TIP3   OH2 1259   7.164   2.224   2.337
  432TIP3    H1 1260   7.175   2.180   2.421
  432TIP3    H2 1261   7.234   2.188   2.282
  433TIP3   OH2 1262   4.173   1.023   0.679
  433TIP3    H1 1263   4.170   0.949   0.739
  433TIP3    H2 1264   4.242   0.999   0.617
  434TIP3   OH2 1265   4.823   6.510   5.298
  434TIP3    H1 1266   4.798   6.491   5.388
  434TIP3    H2 1267   4.745   6.547   5.258
  435TIP3   OH2 1268   3.073   4.441   4.772
  435TIP3    H1 1269   3.020   4.366   4.744
  435TIP3    H2 1270   3.022   4.518   4.746
  436TIP3   OH2 1271   4.915   3.197   0.200
  436TIP3    H1 1272   4.929   3.259   0.129
  436TIP3    H2 1273   4.863   3.245   0.264
  437TIP3   OH2 1274   2.190   1.495   2.855
  437TIP3    H1 1275   2.249   1.565   2.883
  437TIP3    H2 1276   2.236   1.453   2.782
  438TIP3   OH2 1277   3.423   0.387   0.897
  438TIP3    H1 1278   3.421   0.343   0.982
  438TIP3    H2 1279   3.480   0.333   0.843
  439TIP3   OH2 1280   7.152   5.532   4.289
  439TIP3    H1 1281   7.221   5.500   4.346
  439TIP3    H2 1282   7.071   5.498   4.327
  440TIP3   OH2 1283   6.507   5.920   3.598
  440TIP3    H1 1284   6.564   5.994   3.577
  440TIP3    H2 1285   6.549   5.877   3.672
  441TIP3   OH2 1286   4.941   3.607   4.185
  441TIP3    H1 1287   4.915   3.516   4.181
  441TIP3    H2 1288   4.863   3.656   4.158
  442TIP3   OH2 1289   6.864   6.452   4.298
  442TIP3    H1 1290   6.850   6.358   4.287
  442TIP3    H2 1291   6.947   6.470   4.255
  443TIP3   OH2 1292   5.160   3.430   4.019
  443TIP3    H1 1293   5.088   3.425   3.957
  443TIP3    H2 1294   5.178   3.339   4.043
  444TIP3   OH2 1295   6.541   0.359   3.553
  444TIP3    H1 1296   6.568   0.394   3.468
  444TIP3    H2 1297   6.530   0.437   3.608
  445TIP3   OH2 1298   5.224   3.631   4.198
  445TIP3    H1 1299   5.240   3.538   4.182
  445TIP3    H2 1300   5.139   3.647   4.159
  446TIP3   OH2 1301   6.797   2.164   4.434
  446TIP3    H1 1302   6.851   2.209   4.498
  446TIP3    H2 1303   6.812   2.211   4.352
  447TIP3   OH2 1304   4.596   3.053   4.684
  447TIP3    H1 1305   4.667   3.092   4.632
  447TIP3    H2 1306   4.590   3.108   4.762
  448TIP3   OH2 1307   4.715   4.840   2.127
  448TIP3    H1 1308   4.712   4.845   2.031
  448TIP3    H2 1309   4.637   4.889   2.155
  449TIP3   OH2 1310   2.010   0.128   4.944
  449TIP3    H1 1311   2.008   0.132   4.849
  449TIP3    H2 1312   1.924   0.097   4.970
  450TIP3   OH2 1313   0.017   4.405   3.244
  450TIP3    H1 1314   0.059   4.437   3.164
  450TIP3    H2 1315   0.021   4.480   3.304
  451TIP3   OH2 1316   3.353   1.107   1.117
  451TIP3    H1 1317   3.329   1.040   1.181
  451TIP3    H2 1318   3.270   1.142   1.087
  452TIP3   OH2 1319   2.580   0.760   4.071
  452TIP3    H1 1320   2.573   0.667   4.094
  452TIP3    H2 1321   2.670   0.783   4.091
  453TIP3   OH2 1322   3.939   0.711   3.155
  453TIP3    H1 1323   3.967   0.751   3.238
  453TIP3    H2 1324   3.926   0.618   3.177
  454TIP3   OH2 1325   3.514   4.670   3.050
  454TIP3    H1 1326   3.495   4.760   3.020
  454TIP3    H2 1327   3.435   4.621   3.028
  455TIP3   OH2 1328   0.358   0.550   0.303
  455TIP3    H1 1329   0.306   0.552   0.222
  455TIP3    H2 1330   0.417   0.624   0.295
  456TIP3   OH2 1331   5.169   0.570   3.559
  456TIP3    H1 1332   5.141   0.505   3.624
  456TIP3    H2 1333   5.104   0.564   3.489
  457TIP3   OH2 1334   1.524   4.071   0.327
  457TIP3    H1 1335   1.608   4.111   0.346
  457TIP3    H2 1336   1.460   4.140   0.346
  458TIP3   OH2 1337   3.452   4.376   1.189
  458TIP3    H1 1338   3.425   4.293   1.149
  458TIP3    H2 1339   3.412   4.443   1.134
  459TIP3   OH2 1340   6.398   1.134   1.249
  459TIP3    H1 1341   6.471   1.082   1.213
  459TIP3    H2 1342   6.427   1.225   1.240
  460TIP3   OH2 1343   2.683   5.152   4.256
  460TIP3    H1 1344   2.651   5.094   4.187
  460TIP3    H2 1345   2.661   5.106   4.337
  461TIP3   OH2 1346   5.210   5.448   5.913
  461TIP3    H1 1347   5.255   5.418   5.834
  461TIP3    H2 1348   5.272   5.434   5.984
  462TIP3   OH2 1349   5.674   0.735   5.548
  462TIP3    H1 1350   5.630   0.656   5.580
  462TIP3    H2 1351   5.766   0.722   5.568
  463TIP3   OH2 1352   4.467   2.652   3.019
  463TIP3    H1 1353   4.418   2.720   2.973
  463TIP3    H2 1354   4.472   2.684   3.110
  464TIP3   OH2 1355   2.983   5.748   3.314
  464TIP3    H1 1356   2.982   5.653   3.304
  464TIP3    H2 1357   3.074   5.773   3.300
  465TIP3   OH2 1358   5.572   5.443   4.345
  465TIP3    H1 1359   5.655   5.425   4.302
  465TIP3    H2 1360   5.546   5.529   4.313
  466TIP3   OH2 1361   5.509   0.053   4.112
  466TIP3    H1 1362   5.425   0.010   4.129
  466TIP3    H2 1363   5.524   0.041   4.019
  467TIP3   OH2 1364   3.907   5.087   5.291
  467TIP3    H1 1365   3.835   5.136   5.329
  467TIP3    H2 1366   3.961   5.061   5.365
  468TIP3   OH2 1367   2.297   2.109   3.392
  468TIP3    H1 1368   2.329   2.060   3.317
  468TIP3    H2 1369   2.236   2.049   3.436
  469TIP3   OH2 1370   5.220   5.912   4.664
  469TIP3    H1 1371   5.149   5.941   4.722
  469TIP3    H2 1372   5.274   5.990   4.652
  470TIP3   OH2 1373   1.301   5.974   3.579
  470TIP3    H1 1374   1.208   5.995   3.581
  470TIP3    H2 1375   1.329   5.978   3.671
  471TIP3   OH2 1376   6.097   1.310   4.242
  471TIP3    H1 1377   6.094   1.405   4.230
  471TIP3    H2 1378   6.187   1.292   4.267
  472TIP3   OH2 1379   6.459   6.794   5.413
  472TIP3    H1 1380   6.510   6.820   5.336
  472TIP3    H2 1381   6.524   6.773   5.480
  473TIP3   OH2 1382   6.478   1.384   1.053
  473TIP3    H1 1383   6.521   1.311   1.008
  473TIP3    H2 1384   6.529   1.461   1.029
  474TIP3   OH2 1385   6.392   4.579   4.470
  474TIP3    H1 1386   6.372   4.514   4.537
  474TIP3    H2 1387   6.318   4.576   4.410
  475TIP3   OH2 1388   0.450   6.106   5.650
  475TIP3    H1 1389   0.488   6.193   5.651
  475TIP3    H2 1390   0.355   6.121   5.643
  476TIP3   OH2 1391   0.070   1.582   4.519
  476TIP3    H1 1392   0.093   1.647   4.453
  476TIP3    H2 1393   0.080   1.628   4.602
  477TIP3   OH2 1394   5.653   4.238   2.006
  477TIP3    H1 1395   5.670   4.266   2.096
  477TIP3    H2 1396   5.717   4.287   1.954
  478TIP3   OH2 1397   0.835   6.648   2.546
  478TIP3    H1 1398   0.755   6.597   2.543
  478TIP3    H2 1399   0.869   6.635   2.634
  479TIP3   OH2 1400   1.080   6.208   3.357
  479TIP3    H1 1401   1.081   6.304   3.357
  479TIP3    H2 1402   1.171   6.183   3.373
  480TIP3   OH2 1403   1.739   1.221   2.839
  480TIP3    H1 1404   1.753   1.157   2.909
  480TIP3    H2 1405   1.825   1.264   2.828
  481TIP3   OH2 1406   3.097   0.815   1.991
  481TIP3    H1 1407   3.051   0.788   2.071
  481TIP3    H2 1408   3.161   0.879   2.021
  482TIP3   OH2 1409   0.359   3.872   3.151
  482TIP3    H1 1410   0.355   3.966   3.170
  482TIP3    H2 1411   0.268   3.844   3.148
  483TIP3   OH2 1412   6.082   6.138   3.465
  483TIP3    H1 1413   6.008   6.142   3.525
  483TIP3    H2 1414   6.156   6.169   3.516
  484TIP3   OH2 1415   6.544   3.341   1.589
  484TIP3    H1 1416   6.543   3.309   1.499
  484TIP3    H2 1417   6.454   3.372   1.604
  485TIP3   OH2 1418   0.011   0.449   0.227
  485TIP3    H1 1419   0.006   0.541   0.256
  485TIP3    H2 1420   0.078   0.450   0.159
  486TIP3   OH2 1421   6.321   3.064   0.349
  486TIP3    H1 1422   6.330   2.969   0.342
  486TIP3    H2 1423   6.409   3.098   0.335
  487TIP3   OH2 1424   1.397   6.353   0.077
  487TIP3    H1 1425   1.383   6.440   0.040
  487TIP3    H2 1426   1.350   6.354   0.160
  488TIP3   OH2 1427   3.789   3.046   3.556
  488TIP3    H1 1428   3.815   3.133   3.526
  488TIP3    H2 1429   3.771   2.997   3.476
  489TIP3   OH2 1430   1.823   4.811   0.337
  489TIP3    H1 1431   1.876   4.853   0.269
  489TIP3    H2 1432   1.871   4.829   0.418
  490TIP3   OH2 1433   6.335   0.625   0.397
  490TIP3    H1 1434   6.321   0.714   0.367
  490TIP3    H2 1435   6.367   0.578   0.320
  491TIP3   OH2 1436   0.543   0.753   2.731
  491TIP3    H1 1437   0.616   0.812   2.712
  491TIP3    H2 1438   0.480   0.770   2.660
  492TIP3   OH2 1439   3.138   4.952   2.065
  492TIP3    H1 1440   3.087   5.006   2.005
  492TIP3    H2 1441   3.081   4.941   2.142
  493TIP3   OH2 1442   4.419   5.229  -0.015
  493TIP3    H1 1443   4.350   5.167   0.009
  493TIP3    H2 1444   4.428   5.285   0.062
  494TIP3   OH2 1445   3.176   2.303   1.959
  494TIP3    H1 1446   3.213   2.219   1.933
  494TIP3    H2 1447   3.206   2.364   1.891
  495TIP3   OH2 1448   1.109   1.441   2.722
  495TIP3    H1 1449   1.197   1.433   2.683
  495TIP3    H2 1450   1.108   1.528   2.761
  496TIP3   OH2 1451   6.437   4.749   3.160
  496TIP3    H1 1452   6.355   4.705   3.140
  496TIP3    H2 1453   6.428   4.836   3.121
  497TIP3   OH2 1454   5.960   4.144   4.857
  497TIP3    H1 1455   5.897   4.153   4.929
  497TIP3    H2 1456   5.906   4.144   4.778
  498TIP3   OH2 1457   4.868   6.680   2.552
  498TIP3    H1 1458   4.829   6.763   2.523
  498TIP3    H2 1459   4.834   6.616   2.490
  499TIP3   OH2 1460   1.856   6.602   5.881
  499TIP3    H1 1461   1.813   6.654   5.812
  499TIP3    H2 1462   1.872   6.665   5.952
  500TIP3   OH2 1463   1.295   1.680   5.035
  500TIP3    H1 1464   1.308   1.615   5.104
  500TIP3    H2 1465   1.372   1.737   5.039
  501TIP3   OH2 1466   2.832   2.025   5.712
  501TIP3    H1 1467   2.808   2.037   5.620
  501TIP3    H2 1468   2.763   2.070   5.761
  502TIP3   OH2 1469   0.975   5.817   4.148
  502TIP3    H1 1470   0.989   5.862   4.065
  502TIP3    H2 1471   0.946   5.885   4.209
  503TIP3   OH2 1472   1.831   2.520   3.074
  503TIP3    H1 1473   1.882   2.569   3.010
  503TIP3    H2 1474   1.870   2.542   3.159
  504TIP3   OH2 1475   2.620   3.951   1.028
  504TIP3    H1 1476   2.592   3.862   1.051
  504TIP3    H2 1477   2.556   4.008   1.071
  505TIP3   OH2 1478   1.691   1.030   1.687
  505TIP3    H1 1479   1.781   1.002   1.670
  505TIP3    H2 1480   1.660   0.971   1.756
  506TIP3   OH2 1481   0.898   3.632   3.398
  506TIP3    H1 1482   0.818   3.640   3.346
  506TIP3    H2 1483   0.964   3.681   3.348
  507TIP3   OH2 1484   0.723   6.562   4.449
  507TIP3    H1 1485   0.659   6.498   4.479
  507TIP3    H2 1486   0.728   6.626   4.520
  508TIP3   OH2 1487   0.427   0.748   2.996
  508TIP3    H1 1488   0.455   0.730   2.906
  508TIP3    H2 1489   0.422   0.843   3.001
  509TIP3   OH2 1490   2.587   5.842   1.597
  509TIP3    H1 1491   2.642   5.916   1.570
  509TIP3    H2 1492   2.564   5.861   1.688
  510TIP3   OH2 1493   3.379   4.248   4.189
  510TIP3    H1 1494   3.303   4.200   4.221
  510TIP3    H2 1495   3.386   4.324   4.247
  511TIP3   OH2 1496   4.155   2.114   2.545
  511TIP3    H1 1497   4.122   2.089   2.631
  511TIP3    H2 1498   4.187   2.203   2.556
  512TIP3   OH2 1499   3.190   2.226   0.170
  512TIP3    H1 1500   3.264   2.267   0.216
  512TIP3    H2 1501   3.191   2.267   0.083
  513TIP3   OH2 1502   6.180  -0.041   3.945
  513TIP3    H1 1503   6.253  -0.030   4.007
  513TIP3    H2 1504   6.102  -0.024   3.998
  514TIP3   OH2 1505   6.253   3.711   4.153
  514TIP3    H1 1506   6.338   3.748   4.129
  514TIP3    H2 1507   6.194   3.740   4.083
  515TIP3   OH2 1508   1.275   1.521   2.087
  515TIP3    H1 1509   1.302   1.611   2.106
  515TIP3    H2 1510   1.211   1.499   2.155
  516TIP3   OH2 1511   1.824   6.761   1.757
  516TIP3    H1 1512   1.838   6.836   1.815
  516TIP3    H2 1513   1.738   6.726   1.783
  517TIP3   OH2 1514   5.601   1.207   5.898
  517TIP3    H1 1515   5.549   1.197   5.819
  517TIP3    H2 1516   5.690   1.183   5.872
  518TIP3   OH2 1517   6.848   6.591   1.608
  518TIP3    H1 1518   6.795   6.514   1.629
  518TIP3    H2 1519   6.808   6.662   1.659
  519TIP3   OH2 1520   4.091   2.051   4.120
  519TIP3    H1 1521   4.185   2.067   4.118
  519TIP3    H2 1522   4.083   1.957   4.138
  520TIP3   OH2 1523   6.111   5.821   4.888
  520TIP3    H1 1524   6.204   5.844   4.890
  520TIP3    H2 1525   6.110   5.728   4.911
  521TIP3   OH2 1526   0.436   2.637   2.956
  521TIP3    H1 1527   0.431   2.721   2.910
  521TIP3    H2 1528   0.457   2.660   3.047
  522TIP3   OH2 1529   6.017   1.081   3.634
  522TIP3    H1 1530   5.977   1.001   3.602
  522TIP3    H2 1531   6.081   1.052   3.700
  523TIP3   OH2 1532   7.001   6.214   0.524
  523TIP3    H1 1533   7.005   6.286   0.587
  523TIP3    H2 1534   6.976   6.256   0.441
  524TIP3   OH2 1535   2.360   3.615   5.845
  524TIP3    H1 1536   2.361   3.603   5.940
  524TIP3    H2 1537   2.419   3.689   5.830
  525TIP3   OH2 1538   0.124   1.845   5.367
  525TIP3    H1 1539   0.212   1.855   5.331
  525TIP3    H2 1540   0.123   1.756   5.404
  526TIP3   OH2 1541   1.336   6.668   4.923
  526TIP3    H1 1542   1.300   6.679   4.835
  526TIP3    H2 1543   1.395   6.742   4.934
  527TIP3   OH2 1544   1.588   3.463   1.901
  527TIP3    H1 1545   1.493   3.475   1.891
  527TIP3    H2 1546   1.625   3.494   1.819
  528TIP3   OH2 1547   4.928   4.027   2.398
  528TIP3    H1 1548   4.969   4.112   2.414
  528TIP3    H2 1549   4.850   4.047   2.347
  529TIP3   OH2 1550   5.519   3.692   4.346
  529TIP3    H1 1551   5.469   3.773   4.328
  529TIP3    H2 1552   5.596   3.700   4.290
  530TIP3   OH2 1553   4.296   5.284   4.086
  530TIP3    H1 1554   4.285   5.321   4.174
  530TIP3    H2 1555   4.333   5.355   4.034
  531TIP3   OH2 1556   1.960   2.116   0.540
  531TIP3    H1 1557   2.024   2.185   0.525
  531TIP3    H2 1558   1.994   2.066   0.614
  532TIP3   OH2 1559   1.508   0.564   0.132
  532TIP3    H1 1560   1.481   0.652   0.105
  532TIP3    H2 1561   1.478   0.556   0.223
  533TIP3   OH2 1562   4.100   1.516   1.331
  533TIP3    H1 1563   4.190   1.550   1.337
  533TIP3    H2 1564   4.072   1.539   1.242
  534TIP3   OH2 1565   1.615   6.386   5.425
  534TIP3    H1 1566   1.638   6.392   5.332
  534TIP3    H2 1567   1.649   6.300   5.452
  535TIP3   OH2 1568   3.685   4.915   2.511
  535TIP3    H1 1569   3.618   4.894   2.445
  535TIP3    H2 1570   3.727   4.831   2.529
  536TIP3   OH2 1571   4.492   5.208   1.142
  536TIP3    H1 1572   4.572   5.188   1.093
  536TIP3    H2 1573   4.421   5.183   1.083
  537TIP3   OH2 1574   6.197   3.219   5.415
  537TIP3    H1 1575   6.112   3.176   5.422
  537TIP3    H2 1576   6.228   3.199   5.326
  538TIP3   OH2 1577   2.785   6.039   1.517
  538TIP3    H1 1578   2.870   6.018   1.556
  538TIP3    H2 1579   2.755   6.117   1.564
  539TIP3   OH2 1580   4.551   1.365   2.673
  539TIP3    H1 1581   4.609   1.313   2.729
  539TIP3    H2 1582   4.589   1.453   2.675
  540TIP3   OH2 1583   3.797   0.531   3.937
  540TIP3    H1 1584   3.767   0.442   3.920
  540TIP3    H2 1585   3.745   0.559   4.013
  541TIP3   OH2 1586   4.381   4.796   5.705
  541TIP3    H1 1587   4.322   4.856   5.660
  541TIP3    H2 1588   4.452   4.780   5.643
  542TIP3   OH2 1589   4.907   4.600   2.402
  542TIP3    H1 1590   4.910   4.541   2.476
  542TIP3    H2 1591   4.814   4.617   2.388
  543TIP3   OH2 1592   1.077   3.136   0.807
  543TIP3    H1 1593   1.081   3.208   0.744
  543TIP3    H2 1594   1.053   3.059   0.755
  544TIP3   OH2 1595   3.403   6.509   0.047
  544TIP3    H1 1596   3.414   6.579  -0.018
  544TIP3    H2 1597   3.430   6.429   0.001
  545TIP3   OH2 1598   7.070   5.914   4.133
  545TIP3    H1 1599   7.157   5.874   4.137
  545TIP3    H2 1600   7.042   5.922   4.224
  546TIP3   OH2 1601   5.712   4.319   3.688
  546TIP3    H1 1602   5.734   4.332   3.781
  546TIP3    H2 1603   5.765   4.384   3.642
  547TIP3   OH2 1604   5.467   1.688   5.602
  547TIP3    H1 1605   5.491   1.683   5.509
  547TIP3    H2 1606   5.407   1.763   5.607
  548TIP3   OH2 1607   4.544   5.324   5.376
  548TIP3    H1 1608   4.538   5.250   5.437
  548TIP3    H2 1609   4.559   5.400   5.433
  549TIP3   OH2 1610   6.165   5.174   5.098
  549TIP3    H1 1611   6.142   5.221   5.178
  549TIP3    H2 1612   6.168   5.082   5.124
  550TIP3   OH2 1613   6.308   6.759   2.759
  550TIP3    H1 1614   6.381   6.785   2.702
  550TIP3    H2 1615   6.257   6.839   2.770
  551TIP3   OH2 1616   0.322   2.947   2.170
  551TIP3    H1 1617   0.240   2.956   2.219
  551TIP3    H2 1618   0.315   3.012   2.100
  552TIP3   OH2 1619   6.396   6.399   2.210
  552TIP3    H1 1620   6.382   6.413   2.116
  552TIP3    H2 1621   6.379   6.485   2.249
  553TIP3   OH2 1622   5.592   0.628   0.082
  553TIP3    H1 1623   5.536   0.705   0.089
  553TIP3    H2 1624   5.603   0.598   0.172
  554TIP3   OH2 1625   4.556   1.699   5.254
  554TIP3    H1 1626   4.625   1.740   5.306
  554TIP3    H2 1627   4.504   1.771   5.221
  555TIP3   OH2 1628   4.624   4.848   4.370
  555TIP3    H1 1629   4.649   4.933   4.405
  555TIP3    H2 1630   4.536   4.832   4.405
  556TIP3   OH2 1631   1.495   4.765   2.851
  556TIP3    H1 1632   1.431   4.798   2.915
  556TIP3    H2 1633   1.565   4.729   2.905
  557TIP3   OH2 1634   1.490   5.165   5.543
  557TIP3    H1 1635   1.560   5.199   5.599
  557TIP3    H2 1636   1.424   5.133   5.604
  558TIP3   OH2 1637   6.948   0.472   3.316
  558TIP3    H1 1638   7.040   0.488   3.339
  558TIP3    H2 1639   6.903   0.552   3.342
  559TIP3   OH2 1640   3.439   6.639   0.305
  559TIP3    H1 1641   3.462   6.714   0.251
  559TIP3    H2 1642   3.445   6.564   0.246
  560TIP3   OH2 1643   3.309   5.364   2.023
  560TIP3    H1 1644   3.330   5.273   2.042
  560TIP3    H2 1645   3.385   5.398   1.976
  561TIP3   OH2 1646   2.570   5.413   3.171
  561TIP3    H1 1647   2.658   5.376   3.163
  561TIP3    H2 1648   2.577   5.473   3.245
  562TIP3   OH2 1649   5.180   2.955   2.867
  562TIP3    H1 1650   5.220   3.016   2.806
  562TIP3    H2 1651   5.220   2.870   2.846
  563TIP3   OH2 1652   0.606   5.026   2.534
  563TIP3    H1 1653   0.602   5.041   2.628
  563TIP3    H2 1654   0.621   5.113   2.497
  564TIP3   OH2 1655   3.740   1.092   0.439
  564TIP3    H1 1656   3.675   1.105   0.370
  564TIP3    H2 1657   3.698   1.127   0.518
  565TIP3   OH2 1658   3.811   5.692   1.771
  565TIP3    H1 1659   3.877   5.735   1.825
  565TIP3    H2 1660   3.797   5.752   1.698
  566TIP3   OH2 1661   5.701   0.345   0.908
  566TIP3    H1 1662   5.768   0.353   0.976
  566TIP3    H2 1663   5.620   0.370   0.952
  567TIP3   OH2 1664   5.772   4.870   5.647
  567TIP3    H1 1665   5.751   4.793   5.593
  567TIP3    H2 1666   5.687   4.896   5.685
  568TIP3   OH2 1667   3.749   2.101   1.788
  568TIP3    H1 1668   3.797   2.053   1.721
  568TIP3    H2 1669   3.797   2.084   1.869
  569TIP3   OH2 1670   6.575   6.094   2.699
  569TIP3    H1 1671   6.508   6.124   2.761
  569TIP3    H2 1672   6.550   6.133   2.616
  570TIP3   OH2 1673   0.256   0.811   3.748
  570TIP3    H1 1674   0.221   0.723   3.734
  570TIP3    H2 1675   0.347   0.805   3.718
  571TIP3   OH2 1676   1.903   1.987   1.028
  571TIP3    H1 1677   1.915   2.034   1.111
  571TIP3    H2 1678   1.822   2.023   0.992
  572TIP3   OH2 1679   3.566   5.105   3.398
  572TIP3    H1 1680   3.581   5.011   3.400
  572TIP3    H2 1681   3.651   5.143   3.418
  573TIP3   OH2 1682   0.635   2.259   5.832
  573TIP3    H1 1683   0.729   2.277   5.830
  573TIP3    H2 1684   0.610   2.270   5.924
  574TIP3   OH2 1685   6.411   6.474   0.474
  574TIP3    H1 1686   6.327   6.486   0.518
  574TIP3    H2 1687   6.394   6.497   0.382
  575TIP3   OH2 1688   4.472   3.692   0.346
  575TIP3    H1 1689   4.408   3.638   0.392
  575TIP3    H2 1690   4.494   3.641   0.268
  576TIP3   OH2 1691   1.777   0.362   0.588
  576TIP3    H1 1692   1.829   0.329   0.662
  576TIP3    H2 1693   1.731   0.284   0.555
  577TIP3   OH2 1694   6.526   4.399   3.370
  577TIP3    H1 1695   6.573   4.420   3.451
  577TIP3    H2 1696   6.442   4.365   3.399
  578TIP3   OH2 1697   3.204   1.650   0.066
  578TIP3    H1 1698   3.246   1.652   0.152
  578TIP3    H2 1699   3.237   1.728   0.022
  579TIP3   OH2 1700   3.637   1.980   1.459
  579TIP3    H1 1701   3.604   1.910   1.403
  579TIP3    H2 1702   3.623   1.948   1.548
  580TIP3   OH2 1703   2.776   4.783   2.434
  580TIP3    H1 1704   2.683   4.760   2.426
  580TIP3    H2 1705   2.776   4.868   2.479
  581TIP3   OH2 1706   5.375   4.373   2.428
  581TIP3    H1 1707   5.311   4.443   2.441
  581TIP3    H2 1708   5.354   4.308   2.495
  582TIP3   OH2 1709   4.189   6.081   4.164
  582TIP3    H1 1710   4.149   5.995   4.160
  582TIP3    H2 1711   4.239   6.081   4.245
  583TIP3   OH2 1712   0.298   6.490   5.742
  583TIP3    H1 1713   0.213   6.467   5.780
  583TIP3    H2 1714   0.282   6.575   5.699
  584TIP3   OH2 1715   2.476   1.540   2.029
  584TIP3    H1 1716   2.503   1.452   2.004
  584TIP3    H2 1717   2.414   1.567   1.962
  585TIP3   OH2 1718   2.137   5.083   0.154
  585TIP3    H1 1719   2.189   5.066   0.077
  585TIP3    H2 1720   2.142   5.002   0.206
  586TIP3   OH2 1721   3.377   0.192   0.501
  586TIP3    H1 1722   3.353   0.188   0.593
  586TIP3    H2 1723   3.469   0.221   0.502
  587TIP3   OH2 1724   1.323   6.532   2.484
  587TIP3    H1 1725   1.378   6.538   2.562
  587TIP3    H2 1726   1.385   6.519   2.412
  588TIP3   OH2 1727   6.613   4.312   0.591
  588TIP3    H1 1728   6.696   4.305   0.639
  588TIP3    H2 1729   6.591   4.222   0.568
  589TIP3   OH2 1730   4.224   2.905   2.713
  589TIP3    H1 1731   4.262   2.907   2.801
  589TIP3    H2 1732   4.147   2.849   2.720
  590TIP3   OH2 1733   5.561   6.713   0.900
  590TIP3    H1 1734   5.609   6.725   0.818
  590TIP3    H2 1735   5.592   6.784   0.957
  591TIP3   OH2 1736   5.413   3.228   2.944
  591TIP3    H1 1737   5.382   3.281   2.871
  591TIP3    H2 1738   5.462   3.157   2.903
  592TIP3   OH2 1739   0.180   5.460   4.143
  592TIP3    H1 1740   0.101   5.419   4.178
  592TIP3    H2 1741   0.196   5.415   4.061
  593TIP3   OH2 1742   3.262   2.756   2.094
  593TIP3    H1 1743   3.349   2.768   2.056
  593TIP3    H2 1744   3.278   2.717   2.180
  594TIP3   OH2 1745   6.593   1.724   2.014
  594TIP3    H1 1746   6.504   1.714   2.046
  594TIP3    H2 1747   6.639   1.646   2.046
  595TIP3   OH2 1748   4.549   4.923   5.111
  595TIP3    H1 1749   4.585   4.842   5.075
  595TIP3    H2 1750   4.617   4.988   5.094
  596TIP3   OH2 1751   2.230   1.881   4.032
  596TIP3    H1 1752   2.175   1.865   3.955
  596TIP3    H2 1753   2.196   1.963   4.069
  597TIP3   OH2 1754   1.081   6.692   2.422
  597TIP3    H1 1755   1.168   6.681   2.460
  597TIP3    H2 1756   1.040   6.761   2.474
  598TIP3   OH2 1757   6.928   4.487   3.081
  598TIP3    H1 1758   6.941   4.474   2.987
  598TIP3    H2 1759   6.897   4.578   3.088
  599TIP3   OH2 1760   5.892   3.388   4.788
  599TIP3    H1 1761   5.847   3.339   4.857
  599TIP3    H2 1762   5.955   3.325   4.752
  600TIP3   OH2 1763   2.455   5.828   3.153
  600TIP3    H1 1764   2.364   5.806   3.131
  600TIP3    H2 1765   2.470   5.912   3.109
  601TIP3   OH2 1766   0.830   0.889   1.070
  601TIP3    H1 1767   0.820   0.933   0.985
  601TIP3    H2 1768   0.845   0.960   1.132
  602TIP3   OH2 1769   3.253   0.172   2.984
  602TIP3    H1 1770   3.224   0.084   2.959
  602TIP3    H2 1771   3.331   0.157   3.037
  603TIP3   OH2 1772   5.417   3.684   4.604
  603TIP3    H1 1773   5.426   3.654   4.513
  603TIP3    H2 1774   5.468   3.765   4.607
  604TIP3   OH2 1775   6.486   1.935   4.765
  604TIP3    H1 1776   6.576   1.937   4.798
  604TIP3    H2 1777   6.495   1.928   4.670
  605TIP3   OH2 1778   4.759   3.952   5.467
  605TIP3    H1 1779   4.842   3.996   5.452
  605TIP3    H2 1780   4.693   4.020   5.458
  606TIP3   OH2 1781   1.847   5.049   0.484
  606TIP3    H1 1782   1.828   5.000   0.563
  606TIP3    H2 1783   1.772   5.107   0.472
  607TIP3   OH2 1784   6.701   5.579   4.312
  607TIP3    H1 1785   6.698   5.670   4.284
  607TIP3    H2 1786   6.784   5.546   4.278
  608TIP3   OH2 1787   2.956   4.576   3.397
  608TIP3    H1 1788   2.943   4.542   3.308
  608TIP3    H2 1789   2.976   4.668   3.385
  609TIP3   OH2 1790   4.070   5.440   5.755
  609TIP3    H1 1791   4.037   5.364   5.804
  609TIP3    H2 1792   4.086   5.406   5.666
  610TIP3   OH2 1793   4.774   1.794   2.900
  610TIP3    H1 1794   4.714   1.756   2.964
  610TIP3    H2 1795   4.861   1.786   2.941
  611TIP3   OH2 1796   7.113   4.055   2.330
  611TIP3    H1 1797   7.027   4.013   2.342
  611TIP3    H2 1798   7.176   3.989   2.360
  612TIP3   OH2 1799   1.098   1.288   5.662
  612TIP3    H1 1800   1.103   1.313   5.755
  612TIP3    H2 1801   1.061   1.200   5.664
  613TIP3   OH2 1802   2.875   1.935   3.255
  613TIP3    H1 1803   2.969   1.918   3.260
  613TIP3    H2 1804   2.851   1.959   3.345
  614TIP3   OH2 1805   1.417   4.360   0.933
  614TIP3    H1 1806   1.508   4.385   0.949
  614TIP3    H2 1807   1.383   4.335   1.019
  615TIP3   OH2 1808   5.707   3.601   0.166
  615TIP3    H1 1809   5.691   3.510   0.192
  615TIP3    H2 1810   5.694   3.652   0.246
  616TIP3   OH2 1811   1.786   5.000   5.255
  616TIP3    H1 1812   1.869   5.048   5.250
  616TIP3    H2 1813   1.720   5.069   5.262
  617TIP3   OH2 1814   6.691   3.619   4.860
  617TIP3    H1 1815   6.615   3.620   4.918
  617TIP3    H2 1816   6.723   3.528   4.864
  618TIP3   OH2 1817   0.739   0.225   4.082
  618TIP3    H1 1818   0.692   0.143   4.069
  618TIP3    H2 1819   0.788   0.239   4.000
  619TIP3   OH2 1820   1.262   2.616   2.459
  619TIP3    H1 1821   1.227   2.656   2.379
  619TIP3    H2 1822   1.332   2.675   2.486
  620TIP3   OH2 1823   1.322   2.386   4.477
  620TIP3    H1 1824   1.270   2.323   4.527
  620TIP3    H2 1825   1.406   2.388   4.523
  621TIP3   OH2 1826   3.158   3.608   0.256
  621TIP3    H1 1827   3.075   3.572   0.285
  621TIP3    H2 1828   3.159   3.594   0.161
  622TIP3   OH2 1829   4.688   3.598   1.687
  622TIP3    H1 1830   4.649   3.522   1.644
  622TIP3    H2 1831   4.775   3.605   1.649
  623TIP3   OH2 1832   6.880   1.788   3.144
  623TIP3    H1 1833   6.955   1.830   3.100
  623TIP3    H2 1834   6.916   1.707   3.179
  624TIP3   OH2 1835   4.466   3.968   2.627
  624TIP3    H1 1836   4.407   4.035   2.594
  624TIP3    H2 1837   4.471   3.903   2.557
  625TIP3   OH2 1838   2.018   0.296   5.824
  625TIP3    H1 1839   1.954   0.350   5.870
  625TIP3    H2 1840   2.065   0.249   5.894
  626TIP3   OH2 1841   1.843   3.503   0.176
  626TIP3    H1 1842   1.824   3.596   0.194
  626TIP3    H2 1843   1.841   3.496   0.081
  627TIP3   OH2 1844   3.670   2.608   4.867
  627TIP3    H1 1845   3.724   2.537   4.900
  627TIP3    H2 1846   3.620   2.637   4.943
  628TIP3   OH2 1847   5.622   2.723   0.286
  628TIP3    H1 1848   5.685   2.738   0.357
  628TIP3    H2 1849   5.646   2.637   0.251
  629TIP3   OH2 1850   2.866   0.738   4.192
  629TIP3    H1 1851   2.875   0.643   4.194
  629TIP3    H2 1852   2.891   0.767   4.280
  630TIP3   OH2 1853   0.879   3.359   3.487
  630TIP3    H1 1854   0.871   3.450   3.461
  630TIP3    H2 1855   0.855   3.309   3.408
  631TIP3   OH2 1856   4.772   5.277   2.549
  631TIP3    H1 1857   4.794   5.370   2.552
  631TIP3    H2 1858   4.718   5.268   2.471
  632TIP3   OH2 1859   2.848   3.539   0.863
  632TIP3    H1 1860   2.772   3.555   0.918
  632TIP3    H2 1861   2.887   3.625   0.850
  633TIP3   OH2 1862   6.380   4.966   5.286
  633TIP3    H1 1863   6.419   4.982   5.372
  633TIP3    H2 1864   6.334   4.882   5.297
  634TIP3   OH2 1865   2.868   1.931   5.034
  634TIP3    H1 1866   2.909   1.927   4.947
  634TIP3    H2 1867   2.800   1.998   5.025
  635TIP3   OH2 1868   3.182   4.093   4.317
  635TIP3    H1 1869   3.112   4.027   4.319
  635TIP3    H2 1870   3.237   4.071   4.393
  636TIP3   OH2 1871   4.910   3.209   4.382
  636TIP3    H1 1872   4.981   3.254   4.427
  636TIP3    H2 1873   4.936   3.117   4.380
  637TIP3   OH2 1874   6.224   6.746   5.273
  637TIP3    H1 1875   6.257   6.714   5.190
  637TIP3    H2 1876   6.302   6.776   5.320
  638TIP3   OH2 1877   1.679   2.602   4.739
  638TIP3    H1 1878   1.710   2.522   4.781
  638TIP3    H2 1879   1.584   2.596   4.741
  639TIP3   OH2 1880   4.959   2.634   5.777
  639TIP3    H1 1881   4.925   2.707   5.829
  639TIP3    H2 1882   5.037   2.668   5.735
  640TIP3   OH2 1883   6.708  -0.031   3.370
  640TIP3    H1 1884   6.751   0.055   3.367
  640TIP3    H2 1885   6.617  -0.012   3.390
  641TIP3   OH2 1886  -0.013   3.026   1.317
  641TIP3    H1 1887   0.016   3.039   1.408
  641TIP3    H2 1888  -0.040   2.934   1.314
  642TIP3   OH2 1889   6.312   2.859   1.195
  642TIP3    H1 1890   6.272   2.946   1.191
  642TIP3    H2 1891   6.247   2.805   1.240
  643TIP3   OH2 1892   7.195   2.236   1.260
  643TIP3    H1 1893   7.273   2.233   1.205
  643TIP3    H2 1894   7.229   2.224   1.349
  644TIP3   OH2 1895   0.009   6.362   3.004
  644TIP3    H1 1896  -0.021   6.298   2.940
  644TIP3    H2 1897   0.039   6.436   2.951
  645TIP3   OH2 1898   6.410   6.027   2.244
  645TIP3    H1 1899   6.358   6.104   2.224
  645TIP3    H2 1900   6.420   5.982   2.160
  646TIP3   OH2 1901   6.753   3.926   1.970
  646TIP3    H1 1902   6.767   4.018   1.947
  646TIP3    H2 1903   6.773   3.922   2.064
  647TIP3   OH2 1904   2.333   1.099   5.598
  647TIP3    H1 1905   2.297   1.183   5.568
  647TIP3    H2 1906   2.373   1.061   5.519
  648TIP3   OH2 1907   4.212   0.395   0.335
  648TIP3    H1 1908   4.221   0.302   0.357
  648TIP3    H2 1909   4.168   0.396   0.250
  649TIP3   OH2 1910   2.097   4.621   5.062
  649TIP3    H1 1911   2.023   4.616   5.001
  649TIP3    H2 1912   2.140   4.536   5.054
  650TIP3   OH2 1913   3.582   3.477   0.551
  650TIP3    H1 1914   3.505   3.437   0.592
  650TIP3    H2 1915   3.560   3.570   0.543
  651TIP3   OH2 1916   3.241   1.451   3.296
  651TIP3    H1 1917   3.265   1.490   3.212
  651TIP3    H2 1918   3.305   1.485   3.358
  652TIP3   OH2 1919   4.858   2.638   2.579
  652TIP3    H1 1920   4.768   2.649   2.550
  652TIP3    H2 1921   4.869   2.701   2.650
  653TIP3   OH2 1922   6.889   6.020   4.963
  653TIP3    H1 1923   6.974   6.064   4.968
  653TIP3    H2 1924   6.837   6.076   4.905
  654TIP3   OH2 1925   0.186   4.297   2.730
  654TIP3    H1 1926   0.257   4.326   2.674
  654TIP3    H2 1927   0.229   4.244   2.797
  655TIP3   OH2 1928   3.625   2.643   0.888
  655TIP3    H1 1929   3.709   2.603   0.864
  655TIP3    H2 1930   3.559   2.587   0.847
  656TIP3   OH2 1931   7.134   0.516   1.664
  656TIP3    H1 1932   7.187   0.596   1.663
  656TIP3    H2 1933   7.074   0.526   1.591
  657TIP3   OH2 1934   5.190   5.722   5.803
  657TIP3    H1 1935   5.239   5.710   5.722
  657TIP3    H2 1936   5.167   5.633   5.830
  658TIP3   OH2 1937   5.599   0.424   4.915
  658TIP3    H1 1938   5.573   0.416   4.823
  658TIP3    H2 1939   5.577   0.339   4.954
  659TIP3   OH2 1940   4.813   6.466   1.971
  659TIP3    H1 1941   4.900   6.472   2.012
  659TIP3    H2 1942   4.770   6.393   2.017
  660TIP3   OH2 1943   2.062   3.377   4.623
  660TIP3    H1 1944   2.157   3.367   4.634
  660TIP3    H2 1945   2.029   3.390   4.711
  661TIP3   OH2 1946   6.334   3.778   0.400
  661TIP3    H1 1947   6.269   3.708   0.395
  661TIP3    H2 1948   6.414   3.733   0.428
  662TIP3   OH2 1949   4.310   2.842   1.366
  662TIP3    H1 1950   4.228   2.883   1.392
  662TIP3    H2 1951   4.316   2.763   1.421
  663TIP3   OH2 1952   0.330   5.994   1.657
  663TIP3    H1 1953   0.403   6.012   1.717
  663TIP3    H2 1954   0.252   6.014   1.709
  664TIP3   OH2 1955   2.503   3.828   0.077
  664TIP3    H1 1956   2.599   3.824   0.078
  664TIP3    H2 1957   2.482   3.872  -0.005
  665TIP3   OH2 1958   3.719   1.403   3.219
  665TIP3    H1 1959   3.667   1.330   3.253
  665TIP3    H2 1960   3.672   1.434   3.142
  666TIP3   OH2 1961   6.149   3.578   1.154
  666TIP3    H1 1962   6.135   3.512   1.086
  666TIP3    H2 1963   6.094   3.548   1.227
  667TIP3   OH2 1964   4.484   6.129   3.586
  667TIP3    H1 1965   4.410   6.111   3.645
  667TIP3    H2 1966   4.527   6.205   3.625
  668TIP3   OH2 1967   2.848   6.349   1.905
  668TIP3    H1 1968   2.813   6.398   1.979
  668TIP3    H2 1969   2.939   6.330   1.930
  669TIP3   OH2 1970   4.082   4.882   1.906
  669TIP3    H1 1971   4.025   4.956   1.927
  669TIP3    H2 1972   4.037   4.837   1.835
  670TIP3   OH2 1973   5.260   4.530   1.526
  670TIP3    H1 1974   5.283   4.622   1.520
  670TIP3    H2 1975   5.320   4.494   1.593
  671TIP3   OH2 1976   5.488   1.704   3.992
  671TIP3    H1 1977   5.576   1.735   3.968
  671TIP3    H2 1978   5.472   1.630   3.934
  672TIP3   OH2 1979   3.989   3.296   3.212
  672TIP3    H1 1980   4.044   3.250   3.276
  672TIP3    H2 1981   3.994   3.388   3.237
  673TIP3   OH2 1982   1.006   3.735   1.996
  673TIP3    H1 1983   0.969   3.817   2.030
  673TIP3    H2 1984   0.984   3.670   2.063
  674TIP3   OH2 1985   4.873   3.011   4.073
  674TIP3    H1 1986   4.840   3.040   4.158
  674TIP3    H2 1987   4.880   2.916   4.081
  675TIP3   OH2 1988   6.233   5.472   1.114
  675TIP3    H1 1989   6.250   5.390   1.161
  675TIP3    H2 1990   6.194   5.444   1.031
  676TIP3   OH2 1991   4.185  -0.031   2.557
  676TIP3    H1 1992   4.157   0.014   2.477
  676TIP3    H2 1993   4.119  -0.007   2.622
  677TIP3   OH2 1994   7.156   6.507   2.492
  677TIP3    H1 1995   7.228   6.490   2.431
  677TIP3    H2 1996   7.084   6.538   2.437
  678TIP3   OH2 1997   3.118   4.210   5.739
  678TIP3    H1 1998   3.025   4.231   5.736
  678TIP3    H2 1999   3.122   4.126   5.784
  679TIP3   OH2 2000   1.441   4.445   4.303
  679TIP3    H1 2001   1.416   4.432   4.211
  679TIP3    H2 2002   1.523   4.396   4.313
  680TIP3   OH2 2003   6.103   3.726   2.988
  680TIP3    H1 2004   6.103   3.821   2.975
  680TIP3    H2 2005   6.067   3.690   2.907
  681TIP3   OH2 2006   4.727   2.296   1.556
  681TIP3    H1 2007   4.657   2.306   1.620
  681TIP3    H2 2008   4.797   2.352   1.589
  682TIP3   OH2 2009   4.722   2.746   3.581
  682TIP3    H1 2010   4.629   2.766   3.592
  682TIP3    H2 2011   4.752   2.721   3.668
  683TIP3   OH2 2012   0.429   4.028   1.685
  683TIP3    H1 2013   0.515   4.069   1.681
  683TIP3    H2 2014   0.387   4.068   1.761
  684TIP3   OH2 2015   7.179   2.782   0.326
  684TIP3    H1 2016   7.188   2.689   0.343
  684TIP3    H2 2017   7.197   2.792   0.233
  685TIP3   OH2 2018   5.408   5.887   3.558
  685TIP3    H1 2019   5.423   5.792   3.555
  685TIP3    H2 2020   5.475   5.924   3.500
  686TIP3   OH2 2021   6.940   0.185   0.453
  686TIP3    H1 2022   6.975   0.102   0.486
  686TIP3    H2 2023   6.866   0.204   0.510
  687TIP3   OH2 2024   5.590   3.897   4.575
  687TIP3    H1 2025   5.579   3.932   4.487
  687TIP3    H2 2026   5.664   3.946   4.611
  688TIP3   OH2 2027   4.832   6.113   2.085
  688TIP3    H1 2028   4.864   6.037   2.037
  688TIP3    H2 2029   4.900   6.131   2.150
  689TIP3   OH2 2030   2.829   5.664   0.164
  689TIP3    H1 2031   2.775   5.714   0.225
  689TIP3    H2 2032   2.794   5.687   0.078
  690TIP3   OH2 2033   4.811   1.738   3.985
  690TIP3    H1 2034   4.862   1.719   3.906
  690TIP3    H2 2035   4.814   1.833   3.994
  691TIP3   OH2 2036   3.105   3.341   2.780
  691TIP3    H1 2037   3.173   3.302   2.835
  691TIP3    H2 2038   3.133   3.431   2.767
  692TIP3   OH2 2039   6.803   5.800   3.307
  692TIP3    H1 2040   6.800   5.853   3.227
  692TIP3    H2 2041   6.714   5.765   3.315
  693TIP3   OH2 2042   5.674   5.444   3.125
  693TIP3    H1 2043   5.658   5.393   3.204
  693TIP3    H2 2044   5.764   5.475   3.134
  694TIP3   OH2 2045   1.478   1.448   4.338
  694TIP3    H1 2046   1.488   1.382   4.270
  694TIP3    H2 2047   1.431   1.520   4.296
  695TIP3   OH2 2048   1.803   4.556   0.139
  695TIP3    H1 2049   1.827   4.583   0.050
  695TIP3    H2 2050   1.853   4.614   0.196
  696TIP3   OH2 2051   5.919   6.817   5.866
  696TIP3    H1 2052   5.978   6.743   5.852
  696TIP3    H2 2053   5.951   6.860   5.945
  697TIP3   OH2 2054   2.326   0.747   1.479
  697TIP3    H1 2055   2.343   0.807   1.551
  697TIP3    H2 2056   2.265   0.795   1.422
  698TIP3   OH2 2057   6.216   0.964   0.619
  698TIP3    H1 2058   6.127   0.929   0.609
  698TIP3    H2 2059   6.242   0.986   0.530
  699TIP3   OH2 2060   6.558   5.711   3.392
  699TIP3    H1 2061   6.570   5.772   3.464
  699TIP3    H2 2062   6.499   5.644   3.426
  700TIP3   OH2 2063   6.993   3.795   2.693
  700TIP3    H1 2064   6.993   3.739   2.615
  700TIP3    H2 2065   6.902   3.794   2.723
  701TIP3   OH2 2066   2.927   3.706   3.106
  701TIP3    H1 2067   3.001   3.645   3.106
  701TIP3    H2 2068   2.920   3.735   3.196
  702TIP3   OH2 2069   7.064   3.899   4.443
  702TIP3    H1 2070   7.035   3.892   4.352
  702TIP3    H2 2071   7.045   3.813   4.481
  703TIP3   OH2 2072   3.526   1.230   1.472
  703TIP3    H1 2073   3.498   1.176   1.546
  703TIP3    H2 2074   3.445   1.256   1.429
  704TIP3   OH2 2075   3.705   6.269   0.265
  704TIP3    H1 2076   3.713   6.188   0.215
  704TIP3    H2 2077   3.635   6.251   0.328
  705TIP3   OH2 2078   4.908   1.487   3.584
  705TIP3    H1 2079   4.926   1.462   3.493
  705TIP3    H2 2080   4.814   1.470   3.595
  706TIP3   OH2 2081   3.966   0.125   0.924
  706TIP3    H1 2082   4.024   0.111   0.999
  706TIP3    H2 2083   3.924   0.040   0.911
  707TIP3   OH2 2084   3.019   3.767   0.541
  707TIP3    H1 2085   3.001   3.673   0.530
  707TIP3    H2 2086   3.021   3.801   0.452
  708TIP3   OH2 2087   1.059   4.519   0.143
  708TIP3    H1 2088   1.069   4.424   0.152
  708TIP3    H2 2089   1.041   4.550   0.232
  709TIP3   OH2 2090   6.291   2.365   4.365
  709TIP3    H1 2091   6.295   2.427   4.438
  709TIP3    H2 2092   6.198   2.347   4.354
  710TIP3   OH2 2093   2.330   4.282   0.699
  710TIP3    H1 2094   2.422   4.260   0.688
  710TIP3    H2 2095   2.308   4.249   0.786
  711TIP3   OH2 2096   4.213   5.969   1.950
  711TIP3    H1 2097   4.247   5.996   1.864
  711TIP3    H2 2098   4.246   5.879   1.961
  712TIP3   OH2 2099   1.629   1.433   0.510
  712TIP3    H1 2100   1.599   1.495   0.443
  712TIP3    H2 2101   1.559   1.433   0.575
  713TIP3   OH2 2102   0.578   6.055   5.126
  713TIP3    H1 2103   0.633   6.050   5.205
  713TIP3    H2 2104   0.625   6.003   5.061
  714TIP3   OH2 2105   4.893   1.356   1.609
  714TIP3    H1 2106   4.941   1.427   1.652
  714TIP3    H2 2107   4.846   1.313   1.680
  715TIP3   OH2 2108   2.063   2.963   4.000
  715TIP3    H1 2109   1.979   3.009   4.002
  715TIP3    H2 2110   2.098   2.980   3.913
  716TIP3   OH2 2111   3.387   1.864   2.566
  716TIP3    H1 2112   3.476   1.831   2.575
  716TIP3    H2 2113   3.395   1.959   2.573
  717TIP3   OH2 2114   1.661   5.526   0.954
  717TIP3    H1 2115   1.616   5.456   1.003
  717TIP3    H2 2116   1.592   5.565   0.900
  718TIP3   OH2 2117   5.322   0.422   2.646
  718TIP3    H1 2118   5.406   0.439   2.603
  718TIP3    H2 2119   5.266   0.387   2.577
  719TIP3   OH2 2120   6.196   6.707   4.286
  719TIP3    H1 2121   6.278   6.667   4.316
  719TIP3    H2 2122   6.192   6.790   4.332
  720TIP3   OH2 2123   4.147   5.035   1.060
  720TIP3    H1 2124   4.208   5.085   1.006
  720TIP3    H2 2125   4.107   4.973   1.000
  721TIP3   OH2 2126   4.710   0.287   5.311
  721TIP3    H1 2127   4.643   0.256   5.250
  721TIP3    H2 2128   4.744   0.207   5.351
  722TIP3   OH2 2129   5.761   4.024   2.213
  722TIP3    H1 2130   5.713   4.060   2.138
  722TIP3    H2 2131   5.696   4.016   2.282
  723TIP3   OH2 2132   2.618   2.083   1.113
  723TIP3    H1 2133   2.636   2.169   1.076
  723TIP3    H2 2134   2.613   2.024   1.038
  724TIP3   OH2 2135   6.103   4.427   0.651
  724TIP3    H1 2136   6.171   4.361   0.646
  724TIP3    H2 2137   6.137   4.492   0.712
  725TIP3   OH2 2138   2.835   4.901   1.223
  725TIP3    H1 2139   2.887   4.910   1.303
  725TIP3    H2 2140   2.824   4.991   1.192
  726TIP3   OH2 2141   6.417   3.374   3.682
  726TIP3    H1 2142   6.353   3.379   3.754
  726TIP3    H2 2143   6.485   3.437   3.706
  727TIP3   OH2 2144   2.376   6.705   3.665
  727TIP3    H1 2145   2.388   6.646   3.591
  727TIP3    H2 2146   2.457   6.697   3.716
  728TIP3   OH2 2147   1.107   1.956   4.915
  728TIP3    H1 2148   1.021   1.913   4.917
  728TIP3    H2 2149   1.163   1.894   4.867
  729TIP3   OH2 2150   4.065   4.813   5.874
  729TIP3    H1 2151   4.148   4.860   5.881
  729TIP3    H2 2152   4.090   4.724   5.848
  730TIP3   OH2 2153   0.243   5.649   3.053
  730TIP3    H1 2154   0.215   5.650   2.961
  730TIP3    H2 2155   0.169   5.688   3.100
  731TIP3   OH2 2156   2.296   1.252   3.983
  731TIP3    H1 2157   2.365   1.280   3.923
  731TIP3    H2 2158   2.254   1.334   4.010
  732TIP3   OH2 2159   2.952   1.798   0.991
  732TIP3    H1 2160   2.901   1.718   1.003
  732TIP3    H2 2161   2.961   1.835   1.079
  733TIP3   OH2 2162   4.907   6.806   4.146
  733TIP3    H1 2163   4.846   6.797   4.073
  733TIP3    H2 2164   4.868   6.875   4.201
  734TIP3   OH2 2165   4.489   5.803   1.559
  734TIP3    H1 2166   4.557   5.791   1.625
  734TIP3    H2 2167   4.407   5.801   1.608
  735TIP3   OH2 2168   4.162   4.096   5.036
  735TIP3    H1 2169   4.230   4.044   5.079
  735TIP3    H2 2170   4.139   4.045   4.959
  736TIP3   OH2 2171   6.598   2.904   2.621
  736TIP3    H1 2172   6.603   2.870   2.710
  736TIP3    H2 2173   6.505   2.904   2.599
  737TIP3   OH2 2174   2.526   1.573   0.885
  737TIP3    H1 2175   2.453   1.628   0.914
  737TIP3    H2 2176   2.484   1.492   0.857
  738TIP3   OH2 2177   1.672   1.304   1.782
  738TIP3    H1 2178   1.586   1.308   1.823
  738TIP3    H2 2179   1.682   1.213   1.755
  739TIP3   OH2 2180   2.441   2.388   3.023
  739TIP3    H1 2181   2.519   2.337   3.002
  739TIP3    H2 2182   2.454   2.415   3.114
  740TIP3   OH2 2183   1.846   4.848   1.606
  740TIP3    H1 2184   1.843   4.875   1.697
  740TIP3    H2 2185   1.936   4.818   1.592
  741TIP3   OH2 2186   7.075   1.188   2.680
  741TIP3    H1 2187   7.144   1.165   2.617
  741TIP3    H2 2188   7.000   1.211   2.626
  742TIP3   OH2 2189   5.923   4.165   3.119
  742TIP3    H1 2190   5.960   4.079   3.141
  742TIP3    H2 2191   5.829   4.154   3.131
  743TIP3   OH2 2192   2.711   5.589   4.722
  743TIP3    H1 2193   2.686   5.524   4.787
  743TIP3    H2 2194   2.666   5.669   4.749
  744TIP3   OH2 2195   6.289   6.230   0.843
  744TIP3    H1 2196   6.272   6.193   0.757
  744TIP3    H2 2197   6.353   6.170   0.883
  745TIP3   OH2 2198   0.389   0.971   0.115
  745TIP3    H1 2199   0.403   0.902   0.050
  745TIP3    H2 2200   0.475   0.984   0.155
  746TIP3   OH2 2201   5.795   5.878   4.637
  746TIP3    H1 2202   5.851   5.909   4.566
  746TIP3    H2 2203   5.846   5.896   4.717
  747TIP3   OH2 2204   2.783   6.753   3.575
  747TIP3    H1 2205   2.748   6.680   3.523
  747TIP3    H2 2206   2.808   6.714   3.659
  748TIP3   OH2 2207   5.855   0.148   1.371
  748TIP3    H1 2208   5.933   0.116   1.326
  748TIP3    H2 2209   5.882   0.231   1.409
  749TIP3   OH2 2210   6.739   6.343   2.895
  749TIP3    H1 2211   6.768   6.341   2.986
  749TIP3    H2 2212   6.799   6.285   2.849
  750TIP3   OH2 2213   5.076   6.491   1.690
  750TIP3    H1 2214   5.078   6.578   1.731
  750TIP3    H2 2215   4.994   6.491   1.640
  751TIP3   OH2 2216   6.212   0.706   1.040
  751TIP3    H1 2217   6.117   0.705   1.051
  751TIP3    H2 2218   6.244   0.752   1.118
  752TIP3   OH2 2219   4.858   2.037   4.436
  752TIP3    H1 2220   4.882   1.966   4.377
  752TIP3    H2 2221   4.918   2.028   4.510
  753TIP3   OH2 2222   1.916   1.215   3.453
  753TIP3    H1 2223   1.919   1.239   3.545
  753TIP3    H2 2224   1.954   1.128   3.449
  754TIP3   OH2 2225   3.706   5.265   4.512
  754TIP3    H1 2226   3.777   5.208   4.484
  754TIP3    H2 2227   3.657   5.283   4.431
  755TIP3   OH2 2228   0.071   4.271   4.770
  755TIP3    H1 2229   0.141   4.333   4.790
  755TIP3    H2 2230   0.056   4.282   4.676
  756TIP3   OH2 2231   3.377   5.132   3.197
  756TIP3    H1 2232   3.419   5.152   3.280
  756TIP3    H2 2233   3.284   5.123   3.219
  757TIP3   OH2 2234   6.921   5.917   5.517
  757TIP3    H1 2235   6.875   5.844   5.559
  757TIP3    H2 2236   6.999   5.930   5.572
  758TIP3   OH2 2237   2.500   5.591   0.606
  758TIP3    H1 2238   2.436   5.621   0.671
  758TIP3    H2 2239   2.584   5.593   0.652
  759TIP3   OH2 2240   1.464   2.193   5.839
  759TIP3    H1 2241   1.540   2.135   5.848
  759TIP3    H2 2242   1.485   2.269   5.894
  760TIP3   OH2 2243   2.936   6.633   5.439
  760TIP3    H1 2244   2.991   6.641   5.517
  760TIP3    H2 2245   2.926   6.538   5.426
  761TIP3   OH2 2246   1.374   2.061   1.521
  761TIP3    H1 2247   1.407   2.103   1.600
  761TIP3    H2 2248   1.396   1.968   1.533
  762TIP3   OH2 2249   3.790   1.661   0.573
  762TIP3    H1 2250   3.825   1.649   0.662
  762TIP3    H2 2251   3.821   1.747   0.547
  763TIP3   OH2 2252   3.301   5.487   4.214
  763TIP3    H1 2253   3.258   5.511   4.295
  763TIP3    H2 2254   3.268   5.399   4.194
  764TIP3   OH2 2255   7.188   3.418   1.650
  764TIP3    H1 2256   7.235   3.500   1.659
  764TIP3    H2 2257   7.095   3.443   1.653
  765TIP3   OH2 2258   6.844   1.205   0.049
  765TIP3    H1 2259   6.800   1.158   0.120
  765TIP3    H2 2260   6.928   1.160   0.039
  766TIP3   OH2 2261   4.145   3.137   3.386
  766TIP3    H1 2262   4.080   3.069   3.402
  766TIP3    H2 2263   4.176   3.162   3.473
  767TIP3   OH2 2264   3.285   1.718   3.577
  767TIP3    H1 2265   3.287   1.812   3.597
  767TIP3    H2 2266   3.347   1.708   3.505
  768TIP3   OH2 2267   1.989   6.647   0.688
  768TIP3    H1 2268   1.935   6.632   0.610
  768TIP3    H2 2269   1.979   6.741   0.707
  769TIP3   OH2 2270   6.477   1.917   5.864
  769TIP3    H1 2271   6.511   1.834   5.832
  769TIP3    H2 2272   6.526   1.984   5.815
  770TIP3   OH2 2273   0.119   2.163   1.500
  770TIP3    H1 2274   0.213   2.153   1.516
  770TIP3    H2 2275   0.078   2.124   1.577
  771TIP3   OH2 2276   4.073   6.408   4.243
  771TIP3    H1 2277   4.078   6.372   4.154
  771TIP3    H2 2278   4.059   6.332   4.299
  772TIP3   OH2 2279   4.839   5.613   3.814
  772TIP3    H1 2280   4.787   5.693   3.809
  772TIP3    H2 2281   4.900   5.629   3.886
  773TIP3   OH2 2282   5.452   5.526   0.352
  773TIP3    H1 2283   5.529   5.578   0.373
  773TIP3    H2 2284   5.487   5.448   0.309
  774TIP3   OH2 2285   6.615   1.037   0.915
  774TIP3    H1 2286   6.681   0.989   0.864
  774TIP3    H2 2287   6.581   1.103   0.855
  775TIP3   OH2 2288   3.524   6.668   5.422
  775TIP3    H1 2289   3.503   6.708   5.338
  775TIP3    H2 2290   3.439   6.648   5.462
  776TIP3   OH2 2291   3.134   6.130   2.962
  776TIP3    H1 2292   3.097   6.044   2.983
  776TIP3    H2 2293   3.077   6.193   3.008
  777TIP3   OH2 2294   0.987   2.736   4.995
  777TIP3    H1 2295   1.064   2.691   4.960
  777TIP3    H2 2296   1.007   2.829   4.985
  778TIP3   OH2 2297   5.688   4.862   4.672
  778TIP3    H1 2298   5.593   4.871   4.680
  778TIP3    H2 2299   5.719   4.949   4.646
  779TIP3   OH2 2300   0.270   4.074   2.913
  779TIP3    H1 2301   0.212   4.011   2.956
  779TIP3    H2 2302   0.294   4.032   2.831
  780TIP3   OH2 2303   6.593   5.263   0.622
  780TIP3    H1 2304   6.549   5.341   0.590
  780TIP3    H2 2305   6.536   5.191   0.594
  781TIP3   OH2 2306   5.488   5.780   1.335
  781TIP3    H1 2307   5.414   5.781   1.275
  781TIP3    H2 2308   5.456   5.822   1.415
  782TIP3   OH2 2309   3.216   0.133   2.168
  782TIP3    H1 2310   3.176   0.099   2.248
  782TIP3    H2 2311   3.288   0.073   2.149
  783TIP3   OH2 2312   4.933   6.200   1.481
  783TIP3    H1 2313   4.844   6.164   1.476
  783TIP3    H2 2314   4.919   6.295   1.489
  784TIP3   OH2 2315   1.838   3.201   2.910
  784TIP3    H1 2316   1.865   3.111   2.892
  784TIP3    H2 2317   1.908   3.255   2.874
  785TIP3   OH2 2318   0.351   3.263   1.767
  785TIP3    H1 2319   0.414   3.330   1.739
  785TIP3    H2 2320   0.405   3.187   1.788
  786TIP3   OH2 2321   2.893   4.120   0.534
  786TIP3    H1 2322   2.849   4.193   0.491
  786TIP3    H2 2323   2.986   4.138   0.522
  787TIP3   OH2 2324   2.382   1.690   0.361
  787TIP3    H1 2325   2.357   1.776   0.328
  787TIP3    H2 2326   2.456   1.664   0.307
  788TIP3   OH2 2327   6.289   2.304   0.629
  788TIP3    H1 2328   6.217   2.241   0.631
  788TIP3    H2 2329   6.245   2.389   0.640
  789TIP3   OH2 2330   4.018   4.210   0.485
  789TIP3    H1 2331   4.025   4.302   0.460
  789TIP3    H2 2332   4.082   4.166   0.429
  790TIP3   OH2 2333   0.774   5.164   0.238
  790TIP3    H1 2334   0.716   5.108   0.289
  790TIP3    H2 2335   0.775   5.125   0.151
  791TIP3   OH2 2336   1.077   4.474   4.782
  791TIP3    H1 2337   1.085   4.554   4.834
  791TIP3    H2 2338   0.996   4.434   4.812
  792TIP3   OH2 2339   4.665   1.950   2.680
  792TIP3    H1 2340   4.722   1.958   2.757
  792TIP3    H2 2341   4.719   1.982   2.608
  793TIP3   OH2 2342   0.459   4.868   4.737
  793TIP3    H1 2343   0.443   4.819   4.657
  793TIP3    H2 2344   0.374   4.904   4.761
  794TIP3   OH2 2345   2.014   4.196   5.422
  794TIP3    H1 2346   2.018   4.240   5.337
  794TIP3    H2 2347   2.102   4.162   5.436
  795TIP3   OH2 2348   5.220   5.591   5.359
  795TIP3    H1 2349   5.267   5.609   5.440
  795TIP3    H2 2350   5.223   5.674   5.311
  796TIP3   OH2 2351   0.967   5.608   0.993
  796TIP3    H1 2352   0.973   5.698   1.024
  796TIP3    H2 2353   1.006   5.610   0.905
  797TIP3   OH2 2354   5.843   1.975   3.107
  797TIP3    H1 2355   5.863   1.950   3.017
  797TIP3    H2 2356   5.749   1.993   3.106
  798TIP3   OH2 2357   1.456   5.232   0.125
  798TIP3    H1 2358   1.434   5.146   0.089
  798TIP3    H2 2359   1.519   5.268   0.063
  799TIP3   OH2 2360   6.602   2.176   0.242
  799TIP3    H1 2361   6.530   2.140   0.190
  799TIP3    H2 2362   6.560   2.210   0.321
  800TIP3   OH2 2363   0.973   4.126   4.776
  800TIP3    H1 2364   0.942   4.147   4.864
  800TIP3    H2 2365   0.927   4.187   4.719
  801TIP3   OH2 2366   1.603   5.716   5.707
  801TIP3    H1 2367   1.690   5.690   5.737
  801TIP3    H2 2368   1.620   5.768   5.628
  802TIP3   OH2 2369   5.086   2.754   3.495
  802TIP3    H1 2370   5.006   2.707   3.515
  802TIP3    H2 2371   5.150   2.685   3.477
  803TIP3   OH2 2372   1.645   5.246   4.585
  803TIP3    H1 2373   1.627   5.182   4.516
  803TIP3    H2 2374   1.578   5.229   4.651
  804TIP3   OH2 2375   6.627   2.639   2.209
  804TIP3    H1 2376   6.552   2.647   2.268
  804TIP3    H2 2377   6.628   2.547   2.183
  805TIP3   OH2 2378   5.068   2.129   0.245
  805TIP3    H1 2379   5.144   2.172   0.205
  805TIP3    H2 2380   4.993   2.166   0.200
  806TIP3   OH2 2381   2.304   5.382   2.041
  806TIP3    H1 2382   2.262   5.295   2.045
  806TIP3    H2 2383   2.283   5.423   2.125
  807TIP3   OH2 2384   4.939   3.752   2.481
  807TIP3    H1 2385   4.934   3.846   2.464
  807TIP3    H2 2386   4.866   3.715   2.432
  808TIP3   OH2 2387   3.633   5.688   2.004
  808TIP3    H1 2388   3.657   5.605   2.043
  808TIP3    H2 2389   3.681   5.690   1.921
  809TIP3   OH2 2390   6.865   0.215   3.380
  809TIP3    H1 2391   6.933   0.190   3.317
  809TIP3    H2 2392   6.871   0.311   3.385
  810TIP3   OH2 2393   0.775   3.575   1.434
  810TIP3    H1 2394   0.789   3.638   1.364
  810TIP3    H2 2395   0.863   3.543   1.455
  811TIP3   OH2 2396   1.207   6.437   3.968
  811TIP3    H1 2397   1.214   6.513   4.026
  811TIP3    H2 2398   1.128   6.453   3.916
  812TIP3   OH2 2399   6.791   3.504   4.536
  812TIP3    H1 2400   6.855   3.559   4.581
  812TIP3    H2 2401   6.839   3.467   4.462
  813TIP3   OH2 2402   1.257   1.206   1.125
  813TIP3    H1 2403   1.236   1.115   1.143
  813TIP3    H2 2404   1.172   1.249   1.117
  814TIP3   OH2 2405   2.341   2.732   0.582
  814TIP3    H1 2406   2.282   2.693   0.518
  814TIP3    H2 2407   2.350   2.665   0.650
  815TIP3   OH2 2408   6.434   2.394   4.720
  815TIP3    H1 2409   6.371   2.369   4.788
  815TIP3    H2 2410   6.494   2.319   4.716
  816TIP3   OH2 2411   6.501   2.688   4.087
  816TIP3    H1 2412   6.541   2.662   4.169
  816TIP3    H2 2413   6.451   2.611   4.059
  817TIP3   OH2 2414   4.809   1.579   4.795
  817TIP3    H1 2415   4.894   1.614   4.770
  817TIP3    H2 2416   4.748   1.652   4.783
  818TIP3   OH2 2417   3.465   4.497   5.825
  818TIP3    H1 2418   3.460   4.585   5.863
  818TIP3    H2 2419   3.549   4.495   5.781
  819TIP3   OH2 2420   6.720   4.967   3.773
  819TIP3    H1 2421   6.681   4.929   3.853
  819TIP3    H2 2422   6.645   4.998   3.723
  820TIP3   OH2 2423   4.000   3.539   0.349
  820TIP3    H1 2424   3.929   3.480   0.374
  820TIP3    H2 2425   4.079   3.498   0.382
  821TIP3   OH2 2426   6.361   1.629   4.749
  821TIP3    H1 2427   6.277   1.593   4.722
  821TIP3    H2 2428   6.373   1.706   4.693
  822TIP3   OH2 2429   4.131   2.044   1.686
  822TIP3    H1 2430   4.049   2.021   1.642
  822TIP3    H2 2431   4.162   2.121   1.639
  823TIP3   OH2 2432   2.981   4.380   4.401
  823TIP3    H1 2433   3.014   4.468   4.383
  823TIP3    H2 2434   3.055   4.323   4.381
  824TIP3   OH2 2435   4.597   3.811   1.520
  824TIP3    H1 2436   4.643   3.894   1.537
  824TIP3    H2 2437   4.642   3.747   1.575
  825TIP3   OH2 2438   0.914   6.567   0.881
  825TIP3    H1 2439   0.944   6.604   0.798
  825TIP3    H2 2440   0.977   6.497   0.900
  826TIP3   OH2 2441   5.573   4.253   3.164
  826TIP3    H1 2442   5.567   4.161   3.138
  826TIP3    H2 2443   5.556   4.252   3.259
  827TIP3   OH2 2444   2.422   0.103   2.977
  827TIP3    H1 2445   2.494   0.048   3.010
  827TIP3    H2 2446   2.349   0.042   2.964
  828TIP3   OH2 2447   2.419   5.887   0.729
  828TIP3    H1 2448   2.442   5.906   0.638
  828TIP3    H2 2449   2.496   5.842   0.764
  829TIP3   OH2 2450   5.014   1.624   3.302
  829TIP3    H1 2451   4.962   1.682   3.359
  829TIP3    H2 2452   4.952   1.597   3.234
  830TIP3   OH2 2453   6.609   3.936   5.750
  830TIP3    H1 2454   6.568   3.937   5.664
  830TIP3    H2 2455   6.594   4.024   5.786
  831TIP3   OH2 2456   3.567   3.389   4.774
  831TIP3    H1 2457   3.481   3.346   4.770
  831TIP3    H2 2458   3.553   3.465   4.831
  832TIP3   OH2 2459   4.575   3.648   1.092
  832TIP3    H1 2460   4.602   3.738   1.113
  832TIP3    H2 2461   4.480   3.653   1.086
  833TIP3   OH2 2462   5.514   6.469   1.024
  833TIP3    H1 2463   5.423   6.479   0.996
  833TIP3    H2 2464   5.562   6.537   0.977
  834TIP3   OH2 2465   5.941   3.591   2.589
  834TIP3    H1 2466   5.887   3.515   2.567
  834TIP3    H2 2467   5.991   3.563   2.666
  835TIP3   OH2 2468   6.751   3.115   1.994
  835TIP3    H1 2469   6.671   3.076   2.029
  835TIP3    H2 2470   6.792   3.157   2.069
  836TIP3   OH2 2471   3.439   0.533   2.233
  836TIP3    H1 2472   3.522   0.549   2.189
  836TIP3    H2 2473   3.374   0.532   2.162
  837TIP3   OH2 2474   2.854   2.626   0.305
  837TIP3    H1 2475   2.829   2.631   0.213
  837TIP3    H2 2476   2.944   2.593   0.304
  838TIP3   OH2 2477   1.560   6.502   0.598
  838TIP3    H1 2478   1.500   6.439   0.557
  838TIP3    H2 2479   1.590   6.557   0.525
  839TIP3   OH2 2480   3.515   2.301   0.337
  839TIP3    H1 2481   3.579   2.242   0.297
  839TIP3    H2 2482   3.563   2.383   0.350
  840TIP3   OH2 2483   5.978   5.397   2.070
  840TIP3    H1 2484   5.934   5.396   2.155
  840TIP3    H2 2485   6.062   5.354   2.086
  841TIP3   OH2 2486   3.241   4.860   0.754
  841TIP3    H1 2487   3.258   4.949   0.722
  841TIP3    H2 2488   3.328   4.827   0.777
  842TIP3   OH2 2489   0.596   6.066   1.759
  842TIP3    H1 2490   0.687   6.040   1.747
  842TIP3    H2 2491   0.594   6.159   1.733
  843TIP3   OH2 2492   6.045   0.274   4.253
  843TIP3    H1 2493   5.992   0.352   4.270
  843TIP3    H2 2494   6.123   0.308   4.209
  844TIP3   OH2 2495   3.869   2.198   5.440
  844TIP3    H1 2496   3.792   2.196   5.495
  844TIP3    H2 2497   3.855   2.128   5.376
  845TIP3   OH2 2498   3.693   6.373   4.108
  845TIP3    H1 2499   3.770   6.326   4.142
  845TIP3    H2 2500   3.622   6.309   4.112
  846TIP3   OH2 2501   2.241   1.659   2.163
  846TIP3    H1 2502   2.318   1.604   2.149
  846TIP3    H2 2503   2.205   1.630   2.247
  847TIP3   OH2 2504   6.135   4.427   4.740
  847TIP3    H1 2505   6.068   4.370   4.778
  847TIP3    H2 2506   6.216   4.402   4.785
  848TIP3   OH2 2507   7.058   5.696   1.302
  848TIP3    H1 2508   7.083   5.606   1.323
  848TIP3    H2 2509   7.043   5.695   1.208
  849TIP3   OH2 2510   1.190   3.932   4.443
  849TIP3    H1 2511   1.149   3.852   4.474
  849TIP3    H2 2512   1.216   3.979   4.523
  850TIP3   OH2 2513   5.672   0.233   1.634
  850TIP3    H1 2514   5.716   0.210   1.552
  850TIP3    H2 2515   5.596   0.174   1.637
  851TIP3   OH2 2516   1.270   3.770   0.559
  851TIP3    H1 2517   1.261   3.728   0.473
  851TIP3    H2 2518   1.338   3.719   0.603
  852TIP3   OH2 2519   0.257   2.700   2.405
  852TIP3    H1 2520   0.274   2.661   2.319
  852TIP3    H2 2521   0.184   2.760   2.390
  853TIP3   OH2 2522   2.786   0.856   5.844
  853TIP3    H1 2523   2.847   0.928   5.830
  853TIP3    H2 2524   2.810   0.820   5.929
  854TIP3   OH2 2525   5.731   6.380   2.801
  854TIP3    H1 2526   5.747   6.294   2.839
  854TIP3    H2 2527   5.772   6.377   2.715
  855TIP3   OH2 2528   1.022   5.511   2.078
  855TIP3    H1 2529   1.086   5.540   2.013
  855TIP3    H2 2530   1.040   5.565   2.155
  856TIP3   OH2 2531   5.649   0.639   0.801
  856TIP3    H1 2532   5.558   0.666   0.792
  856TIP3    H2 2533   5.645   0.559   0.854
  857TIP3   OH2 2534   5.361   4.224   1.168
  857TIP3    H1 2535   5.409   4.141   1.168
  857TIP3    H2 2536   5.418   4.285   1.216
  858TIP3   OH2 2537   3.883   4.279   0.955
  858TIP3    H1 2538   3.792   4.275   0.924
  858TIP3    H2 2539   3.932   4.221   0.897
  859TIP3   OH2 2540   0.866   1.616   4.769
  859TIP3    H1 2541   0.886   1.648   4.857
  859TIP3    H2 2542   0.941   1.642   4.716
  860TIP3   OH2 2543   1.307   4.260   4.118
  860TIP3    H1 2544   1.271   4.173   4.137
  860TIP3    H2 2545   1.232   4.310   4.086
  861TIP3   OH2 2546   1.956   5.456   4.001
  861TIP3    H1 2547   1.919   5.420   4.082
  861TIP3    H2 2548   1.890   5.518   3.970
  862TIP3   OH2 2549   3.005   1.303   3.222
  862TIP3    H1 2550   3.041   1.250   3.151
  862TIP3    H2 2551   2.910   1.300   3.208
  863TIP3   OH2 2552   5.075   5.073   2.170
  863TIP3    H1 2553   5.166   5.060   2.195
  863TIP3    H2 2554   5.034   4.987   2.183
  864TIP3   OH2 2555   1.056   1.329   0.468
  864TIP3    H1 2556   1.006   1.357   0.545
  864TIP3    H2 2557   0.992   1.324   0.398
  865TIP3   OH2 2558   6.609   6.422   3.726
  865TIP3    H1 2559   6.614   6.363   3.802
  865TIP3    H2 2560   6.531   6.475   3.742
  866TIP3   OH2 2561   6.472   2.292   5.125
  866TIP3    H1 2562   6.410   2.307   5.053
  866TIP3    H2 2563   6.444   2.352   5.194
  867TIP3   OH2 2564   6.730   1.429   1.748
  867TIP3    H1 2565   6.661   1.365   1.763
  867TIP3    H2 2566   6.759   1.413   1.658
  868TIP3   OH2 2567   0.000   0.568   2.853
  868TIP3    H1 2568   0.062   0.497   2.873
  868TIP3    H2 2569   0.043   0.647   2.886
  869TIP3   OH2 2570   1.405   0.944   1.277
  869TIP3    H1 2571   1.458   0.864   1.273
  869TIP3    H2 2572   1.432   0.986   1.359
  870TIP3   OH2 2573   6.567   3.606   1.912
  870TIP3    H1 2574   6.487   3.635   1.868
  870TIP3    H2 2575   6.559   3.511   1.916
  871TIP3   OH2 2576   6.133   0.884   3.351
  871TIP3    H1 2577   6.074   0.933   3.409
  871TIP3    H2 2578   6.118   0.922   3.265
  872TIP3   OH2 2579   7.167   6.170   0.282
  872TIP3    H1 2580   7.096   6.141   0.225
  872TIP3    H2 2581   7.124   6.189   0.366
  873TIP3   OH2 2582   3.969   1.216   0.742
  873TIP3    H1 2583   3.885   1.195   0.702
  873TIP3    H2 2584   4.030   1.153   0.705
  874TIP3   OH2 2585   5.272   1.847   2.675
  874TIP3    H1 2586   5.180   1.869   2.657
  874TIP3    H2 2587   5.307   1.926   2.717
  875TIP3   OH2 2588   6.291   3.138   0.034
  875TIP3    H1 2589   6.208   3.182   0.015
  875TIP3    H2 2590   6.295   3.133   0.129
  876TIP3   OH2 2591   0.997   0.474   3.632
  876TIP3    H1 2592   1.062   0.543   3.620
  876TIP3    H2 2593   0.915   0.520   3.647
  877TIP3   OH2 2594   2.850   3.035   0.500
  877TIP3    H1 2595   2.934   2.990   0.505
  877TIP3    H2 2596   2.855   3.086   0.419
  878TIP3   OH2 2597   5.643   0.184   3.263
  878TIP3    H1 2598   5.707   0.114   3.250
  878TIP3    H2 2599   5.574   0.143   3.316
  879TIP3   OH2 2600   4.893   2.380   5.771
  879TIP3    H1 2601   4.895   2.475   5.786
  879TIP3    H2 2602   4.899   2.342   5.859
  880TIP3   OH2 2603   3.590   1.495   4.187
  880TIP3    H1 2604   3.508   1.542   4.202
  880TIP3    H2 2605   3.577   1.449   4.104
  881TIP3   OH2 2606   3.766   2.578   3.830
  881TIP3    H1 2607   3.695   2.641   3.842
  881TIP3    H2 2608   3.723   2.499   3.796
  882TIP3   OH2 2609   6.120   1.970   4.541
  882TIP3    H1 2610   6.030   1.993   4.565
  882TIP3    H2 2611   6.134   2.011   4.456
  883TIP3   OH2 2612   4.362   0.238   4.330
  883TIP3    H1 2613   4.409   0.305   4.279
  883TIP3    H2 2614   4.286   0.216   4.275
  884TIP3   OH2 2615   0.062   1.598   0.746
  884TIP3    H1 2616   0.031   1.568   0.831
  884TIP3    H2 2617   0.122   1.529   0.717
  885TIP3   OH2 2618   2.072   3.366   2.208
  885TIP3    H1 2619   2.083   3.317   2.289
  885TIP3    H2 2620   2.071   3.299   2.139
  886TIP3   OH2 2621   3.152   2.074   2.464
  886TIP3    H1 2622   3.199   2.061   2.382
  886TIP3    H2 2623   3.220   2.070   2.531
  887TIP3   OH2 2624   2.962   2.321   0.349
  887TIP3    H1 2625   3.008   2.364   0.276
  887TIP3    H2 2626   3.029   2.311   0.416
  888TIP3   OH2 2627   0.541   4.198   1.163
  888TIP3    H1 2628   0.602   4.126   1.178
  888TIP3    H2 2629   0.591   4.263   1.113
  889TIP3   OH2 2630   7.042   0.592   5.369
  889TIP3    H1 2631   7.023   0.502   5.344
  889TIP3    H2 2632   6.956   0.635   5.375
  890TIP3   OH2 2633   5.662   1.028   5.588
  890TIP3    H1 2634   5.630   0.939   5.574
  890TIP3    H2 2635   5.584   1.078   5.612
  891TIP3   OH2 2636   4.653   6.335   2.809
  891TIP3    H1 2637   4.626   6.245   2.787
  891TIP3    H2 2638   4.650   6.338   2.905
  892TIP3   OH2 2639   2.009   6.348   4.762
  892TIP3    H1 2640   1.920   6.317   4.745
  892TIP3    H2 2641   2.057   6.331   4.682
  893TIP3   OH2 2642   0.534   5.097   4.263
  893TIP3    H1 2643   0.540   5.130   4.353
  893TIP3    H2 2644   0.441   5.106   4.240
  894TIP3   OH2 2645   0.494   3.305   5.104
  894TIP3    H1 2646   0.573   3.336   5.150
  894TIP3    H2 2647   0.468   3.227   5.152
  895TIP3   OH2 2648   1.602   3.586   2.942
  895TIP3    H1 2649   1.523   3.532   2.935
  895TIP3    H2 2650   1.627   3.602   2.851
  896TIP3   OH2 2651   6.089   3.691   2.386
  896TIP3    H1 2652   6.040   3.669   2.465
  896TIP3    H2 2653   6.132   3.609   2.361
  897TIP3   OH2 2654   0.007   2.146   3.574
  897TIP3    H1 2655   0.091   2.108   3.547
  897TIP3    H2 2656  -0.004   2.222   3.516
  898TIP3   OH2 2657   4.571   4.745   1.205
  898TIP3    H1 2658   4.636   4.815   1.197
  898TIP3    H2 2659   4.594   4.682   1.136
  899TIP3   OH2 2660   4.069   2.918   1.461
  899TIP3    H1 2661   4.118   2.995   1.490
  899TIP3    H2 2662   4.064   2.863   1.539
  900TIP3   OH2 2663   5.258   6.497   0.906
  900TIP3    H1 2664   5.196   6.432   0.938
  900TIP3    H2 2665   5.266   6.479   0.812
  901TIP3   OH2 2666   5.152   0.938   3.082
  901TIP3    H1 2667   5.099   0.862   3.106
  901TIP3    H2 2668   5.228   0.901   3.036
  902TIP3   OH2 2669   2.017   1.290   3.186
  902TIP3    H1 2670   1.958   1.275   3.260
  902TIP3    H2 2671   2.102   1.309   3.227
  903TIP3   OH2 2672   1.010   1.780   0.662
  903TIP3    H1 2673   1.052   1.864   0.644
  903TIP3    H2 2674   0.955   1.797   0.739
  904TIP3   OH2 2675   3.527   6.212   5.195
  904TIP3    H1 2676   3.585   6.145   5.232
  904TIP3    H2 2677   3.545   6.291   5.248
  905TIP3   OH2 2678   2.726   4.562   3.553
  905TIP3    H1 2679   2.804   4.551   3.499
  905TIP3    H2 2680   2.681   4.638   3.516
  906TIP3   OH2 2681   2.025   5.290   1.279
  906TIP3    H1 2682   2.060   5.349   1.345
  906TIP3    H2 2683   2.029   5.340   1.197
  907TIP3   OH2 2684   4.096   0.657   1.548
  907TIP3    H1 2685   4.041   0.669   1.625
  907TIP3    H2 2686   4.179   0.622   1.583
  908TIP3   OH2 2687   4.760   5.091   4.474
  908TIP3    H1 2688   4.779   5.100   4.381
  908TIP3    H2 2689   4.665   5.098   4.480
  909TIP3   OH2 2690   6.481   5.733   1.685
  909TIP3    H1 2691   6.530   5.654   1.708
  909TIP3    H2 2692   6.542   5.804   1.700
  910TIP3   OH2 2693   6.662   1.063   4.766
  910TIP3    H1 2694   6.751   1.052   4.732
  910TIP3    H2 2695   6.629   1.142   4.722
  911TIP3   OH2 2696   6.469   3.797   4.031
  911TIP3    H1 2697   6.471   3.738   3.955
  911TIP3    H2 2698   6.537   3.861   4.013
  912TIP3   OH2 2699   5.207   6.215   3.363
  912TIP3    H1 2700   5.183   6.282   3.427
  912TIP3    H2 2701   5.141   6.147   3.373
  913TIP3   OH2 2702   0.052   3.100   2.731
  913TIP3    H1 2703   0.002   3.090   2.812
  913TIP3    H2 2704  -0.013   3.086   2.661
  914TIP3   OH2 2705   4.913   0.351   2.731
  914TIP3    H1 2706   4.845   0.308   2.784
  914TIP3    H2 2707   4.950   0.281   2.678
  915TIP3   OH2 2708   5.560   1.731   3.467
  915TIP3    H1 2709   5.595   1.642   3.461
  915TIP3    H2 2710   5.637   1.787   3.477
  916TIP3   OH2 2711   2.266   0.064   1.517
  916TIP3    H1 2712   2.229   0.044   1.604
  916TIP3    H2 2713   2.344   0.116   1.536
  917TIP3   OH2 2714   0.555   6.460   3.668
  917TIP3    H1 2715   0.492   6.484   3.601
  917TIP3    H2 2716   0.577   6.369   3.648
  918TIP3   OH2 2717   4.746   5.633   5.740
  918TIP3    H1 2718   4.807   5.598   5.805
  918TIP3    H2 2719   4.722   5.719   5.775
  919TIP3   OH2 2720   5.578   6.677   4.575
  919TIP3    H1 2721   5.497   6.728   4.567
  919TIP3    H2 2722   5.646   6.733   4.539
  920TIP3   OH2 2723   5.264   3.706   4.933
  920TIP3    H1 2724   5.355   3.694   4.906
  920TIP3    H2 2725   5.258   3.663   5.018
  921TIP3   OH2 2726   0.881   0.010   2.361
  921TIP3    H1 2727   0.840   0.093   2.340
  921TIP3    H2 2728   0.908   0.018   2.453
  922TIP3   OH2 2729   2.612   3.451   2.473
  922TIP3    H1 2730   2.699   3.413   2.464
  922TIP3    H2 2731   2.592   3.444   2.566
  923TIP3   OH2 2732   1.693   1.489   3.706
  923TIP3    H1 2733   1.753   1.456   3.773
  923TIP3    H2 2734   1.618   1.522   3.755
  924TIP3   OH2 2735   6.712   1.992   1.092
  924TIP3    H1 2736   6.619   1.987   1.069
  924TIP3    H2 2737   6.741   2.076   1.057
  925TIP3   OH2 2738   4.921   6.326   0.597
  925TIP3    H1 2739   4.830   6.332   0.623
  925TIP3    H2 2740   4.920   6.268   0.520
  926TIP3   OH2 2741   5.736   3.096   0.114
  926TIP3    H1 2742   5.707   3.072   0.026
  926TIP3    H2 2743   5.658   3.083   0.169
  927TIP3   OH2 2744   0.624   1.325   0.874
  927TIP3    H1 2745   0.708   1.279   0.869
  927TIP3    H2 2746   0.566   1.274   0.817
  928TIP3   OH2 2747   0.579   1.840   2.589
  928TIP3    H1 2748   0.534   1.914   2.629
  928TIP3    H2 2749   0.509   1.777   2.571
  929TIP3   OH2 2750   3.030   5.013   0.482
  929TIP3    H1 2751   3.119   4.984   0.462
  929TIP3    H2 2752   2.984   5.009   0.398
  930TIP3   OH2 2753   0.376   6.616   4.996
  930TIP3    H1 2754   0.323   6.693   4.973
  930TIP3    H2 2755   0.431   6.647   5.068
  931TIP3   OH2 2756   5.956   4.144   4.391
  931TIP3    H1 2757   5.979   4.231   4.422
  931TIP3    H2 2758   5.892   4.159   4.321
  932TIP3   OH2 2759   3.892   2.921   4.254
  932TIP3    H1 2760   3.815   2.904   4.200
  932TIP3    H2 2761   3.951   2.970   4.197
  933TIP3   OH2 2762   2.825   3.661   4.690
  933TIP3    H1 2763   2.834   3.739   4.635
  933TIP3    H2 2764   2.754   3.612   4.650
  934TIP3   OH2 2765   0.433   0.808   2.492
  934TIP3    H1 2766   0.462   0.899   2.501
  934TIP3    H2 2767   0.377   0.809   2.414
  935TIP3   OH2 2768   3.679   0.794   0.239
  935TIP3    H1 2769   3.619   0.733   0.196
  935TIP3    H2 2770   3.687   0.760   0.328
  936TIP3   OH2 2771   4.944   5.227   3.248
  936TIP3    H1 2772   5.010   5.275   3.299
  936TIP3    H2 2773   4.977   5.231   3.158
  937TIP3   OH2 2774   6.506   5.042   2.120
  937TIP3    H1 2775   6.462   4.984   2.059
  937TIP3    H2 2776   6.557   5.101   2.064
  938TIP3   OH2 2777   0.621   2.247   2.822
  938TIP3    H1 2778   0.671   2.290   2.753
  938TIP3    H2 2779   0.684   2.231   2.892
  939TIP3   OH2 2780   2.333   2.688   1.668
  939TIP3    H1 2781   2.285   2.753   1.718
  939TIP3    H2 2782   2.413   2.673   1.718
  940TIP3   OH2 2783   0.450   6.457   1.090
  940TIP3    H1 2784   0.510   6.422   1.024
  940TIP3    H2 2785   0.363   6.441   1.054
  941TIP3   OH2 2786   2.359   0.512   4.334
  941TIP3    H1 2787   2.410   0.528   4.254
  941TIP3    H2 2788   2.272   0.488   4.302
  942TIP3   OH2 2789   1.828   0.562   4.208
  942TIP3    H1 2790   1.860   0.641   4.252
  942TIP3    H2 2791   1.755   0.532   4.261
  943TIP3   OH2 2792   0.312   1.300   5.846
  943TIP3    H1 2793   0.239   1.338   5.798
  943TIP3    H2 2794   0.388   1.353   5.821
  944TIP3   OH2 2795   6.121   1.085   2.383
  944TIP3    H1 2796   6.137   1.018   2.316
  944TIP3    H2 2797   6.081   1.038   2.455
  945TIP3   OH2 2798   0.991   4.556   1.263
  945TIP3    H1 2799   0.981   4.465   1.235
  945TIP3    H2 2800   1.084   4.564   1.284
  946TIP3   OH2 2801   0.524   0.820   3.664
  946TIP3    H1 2802   0.535   0.868   3.581
  946TIP3    H2 2803   0.542   0.729   3.642
  947TIP3   OH2 2804   1.980   5.284   0.962
  947TIP3    H1 2805   2.044   5.213   0.968
  947TIP3    H2 2806   1.919   5.256   0.893
  948TIP3   OH2 2807   2.140   1.474   4.936
  948TIP3    H1 2808   2.134   1.553   4.882
  948TIP3    H2 2809   2.161   1.404   4.874
  949TIP3   OH2 2810   0.589   0.182   1.670
  949TIP3    H1 2811   0.586   0.132   1.588
  949TIP3    H2 2812   0.551   0.267   1.647
  950TIP3   OH2 2813   7.145   6.708   5.175
  950TIP3    H1 2814   7.156   6.695   5.081
  950TIP3    H2 2815   7.179   6.627   5.214
  951TIP3   OH2 2816   4.701   0.643   4.028
  951TIP3    H1 2817   4.755   0.570   3.999
  951TIP3    H2 2818   4.616   0.629   3.986
  952TIP3   OH2 2819   1.618   2.711   0.167
  952TIP3    H1 2820   1.649   2.801   0.173
  952TIP3    H2 2821   1.699   2.659   0.162
  953TIP3   OH2 2822   6.733   4.342   4.159
  953TIP3    H1 2823   6.699   4.332   4.070
  953TIP3    H2 2824   6.827   4.325   4.151
  954TIP3   OH2 2825   3.296   2.027   3.637
  954TIP3    H1 2826   3.238   2.044   3.712
  954TIP3    H2 2827   3.268   2.090   3.571
  955TIP3   OH2 2828   2.925   1.059   3.491
  955TIP3    H1 2829   2.837   1.095   3.498
  955TIP3    H2 2830   2.932   1.028   3.400
  956TIP3   OH2 2831   5.757   3.067   0.855
  956TIP3    H1 2832   5.743   2.988   0.803
  956TIP3    H2 2833   5.829   3.045   0.913
  957TIP3   OH2 2834  -0.036   3.117   4.880
  957TIP3    H1 2835  -0.032   3.184   4.948
  957TIP3    H2 2836  -0.114   3.138   4.829
  958TIP3   OH2 2837   4.460   5.409   4.334
  958TIP3    H1 2838   4.504   5.402   4.250
  958TIP3    H2 2839   4.519   5.462   4.388
  959TIP3   OH2 2840   5.881   0.907   0.923
  959TIP3    H1 2841   5.794   0.922   0.885
  959TIP3    H2 2842   5.918   0.995   0.934
  960TIP3   OH2 2843   0.917   0.066   1.027
  960TIP3    H1 2844   0.935   0.152   1.067
  960TIP3    H2 2845   0.967   0.067   0.945
  961TIP3   OH2 2846   2.664   5.820   4.466
  961TIP3    H1 2847   2.657   5.914   4.482
  961TIP3    H2 2848   2.755   5.806   4.440
  962TIP3   OH2 2849   6.120   0.147   2.975
  962TIP3    H1 2850   6.111   0.057   2.944
  962TIP3    H2 2851   6.206   0.149   3.017
  963TIP3   OH2 2852   6.619   1.606   1.541
  963TIP3    H1 2853   6.619   1.615   1.636
  963TIP3    H2 2854   6.711   1.593   1.518
  964TIP3   OH2 2855   6.110   2.055   4.284
  964TIP3    H1 2856   6.052   2.129   4.267
  964TIP3    H2 2857   6.185   2.069   4.227
  965TIP3   OH2 2858   4.108   3.103   5.344
  965TIP3    H1 2859   4.017   3.075   5.344
  965TIP3    H2 2860   4.104   3.196   5.321
  966TIP3   OH2 2861   0.213   6.372   0.983
  966TIP3    H1 2862   0.163   6.442   0.941
  966TIP3    H2 2863   0.208   6.298   0.922
  967TIP3   OH2 2864   3.479   4.687   1.380
  967TIP3    H1 2865   3.496   4.750   1.451
  967TIP3    H2 2866   3.564   4.650   1.360
  968TIP3   OH2 2867   3.275   4.576   5.412
  968TIP3    H1 2868   3.239   4.507   5.468
  968TIP3    H2 2869   3.199   4.630   5.389
  969TIP3   OH2 2870   6.339   1.807   4.539
  969TIP3    H1 2871   6.375   1.857   4.466
  969TIP3    H2 2872   6.266   1.860   4.571
  970TIP3   OH2 2873   0.647   5.852   3.119
  970TIP3    H1 2874   0.719   5.817   3.067
  970TIP3    H2 2875   0.675   5.940   3.143
  971TIP3   OH2 2876   3.635   6.622   4.992
  971TIP3    H1 2877   3.631   6.671   5.074
  971TIP3    H2 2878   3.701   6.554   5.008
  972TIP3   OH2 2879   0.112   6.520   5.252
  972TIP3    H1 2880   0.201   6.537   5.223
  972TIP3    H2 2881   0.098   6.427   5.235
  973TIP3   OH2 2882   5.097   1.441   2.160
  973TIP3    H1 2883   5.026   1.504   2.149
  973TIP3    H2 2884   5.119   1.446   2.253
  974TIP3   OH2 2885   5.257   2.716   2.719
  974TIP3    H1 2886   5.211   2.636   2.695
  974TIP3    H2 2887   5.338   2.687   2.761
  975TIP3   OH2 2888   1.111   3.419   2.607
  975TIP3    H1 2889   1.166   3.392   2.534
  975TIP3    H2 2890   1.145   3.506   2.631
  976TIP3   OH2 2891   5.373   2.974   1.626
  976TIP3    H1 2892   5.423   3.036   1.680
  976TIP3    H2 2893   5.345   3.026   1.550
  977TIP3   OH2 2894   0.722   3.860   5.309
  977TIP3    H1 2895   0.757   3.806   5.238
  977TIP3    H2 2896   0.641   3.815   5.335
  978TIP3   OH2 2897   6.825   0.784   3.517
  978TIP3    H1 2898   6.920   0.788   3.524
  978TIP3    H2 2899   6.800   0.872   3.488
  979TIP3   OH2 2900   2.087   2.463   1.570
  979TIP3    H1 2901   2.146   2.534   1.593
  979TIP3    H2 2902   2.114   2.437   1.482
  980TIP3   OH2 2903   4.054   0.785   4.484
  980TIP3    H1 2904   4.077   0.803   4.393
  980TIP3    H2 2905   3.966   0.823   4.495
  981TIP3   OH2 2906   2.870   3.774   5.401
  981TIP3    H1 2907   2.912   3.742   5.481
  981TIP3    H2 2908   2.776   3.765   5.418
  982TIP3   OH2 2909   3.390   4.065   0.021
  982TIP3    H1 2910   3.439   4.147   0.027
  982TIP3    H2 2911   3.457   3.999   0.004
  983TIP3   OH2 2912   1.328   6.467   1.025
  983TIP3    H1 2913   1.363   6.489   1.112
  983TIP3    H2 2914   1.368   6.532   0.966
  984TIP3   OH2 2915   4.205   1.235   3.328
  984TIP3    H1 2916   4.223   1.149   3.292
  984TIP3    H2 2917   4.274   1.249   3.393
  985TIP3   OH2 2918   2.846   3.257   0.662
  985TIP3    H1 2919   2.864   3.167   0.634
  985TIP3    H2 2920   2.883   3.311   0.592
  986TIP3   OH2 2921   3.842   0.107   5.587
  986TIP3    H1 2922   3.788   0.150   5.520
  986TIP3    H2 2923   3.894   0.178   5.625
  987TIP3   OH2 2924   6.512   6.110   5.673
  987TIP3    H1 2925   6.494   6.018   5.654
  987TIP3    H2 2926   6.470   6.158   5.602
  988TIP3   OH2 2927   5.791   1.533   5.774
  988TIP3    H1 2928   5.763   1.495   5.691
  988TIP3    H2 2929   5.867   1.480   5.800
  989TIP3   OH2 2930   5.254   2.914   2.521
  989TIP3    H1 2931   5.341   2.919   2.483
  989TIP3    H2 2932   5.252   2.830   2.567
  990TIP3   OH2 2933   0.833   4.950   1.717
  990TIP3    H1 2934   0.752   4.901   1.702
  990TIP3    H2 2935   0.804   5.040   1.729
  991TIP3   OH2 2936   1.672   0.583   5.726
  991TIP3    H1 2937   1.732   0.535   5.782
  991TIP3    H2 2938   1.728   0.641   5.674
  992TIP3   OH2 2939   2.350   0.229   3.320
  992TIP3    H1 2940   2.387   0.186   3.397
  992TIP3    H2 2941   2.272   0.177   3.299
  993TIP3   OH2 2942   2.451   1.348   1.593
  993TIP3    H1 2943   2.469   1.323   1.683
  993TIP3    H2 2944   2.426   1.267   1.549
  994TIP3   OH2 2945   6.355   1.551   5.298
  994TIP3    H1 2946   6.361   1.579   5.207
  994TIP3    H2 2947   6.263   1.566   5.322
  995TIP3   OH2 2948   3.886   1.521   4.469
  995TIP3    H1 2949   3.840   1.442   4.498
  995TIP3    H2 2950   3.898   1.508   4.375
  996TIP3   OH2 2951   2.608  -0.005   5.852
  996TIP3    H1 2952   2.577  -0.023   5.763
  996TIP3    H2 2953   2.703  -0.004   5.844
  997TIP3   OH2 2954   4.697   5.747   0.289
  997TIP3    H1 2955   4.619   5.787   0.328
  997TIP3    H2 2956   4.662   5.691   0.220
  998TIP3   OH2 2957   5.234   6.450   5.056
  998TIP3    H1 2958   5.246   6.439   4.962
  998TIP3    H2 2959   5.148   6.491   5.065
  999TIP3   OH2 2960   5.765   4.947   0.602
  999TIP3    H1 2961   5.786   4.858   0.575
  999TIP3    H2 2962   5.681   4.966   0.562
 1000TIP3   OH2 2963   1.575   2.549   3.848
 1000TIP3    H1 2964   1.606   2.616   3.786
 1000TIP3    H2 2965   1.520   2.598   3.909
 1001TIP3   OH2 2966   6.609   4.514   1.919
 1001TIP3    H1 2967   6.540   4.449   1.914
 1001TIP3    H2 2968   6.689   4.463   1.934
 1002TIP3   OH2 2969   4.810   6.749   4.712
 1002TIP3    H1 2970   4.760   6.714   4.638
 1002TIP3    H2 2971   4.754   6.734   4.788
 1003TIP3   OH2 2972   3.105   0.372   4.451
 1003TIP3    H1 2973   3.040   0.305   4.476
 1003TIP3    H2 2974   3.189   0.331   4.470
 1004TIP3   OH2 2975   6.493   2.590   0.419
 1004TIP3    H1 2976   6.489   2.591   0.515
 1004TIP3    H2 2977   6.437   2.517   0.394
 1005TIP3   OH2 2978   1.597   3.441   5.117
 1005TIP3    H1 2979   1.656   3.433   5.193
 1005TIP3    H2 2980   1.642   3.394   5.047
 1006TIP3   OH2 2981   3.536   2.844   5.609
 1006TIP3    H1 2982   3.468   2.781   5.635
 1006TIP3    H2 2983   3.608   2.789   5.578
 1007TIP3   OH2 2984   5.071   4.433   0.801
 1007TIP3    H1 2985   5.153   4.436   0.849
 1007TIP3    H2 2986   5.004   4.420   0.868
 1008TIP3   OH2 2987   3.841   2.040   0.833
 1008TIP3    H1 2988   3.794   2.022   0.914
 1008TIP3    H2 2989   3.920   1.985   0.838
 1009TIP3   OH2 2990   3.773   6.053   3.053
 1009TIP3    H1 2991   3.727   5.972   3.076
 1009TIP3    H2 2992   3.794   6.043   2.960
 1010TIP3   OH2 2993   0.412   0.256   2.899
 1010TIP3    H1 2994   0.449   0.344   2.906
 1010TIP3    H2 2995   0.380   0.236   2.987
 1011TIP3   OH2 2996   6.591   5.388   5.080
 1011TIP3    H1 2997   6.637   5.426   5.004
 1011TIP3    H2 2998   6.575   5.297   5.055
 1012TIP3   OH2 2999   6.798   5.633   2.319
 1012TIP3    H1 3000   6.826   5.716   2.281
 1012TIP3    H2 3001   6.703   5.634   2.309
 1013TIP3   OH2 3002   0.921   0.272   5.124
 1013TIP3    H1 3003   0.828   0.249   5.132
 1013TIP3    H2 3004   0.959   0.199   5.076
 1014TIP3   OH2 3005   7.035   4.737   1.748
 1014TIP3    H1 3006   6.945   4.724   1.718
 1014TIP3    H2 3007   7.080   4.656   1.723
 1015TIP3   OH2 3008   5.876   0.612   1.838
 1015TIP3    H1 3009   5.832   0.585   1.758
 1015TIP3    H2 3010   5.839   0.697   1.858
 1016TIP3   OH2 3011   4.139   2.432   3.554
 1016TIP3    H1 3012   4.172   2.368   3.491
 1016TIP3    H2 3013   4.197   2.507   3.545
 1017TIP3   OH2 3014   0.101   4.023   2.091
 1017TIP3    H1 3015   0.156   4.003   2.016
 1017TIP3    H2 3016   0.012   4.026   2.056
 1018TIP3   OH2 3017   2.557   6.113   1.366
 1018TIP3    H1 3018   2.527   6.038   1.314
 1018TIP3    H2 3019   2.637   6.083   1.408
 1019TIP3   OH2 3020   5.521   2.251   0.888
 1019TIP3    H1 3021   5.588   2.250   0.820
 1019TIP3    H2 3022   5.451   2.195   0.854
 1020TIP3   OH2 3023   1.259   4.579   1.239
 1020TIP3    H1 3024   1.329   4.522   1.270
 1020TIP3    H2 3025   1.302   4.641   1.180
 1021TIP3   OH2 3026   5.025   2.613   1.481
 1021TIP3    H1 3027   5.101   2.637   1.533
 1021TIP3    H2 3028   4.957   2.592   1.545
 1022TIP3   OH2 3029   3.543   1.237   2.239
 1022TIP3    H1 3030   3.544   1.146   2.267
 1022TIP3    H2 3031   3.457   1.248   2.197
 1023TIP3   OH2 3032   2.852   5.884   2.386
 1023TIP3    H1 3033   2.903   5.874   2.466
 1023TIP3    H2 3034   2.911   5.926   2.324
 1024TIP3   OH2 3035   2.229   1.611   5.440
 1024TIP3    H1 3036   2.217   1.667   5.517
 1024TIP3    H2 3037   2.312   1.566   5.456
 1025TIP3   OH2 3038   3.178   3.932   1.299
 1025TIP3    H1 3039   3.133   3.940   1.383
 1025TIP3    H2 3040   3.159   3.843   1.269
 1026TIP3   OH2 3041   2.320   2.101   4.367
 1026TIP3    H1 3042   2.397   2.137   4.323
 1026TIP3    H2 3043   2.349   2.082   4.456
 1027TIP3   OH2 3044   2.030   2.635   0.635
 1027TIP3    H1 3045   1.974   2.575   0.585
 1027TIP3    H2 3046   2.115   2.593   0.637
 1028TIP3   OH2 3047   2.379   0.892   3.519
 1028TIP3    H1 3048   2.316   0.889   3.591
 1028TIP3    H2 3049   2.403   0.800   3.505
 1029TIP3   OH2 3050   1.067   6.206   2.919
 1029TIP3    H1 3051   1.018   6.145   2.864
 1029TIP3    H2 3052   1.151   6.216   2.876
 1030TIP3   OH2 3053   6.504   3.598   2.573
 1030TIP3    H1 3054   6.536   3.557   2.493
 1030TIP3    H2 3055   6.445   3.667   2.543
 1031TIP3   OH2 3056   0.428   6.577   3.203
 1031TIP3    H1 3057   0.382   6.509   3.153
 1031TIP3    H2 3058   0.519   6.548   3.205
 1032TIP3   OH2 3059   4.476   4.425   1.705
 1032TIP3    H1 3060   4.456   4.346   1.655
 1032TIP3    H2 3061   4.485   4.394   1.795
 1033TIP3   OH2 3062   1.982   5.353   3.179
 1033TIP3    H1 3063   1.938   5.419   3.234
 1033TIP3    H2 3064   2.017   5.290   3.242
 1034TIP3   OH2 3065   6.636   1.240   5.796
 1034TIP3    H1 3066   6.636   1.231   5.700
 1034TIP3    H2 3067   6.676   1.326   5.812
 1035TIP3   OH2 3068   4.994   2.227   1.871
 1035TIP3    H1 3069   4.934   2.297   1.898
 1035TIP3    H2 3070   4.937   2.159   1.835
 1036TIP3   OH2 3071   2.405   3.522   4.057
 1036TIP3    H1 3072   2.330   3.535   4.115
 1036TIP3    H2 3073   2.366   3.490   3.975
 1037TIP3   OH2 3074   1.228   1.990   1.254
 1037TIP3    H1 3075   1.272   2.020   1.333
 1037TIP3    H2 3076   1.258   2.050   1.186
 1038TIP3   OH2 3077   0.233   2.308   3.466
 1038TIP3    H1 3078   0.265   2.369   3.399
 1038TIP3    H2 3079   0.224   2.225   3.419
 1039TIP3   OH2 3080   5.593   3.483   4.047
 1039TIP3    H1 3081   5.568   3.519   3.962
 1039TIP3    H2 3082   5.535   3.408   4.059
 1040TIP3   OH2 3083   5.547   0.166   5.394
 1040TIP3    H1 3084   5.494   0.231   5.441
 1040TIP3    H2 3085   5.484   0.118   5.340
 1041TIP3   OH2 3086   4.808   3.139   1.827
 1041TIP3    H1 3087   4.849   3.099   1.750
 1041TIP3    H2 3088   4.870   3.207   1.854
 1042TIP3   OH2 3089   1.276   4.850   2.156
 1042TIP3    H1 3090   1.182   4.857   2.171
 1042TIP3    H2 3091   1.302   4.772   2.205
 1043TIP3   OH2 3092   1.227   1.346   3.341
 1043TIP3    H1 3093   1.212   1.438   3.321
 1043TIP3    H2 3094   1.302   1.346   3.400
 1044TIP3   OH2 3095   0.594   0.379   5.382
 1044TIP3    H1 3096   0.630   0.466   5.370
 1044TIP3    H2 3097   0.540   0.386   5.461
 1045TIP3   OH2 3098   5.562   2.720   0.673
 1045TIP3    H1 3099   5.492   2.660   0.699
 1045TIP3    H2 3100   5.517   2.791   0.627
 1046TIP3   OH2 3101   1.515   2.181   1.735
 1046TIP3    H1 3102   1.470   2.137   1.807
 1046TIP3    H2 3103   1.586   2.230   1.776
 1047TIP3   OH2 3104   6.706   4.183   2.113
 1047TIP3    H1 3105   6.720   4.140   2.198
 1047TIP3    H2 3106   6.783   4.238   2.102
 1048TIP3   OH2 3107   4.581   0.247   5.566
 1048TIP3    H1 3108   4.635   0.280   5.495
 1048TIP3    H2 3109   4.590   0.152   5.561
 1049TIP3   OH2 3110   4.046   5.986   1.671
 1049TIP3    H1 3111   4.084   6.034   1.596
 1049TIP3    H2 3112   4.021   6.054   1.733
 1050TIP3   OH2 3113   0.556   2.701   3.221
 1050TIP3    H1 3114   0.601   2.717   3.304
 1050TIP3    H2 3115   0.519   2.786   3.198
 1051TIP3   OH2 3116   3.332   4.411   0.801
 1051TIP3    H1 3117   3.378   4.486   0.763
 1051TIP3    H2 3118   3.306   4.358   0.725
 1052TIP3   OH2 3119   5.729   5.397   4.140
 1052TIP3    H1 3120   5.819   5.394   4.108
 1052TIP3    H2 3121   5.678   5.427   4.064
 1053TIP3   OH2 3122   6.198   0.041   4.360
 1053TIP3    H1 3123   6.127   0.012   4.418
 1053TIP3    H2 3124   6.168   0.124   4.325
 1054TIP3   OH2 3125   4.742   3.605   1.997
 1054TIP3    H1 3126   4.764   3.696   2.017
 1054TIP3    H2 3127   4.748   3.598   1.902
 1055TIP3   OH2 3128   4.024   1.803   4.229
 1055TIP3    H1 3129   3.982   1.721   4.256
 1055TIP3    H2 3130   4.117   1.786   4.238
 1056TIP3   OH2 3131   1.468   1.648   3.556
 1056TIP3    H1 3132   1.424   1.732   3.569
 1056TIP3    H2 3133   1.555   1.671   3.524
 1057TIP3   OH2 3134   5.683   5.376   2.552
 1057TIP3    H1 3135   5.611   5.324   2.517
 1057TIP3    H2 3136   5.654   5.467   2.542
 1058TIP3   OH2 3137   3.767   6.220   1.633
 1058TIP3    H1 3138   3.723   6.305   1.628
 1058TIP3    H2 3139   3.855   6.236   1.600
 1059TIP3   OH2 3140   6.842   0.635   1.273
 1059TIP3    H1 3141   6.749   0.660   1.270
 1059TIP3    H2 3142   6.889   0.718   1.272
 1060TIP3   OH2 3143   2.062   5.684   2.374
 1060TIP3    H1 3144   2.093   5.770   2.401
 1060TIP3    H2 3145   2.073   5.629   2.451
 1061TIP3   OH2 3146   4.809   0.729   0.757
 1061TIP3    H1 3147   4.825   0.730   0.663
 1061TIP3    H2 3148   4.774   0.816   0.776
 1062TIP3   OH2 3149   1.364   0.916   0.360
 1062TIP3    H1 3150   1.433   0.860   0.325
 1062TIP3    H2 3151   1.337   0.873   0.441
 1063TIP3   OH2 3152   1.718   4.248   0.368
 1063TIP3    H1 3153   1.727   4.324   0.427
 1063TIP3    H2 3154   1.681   4.285   0.288
 1064TIP3   OH2 3155   2.691   1.241   1.390
 1064TIP3    H1 3156   2.653   1.323   1.422
 1064TIP3    H2 3157   2.659   1.175   1.451
 1065TIP3   OH2 3158   6.946   6.025   3.470
 1065TIP3    H1 3159   6.902   6.017   3.385
 1065TIP3    H2 3160   6.986   6.112   3.468
 1066TIP3   OH2 3161   1.415   3.976   3.665
 1066TIP3    H1 3162   1.330   4.002   3.700
 1066TIP3    H2 3163   1.476   3.986   3.738
 1067TIP3   OH2 3164   5.834   1.936   5.429
 1067TIP3    H1 3165   5.798   1.936   5.518
 1067TIP3    H2 3166   5.928   1.921   5.442
 1068TIP3   OH2 3167   0.960   6.755   1.856
 1068TIP3    H1 3168   0.950   6.676   1.910
 1068TIP3    H2 3169   0.874   6.766   1.814
 1069TIP3   OH2 3170   4.782   4.640   3.254
 1069TIP3    H1 3171   4.719   4.693   3.303
 1069TIP3    H2 3172   4.734   4.562   3.227
 1070TIP3   OH2 3173   1.637   0.789   3.262
 1070TIP3    H1 3174   1.591   0.848   3.321
 1070TIP3    H2 3175   1.710   0.841   3.227
 1071TIP3   OH2 3176   3.432   3.311   2.042
 1071TIP3    H1 3177   3.499   3.334   2.106
 1071TIP3    H2 3178   3.452   3.365   1.966
 1072TIP3   OH2 3179   4.112   6.439   4.602
 1072TIP3    H1 3180   4.185   6.378   4.614
 1072TIP3    H2 3181   4.043   6.385   4.564
 1073TIP3   OH2 3182   2.431   1.059   4.314
 1073TIP3    H1 3183   2.352   1.082   4.363
 1073TIP3    H2 3184   2.399   1.006   4.240
 1074TIP3   OH2 3185   3.897   2.457   5.780
 1074TIP3    H1 3186   3.945   2.434   5.700
 1074TIP3    H2 3187   3.888   2.374   5.828
 1075TIP3   OH2 3188   0.667   3.982   3.816
 1075TIP3    H1 3189   0.734   4.049   3.833
 1075TIP3    H2 3190   0.654   3.984   3.722
 1076TIP3   OH2 3191   3.134   1.531   4.681
 1076TIP3    H1 3192   3.082   1.609   4.661
 1076TIP3    H2 3193   3.187   1.556   4.757
 1077TIP3   OH2 3194   6.804   1.891   3.856
 1077TIP3    H1 3195   6.794   1.803   3.821
 1077TIP3    H2 3196   6.889   1.921   3.823
 1078TIP3   OH2 3197   4.282   3.005   4.430
 1078TIP3    H1 3198   4.310   2.975   4.344
 1078TIP3    H2 3199   4.304   2.933   4.489
 1079TIP3   OH2 3200   2.103   2.631   5.309
 1079TIP3    H1 3201   2.170   2.673   5.255
 1079TIP3    H2 3202   2.061   2.703   5.355
 1080TIP3   OH2 3203   0.704   0.545   2.656
 1080TIP3    H1 3204   0.646   0.471   2.635
 1080TIP3    H2 3205   0.647   0.609   2.698
 1081TIP3   OH2 3206   2.382   1.037   1.204
 1081TIP3    H1 3207   2.471   1.033   1.169
 1081TIP3    H2 3208   2.326   1.003   1.133
 1082TIP3   OH2 3209   6.447   2.948   5.820
 1082TIP3    H1 3210   6.493   3.028   5.845
 1082TIP3    H2 3211   6.369   2.947   5.876
 1083TIP3   OH2 3212   3.759   1.203   2.896
 1083TIP3    H1 3213   3.780   1.293   2.870
 1083TIP3    H2 3214   3.664   1.200   2.898
 1084TIP3   OH2 3215   4.605   5.135   2.734
 1084TIP3    H1 3216   4.601   5.142   2.829
 1084TIP3    H2 3217   4.691   5.172   2.710
 1085TIP3   OH2 3218   1.330   4.979   4.161
 1085TIP3    H1 3219   1.334   5.066   4.200
 1085TIP3    H2 3220   1.417   4.942   4.178
 1086TIP3   OH2 3221   4.966   5.779   1.667
 1086TIP3    H1 3222   5.038   5.833   1.701
 1086TIP3    H2 3223   5.008   5.697   1.643
 1087TIP3   OH2 3224   2.114   0.453   4.224
 1087TIP3    H1 3225   2.078   0.408   4.147
 1087TIP3    H2 3226   2.090   0.545   4.211
 1088TIP3   OH2 3227   5.641   0.332   1.327
 1088TIP3    H1 3228   5.694   0.253   1.323
 1088TIP3    H2 3229   5.695   0.400   1.286
 1089TIP3   OH2 3230   7.209   4.313   4.507
 1089TIP3    H1 3231   7.202   4.235   4.451
 1089TIP3    H2 3232   7.131   4.365   4.484
 1090TIP3   OH2 3233   3.812   3.387   0.090
 1090TIP3    H1 3234   3.878   3.364   0.156
 1090TIP3    H2 3235   3.748   3.439   0.137
 1091TIP3   OH2 3236   5.202   1.833   3.413
 1091TIP3    H1 3237   5.182   1.913   3.365
 1091TIP3    H2 3238   5.268   1.788   3.360
 1092TIP3   OH2 3239   0.696   2.570   2.429
 1092TIP3    H1 3240   0.759   2.627   2.383
 1092TIP3    H2 3241   0.638   2.631   2.474
 1093TIP3   OH2 3242   5.365   2.262   3.404
 1093TIP3    H1 3243   5.422   2.201   3.451
 1093TIP3    H2 3244   5.410   2.276   3.320
 1094TIP3   OH2 3245   4.347   0.534   3.699
 1094TIP3    H1 3246   4.285   0.463   3.681
 1094TIP3    H2 3247   4.299   0.594   3.755
 1095TIP3   OH2 3248   0.197   3.934   4.979
 1095TIP3    H1 3249   0.164   3.844   4.981
 1095TIP3    H2 3250   0.160   3.975   5.057
 1096TIP3   OH2 3251   4.121   0.366   4.459
 1096TIP3    H1 3252   4.107   0.457   4.434
 1096TIP3    H2 3253   4.188   0.335   4.398
 1097TIP3   OH2 3254   4.499   3.085   1.441
 1097TIP3    H1 3255   4.486   2.999   1.481
 1097TIP3    H2 3256   4.515   3.066   1.349
 1098TIP3   OH2 3257   5.349   4.998   1.952
 1098TIP3    H1 3258   5.330   5.074   1.897
 1098TIP3    H2 3259   5.263   4.962   1.975
 1099TIP3   OH2 3260   6.947   0.290   2.115
 1099TIP3    H1 3261   6.914   0.296   2.026
 1099TIP3    H2 3262   6.873   0.256   2.166
 1100TIP3   OH2 3263   0.576   5.476   1.455
 1100TIP3    H1 3264   0.531   5.492   1.372
 1100TIP3    H2 3265   0.665   5.451   1.430
 1101TIP3   OH2 3266   3.966   3.960   3.543
 1101TIP3    H1 3267   4.058   3.948   3.519
 1101TIP3    H2 3268   3.924   3.991   3.462
 1102TIP3   OH2 3269   5.898   0.770   4.881
 1102TIP3    H1 3270   5.892   0.783   4.787
 1102TIP3    H2 3271   5.991   0.779   4.901
 1103TIP3   OH2 3272   5.085   2.045   2.892
 1103TIP3    H1 3273   5.012   2.101   2.916
 1103TIP3    H2 3274   5.163   2.100   2.905
 1104TIP3   OH2 3275   4.130   6.585   0.350
 1104TIP3    H1 3276   4.035   6.570   0.355
 1104TIP3    H2 3277   4.140   6.677   0.374
 1105TIP3   OH2 3278   3.354   5.834   5.594
 1105TIP3    H1 3279   3.314   5.781   5.664
 1105TIP3    H2 3280   3.382   5.914   5.638
 1106TIP3   OH2 3281   2.055   0.488   3.046
 1106TIP3    H1 3282   2.129   0.440   3.010
 1106TIP3    H2 3283   2.055   0.571   3.000
 1107TIP3   OH2 3284   6.659   4.172   1.026
 1107TIP3    H1 3285   6.659   4.251   0.971
 1107TIP3    H2 3286   6.570   4.167   1.060
 1108TIP3   OH2 3287   7.204   5.252   4.211
 1108TIP3    H1 3288   7.178   5.290   4.127
 1108TIP3    H2 3289   7.121   5.232   4.254
 1109TIP3   OH2 3290   1.299   2.635   0.896
 1109TIP3    H1 3291   1.302   2.696   0.823
 1109TIP3    H2 3292   1.390   2.615   0.915
 1110TIP3   OH2 3293   3.361   1.751   5.229
 1110TIP3    H1 3294   3.281   1.727   5.274
 1110TIP3    H2 3295   3.382   1.675   5.174
 1111TIP3   OH2 3296   3.524   0.296   1.146
 1111TIP3    H1 3297   3.526   0.342   1.231
 1111TIP3    H2 3298   3.533   0.203   1.169
 1112TIP3   OH2 3299   0.184   5.650   2.761
 1112TIP3    H1 3300   0.142   5.584   2.706
 1112TIP3    H2 3301   0.276   5.622   2.765
 1113TIP3   OH2 3302   3.801   2.177   0.198
 1113TIP3    H1 3303   3.890   2.191   0.166
 1113TIP3    H2 3304   3.793   2.232   0.276
 1114TIP3   OH2 3305   3.360   6.470   4.212
 1114TIP3    H1 3306   3.357   6.563   4.232
 1114TIP3    H2 3307   3.336   6.465   4.119
 1115TIP3   OH2 3308   5.346   6.502   5.647
 1115TIP3    H1 3309   5.387   6.545   5.572
 1115TIP3    H2 3310   5.388   6.541   5.723
 1116TIP3   OH2 3311   0.902   6.158   1.919
 1116TIP3    H1 3312   0.883   6.066   1.901
 1116TIP3    H2 3313   0.911   6.198   1.832
 1117TIP3   OH2 3314   0.602   6.479   0.091
 1117TIP3    H1 3315   0.604   6.565   0.133
 1117TIP3    H2 3316   0.648   6.492   0.008
 1118TIP3   OH2 3317   1.741   5.451   3.380
 1118TIP3    H1 3318   1.791   5.467   3.460
 1118TIP3    H2 3319   1.650   5.441   3.410
 1119TIP3   OH2 3320   3.970   3.152   1.725
 1119TIP3    H1 3321   3.948   3.227   1.669
 1119TIP3    H2 3322   3.963   3.185   1.814
 1120TIP3   OH2 3323   6.080   1.572   4.826
 1120TIP3    H1 3324   6.155   1.513   4.826
 1120TIP3    H2 3325   6.021   1.536   4.759
 1121TIP3   OH2 3326   6.379   3.319   5.599
 1121TIP3    H1 3327   6.472   3.309   5.579
 1121TIP3    H2 3328   6.334   3.299   5.517
 1122TIP3   OH2 3329   1.098   3.675   4.564
 1122TIP3    H1 3330   1.057   3.657   4.648
 1122TIP3    H2 3331   1.099   3.591   4.519
 1123TIP3   OH2 3332   3.944   6.253   4.450
 1123TIP3    H1 3333   3.992   6.170   4.458
 1123TIP3    H2 3334   3.852   6.228   4.457
 1124TIP3   OH2 3335   5.360   2.228   5.681
 1124TIP3    H1 3336   5.426   2.160   5.696
 1124TIP3    H2 3337   5.313   2.199   5.604
 1125TIP3   OH2 3338   1.363   6.228   1.486
 1125TIP3    H1 3339   1.311   6.269   1.417
 1125TIP3    H2 3340   1.445   6.205   1.443
 1126TIP3   OH2 3341   2.366   6.532   4.173
 1126TIP3    H1 3342   2.402   6.444   4.162
 1126TIP3    H2 3343   2.378   6.573   4.087
 1127TIP3   OH2 3344   0.916   1.211   0.205
 1127TIP3    H1 3345   0.828   1.210   0.166
 1127TIP3    H2 3346   0.960   1.285   0.163
 1128TIP3   OH2 3347   6.724   0.181   0.040
 1128TIP3    H1 3348   6.729   0.272   0.069
 1128TIP3    H2 3349   6.787   0.176  -0.032
 1129TIP3   OH2 3350   6.707   5.590   0.303
 1129TIP3    H1 3351   6.678   5.629   0.221
 1129TIP3    H2 3352   6.664   5.641   0.371
 1130TIP3   OH2 3353   7.041   3.931   5.680
 1130TIP3    H1 3354   6.968   3.979   5.642
 1130TIP3    H2 3355   7.017   3.839   5.669
 1131TIP3   OH2 3356   4.244   1.662   4.341
 1131TIP3    H1 3357   4.249   1.627   4.431
 1131TIP3    H2 3358   4.293   1.599   4.288
 1132TIP3   OH2 3359   6.638   4.220   2.625
 1132TIP3    H1 3360   6.587   4.144   2.652
 1132TIP3    H2 3361   6.689   4.244   2.703
 1133TIP3   OH2 3362   1.085   0.704   5.293
 1133TIP3    H1 3363   1.136   0.745   5.223
 1133TIP3    H2 3364   1.030   0.640   5.249
 1134TIP3   OH2 3365   4.802   2.019   2.453
 1134TIP3    H1 3366   4.840   2.078   2.388
 1134TIP3    H2 3367   4.743   1.963   2.404
 1135TIP3   OH2 3368   5.559   5.863   2.337
 1135TIP3    H1 3369   5.621   5.935   2.351
 1135TIP3    H2 3370   5.475   5.907   2.324
 1136TIP3   OH2 3371   6.553   2.884   2.065
 1136TIP3    H1 3372   6.591   2.797   2.080
 1136TIP3    H2 3373   6.511   2.906   2.148
 1137TIP3   OH2 3374   3.311   2.501   5.442
 1137TIP3    H1 3375   3.323   2.495   5.348
 1137TIP3    H2 3376   3.384   2.452   5.479
 1138TIP3   OH2 3377   1.868   3.483   1.133
 1138TIP3    H1 3378   1.943   3.542   1.132
 1138TIP3    H2 3379   1.903   3.399   1.105
 1139TIP3   OH2 3380   0.550   3.959   1.022
 1139TIP3    H1 3381   0.492   3.886   1.001
 1139TIP3    H2 3382   0.616   3.921   1.080
 1140TIP3   OH2 3383   6.697   2.180   4.984
 1140TIP3    H1 3384   6.732   2.114   5.043
 1140TIP3    H2 3385   6.629   2.224   5.034
 1141TIP3   OH2 3386   5.949   5.117   3.526
 1141TIP3    H1 3387   5.873   5.085   3.477
 1141TIP3    H2 3388   5.920   5.117   3.617
 1142TIP3   OH2 3389   2.656   6.514   4.702
 1142TIP3    H1 3390   2.692   6.501   4.615
 1142TIP3    H2 3391   2.563   6.495   4.693
 1143TIP3   OH2 3392   1.281   3.669   3.605
 1143TIP3    H1 3393   1.262   3.712   3.521
 1143TIP3    H2 3394   1.279   3.575   3.584
 1144TIP3   OH2 3395   5.171   2.448   3.888
 1144TIP3    H1 3396   5.223   2.402   3.822
 1144TIP3    H2 3397   5.083   2.450   3.852
 1145TIP3   OH2 3398   6.376   0.665   5.392
 1145TIP3    H1 3399   6.456   0.682   5.443
 1145TIP3    H2 3400   6.349   0.577   5.420
 1146TIP3   OH2 3401   0.743   6.013   3.426
 1146TIP3    H1 3402   0.773   6.028   3.336
 1146TIP3    H2 3403   0.800   5.943   3.458
 1147TIP3   OH2 3404   5.411   1.508   1.754
 1147TIP3    H1 3405   5.365   1.588   1.777
 1147TIP3    H2 3406   5.503   1.528   1.771
 1148TIP3   OH2 3407   3.043   5.684   5.313
 1148TIP3    H1 3408   3.017   5.592   5.326
 1148TIP3    H2 3409   2.961   5.730   5.294
 1149TIP3   OH2 3410   5.260   1.411   1.238
 1149TIP3    H1 3411   5.183   1.381   1.286
 1149TIP3    H2 3412   5.285   1.493   1.281
 1150TIP3   OH2 3413   5.398   1.168   3.768
 1150TIP3    H1 3414   5.486   1.204   3.755
 1150TIP3    H2 3415   5.358   1.171   3.680
 1151TIP3   OH2 3416   3.103   3.313   0.518
 1151TIP3    H1 3417   3.112   3.387   0.578
 1151TIP3    H2 3418   3.159   3.245   0.556
 1152TIP3   OH2 3419   2.568   6.152   5.200
 1152TIP3    H1 3420   2.565   6.208   5.277
 1152TIP3    H2 3421   2.551   6.211   5.127
 1153TIP3   OH2 3422   5.420   4.919   4.664
 1153TIP3    H1 3423   5.413   4.855   4.734
 1153TIP3    H2 3424   5.342   4.904   4.609
 1154TIP3   OH2 3425   1.863   3.057   4.964
 1154TIP3    H1 3426   1.941   3.055   5.019
 1154TIP3    H2 3427   1.809   2.985   4.997
 1155TIP3   OH2 3428   3.334   4.285   5.915
 1155TIP3    H1 3429   3.274   4.250   5.850
 1155TIP3    H2 3430   3.360   4.370   5.880
 1156TIP3   OH2 3431   0.518   5.999   2.487
 1156TIP3    H1 3432   0.467   5.962   2.559
 1156TIP3    H2 3433   0.453   6.023   2.422
 1157TIP3   OH2 3434   6.276   6.495   0.832
 1157TIP3    H1 3435   6.257   6.506   0.925
 1157TIP3    H2 3436   6.312   6.407   0.824
 1158TIP3   OH2 3437   1.953   1.654   1.836
 1158TIP3    H1 3438   2.036   1.683   1.874
 1158TIP3    H2 3439   1.934   1.572   1.881
 1159TIP3   OH2 3440   0.276   5.707   5.024
 1159TIP3    H1 3441   0.338   5.650   5.070
 1159TIP3    H2 3442   0.324   5.739   4.948
 1160TIP3   OH2 3443   3.051   6.755   4.799
 1160TIP3    H1 3444   3.056   6.671   4.845
 1160TIP3    H2 3445   2.958   6.769   4.783
 1161TIP3   OH2 3446   0.727   5.654   2.661
 1161TIP3    H1 3447   0.802   5.628   2.607
 1161TIP3    H2 3448   0.766   5.683   2.744
 1162TIP3   OH2 3449   0.232   1.878   1.452
 1162TIP3    H1 3450   0.158   1.892   1.511
 1162TIP3    H2 3451   0.284   1.958   1.460
 1163TIP3   OH2 3452   2.201   4.820   1.929
 1163TIP3    H1 3453   2.289   4.839   1.897
 1163TIP3    H2 3454   2.144   4.873   1.874
 1164TIP3   OH2 3455   4.558   6.433   0.944
 1164TIP3    H1 3456   4.651   6.455   0.946
 1164TIP3    H2 3457   4.513   6.517   0.950
 1165TIP3   OH2 3458   0.661   2.637   0.266
 1165TIP3    H1 3459   0.711   2.641   0.185
 1165TIP3    H2 3460   0.696   2.560   0.312
 1166TIP3   OH2 3461   5.090   6.455   1.170
 1166TIP3    H1 3462   5.123   6.420   1.252
 1166TIP3    H2 3463   5.073   6.548   1.188
 1167TIP3   OH2 3464   5.441   3.201   3.702
 1167TIP3    H1 3465   5.474   3.203   3.613
 1167TIP3    H2 3466   5.466   3.286   3.739
 1168TIP3   OH2 3467   0.074   2.398   5.574
 1168TIP3    H1 3468   0.006   2.375   5.638
 1168TIP3    H2 3469   0.067   2.329   5.508
 1169TIP3   OH2 3470   5.866   2.997   5.410
 1169TIP3    H1 3471   5.825   3.075   5.374
 1169TIP3    H2 3472   5.802   2.927   5.396
 1170TIP3   OH2 3473   2.765   5.774   2.803
 1170TIP3    H1 3474   2.759   5.868   2.788
 1170TIP3    H2 3475   2.808   5.767   2.888
 1171TIP3   OH2 3476   0.630   2.931   2.852
 1171TIP3    H1 3477   0.689   2.877   2.800
 1171TIP3    H2 3478   0.686   2.998   2.890
 1172TIP3   OH2 3479   4.758   0.187   3.640
 1172TIP3    H1 3480   4.787   0.097   3.628
 1172TIP3    H2 3481   4.681   0.180   3.697
 1173TIP3   OH2 3482   4.646   4.816   4.755
 1173TIP3    H1 3483   4.677   4.749   4.695
 1173TIP3    H2 3484   4.551   4.803   4.761
 1174TIP3   OH2 3485   4.000   0.104   2.082
 1174TIP3    H1 3486   3.918   0.153   2.079
 1174TIP3    H2 3487   4.011   0.067   1.995
 1175TIP3   OH2 3488   1.146   1.504   4.344
 1175TIP3    H1 3489   1.202   1.448   4.290
 1175TIP3    H2 3490   1.060   1.461   4.343
 1176TIP3   OH2 3491   4.339   1.345   0.693
 1176TIP3    H1 3492   4.384   1.421   0.729
 1176TIP3    H2 3493   4.247   1.371   0.692
 1177TIP3   OH2 3494   5.156   1.157   5.853
 1177TIP3    H1 3495   5.135   1.154   5.946
 1177TIP3    H2 3496   5.085   1.209   5.814
 1178TIP3   OH2 3497   3.060   4.259   0.196
 1178TIP3    H1 3498   3.075   4.255   0.102
 1178TIP3    H2 3499   3.147   4.252   0.235
 1179TIP3   OH2 3500   1.894   2.252   4.153
 1179TIP3    H1 3501   1.876   2.322   4.215
 1179TIP3    H2 3502   1.857   2.174   4.194
 1180TIP3   OH2 3503   1.023   5.905   0.994
 1180TIP3    H1 3504   0.952   5.952   1.037
 1180TIP3    H2 3505   1.092   5.971   0.984
 1181TIP3   OH2 3506   4.560   4.197   3.292
 1181TIP3    H1 3507   4.478   4.178   3.248
 1181TIP3    H2 3508   4.541   4.185   3.385
 1182TIP3   OH2 3509   5.125   5.596   1.528
 1182TIP3    H1 3510   5.202   5.613   1.473
 1182TIP3    H2 3511   5.162   5.567   1.612
 1183TIP3   OH2 3512   0.951   4.022   3.296
 1183TIP3    H1 3513   1.046   4.017   3.283
 1183TIP3    H2 3514   0.927   4.107   3.261
 1184TIP3   OH2 3515   7.188   2.447   4.394
 1184TIP3    H1 3516   7.216   2.508   4.326
 1184TIP3    H2 3517   7.222   2.362   4.366
 1185TIP3   OH2 3518   3.220   0.714   0.767
 1185TIP3    H1 3519   3.276   0.783   0.802
 1185TIP3    H2 3520   3.195   0.744   0.680
 1186TIP3   OH2 3521   0.657   6.356   0.933
 1186TIP3    H1 3522   0.729   6.294   0.927
 1186TIP3    H2 3523   0.645   6.389   0.843
 1187TIP3   OH2 3524   4.263   0.120   0.215
 1187TIP3    H1 3525   4.340   0.067   0.235
 1187TIP3    H2 3526   4.295   0.186   0.153
 1188TIP3   OH2 3527   3.276   0.680   1.105
 1188TIP3    H1 3528   3.353   0.724   1.142
 1188TIP3    H2 3529   3.223   0.750   1.068
 1189TIP3   OH2 3530   6.725   6.598   1.356
 1189TIP3    H1 3531   6.696   6.507   1.364
 1189TIP3    H2 3532   6.767   6.617   1.440
 1190TIP3   OH2 3533   5.544   6.480   5.211
 1190TIP3    H1 3534   5.498   6.538   5.152
 1190TIP3    H2 3535   5.636   6.488   5.186
 1191TIP3   OH2 3536   6.423   2.210   1.718
 1191TIP3    H1 3537   6.328   2.215   1.729
 1191TIP3    H2 3538   6.439   2.118   1.696
 1192TIP3   OH2 3539   1.013   4.824   0.230
 1192TIP3    H1 3540   1.063   4.751   0.266
 1192TIP3    H2 3541   1.069   4.861   0.162
 1193TIP3   OH2 3542   5.069   6.026   0.208
 1193TIP3    H1 3543   5.141   5.982   0.163
 1193TIP3    H2 3544   5.101   6.115   0.222
 1194TIP3   OH2 3545   5.675   0.629   1.192
 1194TIP3    H1 3546   5.631   0.701   1.148
 1194TIP3    H2 3547   5.638   0.628   1.280
 1195TIP3   OH2 3548   6.324   2.203   1.434
 1195TIP3    H1 3549   6.266   2.147   1.485
 1195TIP3    H2 3550   6.391   2.143   1.401
 1196TIP3   OH2 3551   6.491   4.572   2.283
 1196TIP3    H1 3552   6.551   4.510   2.326
 1196TIP3    H2 3553   6.433   4.601   2.353
 1197TIP3   OH2 3554   3.463   2.599   1.939
 1197TIP3    H1 3555   3.382   2.576   1.893
 1197TIP3    H2 3556   3.497   2.515   1.970
 1198TIP3   OH2 3557   2.796   4.689   5.582
 1198TIP3    H1 3558   2.753   4.622   5.636
 1198TIP3    H2 3559   2.732   4.761   5.578
 1199TIP3   OH2 3560   4.846   3.100   0.561
 1199TIP3    H1 3561   4.920   3.162   0.564
 1199TIP3    H2 3562   4.779   3.140   0.616
 1200TIP3   OH2 3563   0.300   6.687   0.763
 1200TIP3    H1 3564   0.213   6.676   0.803
 1200TIP3    H2 3565   0.326   6.776   0.788
 1201TIP3   OH2 3566   6.578   0.454   1.808
 1201TIP3    H1 3567   6.632   0.475   1.884
 1201TIP3    H2 3568   6.570   0.359   1.810
 1202TIP3   OH2 3569   1.125   4.645   4.557
 1202TIP3    H1 3570   1.084   4.597   4.629
 1202TIP3    H2 3571   1.168   4.719   4.600
 1203TIP3   OH2 3572   1.747   6.562   0.044
 1203TIP3    H1 3573   1.788   6.610  -0.028
 1203TIP3    H2 3574   1.682   6.622   0.079
 1204TIP3   OH2 3575   6.916   2.420   2.412
 1204TIP3    H1 3576   7.012   2.425   2.405
 1204TIP3    H2 3577   6.889   2.512   2.422
 1205TIP3   OH2 3578   2.962   1.572   1.337
 1205TIP3    H1 3579   2.875   1.612   1.342
 1205TIP3    H2 3580   2.945   1.481   1.314
 1206TIP3   OH2 3581   3.287   4.867   3.638
 1206TIP3    H1 3582   3.300   4.795   3.577
 1206TIP3    H2 3583   3.300   4.946   3.585
 1207TIP3   OH2 3584   2.619   1.831   3.905
 1207TIP3    H1 3585   2.540   1.850   3.956
 1207TIP3    H2 3586   2.628   1.907   3.847
 1208TIP3   OH2 3587   5.608   1.830   2.228
 1208TIP3    H1 3588   5.557   1.821   2.309
 1208TIP3    H2 3589   5.660   1.909   2.241
 1209TIP3   OH2 3590   6.532   2.507   0.052
 1209TIP3    H1 3591   6.528   2.504   0.147
 1209TIP3    H2 3592   6.567   2.422   0.026
 1210TIP3   OH2 3593   3.874   4.888   2.861
 1210TIP3    H1 3594   3.805   4.854   2.803
 1210TIP3    H2 3595   3.841   4.872   2.949
 1211TIP3   OH2 3596   7.171   4.212   1.748
 1211TIP3    H1 3597   7.132   4.230   1.833
 1211TIP3    H2 3598   7.177   4.117   1.744
 1212TIP3   OH2 3599   6.873   0.198   3.656
 1212TIP3    H1 3600   6.779   0.190   3.639
 1212TIP3    H2 3601   6.914   0.174   3.572
 1213TIP3   OH2 3602   5.059   6.470   2.102
 1213TIP3    H1 3603   5.081   6.477   2.195
 1213TIP3    H2 3604   5.082   6.556   2.067
 1214TIP3   OH2 3605   6.659   1.396   5.560
 1214TIP3    H1 3606   6.653   1.398   5.465
 1214TIP3    H2 3607   6.569   1.403   5.591
 1215TIP3   OH2 3608   4.496   5.145   1.661
 1215TIP3    H1 3609   4.471   5.076   1.723
 1215TIP3    H2 3610   4.489   5.103   1.575
 1216TIP3   OH2 3611   1.164   4.572   0.761
 1216TIP3    H1 3612   1.250   4.591   0.721
 1216TIP3    H2 3613   1.140   4.654   0.804
 1217TIP3   OH2 3614   1.638   0.553   3.389
 1217TIP3    H1 3615   1.647   0.637   3.344
 1217TIP3    H2 3616   1.724   0.537   3.428
 1218TIP3   OH2 3617   2.086   2.076   3.123
 1218TIP3    H1 3618   2.005   2.047   3.081
 1218TIP3    H2 3619   2.088   2.029   3.207
 1219TIP3   OH2 3620   6.343   3.984   5.833
 1219TIP3    H1 3621   6.368   3.894   5.854
 1219TIP3    H2 3622   6.344   4.030   5.917
 1220TIP3   OH2 3623   1.817   2.493   1.538
 1220TIP3    H1 3624   1.823   2.570   1.480
 1220TIP3    H2 3625   1.906   2.480   1.570
 1221TIP3   OH2 3626   6.031   1.284   2.793
 1221TIP3    H1 3627   6.013   1.201   2.837
 1221TIP3    H2 3628   6.124   1.300   2.810
 1222TIP3   OH2 3629   2.222   2.372   1.882
 1222TIP3    H1 3630   2.157   2.437   1.857
 1222TIP3    H2 3631   2.176   2.314   1.943
 1223TIP3   OH2 3632   5.330   4.121   4.974
 1223TIP3    H1 3633   5.296   4.042   5.015
 1223TIP3    H2 3634   5.370   4.091   4.892
 1224TIP3   OH2 3635   3.370   5.826   1.963
 1224TIP3    H1 3636   3.443   5.765   1.970
 1224TIP3    H2 3637   3.411   5.913   1.967
 1225TIP3   OH2 3638   5.247   3.940   0.474
 1225TIP3    H1 3639   5.239   3.891   0.393
 1225TIP3    H2 3640   5.187   4.014   0.464
 1226TIP3   OH2 3641   4.916   3.511   2.200
 1226TIP3    H1 3642   4.871   3.520   2.116
 1226TIP3    H2 3643   4.856   3.549   2.264
 1227TIP3   OH2 3644   0.214   0.322   0.847
 1227TIP3    H1 3645   0.307   0.346   0.844
 1227TIP3    H2 3646   0.170   0.393   0.800
 1228TIP3   OH2 3647   6.954   0.810   5.106
 1228TIP3    H1 3648   7.007   0.744   5.152
 1228TIP3    H2 3649   6.925   0.870   5.176
 1229TIP3   OH2 3650   3.418   0.613   0.596
 1229TIP3    H1 3651   3.397   0.641   0.686
 1229TIP3    H2 3652   3.493   0.667   0.571
 1230TIP3   OH2 3653   1.441   1.243   5.161
 1230TIP3    H1 3654   1.395   1.190   5.095
 1230TIP3    H2 3655   1.534   1.223   5.147
 1231TIP3   OH2 3656   6.072   1.795   4.225
 1231TIP3    H1 3657   6.003   1.777   4.289
 1231TIP3    H2 3658   6.116   1.873   4.259
 1232TIP3   OH2 3659   4.873   1.154   1.865
 1232TIP3    H1 3660   4.823   1.075   1.880
 1232TIP3    H2 3661   4.817   1.225   1.897
 1233TIP3   OH2 3662   1.608   5.711   4.574
 1233TIP3    H1 3663   1.606   5.693   4.668
 1233TIP3    H2 3664   1.645   5.799   4.568
 1234TIP3   OH2 3665   7.162   0.205   3.936
 1234TIP3    H1 3666   7.119   0.274   3.986
 1234TIP3    H2 3667   7.151   0.230   3.844
 1235TIP3   OH2 3668   2.041   0.917   2.721
 1235TIP3    H1 3669   2.077   0.829   2.729
 1235TIP3    H2 3670   1.987   0.929   2.800
 1236TIP3   OH2 3671   6.764   0.340   5.551
 1236TIP3    H1 3672   6.766   0.435   5.567
 1236TIP3    H2 3673   6.687   0.327   5.496
 1237TIP3   OH2 3674   1.540   0.389   3.107
 1237TIP3    H1 3675   1.522   0.295   3.105
 1237TIP3    H2 3676   1.530   0.415   3.198
 1238TIP3   OH2 3677   0.886   1.706   5.035
 1238TIP3    H1 3678   0.901   1.623   5.080
 1238TIP3    H2 3679   0.910   1.773   5.099
 1239TIP3   OH2 3680   5.510   3.743   2.015
 1239TIP3    H1 3681   5.555   3.689   2.080
 1239TIP3    H2 3682   5.432   3.693   1.991
 1240TIP3   OH2 3683   5.375   5.212   0.651
 1240TIP3    H1 3684   5.292   5.217   0.603
 1240TIP3    H2 3685   5.409   5.302   0.648
 1241TIP3   OH2 3686   6.429   3.083   1.410
 1241TIP3    H1 3687   6.359   3.025   1.440
 1241TIP3    H2 3688   6.509   3.033   1.422
 1242TIP3   OH2 3689   0.596   4.525   2.507
 1242TIP3    H1 3690   0.678   4.490   2.542
 1242TIP3    H2 3691   0.620   4.610   2.469
 1243TIP3   OH2 3692   2.644   1.097   2.268
 1243TIP3    H1 3693   2.648   1.180   2.315
 1243TIP3    H2 3694   2.701   1.110   2.192
 1244TIP3   OH2 3695   6.573   0.925   1.168
 1244TIP3    H1 3696   6.590   0.954   1.078
 1244TIP3    H2 3697   6.645   0.961   1.219
 1245TIP3   OH2 3698   6.220   6.222   4.772
 1245TIP3    H1 3699   6.302   6.190   4.736
 1245TIP3    H2 3700   6.171   6.254   4.695
 1246TIP3   OH2 3701   2.958   4.398   2.902
 1246TIP3    H1 3702   2.960   4.363   2.813
 1246TIP3    H2 3703   3.044   4.377   2.938
 1247TIP3   OH2 3704   4.508   5.058   1.393
 1247TIP3    H1 3705   4.595   5.021   1.409
 1247TIP3    H2 3706   4.523   5.126   1.327
 1248TIP3   OH2 3707   2.437   0.712   5.322
 1248TIP3    H1 3708   2.441   0.807   5.328
 1248TIP3    H2 3709   2.368   0.695   5.258
 1249TIP3   OH2 3710   5.710   1.656   1.571
 1249TIP3    H1 3711   5.617   1.666   1.551
 1249TIP3    H2 3712   5.712   1.638   1.665
 1250TIP3   OH2 3713   2.330   0.920   1.670
 1250TIP3    H1 3714   2.368   0.882   1.749
 1250TIP3    H2 3715   2.235   0.912   1.682
 1251TIP3   OH2 3716   4.583   1.626   0.608
 1251TIP3    H1 3717   4.560   1.605   0.699
 1251TIP3    H2 3718   4.572   1.543   0.561
 1252TIP3   OH2 3719   3.303   0.814   5.637
 1252TIP3    H1 3720   3.248   0.893   5.641
 1252TIP3    H2 3721   3.384   0.838   5.682
 1253TIP3   OH2 3722   4.162   0.516   5.731
 1253TIP3    H1 3723   4.106   0.592   5.748
 1253TIP3    H2 3724   4.238   0.552   5.686
 1254TIP3   OH2 3725   3.300   4.485   2.593
 1254TIP3    H1 3726   3.386   4.491   2.635
 1254TIP3    H2 3727   3.314   4.521   2.505
 1255TIP3   OH2 3728   6.787   3.865   0.333
 1255TIP3    H1 3729   6.857   3.868   0.399
 1255TIP3    H2 3730   6.718   3.813   0.374
 1256TIP3   OH2 3731   2.235   4.916   1.172
 1256TIP3    H1 3732   2.302   4.850   1.154
 1256TIP3    H2 3733   2.152   4.871   1.155
 1257TIP3   OH2 3734   6.615   2.644   5.714
 1257TIP3    H1 3735   6.620   2.550   5.734
 1257TIP3    H2 3736   6.630   2.649   5.620
 1258TIP3   OH2 3737   4.873   5.570   4.287
 1258TIP3    H1 3738   4.797   5.528   4.326
 1258TIP3    H2 3739   4.948   5.522   4.322
 1259TIP3   OH2 3740   6.599   4.039   3.953
 1259TIP3    H1 3741   6.584   4.124   3.911
 1259TIP3    H2 3742   6.692   4.022   3.940
 1260TIP3   OH2 3743   2.705   0.397   1.745
 1260TIP3    H1 3744   2.769   0.372   1.678
 1260TIP3    H2 3745   2.726   0.340   1.819
 1261TIP3   OH2 3746   5.684   0.911   0.713
 1261TIP3    H1 3747   5.672   0.824   0.752
 1261TIP3    H2 3748   5.653   0.901   0.623
 1262TIP3   OH2 3749   2.783   1.292   2.072
 1262TIP3    H1 3750   2.758   1.378   2.107
 1262TIP3    H2 3751   2.867   1.307   2.030
 1263TIP3   OH2 3752   3.909   5.526   1.031
 1263TIP3    H1 3753   3.935   5.525   1.123
 1263TIP3    H2 3754   3.965   5.460   0.990
 1264TIP3   OH2 3755   1.215   2.538   0.399
 1264TIP3    H1 3756   1.213   2.445   0.377
 1264TIP3    H2 3757   1.137   2.552   0.452
 1265TIP3   OH2 3758   0.650   3.341   3.063
 1265TIP3    H1 3759   0.673   3.256   3.026
 1265TIP3    H2 3760   0.561   3.328   3.098
 1266TIP3   OH2 3761   4.744   2.145   5.724
 1266TIP3    H1 3762   4.772   2.237   5.717
 1266TIP3    H2 3763   4.826   2.095   5.717
 1267TIP3   OH2 3764   6.456   6.211   1.386
 1267TIP3    H1 3765   6.434   6.285   1.328
 1267TIP3    H2 3766   6.525   6.164   1.339
 1268TIP3   OH2 3767   0.475   3.094   3.608
 1268TIP3    H1 3768   0.481   3.179   3.652
 1268TIP3    H2 3769   0.562   3.081   3.569
 1269TIP3   OH2 3770   2.682   2.144   5.520
 1269TIP3    H1 3771   2.688   2.220   5.578
 1269TIP3    H2 3772   2.656   2.180   5.435
 1270TIP3   OH2 3773   2.134   4.753   5.729
 1270TIP3    H1 3774   2.084   4.723   5.806
 1270TIP3    H2 3775   2.222   4.771   5.763
 1271TIP3   OH2 3776   3.573   3.585   1.103
 1271TIP3    H1 3777   3.550   3.634   1.024
 1271TIP3    H2 3778   3.621   3.508   1.070
 1272TIP3   OH2 3779   1.079   1.111   4.652
 1272TIP3    H1 3780   1.088   1.201   4.621
 1272TIP3    H2 3781   1.153   1.065   4.612
 1273TIP3   OH2 3782   1.914   4.194   5.679
 1273TIP3    H1 3783   1.999   4.216   5.716
 1273TIP3    H2 3784   1.924   4.205   5.585
 1274TIP3   OH2 3785   6.426   0.824   3.861
 1274TIP3    H1 3786   6.354   0.881   3.836
 1274TIP3    H2 3787   6.412   0.808   3.955
 1275TIP3   OH2 3788   3.484   1.490   5.185
 1275TIP3    H1 3789   3.505   1.480   5.092
 1275TIP3    H2 3790   3.506   1.405   5.223
 1276TIP3   OH2 3791   4.627   0.661   2.605
 1276TIP3    H1 3792   4.654   0.751   2.625
 1276TIP3    H2 3793   4.590   0.628   2.686
 1277TIP3   OH2 3794   5.645   4.645   1.583
 1277TIP3    H1 3795   5.558   4.656   1.620
 1277TIP3    H2 3796   5.638   4.682   1.495
 1278TIP3   OH2 3797   1.634   4.917   4.148
 1278TIP3    H1 3798   1.698   4.933   4.078
 1278TIP3    H2 3799   1.656   4.830   4.182
 1279TIP3   OH2 3800   0.579   1.106   3.740
 1279TIP3    H1 3801   0.614   1.030   3.695
 1279TIP3    H2 3802   0.529   1.153   3.673
 1280TIP3   OH2 3803   1.951   0.102   4.176
 1280TIP3    H1 3804   1.886   0.125   4.110
 1280TIP3    H2 3805   2.030   0.083   4.126
 1281TIP3   OH2 3806   1.922   5.752   3.309
 1281TIP3    H1 3807   1.984   5.772   3.379
 1281TIP3    H2 3808   1.847   5.809   3.327
 1282TIP3   OH2 3809   3.136   2.907   5.374
 1282TIP3    H1 3810   3.203   2.889   5.440
 1282TIP3    H2 3811   3.185   2.937   5.298
 1283TIP3   OH2 3812   5.557   4.666   0.146
 1283TIP3    H1 3813   5.523   4.641   0.232
 1283TIP3    H2 3814   5.636   4.614   0.134
 1284TIP3   OH2 3815   2.117   4.349   2.590
 1284TIP3    H1 3816   2.097   4.354   2.497
 1284TIP3    H2 3817   2.210   4.371   2.596
 1285TIP3   OH2 3818   5.358   2.800   2.228
 1285TIP3    H1 3819   5.283   2.741   2.225
 1285TIP3    H2 3820   5.428   2.749   2.267
 1286TIP3   OH2 3821   2.640   5.435   4.274
 1286TIP3    H1 3822   2.728   5.469   4.259
 1286TIP3    H2 3823   2.649   5.340   4.265
 1287TIP3   OH2 3824   4.550   1.051   4.372
 1287TIP3    H1 3825   4.467   1.005   4.367
 1287TIP3    H2 3826   4.527   1.142   4.390
 1288TIP3   OH2 3827   6.537   2.615   3.230
 1288TIP3    H1 3828   6.528   2.593   3.322
 1288TIP3    H2 3829   6.557   2.532   3.187
 1289TIP3   OH2 3830   1.467   1.336   1.964
 1289TIP3    H1 3831   1.404   1.399   2.000
 1289TIP3    H2 3832   1.518   1.306   2.039
 1290TIP3   OH2 3833   3.849   1.575   4.214
 1290TIP3    H1 3834   3.845   1.492   4.167
 1290TIP3    H2 3835   3.758   1.596   4.234
 1291TIP3   OH2 3836   7.045   3.262   5.917
 1291TIP3    H1 3837   7.030   3.168   5.906
 1291TIP3    H2 3838   7.014   3.300   5.835
 1292TIP3   OH2 3839   1.662   1.988   3.505
 1292TIP3    H1 3840   1.704   1.931   3.440
 1292TIP3    H2 3841   1.691   2.076   3.483
 1293TIP3   OH2 3842   1.312   5.785   0.943
 1293TIP3    H1 3843   1.294   5.727   1.017
 1293TIP3    H2 3844   1.238   5.774   0.885
 1294TIP3   OH2 3845   4.135   5.473   3.890
 1294TIP3    H1 3846   4.163   5.383   3.876
 1294TIP3    H2 3847   4.172   5.521   3.815
 1295TIP3   OH2 3848   6.887   5.557   4.035
 1295TIP3    H1 3849   6.888   5.462   4.043
 1295TIP3    H2 3850   6.980   5.582   4.040
 1296TIP3   OH2 3851   6.657   6.049   1.239
 1296TIP3    H1 3852   6.737   6.025   1.286
 1296TIP3    H2 3853   6.624   5.966   1.205
 1297TIP3   OH2 3854   4.653   6.443   0.509
 1297TIP3    H1 3855   4.586   6.499   0.548
 1297TIP3    H2 3856   4.715   6.504   0.469
 1298TIP3   OH2 3857   6.756   5.261   4.416
 1298TIP3    H1 3858   6.757   5.251   4.512
 1298TIP3    H2 3859   6.665   5.279   4.394
 1299TIP3   OH2 3860   4.781   5.953   5.064
 1299TIP3    H1 3861   4.811   5.876   5.113
 1299TIP3    H2 3862   4.701   5.980   5.109
 1300TIP3   OH2 3863   2.145   6.831   1.110
 1300TIP3    H1 3864   2.099   6.776   1.174
 1300TIP3    H2 3865   2.212   6.773   1.073
 1301TIP3   OH2 3866   1.702   4.778   5.410
 1301TIP3    H1 3867   1.637   4.732   5.356
 1301TIP3    H2 3868   1.731   4.851   5.355
 1302TIP3   OH2 3869   1.664   1.741   1.785
 1302TIP3    H1 3870   1.663   1.685   1.708
 1302TIP3    H2 3871   1.755   1.741   1.813
 1303TIP3   OH2 3872   6.008   2.156   2.246
 1303TIP3    H1 3873   6.090   2.152   2.295
 1303TIP3    H2 3874   5.948   2.100   2.294
 1304TIP3   OH2 3875   6.628   5.168   0.014
 1304TIP3    H1 3876   6.662   5.257   0.015
 1304TIP3    H2 3877   6.570   5.166  -0.063
 1305TIP3   OH2 3878   1.129   3.290   4.950
 1305TIP3    H1 3879   1.088   3.368   4.913
 1305TIP3    H2 3880   1.181   3.254   4.878
 1306TIP3   OH2 3881   1.449   5.098   4.733
 1306TIP3    H1 3882   1.370   5.066   4.777
 1306TIP3    H2 3883   1.419   5.122   4.646
 1307TIP3   OH2 3884   2.301   6.284   3.772
 1307TIP3    H1 3885   2.241   6.212   3.793
 1307TIP3    H2 3886   2.385   6.256   3.807
 1308TIP3   OH2 3887   4.694   1.781   1.347
 1308TIP3    H1 3888   4.691   1.865   1.302
 1308TIP3    H2 3889   4.787   1.762   1.358
 1309TIP3   OH2 3890   3.009   6.002   0.785
 1309TIP3    H1 3891   3.028   6.064   0.856
 1309TIP3    H2 3892   3.075   6.021   0.719
 1310TIP3   OH2 3893   6.865   5.501   2.072
 1310TIP3    H1 3894   6.847   5.544   2.156
 1310TIP3    H2 3895   6.944   5.449   2.089
 1311TIP3   OH2 3896   5.475   4.403   0.019
 1311TIP3    H1 3897   5.533   4.335   0.054
 1311TIP3    H2 3898   5.441   4.448   0.096
 1312TIP3   OH2 3899   1.578   6.305   5.779
 1312TIP3    H1 3900   1.618   6.342   5.858
 1312TIP3    H2 3901   1.547   6.381   5.730
 1313TIP3   OH2 3902   2.728   1.463   5.292
 1313TIP3    H1 3903   2.798   1.481   5.355
 1313TIP3    H2 3904   2.694   1.549   5.269
 1314TIP3   OH2 3905   4.588   6.409   2.223
 1314TIP3    H1 3906   4.535   6.385   2.299
 1314TIP3    H2 3907   4.673   6.432   2.260
 1315TIP3   OH2 3908   6.323  -0.043   1.075
 1315TIP3    H1 3909   6.321  -0.070   1.167
 1315TIP3    H2 3910   6.403   0.009   1.067
 1316TIP3   OH2 3911   1.277   2.361   1.470
 1316TIP3    H1 3912   1.363   2.320   1.479
 1316TIP3    H2 3913   1.219   2.309   1.526
 1317TIP3   OH2 3914   3.541   6.053   1.732
 1317TIP3    H1 3915   3.608   6.100   1.683
 1317TIP3    H2 3916   3.588   6.011   1.804
 1318TIP3   OH2 3917   5.654   6.219   3.041
 1318TIP3    H1 3918   5.726   6.194   3.098
 1318TIP3    H2 3919   5.612   6.292   3.087
 1319TIP3   OH2 3920   5.191   2.846   0.370
 1319TIP3    H1 3921   5.154   2.764   0.402
 1319TIP3    H2 3922   5.266   2.862   0.427
 1320TIP3   OH2 3923   3.217   1.630   1.268
 1320TIP3    H1 3924   3.134   1.592   1.298
 1320TIP3    H2 3925   3.195   1.719   1.242
 1321TIP3   OH2 3926   5.123   1.349   3.672
 1321TIP3    H1 3927   5.135   1.285   3.602
 1321TIP3    H2 3928   5.041   1.393   3.651
 1322TIP3   OH2 3929   3.966   3.583   4.345
 1322TIP3    H1 3930   3.959   3.668   4.302
 1322TIP3    H2 3931   3.919   3.594   4.428
 1323TIP3   OH2 3932   4.426   4.626   2.588
 1323TIP3    H1 3933   4.487   4.570   2.635
 1323TIP3    H2 3934   4.474   4.707   2.571
 1324TIP3   OH2 3935   4.474   0.108   2.031
 1324TIP3    H1 3936   4.513   0.188   2.065
 1324TIP3    H2 3937   4.437   0.064   2.108
 1325TIP3   OH2 3938   6.059   1.503   0.235
 1325TIP3    H1 3939   6.018   1.497   0.321
 1325TIP3    H2 3940   6.130   1.439   0.238
 1326TIP3   OH2 3941   2.415   5.729   0.194
 1326TIP3    H1 3942   2.501   5.693   0.174
 1326TIP3    H2 3943   2.355   5.655   0.182
 1327TIP3   OH2 3944   1.375   0.906   4.327
 1327TIP3    H1 3945   1.292   0.890   4.371
 1327TIP3    H2 3946   1.365   0.867   4.241
 1328TIP3   OH2 3947   5.570   2.314   3.218
 1328TIP3    H1 3948   5.617   2.254   3.276
 1328TIP3    H2 3949   5.614   2.304   3.133
 1329TIP3   OH2 3950   0.269   1.727   5.076
 1329TIP3    H1 3951   0.324   1.775   5.138
 1329TIP3    H2 3952   0.277   1.775   4.994
 1330TIP3   OH2 3953   2.917   5.285   4.163
 1330TIP3    H1 3954   2.942   5.326   4.246
 1330TIP3    H2 3955   2.832   5.245   4.179
 1331TIP3   OH2 3956   0.260   3.173   1.100
 1331TIP3    H1 3957   0.321   3.130   1.159
 1331TIP3    H2 3958   0.312   3.196   1.023
 1332TIP3   OH2 3959   4.015   4.990   1.490
 1332TIP3    H1 3960   3.996   4.902   1.523
 1332TIP3    H2 3961   4.077   4.975   1.418
 1333TIP3   OH2 3962   6.298   2.393   5.329
 1333TIP3    H1 3963   6.237   2.350   5.388
 1333TIP3    H2 3964   6.308   2.481   5.364
 1334TIP3   OH2 3965   1.300   3.064   4.274
 1334TIP3    H1 3966   1.375   3.025   4.318
 1334TIP3    H2 3967   1.330   3.078   4.184
 1335TIP3   OH2 3968   2.831   0.784   0.024
 1335TIP3    H1 3969   2.874   0.729   0.089
 1335TIP3    H2 3970   2.744   0.744   0.013
 1336TIP3   OH2 3971   4.698   0.104   4.088
 1336TIP3    H1 3972   4.634   0.064   4.147
 1336TIP3    H2 3973   4.704   0.195   4.117
 1337TIP3   OH2 3974   1.327   4.533   3.536
 1337TIP3    H1 3975   1.386   4.545   3.462
 1337TIP3    H2 3976   1.316   4.438   3.543
 1338TIP3   OH2 3977   2.756   4.728   2.805
 1338TIP3    H1 3978   2.762   4.754   2.897
 1338TIP3    H2 3979   2.706   4.797   2.763
 1339TIP3   OH2 3980   2.348   5.212   3.759
 1339TIP3    H1 3981   2.371   5.271   3.688
 1339TIP3    H2 3982   2.275   5.254   3.803
 1340TIP3   OH2 3983   5.234   6.614   2.837
 1340TIP3    H1 3984   5.236   6.692   2.893
 1340TIP3    H2 3985   5.325   6.584   2.834
 1341TIP3   OH2 3986   6.247   1.234   0.827
 1341TIP3    H1 3987   6.204   1.192   0.753
 1341TIP3    H2 3988   6.229   1.176   0.901
 1342TIP3   OH2 3989   2.189   1.094   3.796
 1342TIP3    H1 3990   2.217   1.002   3.800
 1342TIP3    H2 3991   2.237   1.136   3.867
 1343TIP3   OH2 3992   3.152   6.617   0.120
 1343TIP3    H1 3993   3.179   6.697   0.076
 1343TIP3    H2 3994   3.232   6.564   0.126
 1344TIP3   OH2 3995   4.534   3.180   1.833
 1344TIP3    H1 3996   4.626   3.154   1.842
 1344TIP3    H2 3997   4.523   3.253   1.893
 1345TIP3   OH2 3998   0.794   4.543   3.902
 1345TIP3    H1 3999   0.820   4.618   3.956
 1345TIP3    H2 4000   0.776   4.581   3.816
 1346TIP3   OH2 4001   0.486   2.169   4.785
 1346TIP3    H1 4002   0.503   2.203   4.697
 1346TIP3    H2 4003   0.456   2.246   4.834
 1347TIP3   OH2 4004   1.100   1.052   0.326
 1347TIP3    H1 4005   1.040   1.124   0.308
 1347TIP3    H2 4006   1.044   0.977   0.344
 1348TIP3   OH2 4007   0.581   3.438   3.914
 1348TIP3    H1 4008   0.519   3.381   3.959
 1348TIP3    H2 4009   0.537   3.461   3.832
 1349TIP3   OH2 4010   3.397   0.601   1.606
 1349TIP3    H1 4011   3.308   0.626   1.579
 1349TIP3    H2 4012   3.439   0.684   1.629
 1350TIP3   OH2 4013   1.870   3.738   3.857
 1350TIP3    H1 4014   1.909   3.792   3.926
 1350TIP3    H2 4015   1.940   3.679   3.829
 1351TIP3   OH2 4016   6.647   1.066   0.230
 1351TIP3    H1 4017   6.551   1.068   0.228
 1351TIP3    H2 4018   6.668   1.035   0.318
 1352TIP3   OH2 4019   2.752   0.885   0.507
 1352TIP3    H1 4020   2.657   0.896   0.501
 1352TIP3    H2 4021   2.780   0.864   0.418
 1353TIP3   OH2 4022   0.408   6.015   0.585
 1353TIP3    H1 4023   0.433   6.097   0.543
 1353TIP3    H2 4024   0.443   6.021   0.673
 1354TIP3   OH2 4025   1.495   3.849   5.107
 1354TIP3    H1 4026   1.434   3.838   5.180
 1354TIP3    H2 4027   1.483   3.940   5.079
 1355TIP3   OH2 4028   4.668   1.312   3.143
 1355TIP3    H1 4029   4.698   1.245   3.205
 1355TIP3    H2 4030   4.586   1.277   3.109
 1356TIP3   OH2 4031   0.158   6.443   2.326
 1356TIP3    H1 4032   0.189   6.364   2.370
 1356TIP3    H2 4033   0.218   6.454   2.252
 1357TIP3   OH2 4034   6.232   2.149   5.204
 1357TIP3    H1 4035   6.218   2.242   5.222
 1357TIP3    H2 4036   6.181   2.104   5.271
 1358TIP3   OH2 4037   1.255   4.379   4.499
 1358TIP3    H1 4038   1.214   4.464   4.511
 1358TIP3    H2 4039   1.303   4.387   4.417
 1359TIP3   OH2 4040   3.056   0.675   2.855
 1359TIP3    H1 4041   2.971   0.632   2.865
 1359TIP3    H2 4042   3.118   0.615   2.897
 1360TIP3   OH2 4043   3.125   0.353   2.353
 1360TIP3    H1 4044   3.119   0.348   2.449
 1360TIP3    H2 4045   3.136   0.262   2.326
 1361TIP3   OH2 4046   3.309   2.070   2.245
 1361TIP3    H1 4047   3.401   2.050   2.262
 1361TIP3    H2 4048   3.308   2.101   2.154
 1362TIP3   OH2 4049   3.752   4.646   3.713
 1362TIP3    H1 4050   3.754   4.629   3.619
 1362TIP3    H2 4051   3.736   4.560   3.753
 1363TIP3   OH2 4052   5.847   6.611   4.708
 1363TIP3    H1 4053   5.865   6.519   4.726
 1363TIP3    H2 4054   5.859   6.621   4.614
 1364TIP3   OH2 4055   3.722   0.005   1.754
 1364TIP3    H1 4056   3.714   0.079   1.693
 1364TIP3    H2 4057   3.691   0.039   1.838
 1365TIP3   OH2 4058   1.435   0.999   0.972
 1365TIP3    H1 4059   1.493   1.023   1.044
 1365TIP3    H2 4060   1.361   0.956   1.014
 1366TIP3   OH2 4061   1.984   2.452   0.361
 1366TIP3    H1 4062   1.933   2.426   0.437
 1366TIP3    H2 4063   1.941   2.532   0.330
 1367TIP3   OH2 4064   6.586   0.026   0.904
 1367TIP3    H1 4065   6.554   0.117   0.898
 1367TIP3    H2 4066   6.609   0.015   0.996
 1368TIP3   OH2 4067   3.151   1.337   0.123
 1368TIP3    H1 4068   3.115   1.392   0.193
 1368TIP3    H2 4069   3.074   1.294   0.084
 1369TIP3   OH2 4070   3.303   5.253   1.006
 1369TIP3    H1 4071   3.240   5.183   0.987
 1369TIP3    H2 4072   3.345   5.226   1.088
 1370TIP3   OH2 4073   5.757   3.588   1.406
 1370TIP3    H1 4074   5.835   3.535   1.424
 1370TIP3    H2 4075   5.757   3.654   1.475
 1371TIP3   OH2 4076   5.435   3.224   1.025
 1371TIP3    H1 4077   5.430   3.312   0.987
 1371TIP3    H2 4078   5.451   3.167   0.950
 1372TIP3   OH2 4079   2.778   2.020   2.651
 1372TIP3    H1 4080   2.690   2.049   2.630
 1372TIP3    H2 4081   2.808   1.974   2.571
 1373TIP3   OH2 4082   0.613   0.556   4.366
 1373TIP3    H1 4083   0.701   0.577   4.334
 1373TIP3    H2 4084   0.624   0.545   4.460
 1374TIP3   OH2 4085   0.226   5.494   0.982
 1374TIP3    H1 4086   0.273   5.544   0.915
 1374TIP3    H2 4087   0.282   5.500   1.059
 1375TIP3   OH2 4088   0.215   3.934   4.043
 1375TIP3    H1 4089   0.152   3.999   4.013
 1375TIP3    H2 4090   0.298   3.959   4.001
 1376TIP3   OH2 4091   5.282   6.007   0.816
 1376TIP3    H1 4092   5.228   6.086   0.804
 1376TIP3    H2 4093   5.346   6.032   0.883
 1377TIP3   OH2 4094   3.478   6.008   3.474
 1377TIP3    H1 4095   3.444   6.044   3.392
 1377TIP3    H2 4096   3.457   6.074   3.540
 1378TIP3   OH2 4097   1.153   1.510   0.801
 1378TIP3    H1 4098   1.159   1.592   0.851
 1378TIP3    H2 4099   1.067   1.514   0.759
 1379TIP3   OH2 4100   4.319   1.585   5.430
 1379TIP3    H1 4101   4.366   1.645   5.372
 1379TIP3    H2 4102   4.369   1.504   5.427
 1380TIP3   OH2 4103   0.058   4.829   2.666
 1380TIP3    H1 4104  -0.032   4.851   2.641
 1380TIP3    H2 4105   0.105   4.912   2.660
 1381TIP3   OH2 4106   5.986   1.305   5.416
 1381TIP3    H1 4107   5.911   1.247   5.405
 1381TIP3    H2 4108   6.059   1.247   5.437
 1382TIP3   OH2 4109   5.819   2.041   3.669
 1382TIP3    H1 4110   5.876   2.107   3.629
 1382TIP3    H2 4111   5.849   1.958   3.633
 1383TIP3   OH2 4112   3.116   5.131   3.358
 1383TIP3    H1 4113   3.160   5.116   3.442
 1383TIP3    H2 4114   3.023   5.135   3.379
 1384TIP3   OH2 4115   1.291   1.263   0.365
 1384TIP3    H1 4116   1.356   1.333   0.359
 1384TIP3    H2 4117   1.220   1.300   0.418
 1385TIP3   OH2 4118   2.501   3.306   1.533
 1385TIP3    H1 4119   2.550   3.293   1.614
 1385TIP3    H2 4120   2.565   3.344   1.472
 1386TIP3   OH2 4121   5.810   6.051   5.852
 1386TIP3    H1 4122   5.905   6.046   5.862
 1386TIP3    H2 4123   5.775   6.022   5.936
 1387TIP3   OH2 4124   6.958   0.362   1.364
 1387TIP3    H1 4125   6.914   0.371   1.280
 1387TIP3    H2 4126   7.051   0.360   1.343
 1388TIP3   OH2 4127   0.939   6.563   1.623
 1388TIP3    H1 4128   0.942   6.624   1.549
 1388TIP3    H2 4129   0.956   6.617   1.700
 1389TIP3   OH2 4130   2.952   3.538   0.425
 1389TIP3    H1 4131   2.977   3.446   0.431
 1389TIP3    H2 4132   2.870   3.537   0.375
 1390TIP3   OH2 4133   3.903   4.780   5.356
 1390TIP3    H1 4134   3.816   4.813   5.334
 1390TIP3    H2 4135   3.904   4.776   5.451
 1391TIP3   OH2 4136   3.753   4.877   4.518
 1391TIP3    H1 4137   3.677   4.913   4.474
 1391TIP3    H2 4138   3.822   4.942   4.503
 1392TIP3   OH2 4139   0.918   6.088   1.177
 1392TIP3    H1 4140   0.825   6.084   1.200
 1392TIP3    H2 4141   0.922   6.158   1.111
 1393TIP3   OH2 4142   1.131   3.914   0.204
 1393TIP3    H1 4143   1.182   3.972   0.147
 1393TIP3    H2 4144   1.096   3.972   0.272
 1394TIP3   OH2 4145   3.794   5.792   4.347
 1394TIP3    H1 4146   3.756   5.839   4.421
 1394TIP3    H2 4147   3.872   5.750   4.382
 1395TIP3   OH2 4148   5.310   2.916   3.339
 1395TIP3    H1 4149   5.248   2.982   3.308
 1395TIP3    H2 4150   5.269   2.878   3.417
 1396TIP3   OH2 4151   3.394   3.953   2.198
 1396TIP3    H1 4152   3.299   3.956   2.199
 1396TIP3    H2 4153   3.421   4.045   2.188
 1397TIP3   OH2 4154   5.734   1.408   1.456
 1397TIP3    H1 4155   5.723   1.495   1.494
 1397TIP3    H2 4156   5.673   1.407   1.382
 1398TIP3   OH2 4157   5.927   2.390   0.882
 1398TIP3    H1 4158   5.833   2.388   0.868
 1398TIP3    H2 4159   5.964   2.412   0.796
 1399TIP3   OH2 4160   6.043   2.548   0.153
 1399TIP3    H1 4161   6.049   2.642   0.167
 1399TIP3    H2 4162   6.107   2.530   0.084
 1400TIP3   OH2 4163   6.462   5.203   2.939
 1400TIP3    H1 4164   6.420   5.224   2.856
 1400TIP3    H2 4165   6.496   5.286   2.972
 1401TIP3   OH2 4166   6.490   5.310   2.294
 1401TIP3    H1 4167   6.401   5.291   2.324
 1401TIP3    H2 4168   6.489   5.291   2.201
 1402TIP3   OH2 4169   1.684   6.458   1.693
 1402TIP3    H1 4170   1.604   6.427   1.650
 1402TIP3    H2 4171   1.654   6.531   1.748
 1403TIP3   OH2 4172   3.253   0.374   4.083
 1403TIP3    H1 4173   3.310   0.334   4.017
 1403TIP3    H2 4174   3.302   0.365   4.165
 1404TIP3   OH2 4175   6.363   0.132   4.655
 1404TIP3    H1 4176   6.299   0.132   4.727
 1404TIP3    H2 4177   6.311   0.154   4.577
 1405TIP3   OH2 4178   0.754   6.200   1.522
 1405TIP3    H1 4179   0.715   6.183   1.436
 1405TIP3    H2 4180   0.840   6.158   1.518
 1406TIP3   OH2 4181   5.040   1.933   2.538
 1406TIP3    H1 4182   5.086   2.016   2.527
 1406TIP3    H2 4183   4.948   1.955   2.525
 1407TIP3   OH2 4184   0.443   4.121   0.795
 1407TIP3    H1 4185   0.479   4.121   0.884
 1407TIP3    H2 4186   0.519   4.126   0.738
 1408TIP3   OH2 4187   5.712   2.754   5.769
 1408TIP3    H1 4188   5.636   2.729   5.822
 1408TIP3    H2 4189   5.786   2.713   5.812
 1409TIP3   OH2 4190   0.374   5.881   2.687
 1409TIP3    H1 4191   0.354   5.933   2.765
 1409TIP3    H2 4192   0.384   5.792   2.720
 1410TIP3   OH2 4193   3.528   5.847   1.577
 1410TIP3    H1 4194   3.623   5.840   1.570
 1410TIP3    H2 4195   3.514   5.922   1.636
 1411TIP3   OH2 4196   3.823   1.842   4.025
 1411TIP3    H1 4197   3.896   1.793   4.063
 1411TIP3    H2 4198   3.865   1.902   3.963
 1412TIP3   OH2 4199   1.274   3.167   0.500
 1412TIP3    H1 4200   1.347   3.129   0.549
 1412TIP3    H2 4201   1.315   3.229   0.440
 1413TIP3   OH2 4202   0.362   6.662   4.448
 1413TIP3    H1 4203   0.372   6.569   4.430
 1413TIP3    H2 4204   0.416   6.705   4.382
 1414TIP3   OH2 4205   0.483   6.385   4.495
 1414TIP3    H1 4206   0.440   6.396   4.580
 1414TIP3    H2 4207   0.440   6.309   4.456
 1415TIP3   OH2 4208   6.007   1.073   1.869
 1415TIP3    H1 4209   6.011   1.110   1.957
 1415TIP3    H2 4210   6.011   1.149   1.811
 1416TIP3   OH2 4211   4.440   4.516   3.038
 1416TIP3    H1 4212   4.417   4.609   3.035
 1416TIP3    H2 4213   4.389   4.481   3.111
 1417TIP3   OH2 4214   1.039   1.634   5.558
 1417TIP3    H1 4215   1.074   1.610   5.644
 1417TIP3    H2 4216   1.116   1.649   5.504
 1418TIP3   OH2 4217   3.587   5.800   5.241
 1418TIP3    H1 4218   3.593   5.709   5.213
 1418TIP3    H2 4219   3.501   5.807   5.282
 1419TIP3   OH2 4220   3.609   5.071   0.807
 1419TIP3    H1 4221   3.552   5.081   0.883
 1419TIP3    H2 4222   3.611   5.157   0.767
 1420TIP3   OH2 4223   5.459   1.080   4.378
 1420TIP3    H1 4224   5.425   1.009   4.432
 1420TIP3    H2 4225   5.382   1.126   4.346
 1421TIP3   OH2 4226   2.366   6.301   1.431
 1421TIP3    H1 4227   2.313   6.314   1.353
 1421TIP3    H2 4228   2.438   6.246   1.402
 1422TIP3   OH2 4229   0.972   5.111   5.016
 1422TIP3    H1 4230   0.936   5.068   4.939
 1422TIP3    H2 4231   0.942   5.202   5.009
 1423TIP3   OH2 4232   2.167   0.101   3.942
 1423TIP3    H1 4233   2.189   0.041   3.871
 1423TIP3    H2 4234   2.230   0.080   4.011
 1424TIP3   OH2 4235   0.568   1.242   2.977
 1424TIP3    H1 4236   0.647   1.192   2.997
 1424TIP3    H2 4237   0.595   1.334   2.987
 1425TIP3   OH2 4238   6.547   1.912   3.945
 1425TIP3    H1 4239   6.633   1.894   3.909
 1425TIP3    H2 4240   6.558   1.992   3.997
 1426TIP3   OH2 4241   0.583   5.954   1.436
 1426TIP3    H1 4242   0.499   5.949   1.391
 1426TIP3    H2 4243   0.572   5.900   1.514
 1427TIP3   OH2 4244   5.195   0.387   4.620
 1427TIP3    H1 4245   5.236   0.301   4.630
 1427TIP3    H2 4246   5.118   0.384   4.677
 1428TIP3   OH2 4247   3.932   4.869   2.224
 1428TIP3    H1 4248   3.945   4.774   2.226
 1428TIP3    H2 4249   3.983   4.901   2.298
 1429TIP3   OH2 4250   3.617   2.169   5.557
 1429TIP3    H1 4251   3.576   2.115   5.624
 1429TIP3    H2 4252   3.556   2.167   5.484
 1430TIP3   OH2 4253   1.390   4.925   4.472
 1430TIP3    H1 4254   1.304   4.962   4.492
 1430TIP3    H2 4255   1.372   4.853   4.412
 1431TIP3   OH2 4256   1.920   5.895   5.548
 1431TIP3    H1 4257   1.976   5.822   5.576
 1431TIP3    H2 4258   1.869   5.917   5.626
 1432TIP3   OH2 4259   6.425   1.060   2.541
 1432TIP3    H1 4260   6.481   1.136   2.527
 1432TIP3    H2 4261   6.464   0.991   2.487
 1433TIP3   OH2 4262   6.281   2.819   1.667
 1433TIP3    H1 4263   6.271   2.731   1.701
 1433TIP3    H2 4264   6.365   2.849   1.701
 1434TIP3   OH2 4265   4.729   3.182   3.251
 1434TIP3    H1 4266   4.792   3.251   3.270
 1434TIP3    H2 4267   4.728   3.177   3.155
 1435TIP3   OH2 4268   2.727   0.857   5.207
 1435TIP3    H1 4269   2.644   0.870   5.252
 1435TIP3    H2 4270   2.767   0.944   5.206
 1436TIP3   OH2 4271   2.078   2.033   0.122
 1436TIP3    H1 4272   2.047   2.124   0.129
 1436TIP3    H2 4273   2.038   2.000   0.042
 1437TIP3   OH2 4274   4.435   1.942   2.343
 1437TIP3    H1 4275   4.368   1.982   2.287
 1437TIP3    H2 4276   4.415   1.848   2.341
 1438TIP3   OH2 4277   1.039   3.762   5.772
 1438TIP3    H1 4278   1.128   3.730   5.756
 1438TIP3    H2 4279   1.051   3.841   5.825
 1439TIP3   OH2 4280   3.524   2.087   3.793
 1439TIP3    H1 4281   3.447   2.061   3.742
 1439TIP3    H2 4282   3.490   2.101   3.882
 1440TIP3   OH2 4283   5.260   5.550   3.866
 1440TIP3    H1 4284   5.278   5.591   3.781
 1440TIP3    H2 4285   5.285   5.615   3.931
 1441TIP3   OH2 4286   7.180   3.374   1.917
 1441TIP3    H1 4287   7.187   3.395   1.824
 1441TIP3    H2 4288   7.120   3.300   1.921
 1442TIP3   OH2 4289   2.681   6.038   0.606
 1442TIP3    H1 4290   2.619   6.110   0.592
 1442TIP3    H2 4291   2.679   6.023   0.700
 1443TIP3   OH2 4292   4.908   0.310   1.647
 1443TIP3    H1 4293   4.840   0.369   1.613
 1443TIP3    H2 4294   4.929   0.253   1.573
 1444TIP3   OH2 4295   1.095   0.549   4.075
 1444TIP3    H1 4296   1.019   0.527   4.021
 1444TIP3    H2 4297   1.169   0.541   4.016
 1445TIP3   OH2 4298   6.309   4.301   4.948
 1445TIP3    H1 4299   6.362   4.370   4.988
 1445TIP3    H2 4300   6.363   4.222   4.956
 1446TIP3   OH2 4301   6.324   4.239   0.664
 1446TIP3    H1 4302   6.292   4.163   0.616
 1446TIP3    H2 4303   6.338   4.207   0.753
 1447TIP3   OH2 4304   1.460   3.320   0.307
 1447TIP3    H1 4305   1.490   3.380   0.239
 1447TIP3    H2 4306   1.478   3.365   0.389
 1448TIP3   OH2 4307   1.936   5.248   4.974
 1448TIP3    H1 4308   1.895   5.210   4.896
 1448TIP3    H2 4309   2.009   5.190   4.993
 1449TIP3   OH2 4310   2.058   2.199   2.010
 1449TIP3    H1 4311   2.026   2.163   2.093
 1449TIP3    H2 4312   1.996   2.168   1.944
 1450TIP3   OH2 4313   0.994   2.425   5.712
 1450TIP3    H1 4314   0.939   2.423   5.791
 1450TIP3    H2 4315   1.083   2.408   5.744
 1451TIP3   OH2 4316   2.368   0.146   4.174
 1451TIP3    H1 4317   2.376   0.232   4.132
 1451TIP3    H2 4318   2.457   0.110   4.174
 1452TIP3   OH2 4319   4.590   3.325   5.830
 1452TIP3    H1 4320   4.543   3.323   5.747
 1452TIP3    H2 4321   4.567   3.409   5.869
 1453TIP3   OH2 4322   4.721   5.816   1.741
 1453TIP3    H1 4323   4.696   5.904   1.769
 1453TIP3    H2 4324   4.816   5.819   1.732
 1454TIP3   OH2 4325   5.822   6.427   5.186
 1454TIP3    H1 4326   5.880   6.371   5.237
 1454TIP3    H2 4327   5.874   6.505   5.167
 1455TIP3   OH2 4328   5.591   2.603   3.163
 1455TIP3    H1 4329   5.576   2.509   3.173
 1455TIP3    H2 4330   5.608   2.634   3.252
 1456TIP3   OH2 4331   3.985   6.586   3.190
 1456TIP3    H1 4332   3.999   6.638   3.269
 1456TIP3    H2 4333   4.031   6.634   3.121
 1457TIP3   OH2 4334   5.791   5.208   3.269
 1457TIP3    H1 4335   5.843   5.277   3.311
 1457TIP3    H2 4336   5.713   5.199   3.324
 1458TIP3   OH2 4337   7.020   4.410   5.258
 1458TIP3    H1 4338   7.048   4.322   5.283
 1458TIP3    H2 4339   6.952   4.433   5.321
 1459TIP3   OH2 4340   6.018   3.485   2.853
 1459TIP3    H1 4341   5.975   3.400   2.861
 1459TIP3    H2 4342   6.108   3.464   2.828
 1460TIP3   OH2 4343   5.893   4.474   1.260
 1460TIP3    H1 4344   5.954   4.535   1.301
 1460TIP3    H2 4345   5.947   4.423   1.200
 1461TIP3   OH2 4346   4.646   6.191   3.118
 1461TIP3    H1 4347   4.560   6.161   3.087
 1461TIP3    H2 4348   4.690   6.111   3.146
 1462TIP3   OH2 4349   5.515   2.434   4.060
 1462TIP3    H1 4350   5.568   2.496   4.010
 1462TIP3    H2 4351   5.576   2.398   4.125
 1463TIP3   OH2 4352   5.674   1.308   4.225
 1463TIP3    H1 4353   5.739   1.329   4.158
 1463TIP3    H2 4354   5.599   1.363   4.203
 1464TIP3   OH2 4355   6.776   3.135   1.684
 1464TIP3    H1 4356   6.853   3.113   1.631
 1464TIP3    H2 4357   6.719   3.182   1.624
 1465TIP3   OH2 4358   0.041   0.598   4.053
 1465TIP3    H1 4359   0.096   0.548   4.113
 1465TIP3    H2 4360   0.095   0.673   4.027
 1466TIP3   OH2 4361   4.272   2.530   4.392
 1466TIP3    H1 4362   4.191   2.582   4.393
 1466TIP3    H2 4363   4.284   2.504   4.484
 1467TIP3   OH2 4364   1.806   0.678   1.716
 1467TIP3    H1 4365   1.778   0.650   1.804
 1467TIP3    H2 4366   1.725   0.682   1.666
 1468TIP3   OH2 4367   5.300   2.917   1.961
 1468TIP3    H1 4368   5.300   2.854   2.033
 1468TIP3    H2 4369   5.368   2.886   1.902
 1469TIP3   OH2 4370   4.055   5.227   3.599
 1469TIP3    H1 4371   4.117   5.154   3.602
 1469TIP3    H2 4372   4.109   5.304   3.581
 1470TIP3   OH2 4373   5.617   4.562   5.325
 1470TIP3    H1 4374   5.587   4.622   5.393
 1470TIP3    H2 4375   5.557   4.487   5.332
 1471TIP3   OH2 4376   4.957   3.876   0.564
 1471TIP3    H1 4377   4.922   3.802   0.513
 1471TIP3    H2 4378   5.048   3.884   0.535
 1472TIP3   OH2 4379   0.708   6.727   4.656
 1472TIP3    H1 4380   0.729   6.812   4.694
 1472TIP3    H2 4381   0.656   6.683   4.724
 1473TIP3   OH2 4382   5.384   3.762   1.586
 1473TIP3    H1 4383   5.420   3.848   1.565
 1473TIP3    H2 4384   5.392   3.754   1.681
 1474TIP3   OH2 4385   4.846   4.942   5.778
 1474TIP3    H1 4386   4.887   4.939   5.692
 1474TIP3    H2 4387   4.775   5.007   5.769
 1475TIP3   OH2 4388   0.345   2.134   5.191
 1475TIP3    H1 4389   0.389   2.217   5.172
 1475TIP3    H2 4390   0.264   2.159   5.236
 1476TIP3   OH2 4391   5.362   5.877   0.593
 1476TIP3    H1 4392   5.358   5.933   0.671
 1476TIP3    H2 4393   5.280   5.896   0.546
 1477TIP3   OH2 4394   3.203   1.826   2.925
 1477TIP3    H1 4395   3.238   1.914   2.932
 1477TIP3    H2 4396   3.179   1.817   2.833
 1478TIP3   OH2 4397   5.651   0.016   2.694
 1478TIP3    H1 4398   5.626   0.034   2.785
 1478TIP3    H2 4399   5.568   0.002   2.649
 1479TIP3   OH2 4400   4.216   0.512   3.332
 1479TIP3    H1 4401   4.263   0.519   3.415
 1479TIP3    H2 4402   4.126   0.536   3.354
 1480TIP3   OH2 4403   0.341   1.324   0.215
 1480TIP3    H1 4404   0.349   1.286   0.303
 1480TIP3    H2 4405   0.254   1.297   0.185
 1481TIP3   OH2 4406   5.469   0.171   0.710
 1481TIP3    H1 4407   5.406   0.207   0.648
 1481TIP3    H2 4408   5.554   0.197   0.677
 1482TIP3   OH2 4409   2.208   6.054   2.847
 1482TIP3    H1 4410   2.113   6.057   2.838
 1482TIP3    H2 4411   2.240   6.100   2.769
 1483TIP3   OH2 4412   6.691   6.248   1.045
 1483TIP3    H1 4413   6.686   6.204   0.961
 1483TIP3    H2 4414   6.693   6.177   1.110
 1484TIP3   OH2 4415   1.004   2.828   0.255
 1484TIP3    H1 4416   1.052   2.803   0.176
 1484TIP3    H2 4417   1.029   2.919   0.270
 1485TIP3   OH2 4418   5.776   5.687   3.950
 1485TIP3    H1 4419   5.722   5.760   3.978
 1485TIP3    H2 4420   5.839   5.725   3.889
 1486TIP3   OH2 4421   6.619   6.710   1.709
 1486TIP3    H1 4422   6.551   6.643   1.705
 1486TIP3    H2 4423   6.573   6.792   1.688
 1487TIP3   OH2 4424   4.929   4.354   4.550
 1487TIP3    H1 4425   4.842   4.394   4.549
 1487TIP3    H2 4426   4.948   4.337   4.458
 1488TIP3   OH2 4427   2.618   5.671   5.835
 1488TIP3    H1 4428   2.683   5.622   5.885
 1488TIP3    H2 4429   2.537   5.621   5.845
 1489TIP3   OH2 4430   4.511   1.430   2.003
 1489TIP3    H1 4431   4.482   1.359   2.060
 1489TIP3    H2 4432   4.465   1.415   1.920
 1490TIP3   OH2 4433   0.456   2.969   3.250
 1490TIP3    H1 4434   0.468   3.057   3.213
 1490TIP3    H2 4435   0.388   2.981   3.316
 1491TIP3   OH2 4436   5.971   3.911   1.401
 1491TIP3    H1 4437   5.990   3.872   1.486
 1491TIP3    H2 4438   6.032   3.985   1.394
 1492TIP3   OH2 4439   2.502   3.562   4.912
 1492TIP3    H1 4440   2.512   3.466   4.913
 1492TIP3    H2 4441   2.407   3.576   4.913
 1493TIP3   OH2 4442   0.518   3.433   1.631
 1493TIP3    H1 4443   0.447   3.447   1.568
 1493TIP3    H2 4444   0.553   3.521   1.648
 1494TIP3   OH2 4445   6.069   4.012   5.887
 1494TIP3    H1 4446   6.050   3.970   5.971
 1494TIP3    H2 4447   6.154   3.977   5.862
 1495TIP3   OH2 4448   6.537   6.743   1.006
 1495TIP3    H1 4449   6.504   6.653   0.999
 1495TIP3    H2 4450   6.629   6.737   0.982
 1496TIP3   OH2 4451   6.377   1.282   4.346
 1496TIP3    H1 4452   6.450   1.265   4.405
 1496TIP3    H2 4453   6.388   1.373   4.320
 1497TIP3   OH2 4454   3.624   6.519   5.809
 1497TIP3    H1 4455   3.566   6.595   5.810
 1497TIP3    H2 4456   3.582   6.458   5.748
 1498TIP3   OH2 4457   6.927   2.204   4.844
 1498TIP3    H1 4458   6.996   2.254   4.888
 1498TIP3    H2 4459   6.857   2.197   4.909
 1499TIP3   OH2 4460   1.977   1.792   2.117
 1499TIP3    H1 4461   1.941   1.765   2.201
 1499TIP3    H2 4462   2.068   1.765   2.120
 1500TIP3   OH2 4463   2.354   6.685   4.432
 1500TIP3    H1 4464   2.356   6.780   4.435
 1500TIP3    H2 4465   2.368   6.663   4.340
 1501TIP3   OH2 4466   0.018   1.896   3.922
 1501TIP3    H1 4467   0.065   1.833   3.868
 1501TIP3    H2 4468   0.031   1.867   4.012
 1502TIP3   OH2 4469   0.784   1.260   3.895
 1502TIP3    H1 4470   0.876   1.235   3.885
 1502TIP3    H2 4471   0.742   1.228   3.815
 1503TIP3   OH2 4472   1.800   4.539   1.507
 1503TIP3    H1 4473   1.756   4.617   1.541
 1503TIP3    H2 4474   1.881   4.533   1.557
 1504TIP3   OH2 4475   6.677   3.499   3.656
 1504TIP3    H1 4476   6.728   3.422   3.628
 1504TIP3    H2 4477   6.720   3.573   3.614
 1505TIP3   OH2 4478   3.595   5.604   4.422
 1505TIP3    H1 4479   3.632   5.666   4.358
 1505TIP3    H2 4480   3.670   5.577   4.475
 1506TIP3   OH2 4481   5.504   1.795   4.725
 1506TIP3    H1 4482   5.435   1.765   4.666
 1506TIP3    H2 4483   5.584   1.756   4.690
 1507TIP3   OH2 4484   4.935   3.364   3.311
 1507TIP3    H1 4485   5.004   3.341   3.248
 1507TIP3    H2 4486   4.978   3.423   3.373
 1508TIP3   OH2 4487   2.466   6.239   1.706
 1508TIP3    H1 4488   2.557   6.210   1.708
 1508TIP3    H2 4489   2.449   6.256   1.613
 1509TIP3   OH2 4490   3.929   1.088   3.094
 1509TIP3    H1 4491   3.899   1.117   3.007
 1509TIP3    H2 4492   3.937   1.169   3.144
 1510TIP3   OH2 4493   6.051   6.002   5.737
 1510TIP3    H1 4494   6.132   5.965   5.773
 1510TIP3    H2 4495   6.079   6.049   5.659
 1511TIP3   OH2 4496   5.371   3.593   2.314
 1511TIP3    H1 4497   5.370   3.652   2.239
 1511TIP3    H2 4498   5.288   3.547   2.309
 1512TIP3   OH2 4499   6.264   4.412   2.924
 1512TIP3    H1 4500   6.201   4.413   2.996
 1512TIP3    H2 4501   6.341   4.458   2.959
 1513TIP3   OH2 4502   6.968   0.728   2.829
 1513TIP3    H1 4503   7.041   0.670   2.850
 1513TIP3    H2 4504   6.907   0.716   2.901
 1514TIP3   OH2 4505   2.760   4.596   0.209
 1514TIP3    H1 4506   2.717   4.511   0.210
 1514TIP3    H2 4507   2.739   4.633   0.124
 1515TIP3   OH2 4508   1.040   1.385   4.627
 1515TIP3    H1 4509   1.089   1.412   4.705
 1515TIP3    H2 4510   1.010   1.468   4.588
 1516TIP3   OH2 4511   5.439   1.756   1.580
 1516TIP3    H1 4512   5.376   1.769   1.651
 1516TIP3    H2 4513   5.385   1.744   1.502
 1517TIP3   OH2 4514   6.486   4.814   4.346
 1517TIP3    H1 4515   6.489   4.899   4.390
 1517TIP3    H2 4516   6.460   4.752   4.414
 1518TIP3   OH2 4517   3.789   4.854   3.136
 1518TIP3    H1 4518   3.811   4.801   3.213
 1518TIP3    H2 4519   3.696   4.872   3.144
 1519TIP3   OH2 4520   2.523   6.772   5.459
 1519TIP3    H1 4521   2.499   6.804   5.372
 1519TIP3    H2 4522   2.488   6.683   5.462
 1520TIP3   OH2 4523   0.335   6.739   2.319
 1520TIP3    H1 4524   0.406   6.791   2.282
 1520TIP3    H2 4525   0.333   6.659   2.267
 1521TIP3   OH2 4526   1.303   6.614   4.630
 1521TIP3    H1 4527   1.358   6.692   4.629
 1521TIP3    H2 4528   1.322   6.570   4.547
 1522TIP3   OH2 4529   5.136   3.517   3.470
 1522TIP3    H1 4530   5.174   3.467   3.543
 1522TIP3    H2 4531   5.210   3.561   3.429
 1523TIP3   OH2 4532   1.712   3.704   5.156
 1523TIP3    H1 4533   1.693   3.611   5.145
 1523TIP3    H2 4534   1.639   3.749   5.115
 1524TIP3   OH2 4535   2.320   3.281   4.658
 1524TIP3    H1 4536   2.364   3.208   4.702
 1524TIP3    H2 4537   2.378   3.303   4.585
 1525TIP3   OH2 4538   5.478   0.470   1.020
 1525TIP3    H1 4539   5.477   0.558   1.056
 1525TIP3    H2 4540   5.388   0.439   1.030
 1526TIP3   OH2 4541   6.467   3.445   0.089
 1526TIP3    H1 4542   6.477   3.402   0.004
 1526TIP3    H2 4543   6.550   3.491   0.103
 1527TIP3   OH2 4544   0.250   5.573   5.655
 1527TIP3    H1 4545   0.197   5.648   5.682
 1527TIP3    H2 4546   0.338   5.608   5.644
 1528TIP3   OH2 4547   6.086   0.313   4.613
 1528TIP3    H1 4548   6.021   0.376   4.643
 1528TIP3    H2 4549   6.117   0.347   4.529
 1529TIP3   OH2 4550   3.320   5.913   0.515
 1529TIP3    H1 4551   3.346   5.982   0.575
 1529TIP3    H2 4552   3.274   5.849   0.570
 1530TIP3   OH2 4553   3.793   5.749   4.793
 1530TIP3    H1 4554   3.804   5.733   4.887
 1530TIP3    H2 4555   3.808   5.664   4.752
 1531TIP3   OH2 4556   2.256   4.241   1.203
 1531TIP3    H1 4557   2.161   4.241   1.211
 1531TIP3    H2 4558   2.287   4.270   1.289
 1532TIP3   OH2 4559   4.171   1.859   2.988
 1532TIP3    H1 4560   4.252   1.838   2.942
 1532TIP3    H2 4561   4.170   1.799   3.063
 1533TIP3   OH2 4562   0.685   2.236   2.176
 1533TIP3    H1 4563   0.736   2.239   2.095
 1533TIP3    H2 4564   0.747   2.203   2.242
 1534TIP3   OH2 4565   4.009   0.000   2.741
 1534TIP3    H1 4566   3.975   0.083   2.708
 1534TIP3    H2 4567   4.024   0.015   2.834
 1535TIP3   OH2 4568   0.095   1.112   2.519
 1535TIP3    H1 4569   0.056   1.049   2.459
 1535TIP3    H2 4570   0.123   1.060   2.594
 1536TIP3   OH2 4571   4.147   5.115   5.896
 1536TIP3    H1 4572   4.060   5.149   5.916
 1536TIP3    H2 4573   4.161   5.136   5.803
 1537TIP3   OH2 4574   6.639   1.517   3.422
 1537TIP3    H1 4575   6.615   1.514   3.329
 1537TIP3    H2 4576   6.597   1.597   3.455
 1538TIP3   OH2 4577   4.754   6.445   4.812
 1538TIP3    H1 4578   4.718   6.431   4.725
 1538TIP3    H2 4579   4.716   6.528   4.841
 1539TIP3   OH2 4580   2.190   6.090   1.479
 1539TIP3    H1 4581   2.117   6.080   1.539
 1539TIP3    H2 4582   2.193   6.184   1.461
 1540TIP3   OH2 4583   0.112   1.444   1.908
 1540TIP3    H1 4584   0.145   1.516   1.962
 1540TIP3    H2 4585   0.111   1.479   1.819
 1541TIP3   OH2 4586   0.908   4.890   2.617
 1541TIP3    H1 4587   0.885   4.982   2.606
 1541TIP3    H2 4588   0.966   4.888   2.694
 1542TIP3   OH2 4589   4.192   5.812   0.775
 1542TIP3    H1 4590   4.163   5.897   0.808
 1542TIP3    H2 4591   4.277   5.798   0.816
 1543TIP3   OH2 4592   2.880   6.248   0.145
 1543TIP3    H1 4593   2.808   6.211   0.094
 1543TIP3    H2 4594   2.840   6.272   0.229
 1544TIP3   OH2 4595   0.714   2.122   1.847
 1544TIP3    H1 4596   0.768   2.046   1.824
 1544TIP3    H2 4597   0.777   2.188   1.875
 1545TIP3   OH2 4598   4.630   0.364   4.175
 1545TIP3    H1 4599   4.597   0.430   4.236
 1545TIP3    H2 4600   4.630   0.407   4.090
 1546TIP3   OH2 4601   4.437   1.026   5.691
 1546TIP3    H1 4602   4.391   1.007   5.773
 1546TIP3    H2 4603   4.406   0.958   5.630
 1547TIP3   OH2 4604   5.325   5.170   5.419
 1547TIP3    H1 4605   5.308   5.208   5.505
 1547TIP3    H2 4606   5.298   5.238   5.357
 1548TIP3   OH2 4607   2.966   6.196   2.174
 1548TIP3    H1 4608   3.014   6.276   2.194
 1548TIP3    H2 4609   2.874   6.220   2.183
 1549TIP3   OH2 4610   6.616   2.622   5.426
 1549TIP3    H1 4611   6.554   2.657   5.362
 1549TIP3    H2 4612   6.700   2.622   5.381
 1550TIP3   OH2 4613   4.718   5.367   1.195
 1550TIP3    H1 4614   4.696   5.448   1.149
 1550TIP3    H2 4615   4.678   5.377   1.281
 1551TIP3   OH2 4616   3.725   0.679   1.079
 1551TIP3    H1 4617   3.651   0.711   1.130
 1551TIP3    H2 4618   3.798   0.734   1.105
 1552TIP3   OH2 4619   3.030   5.431   2.846
 1552TIP3    H1 4620   3.109   5.441   2.899
 1552TIP3    H2 4621   2.960   5.416   2.909
 1553TIP3   OH2 4622   3.463   1.568   3.389
 1553TIP3    H1 4623   3.517   1.599   3.316
 1553TIP3    H2 4624   3.526   1.546   3.458
 1554TIP3   OH2 4625   5.446   1.123   3.157
 1554TIP3    H1 4626   5.364   1.091   3.119
 1554TIP3    H2 4627   5.507   1.050   3.146
 1555TIP3   OH2 4628   5.132   2.423   0.405
 1555TIP3    H1 4629   5.130   2.359   0.476
 1555TIP3    H2 4630   5.198   2.389   0.344
 1556TIP3   OH2 4631   4.402   4.448   0.587
 1556TIP3    H1 4632   4.349   4.404   0.653
 1556TIP3    H2 4633   4.346   4.450   0.509
 1557TIP3   OH2 4634   2.327   1.887   1.512
 1557TIP3    H1 4635   2.404   1.871   1.458
 1557TIP3    H2 4636   2.315   1.806   1.562
 1558TIP3   OH2 4637   4.002   4.876   0.380
 1558TIP3    H1 4638   3.916   4.909   0.404
 1558TIP3    H2 4639   4.028   4.819   0.452
 1559TIP3   OH2 4640   0.012   1.623   5.086
 1559TIP3    H1 4641   0.088   1.678   5.102
 1559TIP3    H2 4642   0.047   1.536   5.069
 1560TIP3   OH2 4643   5.435   3.853   0.959
 1560TIP3    H1 4644   5.384   3.843   0.879
 1560TIP3    H2 4645   5.401   3.933   0.999
 1561TIP3   OH2 4646   6.322   2.796   0.354
 1561TIP3    H1 4647   6.269   2.755   0.422
 1561TIP3    H2 4648   6.403   2.744   0.351
 1562TIP3   OH2 4649   3.105   1.962   1.561
 1562TIP3    H1 4650   3.161   1.914   1.500
 1562TIP3    H2 4651   3.070   2.035   1.510
 1563TIP3   OH2 4652   6.876   2.171   5.875
 1563TIP3    H1 4653   6.880   2.086   5.832
 1563TIP3    H2 4654   6.919   2.157   5.959
 1564TIP3   OH2 4655   1.203   5.541   4.768
 1564TIP3    H1 4656   1.241   5.486   4.837
 1564TIP3    H2 4657   1.109   5.538   4.784
 1565TIP3   OH2 4658   2.331   4.424   2.943
 1565TIP3    H1 4659   2.386   4.502   2.930
 1565TIP3    H2 4660   2.371   4.378   3.017
 1566TIP3   OH2 4661   6.966   4.832   5.113
 1566TIP3    H1 4662   6.875   4.808   5.133
 1566TIP3    H2 4663   7.012   4.749   5.103
 1567TIP3   OH2 4664   2.996   2.287   3.198
 1567TIP3    H1 4665   2.926   2.319   3.255
 1567TIP3    H2 4666   3.018   2.362   3.143
 1568TIP3   OH2 4667   5.024   5.083   4.588
 1568TIP3    H1 4668   5.040   5.141   4.663
 1568TIP3    H2 4669   4.935   5.103   4.560
 1569TIP3   OH2 4670   0.101   6.692   3.342
 1569TIP3    H1 4671   0.134   6.718   3.257
 1569TIP3    H2 4672   0.103   6.773   3.394
 1570TIP3   OH2 4673   5.576   2.862   3.337
 1570TIP3    H1 4674   5.617   2.934   3.289
 1570TIP3    H2 4675   5.484   2.887   3.344
 1571TIP3   OH2 4676   1.670   4.674   2.010
 1571TIP3    H1 4677   1.696   4.679   2.102
 1571TIP3    H2 4678   1.686   4.583   1.986
 1572TIP3   OH2 4679   1.828   1.349   4.377
 1572TIP3    H1 4680   1.777   1.398   4.442
 1572TIP3    H2 4681   1.903   1.315   4.425
 1573TIP3   OH2 4682   6.562   0.707   1.595
 1573TIP3    H1 4683   6.640   0.676   1.641
 1573TIP3    H2 4684   6.495   0.712   1.662
 1574TIP3   OH2 4685   6.234   1.156   4.786
 1574TIP3    H1 4686   6.319   1.168   4.828
 1574TIP3    H2 4687   6.234   1.217   4.712
 1575TIP3   OH2 4688   1.138   3.376   1.162
 1575TIP3    H1 4689   1.193   3.446   1.127
 1575TIP3    H2 4690   1.067   3.368   1.099
 1576TIP3   OH2 4691   6.915   5.369   3.725
 1576TIP3    H1 4692   6.989   5.429   3.729
 1576TIP3    H2 4693   6.850   5.415   3.671
 1577TIP3   OH2 4694   1.212   0.865   3.518
 1577TIP3    H1 4695   1.170   0.887   3.435
 1577TIP3    H2 4696   1.169   0.923   3.582
 1578TIP3   OH2 4697   6.170   4.203   1.629
 1578TIP3    H1 4698   6.171   4.261   1.553
 1578TIP3    H2 4699   6.250   4.224   1.677
 1579TIP3   OH2 4700   4.147   1.332   4.919
 1579TIP3    H1 4701   4.242   1.326   4.927
 1579TIP3    H2 4702   4.120   1.244   4.892
 1580TIP3   OH2 4703   4.725   5.546   1.676
 1580TIP3    H1 4704   4.734   5.633   1.715
 1580TIP3    H2 4705   4.662   5.501   1.732
 1581TIP3   OH2 4706   5.297   0.961   5.108
 1581TIP3    H1 4707   5.389   0.946   5.128
 1581TIP3    H2 4708   5.253   0.959   5.193
 1582TIP3   OH2 4709   2.637   4.377   2.295
 1582TIP3    H1 4710   2.679   4.353   2.212
 1582TIP3    H2 4711   2.597   4.462   2.277
 1583TIP3   OH2 4712   5.404   4.765   1.674
 1583TIP3    H1 4713   5.396   4.736   1.765
 1583TIP3    H2 4714   5.335   4.830   1.662
 1584TIP3   OH2 4715   5.492   6.481   2.916
 1584TIP3    H1 4716   5.504   6.476   3.011
 1584TIP3    H2 4717   5.570   6.440   2.880
 1585TIP3   OH2 4718   0.456   5.587   2.735
 1585TIP3    H1 4719   0.443   5.500   2.699
 1585TIP3    H2 4720   0.538   5.618   2.696
 1586TIP3   OH2 4721   5.506   6.510   2.304
 1586TIP3    H1 4722   5.505   6.556   2.221
 1586TIP3    H2 4723   5.503   6.580   2.370
 1587TIP3   OH2 4724   0.528   2.748   4.166
 1587TIP3    H1 4725   0.574   2.664   4.170
 1587TIP3    H2 4726   0.556   2.787   4.083
 1588TIP3   OH2 4727   4.819   6.480   2.362
 1588TIP3    H1 4728   4.911   6.480   2.338
 1588TIP3    H2 4729   4.813   6.418   2.435
 1589TIP3   OH2 4730   2.760   0.067   0.237
 1589TIP3    H1 4731   2.814  -0.013   0.239
 1589TIP3    H2 4732   2.779   0.110   0.320
 1590TIP3   OH2 4733   0.230   4.786   0.460
 1590TIP3    H1 4734   0.149   4.736   0.469
 1590TIP3    H2 4735   0.227   4.848   0.533
 1591TIP3   OH2 4736   4.316   6.229   2.177
 1591TIP3    H1 4737   4.273   6.158   2.130
 1591TIP3    H2 4738   4.401   6.238   2.134
 1592TIP3   OH2 4739   6.753   3.598   5.730
 1592TIP3    H1 4740   6.720   3.672   5.780
 1592TIP3    H2 4741   6.845   3.619   5.713
 1593TIP3   OH2 4742   4.075   5.301   0.205
 1593TIP3    H1 4743   4.135   5.227   0.194
 1593TIP3    H2 4744   4.037   5.290   0.292
 1594TIP3   OH2 4745   0.135   2.429   1.621
 1594TIP3    H1 4746   0.112   2.515   1.585
 1594TIP3    H2 4747   0.072   2.369   1.582
 1595TIP3   OH2 4748   3.934   0.282   2.673
 1595TIP3    H1 4749   3.983   0.321   2.745
 1595TIP3    H2 4750   3.897   0.356   2.626
 1596TIP3   OH2 4751   7.062   3.364   4.529
 1596TIP3    H1 4752   7.029   3.416   4.456
 1596TIP3    H2 4753   7.141   3.410   4.558
 1597TIP3   OH2 4754   5.975   4.915   1.720
 1597TIP3    H1 4755   6.014   4.942   1.803
 1597TIP3    H2 4756   6.050   4.894   1.665
 1598TIP3   OH2 4757   1.536   4.523   5.495
 1598TIP3    H1 4758   1.487   4.602   5.470
 1598TIP3    H2 4759   1.468   4.460   5.518
 1599TIP3   OH2 4760   1.174   4.758   2.428
 1599TIP3    H1 4761   1.103   4.797   2.377
 1599TIP3    H2 4762   1.236   4.830   2.443
 1600TIP3   OH2 4763   2.797   1.808   5.521
 1600TIP3    H1 4764   2.801   1.727   5.571
 1600TIP3    H2 4765   2.869   1.861   5.556
 1601TIP3   OH2 4766   0.180   1.857   4.803
 1601TIP3    H1 4767   0.091   1.821   4.800
 1601TIP3    H2 4768   0.219   1.832   4.719
 1602TIP3   OH2 4769   7.174   1.491   5.898
 1602TIP3    H1 4770   7.233   1.567   5.895
 1602TIP3    H2 4771   7.133   1.490   5.812
 1603TIP3   OH2 4772   4.331   0.820   0.520
 1603TIP3    H1 4773   4.361   0.788   0.606
 1603TIP3    H2 4774   4.250   0.771   0.503
 1604TIP3   OH2 4775   4.047   3.158   4.458
 1604TIP3    H1 4776   4.087   3.081   4.418
 1604TIP3    H2 4777   4.047   3.224   4.390
 1605TIP3   OH2 4778   0.346   5.172   5.396
 1605TIP3    H1 4779   0.424   5.181   5.450
 1605TIP3    H2 4780   0.276   5.213   5.447
 1606TIP3   OH2 4781   4.494   3.002   2.130
 1606TIP3    H1 4782   4.530   3.014   2.042
 1606TIP3    H2 4783   4.543   2.927   2.165
 1607TIP3   OH2 4784   0.618   4.775   1.737
 1607TIP3    H1 4785   0.535   4.818   1.720
 1607TIP3    H2 4786   0.594   4.689   1.773
 1608TIP3   OH2 4787   6.150   4.629   2.308
 1608TIP3    H1 4788   6.218   4.585   2.358
 1608TIP3    H2 4789   6.073   4.573   2.318
 1609TIP3   OH2 4790   5.953   6.211   5.328
 1609TIP3    H1 4791   5.901   6.183   5.404
 1609TIP3    H2 4792   5.919   6.159   5.255
 1610TIP3   OH2 4793   1.545   5.137   1.551
 1610TIP3    H1 4794   1.484   5.129   1.477
 1610TIP3    H2 4795   1.557   5.231   1.562
 1611TIP3   OH2 4796   3.563   1.166   0.240
 1611TIP3    H1 4797   3.490   1.170   0.177
 1611TIP3    H2 4798   3.641   1.180   0.186
 1612TIP3   OH2 4799   5.046   3.430   5.080
 1612TIP3    H1 4800   5.098   3.372   5.135
 1612TIP3    H2 4801   4.956   3.423   5.113
 1613TIP3   OH2 4802   0.273   0.281   2.472
 1613TIP3    H1 4803   0.214   0.267   2.545
 1613TIP3    H2 4804   0.261   0.205   2.416
 1614TIP3   OH2 4805   6.804   2.088   1.746
 1614TIP3    H1 4806   6.817   2.100   1.840
 1614TIP3    H2 4807   6.783   1.995   1.736
 1615TIP3   OH2 4808   2.495   0.416   3.683
 1615TIP3    H1 4809   2.420   0.357   3.681
 1615TIP3    H2 4810   2.457   0.504   3.676
 1616TIP3   OH2 4811   1.376   0.566   0.374
 1616TIP3    H1 4812   1.368   0.610   0.459
 1616TIP3    H2 4813   1.355   0.475   0.393
 1617TIP3   OH2 4814   5.550   0.742   2.468
 1617TIP3    H1 4815   5.525   0.655   2.499
 1617TIP3    H2 4816   5.554   0.796   2.547
 1618TIP3   OH2 4817   5.195   2.065   3.265
 1618TIP3    H1 4818   5.232   2.071   3.177
 1618TIP3    H2 4819   5.236   2.137   3.313
 1619TIP3   OH2 4820   0.533   5.307   3.203
 1619TIP3    H1 4821   0.589   5.293   3.127
 1619TIP3    H2 4822   0.445   5.314   3.167
 1620TIP3   OH2 4823   0.072   1.359   5.238
 1620TIP3    H1 4824   0.155   1.323   5.209
 1620TIP3    H2 4825   0.068   1.340   5.332
 1621TIP3   OH2 4826   4.870   0.441   3.927
 1621TIP3    H1 4827   4.944   0.407   3.978
 1621TIP3    H2 4828   4.851   0.372   3.863
 1622TIP3   OH2 4829   3.672   3.257   1.564
 1622TIP3    H1 4830   3.663   3.273   1.657
 1622TIP3    H2 4831   3.684   3.162   1.556
 1623TIP3   OH2 4832   4.111   3.366   5.244
 1623TIP3    H1 4833   4.101   3.460   5.234
 1623TIP3    H2 4834   4.206   3.352   5.250
 1624TIP3   OH2 4835   3.773   0.803   3.922
 1624TIP3    H1 4836   3.677   0.803   3.925
 1624TIP3    H2 4837   3.797   0.712   3.908
 1625TIP3   OH2 4838   4.224   4.304   0.744
 1625TIP3    H1 4839   4.210   4.213   0.720
 1625TIP3    H2 4840   4.288   4.301   0.815
 1626TIP3   OH2 4841   6.321   6.767   0.717
 1626TIP3    H1 4842   6.292   6.695   0.772
 1626TIP3    H2 4843   6.409   6.743   0.689
 1627TIP3   OH2 4844   2.454   2.909   0.873
 1627TIP3    H1 4845   2.482   2.964   0.946
 1627TIP3    H2 4846   2.524   2.917   0.808
 1628TIP3   OH2 4847   4.070   4.445   2.947
 1628TIP3    H1 4848   4.096   4.536   2.934
 1628TIP3    H2 4849   4.060   4.436   3.042
 1629TIP3   OH2 4850   0.765   0.019   2.845
 1629TIP3    H1 4851   0.742   0.061   2.928
 1629TIP3    H2 4852   0.825  -0.051   2.869
 1630TIP3   OH2 4853   5.587   2.933   4.257
 1630TIP3    H1 4854   5.553   3.019   4.232
 1630TIP3    H2 4855   5.510   2.885   4.288
 1631TIP3   OH2 4856   4.597   3.768   0.582
 1631TIP3    H1 4857   4.518   3.778   0.636
 1631TIP3    H2 4858   4.566   3.725   0.502
 1632TIP3   OH2 4859   5.632   1.700   2.755
 1632TIP3    H1 4860   5.619   1.753   2.677
 1632TIP3    H2 4861   5.656   1.613   2.722
 1633TIP3   OH2 4862   3.388   6.264   1.541
 1633TIP3    H1 4863   3.319   6.326   1.518
 1633TIP3    H2 4864   3.425   6.298   1.622
 1634TIP3   OH2 4865   1.485   2.807   5.785
 1634TIP3    H1 4866   1.427   2.881   5.803
 1634TIP3    H2 4867   1.427   2.738   5.752
 1635TIP3   OH2 4868   6.213   6.090   3.240
 1635TIP3    H1 4869   6.162   6.109   3.319
 1635TIP3    H2 4870   6.279   6.027   3.268
 1636TIP3   OH2 4871   7.180   1.501   3.317
 1636TIP3    H1 4872   7.131   1.443   3.376
 1636TIP3    H2 4873   7.254   1.447   3.288
 1637TIP3   OH2 4874   2.874   3.714   2.483
 1637TIP3    H1 4875   2.897   3.647   2.419
 1637TIP3    H2 4876   2.943   3.780   2.476
 1638TIP3   OH2 4877   2.087   0.706   0.138
 1638TIP3    H1 4878   2.052   0.660   0.214
 1638TIP3    H2 4879   2.126   0.637   0.084
 1639TIP3   OH2 4880   2.626   1.812   3.183
 1639TIP3    H1 4881   2.698   1.875   3.183
 1639TIP3    H2 4882   2.641   1.758   3.106
 1640TIP3   OH2 4883   3.859   0.629   2.338
 1640TIP3    H1 4884   3.914   0.649   2.413
 1640TIP3    H2 4885   3.833   0.538   2.350
 1641TIP3   OH2 4886   6.329   0.718   5.131
 1641TIP3    H1 4887   6.351   0.696   5.222
 1641TIP3    H2 4888   6.386   0.792   5.111
 1642TIP3   OH2 4889   0.715   1.201   4.148
 1642TIP3    H1 4890   0.720   1.227   4.056
 1642TIP3    H2 4891   0.658   1.123   4.148
 1643TIP3   OH2 4892   6.386   0.881   3.523
 1643TIP3    H1 4893   6.313   0.910   3.469
 1643TIP3    H2 4894   6.439   0.827   3.464
 1644TIP3   OH2 4895   3.929   6.603   0.090
 1644TIP3    H1 4896   4.010   6.654   0.095
 1644TIP3    H2 4897   3.953   6.516   0.121
 1645TIP3   OH2 4898   1.833   4.254   2.951
 1645TIP3    H1 4899   1.775   4.259   3.026
 1645TIP3    H2 4900   1.904   4.314   2.970
 1646TIP3   OH2 4901   3.343   2.427   5.174
 1646TIP3    H1 4902   3.353   2.514   5.136
 1646TIP3    H2 4903   3.310   2.373   5.102
 1647TIP3   OH2 4904   0.856   6.656   2.222
 1647TIP3    H1 4905   0.900   6.604   2.290
 1647TIP3    H2 4906   0.764   6.657   2.249
 1648TIP3   OH2 4907   4.528   0.531   4.362
 1648TIP3    H1 4908   4.546   0.618   4.327
 1648TIP3    H2 4909   4.500   0.546   4.452
 1649TIP3   OH2 4910   6.472   2.347   0.817
 1649TIP3    H1 4911   6.400   2.330   0.756
 1649TIP3    H2 4912   6.431   2.348   0.903
 1650TIP3   OH2 4913   2.563   2.587   1.248
 1650TIP3    H1 4914   2.558   2.659   1.185
 1650TIP3    H2 4915   2.554   2.629   1.334
 1651TIP3   OH2 4916   6.026   2.806   3.431
 1651TIP3    H1 4917   6.055   2.809   3.522
 1651TIP3    H2 4918   5.966   2.881   3.423
 1652TIP3   OH2 4919   7.116   5.995   4.711
 1652TIP3    H1 4920   7.102   5.905   4.738
 1652TIP3    H2 4921   7.201   5.994   4.665
 1653TIP3   OH2 4922   2.977   1.517   5.454
 1653TIP3    H1 4923   2.986   1.514   5.550
 1653TIP3    H2 4924   3.040   1.585   5.427
 1654TIP3   OH2 4925   6.129   6.344   4.555
 1654TIP3    H1 4926   6.131   6.434   4.589
 1654TIP3    H2 4927   6.106   6.355   4.463
 1655TIP3   OH2 4928   5.131   4.726   3.266
 1655TIP3    H1 4929   5.108   4.701   3.356
 1655TIP3    H2 4930   5.066   4.793   3.243
 1656TIP3   OH2 4931   3.698   0.839   3.022
 1656TIP3    H1 4932   3.646   0.819   3.100
 1656TIP3    H2 4933   3.785   0.802   3.041
 1657TIP3   OH2 4934   3.706   0.281   3.889
 1657TIP3    H1 4935   3.766   0.222   3.843
 1657TIP3    H2 4936   3.677   0.231   3.965
 1658TIP3   OH2 4937   2.994   4.122   5.048
 1658TIP3    H1 4938   3.035   4.053   5.101
 1658TIP3    H2 4939   3.068   4.169   5.009
 1659TIP3   OH2 4940   1.458   5.354   5.866
 1659TIP3    H1 4941   1.536   5.325   5.818
 1659TIP3    H2 4942   1.384   5.325   5.812
 1660TIP3   OH2 4943   0.679   3.567   2.880
 1660TIP3    H1 4944   0.601   3.620   2.897
 1660TIP3    H2 4945   0.663   3.485   2.927
 1661TIP3   OH2 4946   0.663   1.592   1.334
 1661TIP3    H1 4947   0.608   1.670   1.331
 1661TIP3    H2 4948   0.672   1.566   1.242
 1662TIP3   OH2 4949   6.934   5.674   0.413
 1662TIP3    H1 4950   6.870   5.654   0.344
 1662TIP3    H2 4951   6.960   5.764   0.395
 1663TIP3   OH2 4952   5.455   6.826   1.397
 1663TIP3    H1 4953   5.434   6.778   1.317
 1663TIP3    H2 4954   5.382   6.806   1.456
 1664TIP3   OH2 4955   4.113   3.467   2.462
 1664TIP3    H1 4956   4.074   3.484   2.548
 1664TIP3    H2 4957   4.192   3.417   2.481
 1665TIP3   OH2 4958   6.368   3.345   3.409
 1665TIP3    H1 4959   6.279   3.367   3.435
 1665TIP3    H2 4960   6.412   3.321   3.491
 1666TIP3   OH2 4961   2.290   3.750   2.928
 1666TIP3    H1 4962   2.252   3.665   2.907
 1666TIP3    H2 4963   2.369   3.729   2.977
 1667TIP3   OH2 4964   3.668   1.290   5.722
 1667TIP3    H1 4965   3.690   1.215   5.776
 1667TIP3    H2 4966   3.737   1.354   5.740
 1668TIP3   OH2 4967   6.795   5.985   3.695
 1668TIP3    H1 4968   6.797   6.073   3.731
 1668TIP3    H2 4969   6.862   5.985   3.627
 1669TIP3   OH2 4970   2.264   2.322   2.318
 1669TIP3    H1 4971   2.262   2.339   2.413
 1669TIP3    H2 4972   2.195   2.377   2.282
 1670TIP3   OH2 4973   5.541   1.463   4.821
 1670TIP3    H1 4974   5.629   1.463   4.785
 1670TIP3    H2 4975   5.535   1.382   4.872
 1671TIP3   OH2 4976   6.596   5.279   4.109
 1671TIP3    H1 4977   6.598   5.340   4.182
 1671TIP3    H2 4978   6.519   5.304   4.058
 1672TIP3   OH2 4979   0.913   4.237   1.515
 1672TIP3    H1 4980   0.946   4.178   1.582
 1672TIP3    H2 4981   0.958   4.210   1.435
 1673TIP3   OH2 4982   2.873   4.387   2.432
 1673TIP3    H1 4983   2.849   4.400   2.523
 1673TIP3    H2 4984   2.791   4.393   2.383
 1674TIP3   OH2 4985   1.829   3.788   4.583
 1674TIP3    H1 4986   1.888   3.732   4.532
 1674TIP3    H2 4987   1.756   3.805   4.525
 1675TIP3   OH2 4988   3.614   6.620   4.342
 1675TIP3    H1 4989   3.553   6.574   4.400
 1675TIP3    H2 4990   3.691   6.563   4.339
 1676TIP3   OH2 4991   1.619   4.883   1.359
 1676TIP3    H1 4992   1.577   4.969   1.354
 1676TIP3    H2 4993   1.667   4.885   1.442
 1677TIP3   OH2 4994   6.395   1.268   5.051
 1677TIP3    H1 4995   6.350   1.339   5.006
 1677TIP3    H2 4996   6.444   1.310   5.121
 1678TIP3   OH2 4997   3.596   1.978   3.080
 1678TIP3    H1 4998   3.515   1.927   3.089
 1678TIP3    H2 4999   3.665   1.912   3.074
 1679TIP3   OH2 5000   2.675   3.023   2.975
 1679TIP3    H1 5001   2.697   2.969   3.051
 1679TIP3    H2 5002   2.760   3.046   2.937
 1680TIP3   OH2 5003   0.574   2.952   4.360
 1680TIP3    H1 5004   0.615   2.996   4.285
 1680TIP3    H2 5005   0.555   2.863   4.328
 1681TIP3   OH2 5006   6.068   0.352   1.717
 1681TIP3    H1 5007   6.138   0.417   1.716
 1681TIP3    H2 5008   6.049   0.338   1.809
 1682TIP3   OH2 5009   6.659   1.412   0.582
 1682TIP3    H1 5010   6.705   1.360   0.516
 1682TIP3    H2 5011   6.604   1.472   0.532
 1683TIP3   OH2 5012   4.571   2.551   5.762
 1683TIP3    H1 5013   4.623   2.614   5.811
 1683TIP3    H2 5014   4.630   2.520   5.693
 1684TIP3   OH2 5015   0.799   0.586   5.420
 1684TIP3    H1 5016   0.891   0.560   5.415
 1684TIP3    H2 5017   0.791   0.659   5.358
 1685TIP3   OH2 5018   7.148   3.142   2.978
 1685TIP3    H1 5019   7.114   3.073   3.035
 1685TIP3    H2 5020   7.074   3.202   2.966
 1686TIP3   OH2 5021   6.778   2.682   2.430
 1686TIP3    H1 5022   6.794   2.775   2.414
 1686TIP3    H2 5023   6.734   2.651   2.351
 1687TIP3   OH2 5024   5.468   6.335   3.433
 1687TIP3    H1 5025   5.374   6.314   3.432
 1687TIP3    H2 5026   5.503   6.287   3.507
 1688TIP3   OH2 5027   5.050   1.792   2.967
 1688TIP3    H1 5028   5.082   1.880   2.946
 1688TIP3    H2 5029   5.128   1.743   2.993
 1689TIP3   OH2 5030   3.559   2.321   1.973
 1689TIP3    H1 5031   3.609   2.298   2.051
 1689TIP3    H2 5032   3.571   2.246   1.914
 1690TIP3   OH2 5033   5.681   1.041   2.901
 1690TIP3    H1 5034   5.757   0.983   2.899
 1690TIP3    H2 5035   5.706   1.112   2.959
 1691TIP3   OH2 5036   0.111   3.819   2.285
 1691TIP3    H1 5037   0.117   3.879   2.211
 1691TIP3    H2 5038   0.088   3.735   2.246
 1692TIP3   OH2 5039   5.552   0.515   4.232
 1692TIP3    H1 5040   5.553   0.439   4.290
 1692TIP3    H2 5041   5.589   0.483   4.149
 1693TIP3   OH2 5042  -0.023   0.458   0.637
 1693TIP3    H1 5043   0.041   0.528   0.655
 1693TIP3    H2 5044   0.030   0.381   0.616
 1694TIP3   OH2 5045   0.726   4.691   0.807
 1694TIP3    H1 5046   0.759   4.662   0.892
 1694TIP3    H2 5047   0.631   4.682   0.813
 1695TIP3   OH2 5048   4.008   5.803   3.850
 1695TIP3    H1 5049   3.992   5.710   3.868
 1695TIP3    H2 5050   4.001   5.846   3.935
 1696TIP3   OH2 5051   7.077   4.711   4.725
 1696TIP3    H1 5052   7.160   4.703   4.772
 1696TIP3    H2 5053   7.101   4.712   4.633
 1697TIP3   OH2 5054   4.507   5.121   4.374
 1697TIP3    H1 5055   4.501   5.208   4.334
 1697TIP3    H2 5056   4.453   5.065   4.318
 1698TIP3   OH2 5057   6.714   5.728   2.601
 1698TIP3    H1 5058   6.659   5.798   2.564
 1698TIP3    H2 5059   6.768   5.699   2.527
 1699TIP3   OH2 5060   0.792   0.422   1.321
 1699TIP3    H1 5061   0.754   0.509   1.314
 1699TIP3    H2 5062   0.728   0.364   1.280
 1700TIP3   OH2 5063   2.832   4.270   0.792
 1700TIP3    H1 5064   2.831   4.208   0.865
 1700TIP3    H2 5065   2.866   4.219   0.718
 1701TIP3   OH2 5066   3.053   4.459   0.718
 1701TIP3    H1 5067   2.975   4.411   0.744
 1701TIP3    H2 5068   3.103   4.396   0.665
 1702TIP3   OH2 5069   5.759   4.633   0.736
 1702TIP3    H1 5070   5.748   4.538   0.740
 1702TIP3    H2 5071   5.802   4.649   0.653
 1703TIP3   OH2 5072   0.724   6.220   0.186
 1703TIP3    H1 5073   0.684   6.296   0.143
 1703TIP3    H2 5074   0.699   6.146   0.131
 1704TIP3   OH2 5075   5.837   1.780   3.510
 1704TIP3    H1 5076   5.849   1.701   3.563
 1704TIP3    H2 5077   5.894   1.766   3.434
 1705TIP3   OH2 5078   6.515   6.487   5.613
 1705TIP3    H1 5079   6.484   6.407   5.570
 1705TIP3    H2 5080   6.570   6.455   5.685
 1706TIP3   OH2 5081   4.187   2.209   5.665
 1706TIP3    H1 5082   4.277   2.240   5.659
 1706TIP3    H2 5083   4.152   2.250   5.744
 1707TIP3   OH2 5084   2.178   5.372   5.020
 1707TIP3    H1 5085   2.099   5.318   5.014
 1707TIP3    H2 5086   2.146   5.462   5.008
 1708TIP3   OH2 5087   0.304   4.410   4.868
 1708TIP3    H1 5088   0.352   4.443   4.944
 1708TIP3    H2 5089   0.371   4.399   4.801
 1709TIP3   OH2 5090   5.062   3.947   3.175
 1709TIP3    H1 5091   5.098   4.022   3.127
 1709TIP3    H2 5092   5.012   3.986   3.247
 1710TIP3   OH2 5093   4.573   5.059   5.791
 1710TIP3    H1 5094   4.506   5.079   5.726
 1710TIP3    H2 5095   4.530   5.000   5.853
 1711TIP3   OH2 5096   6.996   1.709   1.769
 1711TIP3    H1 5097   7.046   1.658   1.833
 1711TIP3    H2 5098   7.052   1.784   1.750
 1712TIP3   OH2 5099   3.369   2.914   2.487
 1712TIP3    H1 5100   3.369   2.982   2.555
 1712TIP3    H2 5101   3.281   2.916   2.451
 1713TIP3   OH2 5102   2.858   5.787   0.809
 1713TIP3    H1 5103   2.880   5.879   0.795
 1713TIP3    H2 5104   2.922   5.757   0.874
 1714TIP3   OH2 5105   2.036   2.885   2.382
 1714TIP3    H1 5106   2.095   2.828   2.431
 1714TIP3    H2 5107   1.949   2.848   2.397
 1715TIP3   OH2 5108   3.373   1.412   4.501
 1715TIP3    H1 5109   3.430   1.489   4.509
 1715TIP3    H2 5110   3.303   1.427   4.566
 1716TIP3   OH2 5111   1.684   2.844   4.623
 1716TIP3    H1 5112   1.725   2.834   4.537
 1716TIP3    H2 5113   1.706   2.763   4.670
 1717TIP3   OH2 5114   6.134   1.343   2.436
 1717TIP3    H1 5115   6.117   1.249   2.431
 1717TIP3    H2 5116   6.058   1.383   2.395
 1718TIP3   OH2 5117   5.305   4.597   1.209
 1718TIP3    H1 5118   5.255   4.516   1.203
 1718TIP3    H2 5119   5.248   4.658   1.255
 1719TIP3   OH2 5120   4.213   5.551   0.634
 1719TIP3    H1 5121   4.225   5.638   0.672
 1719TIP3    H2 5122   4.299   5.528   0.598
 1720TIP3   OH2 5123   1.305   0.215   4.999
 1720TIP3    H1 5124   1.265   0.301   5.003
 1720TIP3    H2 5125   1.281   0.173   5.082
 1721TIP3   OH2 5126   1.920   6.062   2.763
 1721TIP3    H1 5127   1.867   5.985   2.744
 1721TIP3    H2 5128   1.865   6.115   2.821
 1722TIP3   OH2 5129   6.184   2.485   4.114
 1722TIP3    H1 5130   6.135   2.493   4.196
 1722TIP3    H2 5131   6.206   2.576   4.092
 1723TIP3   OH2 5132   4.587   5.235   3.264
 1723TIP3    H1 5133   4.513   5.206   3.318
 1723TIP3    H2 5134   4.664   5.219   3.318
 1724TIP3   OH2 5135   4.629   1.773   4.744
 1724TIP3    H1 5136   4.651   1.863   4.719
 1724TIP3    H2 5137   4.533   1.773   4.752
 1725TIP3   OH2 5138   5.943   0.852   2.031
 1725TIP3    H1 5139   5.892   0.899   2.097
 1725TIP3    H2 5140   5.968   0.920   1.968
 1726TIP3   OH2 5141   3.410   0.120   4.581
 1726TIP3    H1 5142   3.502   0.141   4.567
 1726TIP3    H2 5143   3.384   0.075   4.501
 1727TIP3   OH2 5144   5.695   0.103   1.026
 1727TIP3    H1 5145   5.607   0.068   1.033
 1727TIP3    H2 5146   5.689   0.169   0.956
 1728TIP3   OH2 5147   5.669   3.210   4.566
 1728TIP3    H1 5148   5.676   3.296   4.606
 1728TIP3    H2 5149   5.629   3.155   4.633
 1729TIP3   OH2 5150   5.421   6.290   2.472
 1729TIP3    H1 5151   5.441   6.383   2.461
 1729TIP3    H2 5152   5.380   6.264   2.390
 1730TIP3   OH2 5153   0.900   3.804   2.651
 1730TIP3    H1 5154   0.864   3.870   2.591
 1730TIP3    H2 5155   0.975   3.847   2.692
 1731TIP3   OH2 5156   4.222   2.405   1.100
 1731TIP3    H1 5157   4.271   2.435   1.177
 1731TIP3    H2 5158   4.223   2.480   1.041
 1732TIP3   OH2 5159   3.744   1.625   1.129
 1732TIP3    H1 5160   3.702   1.541   1.149
 1732TIP3    H2 5161   3.684   1.667   1.067
 1733TIP3   OH2 5162   1.116   4.267   5.487
 1733TIP3    H1 5163   1.034   4.301   5.523
 1733TIP3    H2 5164   1.126   4.181   5.528
 1734TIP3   OH2 5165   6.072   3.056   4.964
 1734TIP3    H1 5166   6.069   3.098   4.878
 1734TIP3    H2 5167   5.985   3.020   4.976
 1735TIP3   OH2 5168   6.853   4.573   4.885
 1735TIP3    H1 5169   6.921   4.585   4.819
 1735TIP3    H2 5170   6.900   4.571   4.968
 1736TIP3   OH2 5171   6.870   6.604   5.008
 1736TIP3    H1 5172   6.847   6.696   5.001
 1736TIP3    H2 5173   6.863   6.585   5.102
 1737TIP3   OH2 5174   0.621   6.753   2.036
 1737TIP3    H1 5175   0.673   6.673   2.035
 1737TIP3    H2 5176   0.680   6.820   2.071
 1738TIP3   OH2 5177   2.858   5.855   5.202
 1738TIP3    H1 5178   2.931   5.872   5.142
 1738TIP3    H2 5179   2.781   5.848   5.146
 1739TIP3   OH2 5180   3.331   1.529   0.965
 1739TIP3    H1 5181   3.280   1.459   1.006
 1739TIP3    H2 5182   3.266   1.579   0.915
 1740TIP3   OH2 5183   6.290   6.301   3.853
 1740TIP3    H1 5184   6.322   6.386   3.883
 1740TIP3    H2 5185   6.282   6.249   3.933
 1741TIP3   OH2 5186   3.062   6.510   4.254
 1741TIP3    H1 5187   3.039   6.508   4.161
 1741TIP3    H2 5188   3.157   6.503   4.256
 1742TIP3   OH2 5189   1.923   1.717   3.605
 1742TIP3    H1 5190   1.841   1.677   3.634
 1742TIP3    H2 5191   1.971   1.646   3.562
 1743TIP3   OH2 5192   1.731   1.477   1.992
 1743TIP3    H1 5193   1.657   1.503   2.046
 1743TIP3    H2 5194   1.695   1.413   1.931
 1744TIP3   OH2 5195   1.848   5.479   0.233
 1744TIP3    H1 5196   1.764   5.434   0.238
 1744TIP3    H2 5197   1.906   5.418   0.187
 1745TIP3   OH2 5198   2.635   3.655   0.325
 1745TIP3    H1 5199   2.688   3.726   0.289
 1745TIP3    H2 5200   2.592   3.693   0.401
 1746TIP3   OH2 5201   0.188   0.687   5.825
 1746TIP3    H1 5202   0.280   0.702   5.845
 1746TIP3    H2 5203   0.159   0.767   5.782
 1747TIP3   OH2 5204   0.779   2.845   1.511
 1747TIP3    H1 5205   0.690   2.875   1.492
 1747TIP3    H2 5206   0.798   2.878   1.599
 1748TIP3   OH2 5207   3.362   6.448   3.413
 1748TIP3    H1 5208   3.331   6.531   3.450
 1748TIP3    H2 5209   3.451   6.439   3.446
 1749TIP3   OH2 5210   1.759   4.401   1.978
 1749TIP3    H1 5211   1.729   4.375   2.065
 1749TIP3    H2 5212   1.853   4.379   1.978
 1750TIP3   OH2 5213   4.590   0.341   2.094
 1750TIP3    H1 5214   4.656   0.370   2.158
 1750TIP3    H2 5215   4.538   0.419   2.076
 1751TIP3   OH2 5216   2.064   3.327   0.436
 1751TIP3    H1 5217   1.999   3.397   0.437
 1751TIP3    H2 5218   2.027   3.258   0.490
 1752TIP3   OH2 5219   6.048   6.010   0.313
 1752TIP3    H1 5220   6.074   6.088   0.362
 1752TIP3    H2 5221   6.109   6.005   0.240
 1753TIP3   OH2 5222   2.602   2.154   4.351
 1753TIP3    H1 5223   2.612   2.200   4.267
 1753TIP3    H2 5224   2.650   2.072   4.339
 1754TIP3   OH2 5225   4.665   4.693   5.046
 1754TIP3    H1 5226   4.660   4.736   4.960
 1754TIP3    H2 5227   4.707   4.609   5.027
 1755TIP3   OH2 5228   3.529   6.782   1.029
 1755TIP3    H1 5229   3.435   6.799   1.029
 1755TIP3    H2 5230   3.567   6.849   1.086
 1756TIP3   OH2 5231   5.822   4.360   0.680
 1756TIP3    H1 5232   5.820   4.271   0.716
 1756TIP3    H2 5233   5.915   4.383   0.676
 1757TIP3   OH2 5234   2.963   5.086   1.906
 1757TIP3    H1 5235   2.956   5.177   1.933
 1757TIP3    H2 5236   3.003   5.090   1.818
 1758TIP3   OH2 5237   0.049   5.776   5.708
 1758TIP3    H1 5238   0.091   5.813   5.631
 1758TIP3    H2 5239  -0.002   5.848   5.745
 1759TIP3   OH2 5240   2.301  -0.008   0.980
 1759TIP3    H1 5241   2.335   0.069   0.935
 1759TIP3    H2 5242   2.226   0.025   1.031
 1760TIP3   OH2 5243   0.360   5.316   2.693
 1760TIP3    H1 5244   0.414   5.241   2.715
 1760TIP3    H2 5245   0.284   5.309   2.752
 1761TIP3   OH2 5246   7.101   5.000   4.081
 1761TIP3    H1 5247   7.168   4.942   4.115
 1761TIP3    H2 5248   7.096   5.072   4.144
 1762TIP3   OH2 5249   2.075   6.639   1.306
 1762TIP3    H1 5250   2.109   6.558   1.267
 1762TIP3    H2 5251   1.982   6.621   1.320
 1763TIP3   OH2 5252   1.216   3.665   0.297
 1763TIP3    H1 5253   1.165   3.599   0.249
 1763TIP3    H2 5254   1.205   3.745   0.246
 1764TIP3   OH2 5255   2.100   4.723   4.112
 1764TIP3    H1 5256   2.173   4.779   4.137
 1764TIP3    H2 5257   2.028   4.751   4.168
 1765TIP3   OH2 5258   1.892   6.569   4.532
 1765TIP3    H1 5259   1.832   6.560   4.458
 1765TIP3    H2 5260   1.922   6.480   4.549
 1766TIP3   OH2 5261   0.155   3.180   4.012
 1766TIP3    H1 5262   0.171   3.123   4.087
 1766TIP3    H2 5263   0.186   3.129   3.937
 1767TIP3   OH2 5264   4.500   3.802   2.414
 1767TIP3    H1 5265   4.540   3.865   2.355
 1767TIP3    H2 5266   4.431   3.761   2.362
 1768TIP3   OH2 5267   1.025   6.068   1.459
 1768TIP3    H1 5268   1.081   6.068   1.382
 1768TIP3    H2 5269   1.081   6.037   1.530
 1769TIP3   OH2 5270   5.636   4.771   4.423
 1769TIP3    H1 5271   5.659   4.765   4.516
 1769TIP3    H2 5272   5.619   4.864   4.409
 1770TIP3   OH2 5273   1.063   6.310   5.099
 1770TIP3    H1 5274   0.968   6.316   5.088
 1770TIP3    H2 5275   1.092   6.401   5.112
 1771TIP3   OH2 5276   0.361   0.886   0.739
 1771TIP3    H1 5277   0.320   0.885   0.825
 1771TIP3    H2 5278   0.422   0.812   0.740
 1772TIP3   OH2 5279   3.432   4.169   5.494
 1772TIP3    H1 5280   3.407   4.099   5.554
 1772TIP3    H2 5281   3.527   4.170   5.496
 1773TIP3   OH2 5282   5.897   1.664   4.439
 1773TIP3    H1 5283   5.882   1.577   4.400
 1773TIP3    H2 5284   5.816   1.681   4.488
 1774TIP3   OH2 5285   4.055   0.764   0.177
 1774TIP3    H1 5286   3.980   0.810   0.140
 1774TIP3    H2 5287   4.061   0.796   0.267
 1775TIP3   OH2 5288   5.225   6.586   1.420
 1775TIP3    H1 5289   5.220   6.490   1.412
 1775TIP3    H2 5290   5.284   6.600   1.494
 1776TIP3   OH2 5291   6.408   2.990   0.615
 1776TIP3    H1 5292   6.365   3.007   0.531
 1776TIP3    H2 5293   6.386   2.898   0.634
 1777TIP3   OH2 5294   3.137   0.760   5.184
 1777TIP3    H1 5295   3.091   0.784   5.265
 1777TIP3    H2 5296   3.080   0.697   5.141
 1778TIP3   OH2 5297   3.793   1.963   5.630
 1778TIP3    H1 5298   3.729   2.025   5.595
 1778TIP3    H2 5299   3.740   1.887   5.657
 1779TIP3   OH2 5300   4.575   4.763   3.397
 1779TIP3    H1 5301   4.602   4.855   3.394
 1779TIP3    H2 5302   4.479   4.767   3.400
 1780TIP3   OH2 5303   1.187   5.672   5.610
 1780TIP3    H1 5304   1.199   5.608   5.540
 1780TIP3    H2 5305   1.166   5.753   5.564
 1781TIP3   OH2 5306   5.852   2.589   3.073
 1781TIP3    H1 5307   5.908   2.664   3.094
 1781TIP3    H2 5308   5.770   2.607   3.119
 1782TIP3   OH2 5309   3.558   4.533   0.773
 1782TIP3    H1 5310   3.541   4.533   0.678
 1782TIP3    H2 5311   3.533   4.620   0.802
 1783TIP3   OH2 5312   4.826   0.563   4.481
 1783TIP3    H1 5313   4.819   0.515   4.398
 1783TIP3    H2 5314   4.920   0.570   4.497
 1784TIP3   OH2 5315   5.108   3.476   1.229
 1784TIP3    H1 5316   5.054   3.539   1.276
 1784TIP3    H2 5317   5.195   3.485   1.267
 1785TIP3   OH2 5318   2.433   5.922   5.278
 1785TIP3    H1 5319   2.460   5.897   5.366
 1785TIP3    H2 5320   2.483   6.001   5.259
 1786TIP3   OH2 5321   3.185   2.419   3.649
 1786TIP3    H1 5322   3.253   2.466   3.697
 1786TIP3    H2 5323   3.111   2.480   3.647
 1787TIP3   OH2 5324   2.143   0.231   0.535
 1787TIP3    H1 5325   2.077   0.165   0.557
 1787TIP3    H2 5326   2.221   0.181   0.514
 1788TIP3   OH2 5327   2.453   0.354   4.009
 1788TIP3    H1 5328   2.390   0.411   3.965
 1788TIP3    H2 5329   2.529   0.353   3.951
 1789TIP3   OH2 5330   3.832   0.553   4.258
 1789TIP3    H1 5331   3.749   0.539   4.303
 1789TIP3    H2 5332   3.898   0.547   4.328
 1790TIP3   OH2 5333   6.041   6.056   2.424
 1790TIP3    H1 5334   6.107   6.125   2.420
 1790TIP3    H2 5335   6.090   5.976   2.441
 1791TIP3   OH2 5336   6.424   6.185   2.898
 1791TIP3    H1 5337   6.398   6.107   2.947
 1791TIP3    H2 5338   6.480   6.234   2.959
 1792TIP3   OH2 5339   6.052   6.758   4.857
 1792TIP3    H1 5340   6.021   6.679   4.812
 1792TIP3    H2 5341   6.020   6.831   4.804
 1793TIP3   OH2 5342   2.880   1.113   0.138
 1793TIP3    H1 5343   2.964   1.117   0.091
 1793TIP3    H2 5344   2.814   1.129   0.070
 1794TIP3   OH2 5345   3.747   1.918   3.683
 1794TIP3    H1 5346   3.674   1.965   3.723
 1794TIP3    H2 5347   3.825   1.958   3.722
 1795TIP3   OH2 5348   5.565   0.881   2.712
 1795TIP3    H1 5349   5.615   0.933   2.774
 1795TIP3    H2 5350   5.492   0.846   2.763
 1796TIP3   OH2 5351   5.721   1.579   3.219
 1796TIP3    H1 5352   5.650   1.637   3.190
 1796TIP3    H2 5353   5.801   1.628   3.198
 1797TIP3   OH2 5354   4.435   6.137   1.283
 1797TIP3    H1 5355   4.410   6.216   1.236
 1797TIP3    H2 5356   4.416   6.066   1.223
 1798TIP3   OH2 5357   5.214   1.473   2.410
 1798TIP3    H1 5358   5.227   1.378   2.403
 1798TIP3    H2 5359   5.252   1.495   2.495
 1799TIP3   OH2 5360   3.895   1.665   3.257
 1799TIP3    H1 5361   3.902   1.703   3.344
 1799TIP3    H2 5362   3.905   1.740   3.198
 1800TIP3   OH2 5363   4.904   1.633   2.158
 1800TIP3    H1 5364   4.921   1.724   2.133
 1800TIP3    H2 5365   4.809   1.625   2.155
 1801TIP3   OH2 5366   4.762   2.016   4.004
 1801TIP3    H1 5367   4.739   2.107   3.984
 1801TIP3    H2 5368   4.678   1.969   4.004
 1802TIP3   OH2 5369   1.576   1.677   5.285
 1802TIP3    H1 5370   1.494   1.628   5.273
 1802TIP3    H2 5371   1.633   1.647   5.214
 1803TIP3   OH2 5372   2.153   4.062   1.425
 1803TIP3    H1 5373   2.158   4.006   1.348
 1803TIP3    H2 5374   2.104   4.010   1.489
 1804TIP3   OH2 5375   0.856   6.269   4.422
 1804TIP3    H1 5376   0.829   6.349   4.465
 1804TIP3    H2 5377   0.943   6.251   4.455
 1805TIP3   OH2 5378   5.142   4.870   1.664
 1805TIP3    H1 5379   5.049   4.888   1.653
 1805TIP3    H2 5380   5.149   4.831   1.751
 1806TIP3   OH2 5381   0.992   0.220   4.691
 1806TIP3    H1 5382   0.962   0.214   4.600
 1806TIP3    H2 5383   0.929   0.166   4.740
 1807TIP3   OH2 5384   3.148   0.895   4.950
 1807TIP3    H1 5385   3.150   0.835   5.025
 1807TIP3    H2 5386   3.148   0.983   4.990
 1808TIP3   OH2 5387   4.614   5.231   2.129
 1808TIP3    H1 5388   4.659   5.305   2.170
 1808TIP3    H2 5389   4.663   5.215   2.048
 1809TIP3   OH2 5390   7.156   4.532   2.110
 1809TIP3    H1 5391   7.159   4.518   2.204
 1809TIP3    H2 5392   7.084   4.594   2.097
 1810TIP3   OH2 5393   7.193   0.815   4.235
 1810TIP3    H1 5394   7.173   0.739   4.290
 1810TIP3    H2 5395   7.229   0.778   4.154
 1811TIP3   OH2 5396   0.685   5.225   5.764
 1811TIP3    H1 5397   0.735   5.145   5.781
 1811TIP3    H2 5398   0.708   5.284   5.836
 1812TIP3   OH2 5399   5.444   6.069   0.351
 1812TIP3    H1 5400   5.392   6.013   0.410
 1812TIP3    H2 5401   5.441   6.156   0.392
 1813TIP3   OH2 5402   3.369   4.275   3.606
 1813TIP3    H1 5403   3.376   4.189   3.565
 1813TIP3    H2 5404   3.431   4.273   3.678
 1814TIP3   OH2 5405   0.936   3.951   2.164
 1814TIP3    H1 5406   0.869   3.988   2.222
 1814TIP3    H2 5407   1.011   3.936   2.221
 1815TIP3   OH2 5408   6.262   3.413   4.535
 1815TIP3    H1 5409   6.213   3.486   4.499
 1815TIP3    H2 5410   6.351   3.426   4.504
 1816TIP3   OH2 5411   2.040   5.306   3.441
 1816TIP3    H1 5412   1.969   5.361   3.474
 1816TIP3    H2 5413   2.022   5.219   3.476
 1817TIP3   OH2 5414   2.448   3.168   0.135
 1817TIP3    H1 5415   2.482   3.222   0.207
 1817TIP3    H2 5416   2.489   3.082   0.148
 1818TIP3   OH2 5417   6.227   5.017   1.291
 1818TIP3    H1 5418   6.301   5.037   1.347
 1818TIP3    H2 5419   6.235   4.924   1.270
 1819TIP3   OH2 5420   6.475   2.072   4.432
 1819TIP3    H1 5421   6.526   2.115   4.364
 1819TIP3    H2 5422   6.429   2.144   4.476
 1820TIP3   OH2 5423   6.068   3.214   3.637
 1820TIP3    H1 5424   6.007   3.230   3.565
 1820TIP3    H2 5425   6.106   3.300   3.656
 1821TIP3   OH2 5426   0.745   3.917   1.574
 1821TIP3    H1 5427   0.734   3.994   1.631
 1821TIP3    H2 5428   0.822   3.938   1.521
 1822TIP3   OH2 5429   5.518   1.064   2.507
 1822TIP3    H1 5430   5.472   1.047   2.424
 1822TIP3    H2 5431   5.501   0.986   2.560
 1823TIP3   OH2 5432   4.007   5.858   2.824
 1823TIP3    H1 5433   4.057   5.813   2.755
 1823TIP3    H2 5434   4.058   5.844   2.904
 1824TIP3   OH2 5435   3.994   3.515   1.831
 1824TIP3    H1 5436   3.991   3.502   1.926
 1824TIP3    H2 5437   4.081   3.485   1.805
 1825TIP3   OH2 5438   4.328   5.602   3.655
 1825TIP3    H1 5439   4.314   5.693   3.684
 1825TIP3    H2 5440   4.419   5.584   3.679
 1826TIP3   OH2 5441   5.492   4.885   5.716
 1826TIP3    H1 5442   5.399   4.868   5.727
 1826TIP3    H2 5443   5.516   4.939   5.791
 1827TIP3   OH2 5444   0.844   5.817   4.685
 1827TIP3    H1 5445   0.831   5.911   4.701
 1827TIP3    H2 5446   0.909   5.790   4.749
 1828TIP3   OH2 5447   4.598   2.929   0.870
 1828TIP3    H1 5448   4.689   2.900   0.863
 1828TIP3    H2 5449   4.596   3.014   0.827
 1829TIP3   OH2 5450   6.892   4.241   3.598
 1829TIP3    H1 5451   6.965   4.198   3.553
 1829TIP3    H2 5452   6.824   4.174   3.603
 1830TIP3   OH2 5453   2.739   3.265   4.683
 1830TIP3    H1 5454   2.825   3.308   4.675
 1830TIP3    H2 5455   2.759   3.171   4.677
 1831TIP3   OH2 5456   4.717   4.084   2.693
 1831TIP3    H1 5457   4.786   4.018   2.688
 1831TIP3    H2 5458   4.637   4.037   2.669
 1832TIP3   OH2 5459   1.324   3.712   2.011
 1832TIP3    H1 5460   1.322   3.775   1.940
 1832TIP3    H2 5461   1.345   3.764   2.089
 1833TIP3   OH2 5462   3.954   4.595   4.994
 1833TIP3    H1 5463   3.868   4.570   5.029
 1833TIP3    H2 5464   3.997   4.639   5.067
 1834TIP3   OH2 5465   6.858   4.658   0.076
 1834TIP3    H1 5466   6.791   4.720   0.106
 1834TIP3    H2 5467   6.818   4.572   0.089
 1835TIP3   OH2 5468   3.611   2.804   5.961
 1835TIP3    H1 5469   3.649   2.716   5.965
 1835TIP3    H2 5470   3.669   2.852   5.902
 1836TIP3   OH2 5471   4.367   5.808   5.003
 1836TIP3    H1 5472   4.442   5.755   4.977
 1836TIP3    H2 5473   4.340   5.852   4.922
 1837TIP3   OH2 5474   6.877   1.468   0.752
 1837TIP3    H1 5475   6.943   1.482   0.684
 1837TIP3    H2 5476   6.793   1.475   0.706
 1838TIP3   OH2 5477   1.824   5.889   0.554
 1838TIP3    H1 5478   1.799   5.806   0.512
 1838TIP3    H2 5479   1.802   5.956   0.490
 1839TIP3   OH2 5480   3.719   3.755   4.825
 1839TIP3    H1 5481   3.656   3.806   4.877
 1839TIP3    H2 5482   3.774   3.822   4.784
 1840TIP3   OH2 5483   3.596  -0.052   3.566
 1840TIP3    H1 5484   3.625   0.017   3.507
 1840TIP3    H2 5485   3.501  -0.047   3.565
 1841TIP3   OH2 5486   7.157   5.252   4.532
 1841TIP3    H1 5487   7.117   5.338   4.527
 1841TIP3    H2 5488   7.204   5.252   4.616
 1842TIP3   OH2 5489   6.684   5.816   5.301
 1842TIP3    H1 5490   6.668   5.724   5.324
 1842TIP3    H2 5491   6.775   5.817   5.271
 1843TIP3   OH2 5492   3.231   6.473   1.500
 1843TIP3    H1 5493   3.293   6.527   1.549
 1843TIP3    H2 5494   3.207   6.526   1.424
 1844TIP3   OH2 5495   3.857   1.350   0.978
 1844TIP3    H1 5496   3.832   1.265   1.014
 1844TIP3    H2 5497   3.893   1.331   0.892
 1845TIP3   OH2 5498   6.215   3.507   0.309
 1845TIP3    H1 5499   6.301   3.506   0.267
 1845TIP3    H2 5500   6.218   3.436   0.372
 1846TIP3   OH2 5501   4.865   1.133   1.316
 1846TIP3    H1 5502   4.779   1.144   1.357
 1846TIP3    H2 5503   4.921   1.197   1.361
 1847TIP3   OH2 5504   0.469   5.637   0.315
 1847TIP3    H1 5505   0.437   5.690   0.242
 1847TIP3    H2 5506   0.486   5.700   0.385
 1848TIP3   OH2 5507   2.869   0.865   3.958
 1848TIP3    H1 5508   2.883   0.827   4.044
 1848TIP3    H2 5509   2.952   0.853   3.912
 1849TIP3   OH2 5510   2.896   3.940   3.531
 1849TIP3    H1 5511   2.904   3.846   3.519
 1849TIP3    H2 5512   2.980   3.976   3.500
 1850TIP3   OH2 5513   1.992   5.915   1.899
 1850TIP3    H1 5514   1.960   5.983   1.957
 1850TIP3    H2 5515   1.930   5.843   1.908
 1851TIP3   OH2 5516   0.554   4.446   1.932
 1851TIP3    H1 5517   0.632   4.500   1.917
 1851TIP3    H2 5518   0.551   4.434   2.027
 1852TIP3   OH2 5519   2.880   1.631   5.080
 1852TIP3    H1 5520   2.905   1.698   5.016
 1852TIP3    H2 5521   2.792   1.656   5.108
 1853TIP3   OH2 5522   5.473   0.024   5.842
 1853TIP3    H1 5523   5.431   0.110   5.841
 1853TIP3    H2 5524   5.463  -0.008   5.932
 1854TIP3   OH2 5525   4.656   0.182   0.471
 1854TIP3    H1 5526   4.592   0.246   0.440
 1854TIP3    H2 5527   4.680   0.133   0.393
 1855TIP3   OH2 5528   2.957   5.163   5.580
 1855TIP3    H1 5529   2.991   5.115   5.504
 1855TIP3    H2 5530   3.003   5.124   5.655
 1856TIP3   OH2 5531   0.166   1.641   2.090
 1856TIP3    H1 5532   0.129   1.687   2.165
 1856TIP3    H2 5533   0.257   1.625   2.114
 1857TIP3   OH2 5534   5.576   5.878   5.037
 1857TIP3    H1 5535   5.582   5.878   4.941
 1857TIP3    H2 5536   5.657   5.839   5.066
 1858TIP3   OH2 5537   1.671   5.737   3.092
 1858TIP3    H1 5538   1.697   5.672   3.157
 1858TIP3    H2 5539   1.745   5.742   3.032
 1859TIP3   OH2 5540   1.615   1.187   5.757
 1859TIP3    H1 5541   1.626   1.142   5.673
 1859TIP3    H2 5542   1.552   1.133   5.804
 1860TIP3   OH2 5543   3.580   2.214   4.962
 1860TIP3    H1 5544   3.519   2.267   4.911
 1860TIP3    H2 5545   3.526   2.178   5.033
 1861TIP3   OH2 5546   0.022   3.344   0.346
 1861TIP3    H1 5547   0.036   3.382   0.260
 1861TIP3    H2 5548   0.085   3.271   0.350
 1862TIP3   OH2 5549   1.208   2.069   0.411
 1862TIP3    H1 5550   1.294   2.110   0.397
 1862TIP3    H2 5551   1.145   2.135   0.383
 1863TIP3   OH2 5552   2.069   5.638   4.164
 1863TIP3    H1 5553   2.162   5.659   4.161
 1863TIP3    H2 5554   2.053   5.587   4.084
 1864TIP3   OH2 5555   0.511   5.110   2.797
 1864TIP3    H1 5556   0.602   5.140   2.797
 1864TIP3    H2 5557   0.501   5.065   2.881
 1865TIP3   OH2 5558   4.449   6.679   0.930
 1865TIP3    H1 5559   4.456   6.773   0.915
 1865TIP3    H2 5560   4.365   6.654   0.892
 1866TIP3   OH2 5561   5.986   2.759   4.924
 1866TIP3    H1 5562   5.987   2.722   4.836
 1866TIP3    H2 5563   6.022   2.689   4.979
 1867TIP3   OH2 5564   6.468   4.396   4.678
 1867TIP3    H1 5565   6.540   4.390   4.740
 1867TIP3    H2 5566   6.434   4.307   4.671
 1868TIP3   OH2 5567   2.995   3.098   5.633
 1868TIP3    H1 5568   2.931   3.117   5.564
 1868TIP3    H2 5569   3.034   3.015   5.607
 1869TIP3   OH2 5570   4.022   0.655   3.503
 1869TIP3    H1 5571   4.018   0.629   3.595
 1869TIP3    H2 5572   3.934   0.686   3.483
 1870TIP3   OH2 5573   4.655   2.803   1.158
 1870TIP3    H1 5574   4.653   2.832   1.067
 1870TIP3    H2 5575   4.726   2.853   1.198
 1871TIP3   OH2 5576   0.303   2.630   3.779
 1871TIP3    H1 5577   0.370   2.681   3.732
 1871TIP3    H2 5578   0.301   2.546   3.734
 1872TIP3   OH2 5579   3.736   5.164   2.170
 1872TIP3    H1 5580   3.799   5.137   2.238
 1872TIP3    H2 5581   3.665   5.100   2.176
 1873TIP3   OH2 5582   5.982   5.727   3.187
 1873TIP3    H1 5583   5.984   5.820   3.162
 1873TIP3    H2 5584   6.018   5.681   3.110
 1874TIP3   OH2 5585   2.605   1.728   0.666
 1874TIP3    H1 5586   2.522   1.730   0.618
 1874TIP3    H2 5587   2.593   1.658   0.730
 1875TIP3   OH2 5588   5.580   5.414   4.610
 1875TIP3    H1 5589   5.657   5.465   4.634
 1875TIP3    H2 5590   5.564   5.437   4.518
 1876TIP3   OH2 5591   1.881   5.677   2.917
 1876TIP3    H1 5592   1.976   5.671   2.902
 1876TIP3    H2 5593   1.847   5.594   2.884
 1877TIP3   OH2 5594   2.048   6.742   5.234
 1877TIP3    H1 5595   1.966   6.692   5.244
 1877TIP3    H2 5596   2.026   6.813   5.174
 1878TIP3   OH2 5597   6.204   1.687   0.027
 1878TIP3    H1 5598   6.156   1.694   0.110
 1878TIP3    H2 5599   6.276   1.749   0.036
 1879TIP3   OH2 5600   2.894   3.273   3.728
 1879TIP3    H1 5601   2.834   3.271   3.802
 1879TIP3    H2 5602   2.981   3.273   3.767
 1880TIP3   OH2 5603   1.360   3.000   4.005
 1880TIP3    H1 5604   1.347   3.093   3.989
 1880TIP3    H2 5605   1.419   2.971   3.935
 1881TIP3   OH2 5606   6.578   4.589   0.703
 1881TIP3    H1 5607   6.585   4.506   0.657
 1881TIP3    H2 5608   6.542   4.566   0.789
 1882TIP3   OH2 5609   5.545   0.061   3.849
 1882TIP3    H1 5610   5.626   0.064   3.799
 1882TIP3    H2 5611   5.488   0.124   3.806
 1883TIP3   OH2 5612   4.729   1.655   1.758
 1883TIP3    H1 5613   4.712   1.738   1.712
 1883TIP3    H2 5614   4.691   1.668   1.845
 1884TIP3   OH2 5615   3.775   3.269   3.411
 1884TIP3    H1 5616   3.850   3.291   3.356
 1884TIP3    H2 5617   3.749   3.352   3.451
 1885TIP3   OH2 5618   4.599   2.438   4.197
 1885TIP3    H1 5619   4.519   2.433   4.146
 1885TIP3    H2 5620   4.610   2.350   4.233
 1886TIP3   OH2 5621   6.689   4.855   3.232
 1886TIP3    H1 5622   6.751   4.838   3.161
 1886TIP3    H2 5623   6.612   4.803   3.210
 1887TIP3   OH2 5624   6.838   2.680   1.223
 1887TIP3    H1 5625   6.763   2.620   1.227
 1887TIP3    H2 5626   6.848   2.711   1.313
 1888TIP3   OH2 5627   3.386   1.889   3.334
 1888TIP3    H1 5628   3.433   1.905   3.415
 1888TIP3    H2 5629   3.440   1.826   3.286
 1889TIP3   OH2 5630   7.022   1.741   2.096
 1889TIP3    H1 5631   6.943   1.796   2.096
 1889TIP3    H2 5632   7.093   1.801   2.072
 1890TIP3   OH2 5633   2.144   5.028   1.755
 1890TIP3    H1 5634   2.228   5.072   1.750
 1890TIP3    H2 5635   2.089   5.074   1.691
 1891TIP3   OH2 5636   7.035   5.320   5.883
 1891TIP3    H1 5637   7.092   5.335   5.958
 1891TIP3    H2 5638   7.070   5.378   5.815
 1892TIP3   OH2 5639   4.266   4.757   3.332
 1892TIP3    H1 5640   4.188   4.806   3.360
 1892TIP3    H2 5641   4.284   4.790   3.243
 1893TIP3   OH2 5642   4.986   0.586   0.085
 1893TIP3    H1 5643   5.057   0.524   0.071
 1893TIP3    H2 5644   4.908   0.542   0.050
 1894TIP3   OH2 5645   0.886   1.894   2.670
 1894TIP3    H1 5646   0.958   1.840   2.701
 1894TIP3    H2 5647   0.919   1.983   2.674
 1895TIP3   OH2 5648   7.026   3.784   4.177
 1895TIP3    H1 5649   6.963   3.713   4.176
 1895TIP3    H2 5650   7.086   3.764   4.105
 1896TIP3   OH2 5651   2.399   4.130   2.339
 1896TIP3    H1 5652   2.474   4.115   2.396
 1896TIP3    H2 5653   2.361   4.212   2.371
 1897TIP3   OH2 5654   1.819   6.182   0.074
 1897TIP3    H1 5655   1.743   6.233   0.045
 1897TIP3    H2 5656   1.842   6.128  -0.001
 1898TIP3   OH2 5657   2.683  -0.025   5.269
 1898TIP3    H1 5658   2.694   0.048   5.209
 1898TIP3    H2 5659   2.768  -0.070   5.268
 1899TIP3   OH2 5660   2.193   4.820   4.862
 1899TIP3    H1 5661   2.208   4.771   4.782
 1899TIP3    H2 5662   2.236   4.768   4.930
 1900TIP3   OH2 5663   2.862   4.971   0.719
 1900TIP3    H1 5664   2.905   4.998   0.638
 1900TIP3    H2 5665   2.863   4.875   0.716
 1901TIP3   OH2 5666   4.743   3.890   4.312
 1901TIP3    H1 5667   4.779   3.907   4.399
 1901TIP3    H2 5668   4.672   3.827   4.327
 1902TIP3   OH2 5669   3.792   1.048   2.250
 1902TIP3    H1 5670   3.870   1.081   2.296
 1902TIP3    H2 5671   3.791   1.097   2.168
 1903TIP3   OH2 5672   0.432   1.103   2.000
 1903TIP3    H1 5673   0.395   1.190   2.018
 1903TIP3    H2 5674   0.495   1.118   1.929
 1904TIP3   OH2 5675   6.657   4.382   1.362
 1904TIP3    H1 5676   6.642   4.289   1.382
 1904TIP3    H2 5677   6.751   4.393   1.370
 1905TIP3   OH2 5678   6.992   0.003   4.000
 1905TIP3    H1 5679   7.049   0.076   3.977
 1905TIP3    H2 5680   6.909   0.043   4.023
 1906TIP3   OH2 5681   5.101   0.219   5.784
 1906TIP3    H1 5682   5.055   0.302   5.797
 1906TIP3    H2 5683   5.036   0.152   5.804
 1907TIP3   OH2 5684   0.367   0.405   3.999
 1907TIP3    H1 5685   0.451   0.451   3.996
 1907TIP3    H2 5686   0.358   0.377   4.090
 1908TIP3   OH2 5687   1.058   3.030   2.898
 1908TIP3    H1 5688   1.027   2.951   2.855
 1908TIP3    H2 5689   1.028   3.101   2.842
 1909TIP3   OH2 5690   6.480   6.573   3.156
 1909TIP3    H1 5691   6.489   6.630   3.233
 1909TIP3    H2 5692   6.508   6.487   3.186
 1910TIP3   OH2 5693   1.539   6.057   2.616
 1910TIP3    H1 5694   1.546   5.965   2.640
 1910TIP3    H2 5695   1.469   6.091   2.673
 1911TIP3   OH2 5696   0.858   0.812   2.925
 1911TIP3    H1 5697   0.949   0.842   2.926
 1911TIP3    H2 5698   0.862   0.725   2.886
 1912TIP3   OH2 5699   5.914   1.338   0.426
 1912TIP3    H1 5700   5.821   1.335   0.402
 1912TIP3    H2 5701   5.915   1.322   0.520
 1913TIP3   OH2 5702   0.974   6.119   0.216
 1913TIP3    H1 5703   1.040   6.070   0.264
 1913TIP3    H2 5704   0.890   6.091   0.255
 1914TIP3   OH2 5705   6.851   5.887   4.489
 1914TIP3    H1 5706   6.934   5.881   4.442
 1914TIP3    H2 5707   6.868   5.843   4.573
 1915TIP3   OH2 5708   6.096   1.968   3.726
 1915TIP3    H1 5709   6.073   2.057   3.697
 1915TIP3    H2 5710   6.178   1.980   3.774
 1916TIP3   OH2 5711   6.029   5.004   3.929
 1916TIP3    H1 5712   5.969   5.059   3.879
 1916TIP3    H2 5713   6.043   4.927   3.873
 1917TIP3   OH2 5714   0.538   6.216   2.681
 1917TIP3    H1 5715   0.443   6.206   2.684
 1917TIP3    H2 5716   0.568   6.141   2.630
 1918TIP3   OH2 5717   5.620   3.940   4.055
 1918TIP3    H1 5718   5.686   3.873   4.071
 1918TIP3    H2 5719   5.539   3.891   4.040
 1919TIP3   OH2 5720   3.062   4.218   2.310
 1919TIP3    H1 5721   2.997   4.264   2.364
 1919TIP3    H2 5722   3.119   4.287   2.277
 1920TIP3   OH2 5723   2.035   5.843  -0.033
 1920TIP3    H1 5724   2.036   5.748  -0.038
 1920TIP3    H2 5725   2.038   5.862   0.061
 1921TIP3   OH2 5726   4.599   4.501   0.290
 1921TIP3    H1 5727   4.617   4.551   0.369
 1921TIP3    H2 5728   4.606   4.410   0.316
 1922TIP3   OH2 5729   1.446   1.791   5.659
 1922TIP3    H1 5730   1.495   1.845   5.720
 1922TIP3    H2 5731   1.512   1.740   5.613
 1923TIP3   OH2 5732   0.422   5.827   4.766
 1923TIP3    H1 5733   0.477   5.892   4.722
 1923TIP3    H2 5734   0.379   5.780   4.695
 1924TIP3   OH2 5735   5.404   0.744   0.800
 1924TIP3    H1 5736   5.374   0.820   0.851
 1924TIP3    H2 5737   5.324   0.708   0.762
 1925TIP3   OH2 5738   2.131   1.132   4.804
 1925TIP3    H1 5739   2.174   1.050   4.828
 1925TIP3    H2 5740   2.044   1.105   4.774
 1926TIP3   OH2 5741   6.276   4.951   5.535
 1926TIP3    H1 5742   6.332   5.009   5.587
 1926TIP3    H2 5743   6.191   4.995   5.532
 1927TIP3   OH2 5744   4.871   0.397   4.280
 1927TIP3    H1 5745   4.785   0.373   4.246
 1927TIP3    H2 5746   4.932   0.376   4.210
 1928TIP3   OH2 5747   4.949   0.321   5.513
 1928TIP3    H1 5748   4.957   0.371   5.595
 1928TIP3    H2 5749   4.983   0.234   5.535
 1929TIP3   OH2 5750   1.016   5.972   2.289
 1929TIP3    H1 5751   1.006   6.059   2.250
 1929TIP3    H2 5752   1.073   5.986   2.365
 1930TIP3   OH2 5753   2.513   2.859   2.783
 1930TIP3    H1 5754   2.574   2.820   2.847
 1930TIP3    H2 5755   2.552   2.839   2.698
 1931TIP3   OH2 5756   5.263   0.776   2.344
 1931TIP3    H1 5757   5.350   0.740   2.361
 1931TIP3    H2 5758   5.203   0.720   2.394
 1932TIP3   OH2 5759   3.898   4.859   0.770
 1932TIP3    H1 5760   3.974   4.858   0.829
 1932TIP3    H2 5761   3.850   4.938   0.795
 1933TIP3   OH2 5762   5.613   3.374   5.619
 1933TIP3    H1 5763   5.575   3.446   5.669
 1933TIP3    H2 5764   5.708   3.382   5.632
 1934TIP3   OH2 5765   1.922   3.749   0.539
 1934TIP3    H1 5766   1.830   3.756   0.561
 1934TIP3    H2 5767   1.943   3.832   0.496
 1935TIP3   OH2 5768   6.977   3.616   1.430
 1935TIP3    H1 5769   6.890   3.630   1.391
 1935TIP3    H2 5770   6.999   3.526   1.407
 1936TIP3   OH2 5771   0.196   5.014   1.129
 1936TIP3    H1 5772   0.177   5.108   1.127
 1936TIP3    H2 5773   0.111   4.973   1.148
 1937TIP3   OH2 5774   6.227   5.884   2.808
 1937TIP3    H1 5775   6.192   5.828   2.738
 1937TIP3    H2 5776   6.318   5.857   2.817
 1938TIP3   OH2 5777   4.692   6.650   3.225
 1938TIP3    H1 5778   4.752   6.611   3.161
 1938TIP3    H2 5779   4.606   6.615   3.203
 1939TIP3   OH2 5780   0.215   6.761   1.599
 1939TIP3    H1 5781   0.291   6.718   1.638
 1939TIP3    H2 5782   0.248   6.845   1.569
 1940TIP3   OH2 5783   1.850   1.036   4.260
 1940TIP3    H1 5784   1.801   1.115   4.283
 1940TIP3    H2 5785   1.784   0.971   4.239
 1941TIP3   OH2 5786   4.997   0.492   5.716
 1941TIP3    H1 5787   4.971   0.546   5.790
 1941TIP3    H2 5788   5.077   0.533   5.683
 1942TIP3   OH2 5789   0.706   0.930   0.523
 1942TIP3    H1 5790   0.760   0.862   0.483
 1942TIP3    H2 5791   0.699   0.904   0.615
 1943TIP3   OH2 5792   3.332   4.595   1.679
 1943TIP3    H1 5793   3.247   4.555   1.698
 1943TIP3    H2 5794   3.362   4.552   1.599
 1944TIP3   OH2 5795   7.076   1.854   5.180
 1944TIP3    H1 5796   7.083   1.759   5.194
 1944TIP3    H2 5797   7.086   1.892   5.267
 1945TIP3   OH2 5798   6.975   6.331   2.685
 1945TIP3    H1 5799   6.900   6.301   2.633
 1945TIP3    H2 5800   6.989   6.422   2.657
 1946TIP3   OH2 5801   1.462   2.450   5.505
 1946TIP3    H1 5802   1.368   2.450   5.490
 1946TIP3    H2 5803   1.473   2.502   5.585
 1947TIP3   OH2 5804   0.865   1.656   3.697
 1947TIP3    H1 5805   0.853   1.600   3.621
 1947TIP3    H2 5806   0.789   1.714   3.696
 1948TIP3   OH2 5807   4.656   6.546   4.131
 1948TIP3    H1 5808   4.581   6.522   4.184
 1948TIP3    H2 5809   4.625   6.617   4.075
 1949TIP3   OH2 5810   1.851   0.425   5.051
 1949TIP3    H1 5811   1.756   0.435   5.060
 1949TIP3    H2 5812   1.866   0.424   4.956
 1950TIP3   OH2 5813   2.939   4.231   3.737
 1950TIP3    H1 5814   2.939   4.327   3.740
 1950TIP3    H2 5815   2.885   4.205   3.812
 1951TIP3   OH2 5816   6.103   5.272   0.161
 1951TIP3    H1 5817   6.021   5.276   0.112
 1951TIP3    H2 5818   6.127   5.363   0.177
 1952TIP3   OH2 5819   6.393   2.968   3.421
 1952TIP3    H1 5820   6.422   3.013   3.500
 1952TIP3    H2 5821   6.472   2.925   3.388
 1953TIP3   OH2 5822   3.122   5.367   0.175
 1953TIP3    H1 5823   3.076   5.428   0.232
 1953TIP3    H2 5824   3.084   5.381   0.088
 1954TIP3   OH2 5825   5.971   4.594   4.601
 1954TIP3    H1 5826   6.035   4.542   4.650
 1954TIP3    H2 5827   5.900   4.609   4.663
 1955TIP3   OH2 5828   6.448   3.650   2.830
 1955TIP3    H1 5829   6.475   3.616   2.745
 1955TIP3    H2 5830   6.402   3.577   2.872
 1956TIP3   OH2 5831   4.685   4.915   2.602
 1956TIP3    H1 5832   4.678   4.983   2.668
 1956TIP3    H2 5833   4.602   4.917   2.555
 1957TIP3   OH2 5834   3.037   3.886   0.945
 1957TIP3    H1 5835   3.078   3.877   1.032
 1957TIP3    H2 5836   3.107   3.919   0.889
 1958TIP3   OH2 5837   2.073   5.036   3.259
 1958TIP3    H1 5838   2.142   5.102   3.251
 1958TIP3    H2 5839   2.095   4.989   3.340
 1959TIP3   OH2 5840   4.941   5.883   2.000
 1959TIP3    H1 5841   4.904   5.802   1.965
 1959TIP3    H2 5842   5.002   5.912   1.933
 1960TIP3   OH2 5843   2.511   5.035   4.767
 1960TIP3    H1 5844   2.451   5.056   4.696
 1960TIP3    H2 5845   2.454   5.021   4.843
 1961TIP3   OH2 5846   5.661   0.489   2.072
 1961TIP3    H1 5847   5.609   0.566   2.050
 1961TIP3    H2 5848   5.723   0.519   2.138
 1962TIP3   OH2 5849   3.497   3.106   5.497
 1962TIP3    H1 5850   3.503   3.014   5.522
 1962TIP3    H2 5851   3.405   3.129   5.512
 1963TIP3   OH2 5852   1.067   6.306   1.637
 1963TIP3    H1 5853   1.067   6.257   1.554
 1963TIP3    H2 5854   1.015   6.384   1.619
 1964TIP3   OH2 5855   1.966   6.055   1.639
 1964TIP3    H1 5856   1.962   6.148   1.661
 1964TIP3    H2 5857   1.965   6.010   1.723
 1965TIP3   OH2 5858   1.832   4.396   3.523
 1965TIP3    H1 5859   1.880   4.373   3.444
 1965TIP3    H2 5860   1.898   4.402   3.592
 1966TIP3   OH2 5861   3.519   4.661   4.993
 1966TIP3    H1 5862   3.571   4.741   4.982
 1966TIP3    H2 5863   3.439   4.677   4.943
 1967TIP3   OH2 5864   1.019   4.174   2.600
 1967TIP3    H1 5865   1.108   4.137   2.605
 1967TIP3    H2 5866   1.031   4.267   2.623
 1968TIP3   OH2 5867   4.349   5.672   0.280
 1968TIP3    H1 5868   4.255   5.662   0.294
 1968TIP3    H2 5869   4.356   5.709   0.192
 1969TIP3   OH2 5870   1.911   5.015   1.276
 1969TIP3    H1 5871   1.971   5.087   1.257
 1969TIP3    H2 5872   1.825   5.047   1.246
 1970TIP3   OH2 5873   4.982   2.842   0.597
 1970TIP3    H1 5874   4.960   2.912   0.536
 1970TIP3    H2 5875   4.951   2.762   0.555
 1971TIP3   OH2 5876   4.749   5.130   0.938
 1971TIP3    H1 5877   4.794   5.206   0.977
 1971TIP3    H2 5878   4.814   5.090   0.881
 1972TIP3   OH2 5879   2.343   2.667   5.133
 1972TIP3    H1 5880   2.412   2.699   5.076
 1972TIP3    H2 5881   2.379   2.588   5.173
 1973TIP3   OH2 5882   3.655   0.452   3.326
 1973TIP3    H1 5883   3.741   0.471   3.289
 1973TIP3    H2 5884   3.602   0.528   3.305
 1974TIP3   OH2 5885   1.844   0.911   3.760
 1974TIP3    H1 5886   1.862   1.004   3.774
 1974TIP3    H2 5887   1.862   0.897   3.667
 1975TIP3   OH2 5888   3.459   5.130   4.280
 1975TIP3    H1 5889   3.423   5.179   4.206
 1975TIP3    H2 5890   3.425   5.176   4.357
 1976TIP3   OH2 5891   0.308   0.868   4.670
 1976TIP3    H1 5892   0.357   0.890   4.749
 1976TIP3    H2 5893   0.278   0.952   4.636
 1977TIP3   OH2 5894   4.291   6.729   4.799
 1977TIP3    H1 5895   4.206   6.734   4.756
 1977TIP3    H2 5896   4.276   6.759   4.888
 1978TIP3   OH2 5897   6.436   2.728   5.036
 1978TIP3    H1 5898   6.436   2.812   5.080
 1978TIP3    H2 5899   6.372   2.738   4.965
 1979TIP3   OH2 5900   1.615   3.826   4.388
 1979TIP3    H1 5901   1.555   3.900   4.399
 1979TIP3    H2 5902   1.558   3.749   4.394
 1980TIP3   OH2 5903   3.697   2.524   2.211
 1980TIP3    H1 5904   3.688   2.579   2.289
 1980TIP3    H2 5905   3.684   2.585   2.138
 1981TIP3   OH2 5906   5.784   5.375   5.626
 1981TIP3    H1 5907   5.798   5.395   5.533
 1981TIP3    H2 5908   5.804   5.282   5.634
 1982TIP3   OH2 5909   2.277   0.336   2.975
 1982TIP3    H1 5910   2.318   0.251   2.989
 1982TIP3    H2 5911   2.254   0.337   2.882
 1983TIP3   OH2 5912   0.770   2.579   1.552
 1983TIP3    H1 5913   0.857   2.554   1.583
 1983TIP3    H2 5914   0.779   2.671   1.528
 1984TIP3   OH2 5915   4.722   3.620   2.371
 1984TIP3    H1 5916   4.671   3.698   2.392
 1984TIP3    H2 5917   4.663   3.547   2.387
 1985TIP3   OH2 5918   5.325   2.275   4.841
 1985TIP3    H1 5919   5.367   2.225   4.772
 1985TIP3    H2 5920   5.232   2.257   4.832
 1986TIP3   OH2 5921   0.549   5.855   3.756
 1986TIP3    H1 5922   0.480   5.792   3.734
 1986TIP3    H2 5923   0.516   5.902   3.832
 1987TIP3   OH2 5924   0.667   4.567   5.544
 1987TIP3    H1 5925   0.632   4.655   5.528
 1987TIP3    H2 5926   0.607   4.529   5.608
 1988TIP3   OH2 5927   7.060   0.755   5.708
 1988TIP3    H1 5928   7.073   0.756   5.803
 1988TIP3    H2 5929   7.072   0.663   5.684
 1989TIP3   OH2 5930   5.058   2.706   5.052
 1989TIP3    H1 5931   5.057   2.788   5.004
 1989TIP3    H2 5932   5.025   2.641   4.990
 1990TIP3   OH2 5933   6.050   3.791   5.405
 1990TIP3    H1 5934   5.978   3.728   5.413
 1990TIP3    H2 5935   6.115   3.747   5.351
 1991TIP3   OH2 5936   5.141   3.466   2.356
 1991TIP3    H1 5937   5.116   3.378   2.386
 1991TIP3    H2 5938   5.070   3.491   2.296
 1992TIP3   OH2 5939   0.156   0.680   0.632
 1992TIP3    H1 5940   0.116   0.715   0.712
 1992TIP3    H2 5941   0.248   0.670   0.654
 1993TIP3   OH2 5942   4.858   3.286   1.136
 1993TIP3    H1 5943   4.863   3.369   1.183
 1993TIP3    H2 5944   4.800   3.304   1.063
 1994TIP3   OH2 5945   4.503   4.256   4.165
 1994TIP3    H1 5946   4.469   4.193   4.101
 1994TIP3    H2 5947   4.598   4.246   4.160
 1995TIP3   OH2 5948   6.054   0.170   1.203
 1995TIP3    H1 5949   6.146   0.192   1.192
 1995TIP3    H2 5950   6.006   0.244   1.166
 1996TIP3   OH2 5951   1.819   4.402   2.544
 1996TIP3    H1 5952   1.874   4.393   2.466
 1996TIP3    H2 5953   1.857   4.342   2.608
 1997TIP3   OH2 5954   5.619   4.208   4.781
 1997TIP3    H1 5955   5.607   4.117   4.805
 1997TIP3    H2 5956   5.532   4.239   4.755
 1998TIP3   OH2 5957   4.606   6.087   3.890
 1998TIP3    H1 5958   4.510   6.092   3.893
 1998TIP3    H2 5959   4.624   5.998   3.857
 1999TIP3   OH2 5960   5.563   5.314   4.959
 1999TIP3    H1 5961   5.492   5.282   4.902
 1999TIP3    H2 5962   5.635   5.332   4.899
 2000TIP3   OH2 5963   0.615   5.493   3.837
 2000TIP3    H1 5964   0.536   5.537   3.869
 2000TIP3    H2 5965   0.585   5.408   3.806
 2001TIP3   OH2 5966   1.879   0.089   2.398
 2001TIP3    H1 5967   1.953   0.097   2.457
 2001TIP3    H2 5968   1.892   0.005   2.354
 2002TIP3   OH2 5969   3.449   2.515   0.724
 2002TIP3    H1 5970   3.383   2.446   0.734
 2002TIP3    H2 5971   3.529   2.468   0.700
 2003TIP3   OH2 5972   3.979   4.460   0.660
 2003TIP3    H1 5973   4.042   4.387   0.657
 2003TIP3    H2 5974   3.970   4.480   0.753
 2004TIP3   OH2 5975   1.891   2.290   5.555
 2004TIP3    H1 5976   1.824   2.230   5.587
 2004TIP3    H2 5977   1.916   2.255   5.470
 2005TIP3   OH2 5978   5.715   6.342   2.325
 2005TIP3    H1 5979   5.739   6.372   2.238
 2005TIP3    H2 5980   5.639   6.396   2.348
 2006TIP3   OH2 5981   4.373   6.144   3.309
 2006TIP3    H1 5982   4.444   6.149   3.372
 2006TIP3    H2 5983   4.311   6.082   3.348
 2007TIP3   OH2 5984   5.081   6.388   3.556
 2007TIP3    H1 5985   5.006   6.434   3.519
 2007TIP3    H2 5986   5.074   6.400   3.650
 2008TIP3   OH2 5987   0.587   0.874   5.819
 2008TIP3    H1 5988   0.527   0.931   5.770
 2008TIP3    H2 5989   0.672   0.886   5.776
 2009TIP3   OH2 5990   4.981   4.115   0.090
 2009TIP3    H1 5991   4.888   4.098   0.079
 2009TIP3    H2 5992   5.008   4.161   0.011
 2010TIP3   OH2 5993   6.938   1.605   0.132
 2010TIP3    H1 5994   6.959   1.511   0.138
 2010TIP3    H2 5995   6.906   1.616   0.043
 2011TIP3   OH2 5996   1.083   5.390   1.147
 2011TIP3    H1 5997   1.092   5.435   1.231
 2011TIP3    H2 5998   1.035   5.451   1.092
 2012TIP3   OH2 5999   0.378   6.432   0.314
 2012TIP3    H1 6000   0.324   6.440   0.235
 2012TIP3    H2 6001   0.441   6.504   0.307
 2013TIP3   OH2 6002   7.200   2.532   0.884
 2013TIP3    H1 6003   7.273   2.469   0.879
 2013TIP3    H2 6004   7.156   2.511   0.966
 2014TIP3   OH2 6005   5.872   6.622   1.878
 2014TIP3    H1 6006   5.805   6.652   1.817
 2014TIP3    H2 6007   5.893   6.700   1.930
 2015TIP3   OH2 6008   7.036   1.477   0.515
 2015TIP3    H1 6009   7.021   1.568   0.493
 2015TIP3    H2 6010   6.985   1.427   0.451
 2016TIP3   OH2 6011   5.907   1.577   0.704
 2016TIP3    H1 6012   5.872   1.581   0.793
 2016TIP3    H2 6013   6.001   1.588   0.715
 2017TIP3   OH2 6014   0.936   5.179   3.798
 2017TIP3    H1 6015   0.997   5.244   3.833
 2017TIP3    H2 6016   0.978   5.148   3.717
 2018TIP3   OH2 6017   4.537   6.084   5.162
 2018TIP3    H1 6018   4.541   6.169   5.207
 2018TIP3    H2 6019   4.452   6.048   5.185
 2019TIP3   OH2 6020   3.611   2.021   4.657
 2019TIP3    H1 6021   3.567   2.094   4.613
 2019TIP3    H2 6022   3.675   2.063   4.715
 2020TIP3   OH2 6023   2.267   6.452   2.707
 2020TIP3    H1 6024   2.244   6.371   2.661
 2020TIP3    H2 6025   2.306   6.508   2.640
 2021TIP3   OH2 6026   0.602   0.834   5.495
 2021TIP3    H1 6027   0.627   0.926   5.490
 2021TIP3    H2 6028   0.667   0.794   5.554
 2022TIP3   OH2 6029   6.992   2.444   2.078
 2022TIP3    H1 6030   6.961   2.357   2.053
 2022TIP3    H2 6031   7.026   2.482   1.997
 2023TIP3   OH2 6032   4.522   5.678   5.213
 2023TIP3    H1 6033   4.466   5.730   5.155
 2023TIP3    H2 6034   4.610   5.687   5.177
 2024TIP3   OH2 6035   1.014   1.667   4.518
 2024TIP3    H1 6036   0.935   1.699   4.474
 2024TIP3    H2 6037   1.076   1.648   4.447
 2025TIP3   OH2 6038   3.876   1.126   5.024
 2025TIP3    H1 6039   3.953   1.132   5.081
 2025TIP3    H2 6040   3.850   1.217   5.009
 2026TIP3   OH2 6041   4.145   0.851   4.729
 2026TIP3    H1 6042   4.223   0.906   4.719
 2026TIP3    H2 6043   4.125   0.822   4.640
 2027TIP3   OH2 6044   2.647   1.704   5.181
 2027TIP3    H1 6045   2.624   1.781   5.232
 2027TIP3    H2 6046   2.570   1.686   5.128
 2028TIP3   OH2 6047   4.106   1.519   3.982
 2028TIP3    H1 6048   4.191   1.552   4.011
 2028TIP3    H2 6049   4.089   1.444   4.038
 2029TIP3   OH2 6050   0.174   3.764   5.560
 2029TIP3    H1 6051   0.121   3.836   5.594
 2029TIP3    H2 6052   0.125   3.685   5.583
 2030TIP3   OH2 6053   5.953   0.650   0.288
 2030TIP3    H1 6054   5.926   0.610   0.371
 2030TIP3    H2 6055   6.036   0.607   0.267
 2031TIP3   OH2 6056   0.670   5.665   1.125
 2031TIP3    H1 6057   0.715   5.601   1.068
 2031TIP3    H2 6058   0.740   5.720   1.159
 2032TIP3   OH2 6059   2.701   4.534   4.755
 2032TIP3    H1 6060   2.732   4.475   4.686
 2032TIP3    H2 6061   2.608   4.514   4.763
 2033TIP3   OH2 6062   0.887   5.101   1.080
 2033TIP3    H1 6063   0.868   5.061   1.165
 2033TIP3    H2 6064   0.858   5.036   1.016
 2034TIP3   OH2 6065   6.127   2.066   0.675
 2034TIP3    H1 6066   6.159   1.976   0.678
 2034TIP3    H2 6067   6.118   2.091   0.767
 2035TIP3   OH2 6068   1.629   4.933   0.184
 2035TIP3    H1 6069   1.695   4.904   0.247
 2035TIP3    H2 6070   1.573   4.857   0.171
 2036TIP3   OH2 6071   3.561   2.851   0.711
 2036TIP3    H1 6072   3.542   2.821   0.622
 2036TIP3    H2 6073   3.563   2.770   0.763
 2037TIP3   OH2 6074   2.786   2.124   0.497
 2037TIP3    H1 6075   2.836   2.198   0.462
 2037TIP3    H2 6076   2.704   2.162   0.527
 2038TIP3   OH2 6077   6.567   0.586   4.322
 2038TIP3    H1 6078   6.586   0.567   4.230
 2038TIP3    H2 6079   6.560   0.681   4.326
 2039TIP3   OH2 6080   0.194   6.504   3.929
 2039TIP3    H1 6081   0.286   6.479   3.919
 2039TIP3    H2 6082   0.197   6.587   3.977
 2040TIP3   OH2 6083   5.251   3.457   5.564
 2040TIP3    H1 6084   5.316   3.479   5.498
 2040TIP3    H2 6085   5.177   3.516   5.545
 2041TIP3   OH2 6086   4.506   3.075   4.995
 2041TIP3    H1 6087   4.569   3.004   4.987
 2041TIP3    H2 6088   4.553   3.145   5.040
 2042TIP3   OH2 6089   1.888   1.206   0.016
 2042TIP3    H1 6090   1.932   1.271  -0.038
 2042TIP3    H2 6091   1.955   1.140   0.033
 2043TIP3   OH2 6092   6.368   1.712   5.566
 2043TIP3    H1 6093   6.454   1.697   5.604
 2043TIP3    H2 6094   6.384   1.713   5.471
 2044TIP3   OH2 6095   2.711   0.323   2.198
 2044TIP3    H1 6096   2.707   0.305   2.292
 2044TIP3    H2 6097   2.774   0.395   2.190
 2045TIP3   OH2 6098   2.693   5.824   0.329
 2045TIP3    H1 6099   2.657   5.747   0.373
 2045TIP3    H2 6100   2.616   5.876   0.304
 2046TIP3   OH2 6101   1.531   2.954   4.386
 2046TIP3    H1 6102   1.523   2.970   4.480
 2046TIP3    H2 6103   1.499   2.865   4.374
 2047TIP3   OH2 6104   0.494   4.519   4.638
 2047TIP3    H1 6105   0.584   4.500   4.612
 2047TIP3    H2 6106   0.467   4.590   4.580
 2048TIP3   OH2 6107   3.027   5.507   1.773
 2048TIP3    H1 6108   3.078   5.584   1.749
 2048TIP3    H2 6109   2.936   5.534   1.762
 2049TIP3   OH2 6110   2.647   1.205   4.226
 2049TIP3    H1 6111   2.572   1.150   4.253
 2049TIP3    H2 6112   2.697   1.217   4.307
 2050TIP3   OH2 6113   7.140   2.164   1.858
 2050TIP3    H1 6114   7.054   2.190   1.889
 2050TIP3    H2 6115   7.126   2.081   1.813
 2051TIP3   OH2 6116   4.823   4.313   3.453
 2051TIP3    H1 6117   4.811   4.323   3.358
 2051TIP3    H2 6118   4.753   4.365   3.492
 2052TIP3   OH2 6119   4.871   3.734   4.622
 2052TIP3    H1 6120   4.954   3.735   4.669
 2052TIP3    H2 6121   4.812   3.785   4.677
 2053TIP3   OH2 6122   7.223   4.532   0.323
 2053TIP3    H1 6123   7.200   4.464   0.260
 2053TIP3    H2 6124   7.148   4.590   0.324
 2054TIP3   OH2 6125   1.604   3.575   2.152
 2054TIP3    H1 6126   1.608   3.481   2.170
 2054TIP3    H2 6127   1.567   3.582   2.065
 2055TIP3   OH2 6128   0.970   2.019   4.509
 2055TIP3    H1 6129   0.914   1.967   4.452
 2055TIP3    H2 6130   0.968   2.107   4.471
 2056TIP3   OH2 6131   6.448   4.881   0.128
 2056TIP3    H1 6132   6.542   4.896   0.119
 2056TIP3    H2 6133   6.408   4.967   0.119
 2057TIP3   OH2 6134   4.004   6.115   2.694
 2057TIP3    H1 6135   3.995   6.191   2.752
 2057TIP3    H2 6136   3.996   6.039   2.751
 2058TIP3   OH2 6137   3.617   5.614   3.969
 2058TIP3    H1 6138   3.707   5.614   3.934
 2058TIP3    H2 6139   3.621   5.554   4.043
 2059TIP3   OH2 6140   0.022   0.671   0.375
 2059TIP3    H1 6141   0.083   0.672   0.449
 2059TIP3    H2 6142  -0.059   0.636   0.411
 2060TIP3   OH2 6143   5.817   1.435   5.026
 2060TIP3    H1 6144   5.897   1.416   5.075
 2060TIP3    H2 6145   5.807   1.530   5.031
 2061TIP3   OH2 6146   5.903   3.349   4.122
 2061TIP3    H1 6147   5.839   3.279   4.131
 2061TIP3    H2 6148   5.878   3.412   4.190
 2062TIP3   OH2 6149   2.902   6.513   0.439
 2062TIP3    H1 6150   2.836   6.449   0.412
 2062TIP3    H2 6151   2.974   6.460   0.474
 2063TIP3   OH2 6152   0.768   1.386   0.411
 2063TIP3    H1 6153   0.713   1.437   0.471
 2063TIP3    H2 6154   0.721   1.303   0.401
 2064TIP3   OH2 6155   3.777   4.553   0.178
 2064TIP3    H1 6156   3.851   4.525   0.232
 2064TIP3    H2 6157   3.700   4.522   0.226
 2065TIP3   OH2 6158   4.407   5.693   0.934
 2065TIP3    H1 6159   4.453   5.611   0.953
 2065TIP3    H2 6160   4.446   5.756   0.995
 2066TIP3   OH2 6161   7.108   5.559   3.648
 2066TIP3    H1 6162   7.061   5.631   3.606
 2066TIP3    H2 6163   7.153   5.514   3.576
 2067TIP3   OH2 6164   2.111   6.054   0.837
 2067TIP3    H1 6165   2.113   6.147   0.861
 2067TIP3    H2 6166   2.019   6.029   0.847
 2068TIP3   OH2 6167   2.179   6.622   3.180
 2068TIP3    H1 6168   2.141   6.537   3.204
 2068TIP3    H2 6169   2.214   6.656   3.262
 2069TIP3   OH2 6170   2.906   3.354   2.580
 2069TIP3    H1 6171   2.980   3.341   2.640
 2069TIP3    H2 6172   2.943   3.342   2.493
 2070TIP3   OH2 6173   2.312   2.527   0.761
 2070TIP3    H1 6174   2.355   2.520   0.847
 2070TIP3    H2 6175   2.324   2.441   0.721
 2071TIP3   OH2 6176   6.913   2.545   3.025
 2071TIP3    H1 6177   6.965   2.470   2.994
 2071TIP3    H2 6178   6.931   2.614   2.961
 2072TIP3   OH2 6179   2.736   0.442   1.266
 2072TIP3    H1 6180   2.825   0.441   1.301
 2072TIP3    H2 6181   2.744   0.479   1.178
 2073TIP3   OH2 6182   0.063   2.221   0.549
 2073TIP3    H1 6183  -0.019   2.179   0.575
 2073TIP3    H2 6184   0.123   2.148   0.533
 2074TIP3   OH2 6185   6.348   0.121   3.115
 2074TIP3    H1 6186   6.392   0.204   3.134
 2074TIP3    H2 6187   6.417   0.066   3.078
 2075TIP3   OH2 6188   7.033   5.335   0.769
 2075TIP3    H1 6189   7.003   5.389   0.697
 2075TIP3    H2 6190   7.028   5.392   0.846
 2076TIP3   OH2 6191   6.200   1.155   3.942
 2076TIP3    H1 6192   6.247   1.185   4.020
 2076TIP3    H2 6193   6.261   1.168   3.870
 2077TIP3   OH2 6194   1.596   5.209   5.300
 2077TIP3    H1 6195   1.557   5.222   5.386
 2077TIP3    H2 6196   1.558   5.277   5.245
 2078TIP3   OH2 6197   6.987   2.514   1.079
 2078TIP3    H1 6198   6.925   2.584   1.099
 2078TIP3    H2 6199   6.987   2.459   1.157
 2079TIP3   OH2 6200   5.809   3.629   3.653
 2079TIP3    H1 6201   5.793   3.669   3.567
 2079TIP3    H2 6202   5.789   3.698   3.716
 2080TIP3   OH2 6203   4.472   6.604   2.747
 2080TIP3    H1 6204   4.539   6.548   2.708
 2080TIP3    H2 6205   4.476   6.584   2.841
 2081TIP3   OH2 6206   1.985   4.640   2.535
 2081TIP3    H1 6207   1.942   4.556   2.518
 2081TIP3    H2 6208   1.950   4.667   2.621
 2082TIP3   OH2 6209   3.498   3.551   4.979
 2082TIP3    H1 6210   3.575   3.593   5.018
 2082TIP3    H2 6211   3.433   3.621   4.976
 2083TIP3   OH2 6212   3.214   6.301   2.773
 2083TIP3    H1 6213   3.201   6.232   2.838
 2083TIP3    H2 6214   3.138   6.294   2.714
 2084TIP3   OH2 6215   0.197   4.153   1.437
 2084TIP3    H1 6216   0.264   4.106   1.387
 2084TIP3    H2 6217   0.171   4.092   1.505
 2085TIP3   OH2 6218   6.408   6.027   4.352
 2085TIP3    H1 6219   6.466   5.952   4.341
 2085TIP3    H2 6220   6.466   6.102   4.364
 2086TIP3   OH2 6221   4.336   5.144   0.913
 2086TIP3    H1 6222   4.357   5.053   0.890
 2086TIP3    H2 6223   4.345   5.192   0.831
 2087TIP3   OH2 6224   6.880   3.073   1.246
 2087TIP3    H1 6225   6.863   3.105   1.157
 2087TIP3    H2 6226   6.923   2.989   1.233
 2088TIP3   OH2 6227   1.191   0.900   4.529
 2088TIP3    H1 6228   1.190   0.842   4.605
 2088TIP3    H2 6229   1.125   0.862   4.470
 2089TIP3   OH2 6230   6.103   5.848   1.423
 2089TIP3    H1 6231   6.097   5.870   1.516
 2089TIP3    H2 6232   6.027   5.794   1.406
 2090TIP3   OH2 6233   4.678   6.252   5.706
 2090TIP3    H1 6234   4.688   6.187   5.636
 2090TIP3    H2 6235   4.604   6.306   5.678
 2091TIP3   OH2 6236   3.409   4.794   1.874
 2091TIP3    H1 6237   3.504   4.794   1.885
 2091TIP3    H2 6238   3.390   4.714   1.825
 2092TIP3   OH2 6239   1.368   5.727   5.310
 2092TIP3    H1 6240   1.369   5.645   5.359
 2092TIP3    H2 6241   1.295   5.777   5.347
 2093TIP3   OH2 6242   6.663   0.455   4.531
 2093TIP3    H1 6243   6.625   0.504   4.458
 2093TIP3    H2 6244   6.748   0.498   4.546
 2094TIP3   OH2 6245   3.201   3.402   0.954
 2094TIP3    H1 6246   3.223   3.380   1.045
 2094TIP3    H2 6247   3.245   3.334   0.902
 2095TIP3   OH2 6248   0.816   0.794   5.705
 2095TIP3    H1 6249   0.890   0.763   5.652
 2095TIP3    H2 6250   0.805   0.727   5.772
 2096TIP3   OH2 6251   0.904   5.535   5.633
 2096TIP3    H1 6252   0.896   5.458   5.688
 2096TIP3    H2 6253   0.990   5.571   5.653
 2097TIP3   OH2 6254   4.329   3.030   0.285
 2097TIP3    H1 6255   4.350   3.091   0.356
 2097TIP3    H2 6256   4.341   2.943   0.323
 2098TIP3   OH2 6257   2.218   6.307   0.869
 2098TIP3    H1 6258   2.226   6.342   0.780
 2098TIP3    H2 6259   2.308   6.296   0.899
 2099TIP3   OH2 6260   4.499   1.528   0.837
 2099TIP3    H1 6261   4.467   1.555   0.923
 2099TIP3    H2 6262   4.545   1.446   0.853
 2100TIP3   OH2 6263   2.469   0.881   2.277
 2100TIP3    H1 6264   2.523   0.957   2.257
 2100TIP3    H2 6265   2.508   0.809   2.227
 2101TIP3   OH2 6266   2.214   4.282   1.691
 2101TIP3    H1 6267   2.271   4.359   1.682
 2101TIP3    H2 6268   2.267   4.209   1.660
 2102TIP3   OH2 6269   3.498   2.214   0.798
 2102TIP3    H1 6270   3.487   2.196   0.705
 2102TIP3    H2 6271   3.480   2.130   0.841
 2103TIP3   OH2 6272   7.129   1.363   2.227
 2103TIP3    H1 6273   7.105   1.403   2.144
 2103TIP3    H2 6274   7.114   1.270   2.215
 2104TIP3   OH2 6275   2.628   3.650   1.756
 2104TIP3    H1 6276   2.572   3.579   1.788
 2104TIP3    H2 6277   2.613   3.722   1.817
 2105TIP3   OH2 6278   1.377   0.852   2.445
 2105TIP3    H1 6279   1.313   0.922   2.462
 2105TIP3    H2 6280   1.333   0.795   2.382
 2106TIP3   OH2 6281   2.438   4.582   0.390
 2106TIP3    H1 6282   2.353   4.582   0.344
 2106TIP3    H2 6283   2.456   4.489   0.405
 2107TIP3   OH2 6284   6.321   2.560   4.554
 2107TIP3    H1 6285   6.353   2.507   4.627
 2107TIP3    H2 6286   6.384   2.632   4.547
 2108TIP3   OH2 6287   3.927   4.450   2.475
 2108TIP3    H1 6288   3.957   4.363   2.450
 2108TIP3    H2 6289   3.881   4.437   2.558
 2109TIP3   OH2 6290   4.319   3.852   5.090
 2109TIP3    H1 6291   4.346   3.772   5.045
 2109TIP3    H2 6292   4.396   3.879   5.140
 2110TIP3   OH2 6293   3.631   3.170   4.965
 2110TIP3    H1 6294   3.582   3.226   4.905
 2110TIP3    H2 6295   3.722   3.202   4.958
 2111TIP3   OH2 6296   4.848   3.325   1.465
 2111TIP3    H1 6297   4.855   3.266   1.390
 2111TIP3    H2 6298   4.823   3.410   1.427
 2112TIP3   OH2 6299   2.964   2.484   2.305
 2112TIP3    H1 6300   3.049   2.444   2.285
 2112TIP3    H2 6301   2.942   2.533   2.226
 2113TIP3   OH2 6302   2.686   6.061   0.918
 2113TIP3    H1 6303   2.752   6.129   0.931
 2113TIP3    H2 6304   2.712   5.991   0.977
 2114TIP3   OH2 6305   5.241   4.092   2.609
 2114TIP3    H1 6306   5.249   3.999   2.588
 2114TIP3    H2 6307   5.188   4.128   2.537
 2115TIP3   OH2 6308   1.708   2.845   1.470
 2115TIP3    H1 6309   1.787   2.807   1.431
 2115TIP3    H2 6310   1.640   2.779   1.455
 2116TIP3   OH2 6311   1.414   1.805   1.409
 2116TIP3    H1 6312   1.481   1.833   1.347
 2116TIP3    H2 6313   1.434   1.712   1.425
 2117TIP3   OH2 6314   2.387   4.394   0.097
 2117TIP3    H1 6315   2.344   4.415   0.014
 2117TIP3    H2 6316   2.323   4.415   0.164
 2118TIP3   OH2 6317   5.356   2.663   1.396
 2118TIP3    H1 6318   5.296   2.723   1.351
 2118TIP3    H2 6319   5.346   2.684   1.489
 2119TIP3   OH2 6320   4.411   3.025   3.449
 2119TIP3    H1 6321   4.412   3.004   3.543
 2119TIP3    H2 6322   4.375   2.947   3.407
 2120TIP3   OH2 6323   4.148   4.181   3.975
 2120TIP3    H1 6324   4.145   4.264   3.928
 2120TIP3    H2 6325   4.241   4.157   3.974
 2121TIP3   OH2 6326   6.326   1.450   3.643
 2121TIP3    H1 6327   6.269   1.418   3.573
 2121TIP3    H2 6328   6.389   1.380   3.657
 2122TIP3   OH2 6329   4.137   2.653   5.005
 2122TIP3    H1 6330   4.163   2.688   4.919
 2122TIP3    H2 6331   4.081   2.578   4.984
 2123TIP3   OH2 6332   1.430   3.611   4.437
 2123TIP3    H1 6333   1.338   3.628   4.461
 2123TIP3    H2 6334   1.426   3.534   4.381
 2124TIP3   OH2 6335   2.925   6.669   4.434
 2124TIP3    H1 6336   2.847   6.675   4.379
 2124TIP3    H2 6337   2.987   6.618   4.382
 2125TIP3   OH2 6338   4.991  -0.051   3.850
 2125TIP3    H1 6339   5.063   0.013   3.854
 2125TIP3    H2 6340   4.942  -0.036   3.931
 2126TIP3   OH2 6341   2.108   5.949   0.239
 2126TIP3    H1 6342   2.045   5.983   0.302
 2126TIP3    H2 6343   2.187   5.931   0.291
 2127TIP3   OH2 6344   3.001   3.970   1.566
 2127TIP3    H1 6345   2.958   3.898   1.612
 2127TIP3    H2 6346   2.940   4.043   1.574
 2128TIP3   OH2 6347   0.022   1.370   2.812
 2128TIP3    H1 6348  -0.050   1.310   2.791
 2128TIP3    H2 6349   0.039   1.417   2.730
 2129TIP3   OH2 6350   1.908   4.708   4.630
 2129TIP3    H1 6351   1.873   4.671   4.711
 2129TIP3    H2 6352   1.889   4.802   4.637
 2130TIP3   OH2 6353   0.872   6.211   0.903
 2130TIP3    H1 6354   0.930   6.286   0.917
 2130TIP3    H2 6355   0.914   6.159   0.835
 2131TIP3   OH2 6356   4.010   0.952   3.361
 2131TIP3    H1 6357   3.989   0.967   3.269
 2131TIP3    H2 6358   3.927   0.968   3.408
 2132TIP3   OH2 6359   6.021   3.610   5.120
 2132TIP3    H1 6360   6.043   3.544   5.054
 2132TIP3    H2 6361   6.036   3.694   5.076
 2133TIP3   OH2 6362   3.917   5.243   0.424
 2133TIP3    H1 6363   3.891   5.303   0.494
 2133TIP3    H2 6364   3.835   5.207   0.391
 2134TIP3   OH2 6365   4.472   2.117   2.609
 2134TIP3    H1 6366   4.449   2.069   2.529
 2134TIP3    H2 6367   4.537   2.061   2.651
 2135TIP3   OH2 6368   7.116   0.263   1.775
 2135TIP3    H1 6369   7.133   0.354   1.752
 2135TIP3    H2 6370   7.126   0.215   1.693
 2136TIP3   OH2 6371   1.598   1.580   4.866
 2136TIP3    H1 6372   1.519   1.533   4.894
 2136TIP3    H2 6373   1.576   1.614   4.780
 2137TIP3   OH2 6374   1.220   5.253   5.275
 2137TIP3    H1 6375   1.192   5.175   5.323
 2137TIP3    H2 6376   1.264   5.219   5.197
 2138TIP3   OH2 6377   5.990   4.328   2.290
 2138TIP3    H1 6378   5.995   4.301   2.199
 2138TIP3    H2 6379   5.974   4.246   2.338
 2139TIP3   OH2 6380   4.699   2.081   1.357
 2139TIP3    H1 6381   4.604   2.087   1.369
 2139TIP3    H2 6382   4.736   2.132   1.429
 2140TIP3   OH2 6383   1.966   1.910   5.217
 2140TIP3    H1 6384   1.957   1.835   5.276
 2140TIP3    H2 6385   2.054   1.943   5.235
 2141TIP3   OH2 6386   4.893   5.718   0.492
 2141TIP3    H1 6387   4.840   5.701   0.570
 2141TIP3    H2 6388   4.834   5.699   0.418
 2142TIP3   OH2 6389   3.977   6.162   1.924
 2142TIP3    H1 6390   3.999   6.250   1.953
 2142TIP3    H2 6391   4.054   6.109   1.944
 2143TIP3   OH2 6392   5.384   0.340   5.513
 2143TIP3    H1 6393   5.345   0.424   5.537
 2143TIP3    H2 6394   5.313   0.276   5.524
 2144TIP3   OH2 6395   7.022   6.200   4.553
 2144TIP3    H1 6396   6.958   6.254   4.600
 2144TIP3    H2 6397   7.033   6.123   4.608
 2145TIP3   OH2 6398   0.969   4.981   0.493
 2145TIP3    H1 6399   0.994   5.029   0.414
 2145TIP3    H2 6400   0.896   4.926   0.466
 2146TIP3   OH2 6401   6.283   3.413   2.855
 2146TIP3    H1 6402   6.378   3.405   2.846
 2146TIP3    H2 6403   6.258   3.341   2.914
 2147TIP3   OH2 6404   3.752   0.867   4.952
 2147TIP3    H1 6405   3.772   0.943   5.007
 2147TIP3    H2 6406   3.662   0.844   4.975
 2148TIP3   OH2 6407   5.403   5.043   3.240
 2148TIP3    H1 6408   5.384   5.013   3.151
 2148TIP3    H2 6409   5.322   5.087   3.268
 2149TIP3   OH2 6410  -0.015   5.892   4.979
 2149TIP3    H1 6411   0.070   5.925   4.948
 2149TIP3    H2 6412  -0.061   5.970   5.009
 2150TIP3   OH2 6413   5.115   5.767   4.400
 2150TIP3    H1 6414   5.085   5.854   4.428
 2150TIP3    H2 6415   5.122   5.717   4.481
 2151TIP3   OH2 6416   4.799   3.617   5.867
 2151TIP3    H1 6417   4.829   3.704   5.894
 2151TIP3    H2 6418   4.732   3.594   5.932
 2152TIP3   OH2 6419   6.363   1.834   2.764
 2152TIP3    H1 6420   6.394   1.772   2.830
 2152TIP3    H2 6421   6.298   1.888   2.810
 2153TIP3   OH2 6422   4.038   3.597   2.709
 2153TIP3    H1 6423   4.030   3.579   2.802
 2153TIP3    H2 6424   4.109   3.662   2.703
 2154TIP3   OH2 6425   3.033   3.732   3.331
 2154TIP3    H1 6426   3.101   3.797   3.315
 2154TIP3    H2 6427   3.079   3.657   3.369
 2155TIP3   OH2 6428   5.572   0.835   1.069
 2155TIP3    H1 6429   5.491   0.847   1.118
 2155TIP3    H2 6430   5.569   0.903   1.002
 2156TIP3   OH2 6431   3.551   5.837   4.885
 2156TIP3    H1 6432   3.638   5.796   4.887
 2156TIP3    H2 6433   3.497   5.782   4.941
 2157TIP3   OH2 6434   2.707   0.249   3.583
 2157TIP3    H1 6435   2.736   0.271   3.494
 2157TIP3    H2 6436   2.651   0.322   3.609
 2158TIP3   OH2 6437   6.791   6.268   2.494
 2158TIP3    H1 6438   6.803   6.363   2.502
 2158TIP3    H2 6439   6.696   6.256   2.490
 2159TIP3   OH2 6440   7.146   3.903   5.913
 2159TIP3    H1 6441   7.108   3.918   5.827
 2159TIP3    H2 6442   7.103   3.823   5.944
 2160TIP3   OH2 6443   4.141   5.237   3.244
 2160TIP3    H1 6444   4.173   5.290   3.317
 2160TIP3    H2 6445   4.076   5.292   3.200
 2161TIP3   OH2 6446   2.934   0.479   2.212
 2161TIP3    H1 6447   2.988   0.457   2.287
 2161TIP3    H2 6448   2.984   0.450   2.136
 2162TIP3   OH2 6449   4.949   4.299   3.717
 2162TIP3    H1 6450   4.869   4.312   3.768
 2162TIP3    H2 6451   4.925   4.231   3.653
 2163TIP3   OH2 6452   6.980   2.991   5.187
 2163TIP3    H1 6453   6.942   3.028   5.107
 2163TIP3    H2 6454   7.007   3.067   5.239
 2164TIP3   OH2 6455   5.022   6.714   1.284
 2164TIP3    H1 6456   4.992   6.785   1.341
 2164TIP3    H2 6457   5.075   6.659   1.341
 2165TIP3   OH2 6458   4.769   0.786   0.197
 2165TIP3    H1 6459   4.824   0.715   0.162
 2165TIP3    H2 6460   4.805   0.865   0.157
 2166TIP3   OH2 6461   2.212   2.817   0.984
 2166TIP3    H1 6462   2.156   2.885   0.946
 2166TIP3    H2 6463   2.281   2.804   0.919
 2167TIP3   OH2 6464   6.229   5.714   1.832
 2167TIP3    H1 6465   6.169   5.639   1.825
 2167TIP3    H2 6466   6.258   5.731   1.743
 2168TIP3   OH2 6467   2.601   1.107   0.798
 2168TIP3    H1 6468   2.676   1.140   0.748
 2168TIP3    H2 6469   2.611   1.012   0.797
 2169TIP3   OH2 6470   0.518   0.868   1.043
 2169TIP3    H1 6471   0.523   0.962   1.057
 2169TIP3    H2 6472   0.436   0.841   1.084
 2170TIP3   OH2 6473   1.156   3.477   2.077
 2170TIP3    H1 6474   1.125   3.500   2.165
 2170TIP3    H2 6475   1.194   3.558   2.043
 2171TIP3   OH2 6476   3.580   2.344   2.892
 2171TIP3    H1 6477   3.578   2.438   2.873
 2171TIP3    H2 6478   3.610   2.304   2.810
 2172TIP3   OH2 6479   6.733   0.715   0.256
 2172TIP3    H1 6480   6.685   0.640   0.291
 2172TIP3    H2 6481   6.670   0.760   0.200
 2173TIP3   OH2 6482   0.906   0.473   1.900
 2173TIP3    H1 6483   0.989   0.511   1.925
 2173TIP3    H2 6484   0.924   0.427   1.818
 2174TIP3   OH2 6485   6.942   3.633   2.446
 2174TIP3    H1 6486   6.976   3.612   2.359
 2174TIP3    H2 6487   6.895   3.555   2.474
 2175TIP3   OH2 6488   4.103   2.727   5.399
 2175TIP3    H1 6489   4.056   2.791   5.345
 2175TIP3    H2 6490   4.072   2.642   5.367
 2176TIP3   OH2 6491   1.978   1.688   5.388
 2176TIP3    H1 6492   1.944   1.654   5.472
 2176TIP3    H2 6493   2.065   1.650   5.380
 2177TIP3   OH2 6494   3.385   4.815   5.509
 2177TIP3    H1 6495   3.334   4.742   5.474
 2177TIP3    H2 6496   3.449   4.775   5.568
 2178TIP3   OH2 6497   4.757   4.261   3.906
 2178TIP3    H1 6498   4.808   4.283   3.984
 2178TIP3    H2 6499   4.729   4.171   3.921
 2179TIP3   OH2 6500   1.835   6.687   1.421
 2179TIP3    H1 6501   1.883   6.767   1.440
 2179TIP3    H2 6502   1.753   6.716   1.382
 2180TIP3   OH2 6503   0.737   3.714   3.842
 2180TIP3    H1 6504   0.743   3.809   3.841
 2180TIP3    H2 6505   0.648   3.696   3.873
 2181TIP3   OH2 6506   2.838   3.016   1.635
 2181TIP3    H1 6507   2.799   2.996   1.550
 2181TIP3    H2 6508   2.925   2.976   1.631
 2182TIP3   OH2 6509   0.812   6.169   5.582
 2182TIP3    H1 6510   0.838   6.256   5.554
 2182TIP3    H2 6511   0.829   6.168   5.677
 2183TIP3   OH2 6512   6.962   4.153   1.083
 2183TIP3    H1 6513   6.977   4.059   1.071
 2183TIP3    H2 6514   6.866   4.162   1.083
 2184TIP3   OH2 6515   4.950   0.221   0.210
 2184TIP3    H1 6516   4.901   0.171   0.145
 2184TIP3    H2 6517   4.965   0.160   0.282
 2185TIP3   OH2 6518   1.653   5.789   4.178
 2185TIP3    H1 6519   1.608   5.823   4.256
 2185TIP3    H2 6520   1.657   5.694   4.193
 2186TIP3   OH2 6521   2.647   0.193   1.457
 2186TIP3    H1 6522   2.608   0.208   1.371
 2186TIP3    H2 6523   2.573   0.194   1.518
 2187TIP3   OH2 6524   1.225   0.427   4.293
 2187TIP3    H1 6525   1.146   0.389   4.330
 2187TIP3    H2 6526   1.195   0.475   4.216
 2188TIP3   OH2 6527   4.008   1.202   1.350
 2188TIP3    H1 6528   4.006   1.297   1.351
 2188TIP3    H2 6529   3.960   1.178   1.270
 2189TIP3   OH2 6530   4.397   2.319   3.979
 2189TIP3    H1 6531   4.359   2.319   4.067
 2189TIP3    H2 6532   4.324   2.339   3.921
 2190TIP3   OH2 6533   0.102   3.851   3.032
 2190TIP3    H1 6534   0.128   3.781   2.972
 2190TIP3    H2 6535   0.007   3.843   3.039
 2191TIP3   OH2 6536   4.946   5.394   1.537
 2191TIP3    H1 6537   4.888   5.453   1.585
 2191TIP3    H2 6538   5.020   5.448   1.511
 2192TIP3   OH2 6539   5.852   6.103   0.952
 2192TIP3    H1 6540   5.924   6.072   1.007
 2192TIP3    H2 6541   5.831   6.029   0.895
 2193TIP3   OH2 6542   3.366   1.830   4.350
 2193TIP3    H1 6543   3.358   1.736   4.333
 2193TIP3    H2 6544   3.305   1.871   4.290
 2194TIP3   OH2 6545   6.203   5.249   2.078
 2194TIP3    H1 6546   6.292   5.234   2.045
 2194TIP3    H2 6547   6.211   5.243   2.173
 2195TIP3   OH2 6548   0.273   6.188   4.085
 2195TIP3    H1 6549   0.191   6.141   4.071
 2195TIP3    H2 6550   0.303   6.212   3.998
 2196TIP3   OH2 6551   0.153   4.511   5.734
 2196TIP3    H1 6552   0.223   4.577   5.731
 2196TIP3    H2 6553   0.192   4.434   5.693
 2197TIP3   OH2 6554   7.032   3.128   1.864
 2197TIP3    H1 6555   6.938   3.143   1.863
 2197TIP3    H2 6556   7.041   3.033   1.852
 2198TIP3   OH2 6557   1.558   4.893   2.200
 2198TIP3    H1 6558   1.599   4.821   2.152
 2198TIP3    H2 6559   1.468   4.865   2.215
 2199TIP3   OH2 6560   3.109   5.780   0.645
 2199TIP3    H1 6561   3.072   5.800   0.558
 2199TIP3    H2 6562   3.059   5.836   0.705
 2200TIP3   OH2 6563   7.174   3.273   3.291
 2200TIP3    H1 6564   7.079   3.282   3.289
 2200TIP3    H2 6565   7.200   3.312   3.375
 2201TIP3   OH2 6566   6.896   0.277   2.510
 2201TIP3    H1 6567   6.832   0.247   2.446
 2201TIP3    H2 6568   6.942   0.349   2.466
 2202TIP3   OH2 6569   7.116   1.792   5.857
 2202TIP3    H1 6570   7.209   1.788   5.837
 2202TIP3    H2 6571   7.073   1.789   5.772
 2203TIP3   OH2 6572   4.487   2.870   5.677
 2203TIP3    H1 6573   4.541   2.907   5.608
 2203TIP3    H2 6574   4.449   2.791   5.639
 2204TIP3   OH2 6575   4.014   1.548   1.066
 2204TIP3    H1 6576   3.992   1.461   1.033
 2204TIP3    H2 6577   3.934   1.577   1.111
 2205TIP3   OH2 6578   0.924   4.350   2.841
 2205TIP3    H1 6579   0.851   4.407   2.867
 2205TIP3    H2 6580   0.961   4.318   2.924
 2206TIP3   OH2 6581   2.218   5.905   2.435
 2206TIP3    H1 6582   2.266   5.986   2.454
 2206TIP3    H2 6583   2.285   5.840   2.417
 2207TIP3   OH2 6584   4.444   3.274   0.969
 2207TIP3    H1 6585   4.449   3.283   1.064
 2207TIP3    H2 6586   4.384   3.201   0.955
 2208TIP3   OH2 6587   1.771   3.761   4.876
 2208TIP3    H1 6588   1.808   3.775   4.789
 2208TIP3    H2 6589   1.679   3.787   4.867
 2209TIP3   OH2 6590   5.583   1.844   4.287
 2209TIP3    H1 6591   5.563   1.770   4.344
 2209TIP3    H2 6592   5.618   1.805   4.208
 2210TIP3   OH2 6593   3.740   3.246   5.293
 2210TIP3    H1 6594   3.798   3.275   5.364
 2210TIP3    H2 6595   3.768   3.156   5.275
 2211TIP3   OH2 6596   7.075   1.612   4.302
 2211TIP3    H1 6597   7.145   1.562   4.344
 2211TIP3    H2 6598   7.048   1.675   4.368
 2212TIP3   OH2 6599   2.180   3.179   3.825
 2212TIP3    H1 6600   2.260   3.232   3.827
 2212TIP3    H2 6601   2.136   3.199   3.908
 2213TIP3   OH2 6602   1.496   1.779   0.807
 2213TIP3    H1 6603   1.557   1.729   0.862
 2213TIP3    H2 6604   1.437   1.821   0.870
 2214TIP3   OH2 6605   2.750   4.058   1.680
 2214TIP3    H1 6606   2.703   4.010   1.613
 2214TIP3    H2 6607   2.746   4.149   1.651
 2215TIP3   OH2 6608   3.579   1.470   2.973
 2215TIP3    H1 6609   3.505   1.428   2.929
 2215TIP3    H2 6610   3.654   1.452   2.916
 2216TIP3   OH2 6611   6.655   0.715   2.621
 2216TIP3    H1 6612   6.561   0.728   2.628
 2216TIP3    H2 6613   6.666   0.620   2.628
 2217TIP3   OH2 6614   2.147   2.922   5.713
 2217TIP3    H1 6615   2.076   2.951   5.770
 2217TIP3    H2 6616   2.208   2.877   5.773
 2218TIP3   OH2 6617   5.743   4.191   5.053
 2218TIP3    H1 6618   5.698   4.178   5.136
 2218TIP3    H2 6619   5.674   4.188   4.987
 2219TIP3   OH2 6620   2.461   1.279   1.173
 2219TIP3    H1 6621   2.397   1.211   1.194
 2219TIP3    H2 6622   2.541   1.252   1.219
 2220TIP3   OH2 6623   1.923   3.537   4.427
 2220TIP3    H1 6624   1.983   3.480   4.475
 2220TIP3    H2 6625   1.841   3.488   4.421
 2221TIP3   OH2 6626   5.826   5.749   3.434
 2221TIP3    H1 6627   5.862   5.719   3.350
 2221TIP3    H2 6628   5.902   5.752   3.492
 2222TIP3   OH2 6629   3.850   1.515   5.722
 2222TIP3    H1 6630   3.915   1.523   5.652
 2222TIP3    H2 6631   3.889   1.561   5.796
 2223TIP3   OH2 6632   2.797   2.393   1.020
 2223TIP3    H1 6633   2.743   2.470   1.000
 2223TIP3    H2 6634   2.809   2.397   1.115
 2224TIP3   OH2 6635   6.630   4.217   3.183
 2224TIP3    H1 6636   6.603   4.292   3.236
 2224TIP3    H2 6637   6.725   4.215   3.191
 2225TIP3   OH2 6638   1.727   3.840   2.202
 2225TIP3    H1 6639   1.699   3.891   2.125
 2225TIP3    H2 6640   1.704   3.750   2.179
 2226TIP3   OH2 6641   0.392   6.169   1.096
 2226TIP3    H1 6642   0.374   6.263   1.093
 2226TIP3    H2 6643   0.352   6.139   1.178
 2227TIP3   OH2 6644   0.382   4.773   5.314
 2227TIP3    H1 6645   0.444   4.713   5.272
 2227TIP3    H2 6646   0.297   4.732   5.301
 2228TIP3   OH2 6647   0.189   4.940   4.802
 2228TIP3    H1 6648   0.188   4.916   4.895
 2228TIP3    H2 6649   0.125   5.011   4.795
 2229TIP3   OH2 6650   1.342   5.386   1.667
 2229TIP3    H1 6651   1.282   5.322   1.705
 2229TIP3    H2 6652   1.427   5.366   1.705
 2230TIP3   OH2 6653   4.367   6.559   5.873
 2230TIP3    H1 6654   4.383   6.557   5.778
 2230TIP3    H2 6655   4.452   6.585   5.911
 2231TIP3   OH2 6656   4.157   1.186   0.441
 2231TIP3    H1 6657   4.154   1.142   0.526
 2231TIP3    H2 6658   4.250   1.206   0.428
 2232TIP3   OH2 6659   6.424   6.532   3.898
 2232TIP3    H1 6660   6.348   6.577   3.863
 2232TIP3    H2 6661   6.479   6.601   3.934
 2233TIP3   OH2 6662   2.720   3.435   2.776
 2233TIP3    H1 6663   2.699   3.525   2.751
 2233TIP3    H2 6664   2.793   3.410   2.720
 2234TIP3   OH2 6665   6.153   1.267   3.492
 2234TIP3    H1 6666   6.075   1.323   3.490
 2234TIP3    H2 6667   6.125   1.189   3.540
 2235TIP3   OH2 6668   5.887   4.845   1.329
 2235TIP3    H1 6669   5.915   4.787   1.400
 2235TIP3    H2 6670   5.859   4.925   1.374
 2236TIP3   OH2 6671   1.386   1.821   3.226
 2236TIP3    H1 6672   1.366   1.905   3.267
 2236TIP3    H2 6673   1.465   1.838   3.175
 2237TIP3   OH2 6674   3.878   6.598   1.371
 2237TIP3    H1 6675   3.959   6.625   1.414
 2237TIP3    H2 6676   3.905   6.527   1.312
 2238TIP3   OH2 6677   6.266   5.904   3.744
 2238TIP3    H1 6678   6.315   5.957   3.681
 2238TIP3    H2 6679   6.331   5.843   3.780
 2239TIP3   OH2 6680   6.216   0.430   3.713
 2239TIP3    H1 6681   6.187   0.466   3.629
 2239TIP3    H2 6682   6.261   0.349   3.690
 2240TIP3   OH2 6683   4.120   0.702   4.969
 2240TIP3    H1 6684   4.150   0.773   4.912
 2240TIP3    H2 6685   4.167   0.625   4.939
 2241TIP3   OH2 6686   2.484   4.759   4.721
 2241TIP3    H1 6687   2.524   4.830   4.771
 2241TIP3    H2 6688   2.519   4.769   4.632
 2242TIP3   OH2 6689   6.217   4.462   3.564
 2242TIP3    H1 6690   6.293   4.508   3.600
 2242TIP3    H2 6691   6.249   4.373   3.546
 2243TIP3   OH2 6692   1.072   4.594   2.768
 2243TIP3    H1 6693   0.994   4.550   2.734
 2243TIP3    H2 6694   1.111   4.636   2.691
 2244TIP3   OH2 6695   2.837   6.304   0.982
 2244TIP3    H1 6696   2.895   6.374   0.953
 2244TIP3    H2 6697   2.840   6.308   1.078
 2245TIP3   OH2 6698   2.812   0.508   2.851
 2245TIP3    H1 6699   2.812   0.441   2.782
 2245TIP3    H2 6700   2.720   0.533   2.860
 2246TIP3   OH2 6701   3.987   4.659   4.277
 2246TIP3    H1 6702   3.954   4.596   4.214
 2246TIP3    H2 6703   3.990   4.742   4.229
 2247TIP3   OH2 6704   6.602   1.823   3.426
 2247TIP3    H1 6705   6.682   1.830   3.479
 2247TIP3    H2 6706   6.538   1.876   3.473
 2248TIP3   OH2 6707   5.769   3.248   2.145
 2248TIP3    H1 6708   5.775   3.344   2.153
 2248TIP3    H2 6709   5.857   3.220   2.121
 2249TIP3   OH2 6710   1.810   2.666   0.445
 2249TIP3    H1 6711   1.736   2.695   0.393
 2249TIP3    H2 6712   1.876   2.734   0.434
 2250TIP3   OH2 6713   2.300   6.471   5.147
 2250TIP3    H1 6714   2.220   6.466   5.094
 2250TIP3    H2 6715   2.351   6.541   5.107
 2251TIP3   OH2 6716   3.199   6.498   2.984
 2251TIP3    H1 6717   3.260   6.570   2.967
 2251TIP3    H2 6718   3.207   6.441   2.908
 2252TIP3   OH2 6719   2.961   0.868   1.005
 2252TIP3    H1 6720   2.905   0.846   0.931
 2252TIP3    H2 6721   2.996   0.954   0.984
 2253TIP3   OH2 6722   2.010   3.828   2.082
 2253TIP3    H1 6723   1.917   3.828   2.104
 2253TIP3    H2 6724   2.049   3.762   2.140
 2254TIP3   OH2 6725   3.071   3.019   4.558
 2254TIP3    H1 6726   3.091   2.927   4.577
 2254TIP3    H2 6727   2.994   3.038   4.612
 2255TIP3   OH2 6728   6.858   2.589   5.307
 2255TIP3    H1 6729   6.796   2.567   5.237
 2255TIP3    H2 6730   6.938   2.614   5.261
 2256TIP3   OH2 6731   5.425   0.042   3.430
 2256TIP3    H1 6732   5.393   0.128   3.455
 2256TIP3    H2 6733   5.355  -0.019   3.456
 2257TIP3   OH2 6734   1.765   1.402   5.740
 2257TIP3    H1 6735   1.766   1.414   5.645
 2257TIP3    H2 6736   1.716   1.321   5.753
 2258TIP3   OH2 6737   5.390   4.352   3.842
 2258TIP3    H1 6738   5.434   4.285   3.894
 2258TIP3    H2 6739   5.450   4.427   3.843
 2259TIP3   OH2 6740   0.087   2.491   3.216
 2259TIP3    H1 6741   0.073   2.577   3.175
 2259TIP3    H2 6742   0.069   2.428   3.147
 2260TIP3   OH2 6743   1.205   6.173   0.699
 2260TIP3    H1 6744   1.291   6.194   0.737
 2260TIP3    H2 6745   1.205   6.077   0.694
 2261TIP3   OH2 6746   4.356   1.596   4.059
 2261TIP3    H1 6747   4.416   1.564   4.126
 2261TIP3    H2 6748   4.409   1.600   3.979
 2262TIP3   OH2 6749   3.255   5.949   2.735
 2262TIP3    H1 6750   3.331   6.007   2.728
 2262TIP3    H2 6751   3.227   5.934   2.645
 2263TIP3   OH2 6752   3.755   2.974   1.429
 2263TIP3    H1 6753   3.807   2.900   1.398
 2263TIP3    H2 6754   3.810   3.051   1.413
 2264TIP3   OH2 6755   0.680   0.546   5.675
 2264TIP3    H1 6756   0.716   0.567   5.589
 2264TIP3    H2 6757   0.665   0.451   5.672
 2265TIP3   OH2 6758   6.360   0.271   1.519
 2265TIP3    H1 6759   6.349   0.266   1.424
 2265TIP3    H2 6760   6.455   0.261   1.533
 2266TIP3   OH2 6761   4.787   4.007   3.236
 2266TIP3    H1 6762   4.711   4.048   3.278
 2266TIP3    H2 6763   4.804   4.062   3.159
 2267TIP3   OH2 6764   5.443   3.889   3.732
 2267TIP3    H1 6765   5.382   3.818   3.753
 2267TIP3    H2 6766   5.444   3.893   3.637
 2268TIP3   OH2 6767   2.272   3.863   0.908
 2268TIP3    H1 6768   2.327   3.813   0.849
 2268TIP3    H2 6769   2.201   3.896   0.853
 2269TIP3   OH2 6770   6.472   4.841   1.131
 2269TIP3    H1 6771   6.536   4.772   1.150
 2269TIP3    H2 6772   6.518   4.922   1.151
 2270TIP3   OH2 6773   5.431   2.433   1.261
 2270TIP3    H1 6774   5.475   2.372   1.320
 2270TIP3    H2 6775   5.410   2.509   1.315
 2271TIP3   OH2 6776   5.929   3.922   1.926
 2271TIP3    H1 6777   6.000   3.942   1.988
 2271TIP3    H2 6778   5.933   3.993   1.862
 2272TIP3   OH2 6779   5.795   5.768   1.910
 2272TIP3    H1 6780   5.728   5.776   1.978
 2272TIP3    H2 6781   5.876   5.794   1.954
 2273TIP3   OH2 6782   1.733   0.508   3.958
 2273TIP3    H1 6783   1.755   0.531   4.048
 2273TIP3    H2 6784   1.675   0.578   3.928
 2274TIP3   OH2 6785   0.302   4.335   3.400
 2274TIP3    H1 6786   0.218   4.369   3.432
 2274TIP3    H2 6787   0.367   4.401   3.427
 2275TIP3   OH2 6788   3.619   4.085   3.702
 2275TIP3    H1 6789   3.577   4.053   3.622
 2275TIP3    H2 6790   3.705   4.117   3.673
 2276TIP3   OH2 6791   0.999   3.484   4.188
 2276TIP3    H1 6792   1.015   3.577   4.205
 2276TIP3    H2 6793   0.972   3.481   4.096
 2277TIP3   OH2 6794   0.121   3.975   1.142
 2277TIP3    H1 6795   0.078   3.933   1.216
 2277TIP3    H2 6796   0.203   4.008   1.178
 2278TIP3   OH2 6797   4.084   3.951   1.839
 2278TIP3    H1 6798   4.101   3.927   1.931
 2278TIP3    H2 6799   4.169   3.983   1.807
 2279TIP3   OH2 6800   6.436   2.333   5.603
 2279TIP3    H1 6801   6.489   2.284   5.665
 2279TIP3    H2 6802   6.347   2.300   5.615
 2280TIP3   OH2 6803   2.195   1.443   4.120
 2280TIP3    H1 6804   2.252   1.520   4.113
 2280TIP3    H2 6805   2.107   1.480   4.132
 2281TIP3   OH2 6806   1.977   3.330   0.846
 2281TIP3    H1 6807   1.956   3.278   0.769
 2281TIP3    H2 6808   2.067   3.361   0.831
 2282TIP3   OH2 6809   4.372   2.090   2.874
 2282TIP3    H1 6810   4.353   1.997   2.889
 2282TIP3    H2 6811   4.364   2.101   2.779
 2283TIP3   OH2 6812   1.313   1.959   0.928
 2283TIP3    H1 6813   1.265   1.950   0.846
 2283TIP3    H2 6814   1.303   2.051   0.952
 2284TIP3   OH2 6815   4.847   2.375   2.526
 2284TIP3    H1 6816   4.838   2.466   2.553
 2284TIP3    H2 6817   4.798   2.325   2.591
 2285TIP3   OH2 6818   2.476   4.820   2.414
 2285TIP3    H1 6819   2.456   4.898   2.466
 2285TIP3    H2 6820   2.406   4.758   2.436
 2286TIP3   OH2 6821   2.885   0.531   3.877
 2286TIP3    H1 6822   2.966   0.581   3.885
 2286TIP3    H2 6823   2.833   0.580   3.814
 2287TIP3   OH2 6824   4.487   1.087   0.982
 2287TIP3    H1 6825   4.521   1.149   1.045
 2287TIP3    H2 6826   4.400   1.120   0.958
 2288TIP3   OH2 6827   5.577   5.028   5.348
 2288TIP3    H1 6828   5.558   5.076   5.267
 2288TIP3    H2 6829   5.515   5.062   5.412
 2289TIP3   OH2 6830   6.055   4.892   2.381
 2289TIP3    H1 6831   6.112   4.969   2.384
 2289TIP3    H2 6832   6.098   4.833   2.319
 2290TIP3   OH2 6833   0.710   5.804   2.373
 2290TIP3    H1 6834   0.620   5.771   2.378
 2290TIP3    H2 6835   0.714   5.871   2.441
 2291TIP3   OH2 6836   0.655   0.221   5.124
 2291TIP3    H1 6837   0.626   0.245   5.212
 2291TIP3    H2 6838   0.606   0.142   5.102
 2292TIP3   OH2 6839   3.128   2.297   5.472
 2292TIP3    H1 6840   3.172   2.381   5.459
 2292TIP3    H2 6841   3.068   2.312   5.545
 2293TIP3   OH2 6842   3.954   3.747   5.187
 2293TIP3    H1 6843   3.957   3.842   5.181
 2293TIP3    H2 6844   3.952   3.729   5.281
 2294TIP3   OH2 6845   4.197   3.812   0.535
 2294TIP3    H1 6846   4.239   3.726   0.526
 2294TIP3    H2 6847   4.144   3.820   0.455
 2295TIP3   OH2 6848   6.179   1.587   4.530
 2295TIP3    H1 6849   6.088   1.615   4.540
 2295TIP3    H2 6850   6.229   1.668   4.522
 2296TIP3   OH2 6851   6.035   6.080   1.926
 2296TIP3    H1 6852   5.950   6.084   1.970
 2296TIP3    H2 6853   6.078   6.003   1.964
 2297TIP3   OH2 6854   4.117   4.728   2.877
 2297TIP3    H1 6855   4.038   4.779   2.864
 2297TIP3    H2 6856   4.155   4.721   2.789
 2298TIP3   OH2 6857   3.646   0.160   3.394
 2298TIP3    H1 6858   3.633   0.254   3.378
 2298TIP3    H2 6859   3.599   0.117   3.324
 2299TIP3   OH2 6860   5.329   2.453   2.315
 2299TIP3    H1 6861   5.385   2.500   2.376
 2299TIP3    H2 6862   5.247   2.440   2.363
 2300TIP3   OH2 6863   5.692   6.097   5.213
 2300TIP3    H1 6864   5.599   6.116   5.200
 2300TIP3    H2 6865   5.701   6.004   5.196
 2301TIP3   OH2 6866   1.977   5.279   0.099
 2301TIP3    H1 6867   1.987   5.297   0.005
 2301TIP3    H2 6868   2.015   5.191   0.110
 2302TIP3   OH2 6869   3.699   4.157   4.353
 2302TIP3    H1 6870   3.755   4.115   4.418
 2302TIP3    H2 6871   3.677   4.242   4.392
 2303TIP3   OH2 6872   2.869   6.645   0.035
 2303TIP3    H1 6873   2.847   6.734   0.064
 2303TIP3    H2 6874   2.954   6.627   0.076
 2304TIP3   OH2 6875   4.860   0.772   1.053
 2304TIP3    H1 6876   4.835   0.704   0.990
 2304TIP3    H2 6877   4.919   0.728   1.114
 2305TIP3   OH2 6878   1.289   1.782   4.784
 2305TIP3    H1 6879   1.314   1.755   4.872
 2305TIP3    H2 6880   1.295   1.703   4.731
 2306TIP3   OH2 6881   1.053   4.399   4.252
 2306TIP3    H1 6882   1.059   4.367   4.342
 2306TIP3    H2 6883   1.082   4.489   4.257
 2307TIP3   OH2 6884   4.602   2.815   4.976
 2307TIP3    H1 6885   4.535   2.749   4.991
 2307TIP3    H2 6886   4.682   2.778   5.013
 2308TIP3   OH2 6887   5.204   6.311   3.801
 2308TIP3    H1 6888   5.205   6.239   3.738
 2308TIP3    H2 6889   5.282   6.363   3.778
 2309TIP3   OH2 6890   0.148   4.725   1.914
 2309TIP3    H1 6891   0.234   4.699   1.948
 2309TIP3    H2 6892   0.089   4.654   1.940
 2310TIP3   OH2 6893   6.264   4.072   1.379
 2310TIP3    H1 6894   6.348   4.046   1.341
 2310TIP3    H2 6895   6.267   4.039   1.469
 2311TIP3   OH2 6896   2.215   1.495   0.836
 2311TIP3    H1 6897   2.288   1.442   0.805
 2311TIP3    H2 6898   2.189   1.547   0.759
 2312TIP3   OH2 6899   3.016   1.516   4.331
 2312TIP3    H1 6900   3.035   1.566   4.252
 2312TIP3    H2 6901   2.963   1.442   4.300
 2313TIP3   OH2 6902   5.845   4.009   4.614
 2313TIP3    H1 6903   5.876   4.041   4.529
 2313TIP3    H2 6904   5.925   3.992   4.664
 2314TIP3   OH2 6905   4.501   1.647   4.519
 2314TIP3    H1 6906   4.574   1.649   4.581
 2314TIP3    H2 6907   4.470   1.557   4.522
 2315TIP3   OH2 6908   6.912   4.298   1.641
 2315TIP3    H1 6909   7.002   4.269   1.628
 2315TIP3    H2 6910   6.906   4.380   1.592
 2316TIP3   OH2 6911   3.880   3.980   1.212
 2316TIP3    H1 6912   3.800   3.973   1.161
 2316TIP3    H2 6913   3.869   3.916   1.283
 2317TIP3   OH2 6914   6.232   5.703   5.148
 2317TIP3    H1 6915   6.259   5.793   5.134
 2317TIP3    H2 6916   6.303   5.650   5.112
 2318TIP3   OH2 6917   2.637   4.826   2.131
 2318TIP3    H1 6918   2.703   4.762   2.159
 2318TIP3    H2 6919   2.680   4.875   2.061
 2319TIP3   OH2 6920   0.296   0.883   2.119
 2319TIP3    H1 6921   0.375   0.845   2.157
 2319TIP3    H2 6922   0.326   0.958   2.068
 2320TIP3   OH2 6923   2.753   1.667   0.054
 2320TIP3    H1 6924   2.683   1.622   0.101
 2320TIP3    H2 6925   2.792   1.725   0.119
 2321TIP3   OH2 6926   2.516   0.147   2.458
 2321TIP3    H1 6927   2.524   0.097   2.539
 2321TIP3    H2 6928   2.489   0.082   2.392
 2322TIP3   OH2 6929   0.438   2.841   3.659
 2322TIP3    H1 6930   0.459   2.931   3.635
 2322TIP3    H2 6931   0.521   2.802   3.685
 2323TIP3   OH2 6932   0.873   5.207   4.380
 2323TIP3    H1 6933   0.869   5.114   4.402
 2323TIP3    H2 6934   0.891   5.209   4.286
 2324TIP3   OH2 6935   6.401   1.257   2.878
 2324TIP3    H1 6936   6.460   1.307   2.822
 2324TIP3    H2 6937   6.331   1.319   2.901
 2325TIP3   OH2 6938   5.271   1.619   0.654
 2325TIP3    H1 6939   5.363   1.628   0.678
 2325TIP3    H2 6940   5.234   1.706   0.669
 2326TIP3   OH2 6941   2.308   6.172   3.088
 2326TIP3    H1 6942   2.396   6.155   3.056
 2326TIP3    H2 6943   2.250   6.155   3.014
 2327TIP3   OH2 6944   6.503   2.621   0.698
 2327TIP3    H1 6945   6.494   2.543   0.752
 2327TIP3    H2 6946   6.585   2.661   0.729
 2328TIP3   OH2 6947   6.558   0.856   4.287
 2328TIP3    H1 6948   6.628   0.878   4.224
 2328TIP3    H2 6949   6.601   0.861   4.372
 2329TIP3   OH2 6950   2.147   1.352   0.406
 2329TIP3    H1 6951   2.196   1.434   0.414
 2329TIP3    H2 6952   2.055   1.379   0.412
 2330TIP3   OH2 6953   4.583   6.649   2.046
 2330TIP3    H1 6954   4.510   6.616   2.099
 2330TIP3    H2 6955   4.643   6.575   2.040
 2331TIP3   OH2 6956   0.177   4.344   0.815
 2331TIP3    H1 6957   0.095   4.351   0.766
 2331TIP3    H2 6958   0.226   4.275   0.770
 2332TIP3   OH2 6959   2.474   4.587   2.250
 2332TIP3    H1 6960   2.494   4.669   2.295
 2332TIP3    H2 6961   2.421   4.613   2.175
 2333TIP3   OH2 6962   3.648   0.795   2.352
 2333TIP3    H1 6963   3.722   0.735   2.348
 2333TIP3    H2 6964   3.687   0.882   2.341
 2334TIP3   OH2 6965   1.354   4.621   1.985
 2334TIP3    H1 6966   1.430   4.597   1.931
 2334TIP3    H2 6967   1.391   4.665   2.061
 2335TIP3   OH2 6968   2.166   2.137   4.137
 2335TIP3    H1 6969   2.078   2.174   4.128
 2335TIP3    H2 6970   2.184   2.139   4.231
 2336TIP3   OH2 6971   1.291   3.972   1.030
 2336TIP3    H1 6972   1.340   4.035   1.083
 2336TIP3    H2 6973   1.299   4.006   0.940
 2337TIP3   OH2 6974   6.031   4.399   3.079
 2337TIP3    H1 6975   5.954   4.455   3.084
 2337TIP3    H2 6976   5.998   4.311   3.094
 2338TIP3   OH2 6977   5.922   5.928   4.396
 2338TIP3    H1 6978   5.923   5.845   4.347
 2338TIP3    H2 6979   5.846   5.975   4.360
 2339TIP3   OH2 6980   3.653   2.345   1.520
 2339TIP3    H1 6981   3.584   2.399   1.560
 2339TIP3    H2 6982   3.735   2.387   1.546
 2340TIP3   OH2 6983   4.068   2.814   3.458
 2340TIP3    H1 6984   4.161   2.825   3.476
 2340TIP3    H2 6985   4.033   2.770   3.535
 2341TIP3   OH2 6986   2.065   4.752   5.469
 2341TIP3    H1 6987   1.971   4.740   5.467
 2341TIP3    H2 6988   2.089   4.741   5.561
 2342TIP3   OH2 6989   4.969   6.370   2.825
 2342TIP3    H1 6990   4.887   6.358   2.776
 2342TIP3    H2 6991   5.029   6.408   2.761
 2343TIP3   OH2 6992   5.666   1.867   0.962
 2343TIP3    H1 6993   5.729   1.862   0.890
 2343TIP3    H2 6994   5.688   1.794   1.019
 2344TIP3   OH2 6995   0.702   4.755   3.214
 2344TIP3    H1 6996   0.611   4.731   3.228
 2344TIP3    H2 6997   0.725   4.808   3.290
 2345TIP3   OH2 6998   6.419   5.101   0.442
 2345TIP3    H1 6999   6.350   5.164   0.463
 2345TIP3    H2 7000   6.387   5.018   0.478
 2346TIP3   OH2 7001   4.399   3.726   1.754
 2346TIP3    H1 7002   4.382   3.644   1.801
 2346TIP3    H2 7003   4.480   3.709   1.706
 2347TIP3   OH2 7004   4.160   6.047   3.478
 2347TIP3    H1 7005   4.131   6.025   3.566
 2347TIP3    H2 7006   4.138   6.139   3.467
 2348TIP3   OH2 7007   7.065   0.576   3.708
 2348TIP3    H1 7008   7.066   0.645   3.642
 2348TIP3    H2 7009   7.056   0.622   3.792
 2349TIP3   OH2 7010   0.082   5.237   3.237
 2349TIP3    H1 7011   0.149   5.294   3.199
 2349TIP3    H2 7012   0.099   5.151   3.199
 2350TIP3   OH2 7013   5.649   5.248   0.406
 2350TIP3    H1 7014   5.571   5.246   0.350
 2350TIP3    H2 7015   5.691   5.164   0.392
 2351TIP3   OH2 7016   5.616   3.967   4.904
 2351TIP3    H1 7017   5.635   3.877   4.877
 2351TIP3    H2 7018   5.658   3.976   4.989
 2352TIP3   OH2 7019   6.305   3.974   0.606
 2352TIP3    H1 7020   6.270   3.935   0.686
 2352TIP3    H2 7021   6.297   3.905   0.540
 2353TIP3   OH2 7022   7.129   6.534   4.243
 2353TIP3    H1 7023   7.197   6.581   4.292
 2353TIP3    H2 7024   7.175   6.501   4.165
 2354TIP3   OH2 7025   5.513   5.024   1.569
 2354TIP3    H1 7026   5.503   4.930   1.551
 2354TIP3    H2 7027   5.581   5.028   1.637
 2355TIP3   OH2 7028   4.258   2.216   3.472
 2355TIP3    H1 7029   4.347   2.202   3.505
 2355TIP3    H2 7030   4.255   2.165   3.391
 2356TIP3   OH2 7031   4.677   5.302   1.788
 2356TIP3    H1 7032   4.632   5.230   1.744
 2356TIP3    H2 7033   4.712   5.263   1.868
 2357TIP3   OH2 7034   1.820   3.144   5.509
 2357TIP3    H1 7035   1.764   3.125   5.584
 2357TIP3    H2 7036   1.889   3.201   5.544
 2358TIP3   OH2 7037   0.122   1.119   3.258
 2358TIP3    H1 7038   0.149   1.153   3.173
 2358TIP3    H2 7039   0.129   1.024   3.249
 2359TIP3   OH2 7040   4.506   0.515   2.389
 2359TIP3    H1 7041   4.578   0.506   2.327
 2359TIP3    H2 7042   4.544   0.561   2.464
 2360TIP3   OH2 7043   2.736   4.724   0.713
 2360TIP3    H1 7044   2.698   4.657   0.771
 2360TIP3    H2 7045   2.684   4.717   0.633
 2361TIP3   OH2 7046   6.404   4.531   1.568
 2361TIP3    H1 7047   6.404   4.447   1.614
 2361TIP3    H2 7048   6.319   4.570   1.592
 2362TIP3   OH2 7049   4.770   6.603   1.227
 2362TIP3    H1 7050   4.863   6.621   1.241
 2362TIP3    H2 7051   4.729   6.689   1.226
 2363TIP3   OH2 7052   0.795   3.153   2.602
 2363TIP3    H1 7053   0.759   3.242   2.599
 2363TIP3    H2 7054   0.719   3.097   2.585
 2364TIP3   OH2 7055   3.277   2.382   0.431
 2364TIP3    H1 7056   3.368   2.360   0.415
 2364TIP3    H2 7057   3.248   2.318   0.497
 2365TIP3   OH2 7058   3.206   1.762   2.078
 2365TIP3    H1 7059   3.201   1.729   1.988
 2365TIP3    H2 7060   3.204   1.857   2.069
 2366TIP3   OH2 7061   6.300   0.426   0.585
 2366TIP3    H1 7062   6.334   0.448   0.672
 2366TIP3    H2 7063   6.322   0.502   0.531
 2367TIP3   OH2 7064   1.837   6.713   4.961
 2367TIP3    H1 7065   1.861   6.777   5.028
 2367TIP3    H2 7066   1.806   6.637   5.010
 2368TIP3   OH2 7067   4.372   3.511   0.851
 2368TIP3    H1 7068   4.372   3.431   0.904
 2368TIP3    H2 7069   4.372   3.479   0.761
 2369TIP3   OH2 7070   2.396   6.381   1.080
 2369TIP3    H1 7071   2.370   6.468   1.110
 2369TIP3    H2 7072   2.412   6.391   0.986
 2370TIP3   OH2 7073   0.204   1.326   1.383
 2370TIP3    H1 7074   0.277   1.384   1.362
 2370TIP3    H2 7075   0.184   1.281   1.301
 2371TIP3   OH2 7076   0.234   3.177   5.108
 2371TIP3    H1 7077   0.287   3.246   5.147
 2371TIP3    H2 7078   0.147   3.216   5.100
 2372TIP3   OH2 7079   0.088   6.428   4.743
 2372TIP3    H1 7080   0.144   6.496   4.705
 2372TIP3    H2 7081   0.141   6.389   4.812
 2373TIP3   OH2 7082   4.232   1.174   0.910
 2373TIP3    H1 7083   4.211   1.267   0.899
 2373TIP3    H2 7084   4.179   1.130   0.844
 2374TIP3   OH2 7085   5.565   0.886   5.132
 2374TIP3    H1 7086   5.634   0.872   5.198
 2374TIP3    H2 7087   5.551   0.800   5.093
 2375TIP3   OH2 7088   3.297   3.305   4.803
 2375TIP3    H1 7089   3.241   3.243   4.756
 2375TIP3    H2 7090   3.270   3.391   4.772
 2376TIP3   OH2 7091   1.791   4.207   0.671
 2376TIP3    H1 7092   1.877   4.175   0.646
 2376TIP3    H2 7093   1.807   4.295   0.705
 2377TIP3   OH2 7094   6.899   5.752   1.081
 2377TIP3    H1 7095   6.817   5.753   1.130
 2377TIP3    H2 7096   6.939   5.837   1.100
 2378TIP3   OH2 7097   4.951   2.248   3.337
 2378TIP3    H1 7098   4.869   2.199   3.329
 2378TIP3    H2 7099   5.015   2.198   3.286
 2379TIP3   OH2 7100   3.383   0.178   5.797
 2379TIP3    H1 7101   3.365   0.201   5.888
 2379TIP3    H2 7102   3.470   0.215   5.780
 2380TIP3   OH2 7103   2.964   2.346   4.852
 2380TIP3    H1 7104   2.956   2.390   4.768
 2380TIP3    H2 7105   3.034   2.282   4.839
 2381TIP3   OH2 7106   1.665   5.741   4.861
 2381TIP3    H1 7107   1.746   5.790   4.846
 2381TIP3    H2 7108   1.602   5.807   4.889
 2382TIP3   OH2 7109   6.481   3.931   1.893
 2382TIP3    H1 7110   6.504   4.021   1.915
 2382TIP3    H2 7111   6.562   3.881   1.904
 2383TIP3   OH2 7112   5.145   2.867   4.542
 2383TIP3    H1 7113   5.124   2.908   4.459
 2383TIP3    H2 7114   5.239   2.885   4.554
 2384TIP3   OH2 7115   6.427   6.028   0.958
 2384TIP3    H1 7116   6.490   6.012   0.888
 2384TIP3    H2 7117   6.408   5.941   0.993
 2385TIP3   OH2 7118   0.889   6.194   2.192
 2385TIP3    H1 7119   0.876   6.212   2.099
 2385TIP3    H2 7120   0.854   6.271   2.237
 2386TIP3   OH2 7121   0.967   1.243   1.538
 2386TIP3    H1 7122   0.948   1.149   1.545
 2386TIP3    H2 7123   0.883   1.283   1.513
 2387TIP3   OH2 7124   1.635   5.390   1.594
 2387TIP3    H1 7125   1.694   5.402   1.670
 2387TIP3    H2 7126   1.643   5.472   1.545
 2388TIP3   OH2 7127   4.968   2.504   4.886
 2388TIP3    H1 7128   5.041   2.539   4.835
 2388TIP3    H2 7129   4.890   2.547   4.849
 2389TIP3   OH2 7130   2.521   6.177   2.667
 2389TIP3    H1 7131   2.581   6.119   2.619
 2389TIP3    H2 7132   2.570   6.258   2.678
 2390TIP3   OH2 7133   0.540   4.392   3.969
 2390TIP3    H1 7134   0.595   4.465   3.997
 2390TIP3    H2 7135   0.552   4.325   4.037
 2391TIP3   OH2 7136   4.279   4.622   4.299
 2391TIP3    H1 7137   4.238   4.690   4.245
 2391TIP3    H2 7138   4.206   4.582   4.346
 2392TIP3   OH2 7139   7.162   0.622   4.416
 2392TIP3    H1 7140   7.090   0.567   4.448
 2392TIP3    H2 7141   7.238   0.565   4.418
 2393TIP3   OH2 7142   4.313   6.589   2.162
 2393TIP3    H1 7143   4.307   6.564   2.254
 2393TIP3    H2 7144   4.231   6.637   2.145
 2394TIP3   OH2 7145   3.457   6.094   1.342
 2394TIP3    H1 7146   3.473   6.180   1.380
 2394TIP3    H2 7147   3.397   6.051   1.403
 2395TIP3   OH2 7148   5.113   4.685   5.400
 2395TIP3    H1 7149   5.115   4.667   5.307
 2395TIP3    H2 7150   5.168   4.763   5.410
 2396TIP3   OH2 7151   1.853   3.762   4.271
 2396TIP3    H1 7152   1.892   3.688   4.316
 2396TIP3    H2 7153   1.779   3.788   4.325
 2397TIP3   OH2 7154   3.154   4.670   3.145
 2397TIP3    H1 7155   3.229   4.625   3.184
 2397TIP3    H2 7156   3.152   4.640   3.054
 2398TIP3   OH2 7157   4.385   6.497   5.045
 2398TIP3    H1 7158   4.302   6.462   5.013
 2398TIP3    H2 7159   4.450   6.465   4.982
 2399TIP3   OH2 7160   6.443   4.301   1.708
 2399TIP3    H1 7161   6.500   4.233   1.672
 2399TIP3    H2 7162   6.425   4.272   1.798
 2400TIP3   OH2 7163   0.380   5.237   0.176
 2400TIP3    H1 7164   0.419   5.290   0.244
 2400TIP3    H2 7165   0.365   5.152   0.217
 2401TIP3   OH2 7166   1.026   2.362   3.107
 2401TIP3    H1 7167   1.069   2.364   3.193
 2401TIP3    H2 7168   1.093   2.395   3.047
 2402TIP3   OH2 7169   1.900   3.191   0.627
 2402TIP3    H1 7170   1.866   3.102   0.618
 2402TIP3    H2 7171   1.824   3.247   0.612
 2403TIP3   OH2 7172   7.181   5.903   2.221
 2403TIP3    H1 7173   7.180   5.992   2.258
 2403TIP3    H2 7174   7.273   5.876   2.227
 2404TIP3   OH2 7175   3.295   3.955   4.099
 2404TIP3    H1 7176   3.239   4.009   4.156
 2404TIP3    H2 7177   3.382   3.993   4.108
 2405TIP3   OH2 7178   4.811   0.414   0.965
 2405TIP3    H1 7179   4.774   0.421   1.053
 2405TIP3    H2 7180   4.738   0.433   0.906
 2406TIP3   OH2 7181   0.576   1.056   1.774
 2406TIP3    H1 7182   0.569   0.962   1.793
 2406TIP3    H2 7183   0.668   1.077   1.791
 2407TIP3   OH2 7184   0.607   3.428   4.613
 2407TIP3    H1 7185   0.621   3.338   4.584
 2407TIP3    H2 7186   0.526   3.425   4.664
 2408TIP3   OH2 7187   6.223   6.495   3.083
 2408TIP3    H1 7188   6.221   6.429   3.014
 2408TIP3    H2 7189   6.317   6.509   3.100
 2409TIP3   OH2 7190   3.198   4.326   5.483
 2409TIP3    H1 7191   3.284   4.283   5.479
 2409TIP3    H2 7192   3.167   4.309   5.572
 2410TIP3   OH2 7193   3.738   4.795   0.098
 2410TIP3    H1 7194   3.764   4.704   0.113
 2410TIP3    H2 7195   3.821   4.842   0.087
 2411TIP3   OH2 7196   6.763   1.029   0.519
 2411TIP3    H1 7197   6.705   0.971   0.570
 2411TIP3    H2 7198   6.838   0.974   0.497
 2412TIP3   OH2 7199   4.188   4.058   0.316
 2412TIP3    H1 7200   4.136   3.984   0.286
 2412TIP3    H2 7201   4.278   4.024   0.322
 2413TIP3   OH2 7202   6.344   3.325   2.044
 2413TIP3    H1 7203   6.376   3.291   1.960
 2413TIP3    H2 7204   6.355   3.420   2.036
 2414TIP3   OH2 7205   3.511   2.785   3.056
 2414TIP3    H1 7206   3.597   2.788   3.096
 2414TIP3    H2 7207   3.451   2.767   3.128
 2415TIP3   OH2 7208   0.697   3.394   2.353
 2415TIP3    H1 7209   0.625   3.331   2.353
 2415TIP3    H2 7210   0.757   3.362   2.286
 2416TIP3   OH2 7211   6.439   4.285   1.175
 2416TIP3    H1 7212   6.358   4.245   1.206
 2416TIP3    H2 7213   6.473   4.332   1.251
 2417TIP3   OH2 7214   5.490   6.097   2.800
 2417TIP3    H1 7215   5.534   6.141   2.873
 2417TIP3    H2 7216   5.427   6.161   2.768
 2418TIP3   OH2 7217   5.702   4.888   4.067
 2418TIP3    H1 7218   5.608   4.870   4.072
 2418TIP3    H2 7219   5.711   4.975   4.105
 2419TIP3   OH2 7220   3.495   1.724   1.066
 2419TIP3    H1 7221   3.486   1.728   1.161
 2419TIP3    H2 7222   3.431   1.658   1.039
 2420TIP3   OH2 7223   0.769   5.605   0.726
 2420TIP3    H1 7224   0.826   5.559   0.664
 2420TIP3    H2 7225   0.810   5.691   0.736
 2421TIP3   OH2 7226   2.613   2.347   4.136
 2421TIP3    H1 7227   2.619   2.442   4.126
 2421TIP3    H2 7228   2.588   2.315   4.049
 2422TIP3   OH2 7229   0.728   5.761   4.439
 2422TIP3    H1 7230   0.757   5.767   4.530
 2422TIP3    H2 7231   0.642   5.719   4.444
 2423TIP3   OH2 7232   2.688   4.058   5.867
 2423TIP3    H1 7233   2.731   4.111   5.801
 2423TIP3    H2 7234   2.611   4.109   5.893
 2424TIP3   OH2 7235   4.774   2.926   3.098
 2424TIP3    H1 7236   4.726   2.939   3.180
 2424TIP3    H2 7237   4.828   3.005   3.089
 2425TIP3   OH2 7238   3.592   1.988   2.341
 2425TIP3    H1 7239   3.613   1.895   2.343
 2425TIP3    H2 7240   3.677   2.031   2.329
 2426TIP3   OH2 7241   1.828   0.936   2.916
 2426TIP3    H1 7242   1.737   0.906   2.914
 2426TIP3    H2 7243   1.851   0.938   3.009
 2427TIP3   OH2 7244   2.642   6.235   3.304
 2427TIP3    H1 7245   2.730   6.227   3.341
 2427TIP3    H2 7246   2.593   6.162   3.340
 2428TIP3   OH2 7247   0.326   2.831   0.126
 2428TIP3    H1 7248   0.335   2.895   0.196
 2428TIP3    H2 7249   0.232   2.825   0.110
 2429TIP3   OH2 7250   1.254   4.923   1.847
 2429TIP3    H1 7251   1.214   4.839   1.824
 2429TIP3    H2 7252   1.292   4.908   1.933
 2430TIP3   OH2 7253   6.210   4.443   5.383
 2430TIP3    H1 7254   6.217   4.506   5.455
 2430TIP3    H2 7255   6.118   4.448   5.356
 2431TIP3   OH2 7256   4.162   5.288   2.014
 2431TIP3    H1 7257   4.146   5.377   1.984
 2431TIP3    H2 7258   4.079   5.242   2.000
 2432TIP3   OH2 7259   6.103   2.644   3.820
 2432TIP3    H1 7260   6.047   2.596   3.882
 2432TIP3    H2 7261   6.116   2.729   3.861
 2433TIP3   OH2 7262   5.161   3.647   2.631
 2433TIP3    H1 7263   5.144   3.557   2.660
 2433TIP3    H2 7264   5.087   3.669   2.575
 2434TIP3   OH2 7265   5.616   0.857   4.597
 2434TIP3    H1 7266   5.592   0.767   4.576
 2434TIP3    H2 7267   5.540   0.893   4.642
 2435TIP3   OH2 7268   2.675   0.985   3.130
 2435TIP3    H1 7269   2.754   0.935   3.110
 2435TIP3    H2 7270   2.605   0.920   3.129
 2436TIP3   OH2 7271   7.035   3.421   4.861
 2436TIP3    H1 7272   7.045   3.381   4.775
 2436TIP3    H2 7273   6.941   3.421   4.877
 2437TIP3   OH2 7274   1.897   4.665   3.601
 2437TIP3    H1 7275   1.830   4.597   3.604
 2437TIP3    H2 7276   1.927   4.673   3.691
 2438TIP3   OH2 7277   3.705   5.379   3.661
 2438TIP3    H1 7278   3.659   5.406   3.582
 2438TIP3    H2 7279   3.785   5.433   3.661
 2439TIP3   OH2 7280   4.026   6.179   0.577
 2439TIP3    H1 7281   3.938   6.182   0.539
 2439TIP3    H2 7282   4.079   6.232   0.518
 2440TIP3   OH2 7283   5.008   4.316   5.628
 2440TIP3    H1 7284   5.028   4.271   5.546
 2440TIP3    H2 7285   4.952   4.255   5.676
 2441TIP3   OH2 7286   3.799   3.703   0.378
 2441TIP3    H1 7287   3.865   3.634   0.375
 2441TIP3    H2 7288   3.837   3.770   0.435
 2442TIP3   OH2 7289   1.992   2.853   5.464
 2442TIP3    H1 7290   1.916   2.833   5.519
 2442TIP3    H2 7291   2.059   2.883   5.525
 2443TIP3   OH2 7292   7.102   1.874   4.909
 2443TIP3    H1 7293   7.072   1.964   4.895
 2443TIP3    H2 7294   7.095   1.860   5.003
 2444TIP3   OH2 7295   0.442   1.422   5.646
 2444TIP3    H1 7296   0.361   1.389   5.608
 2444TIP3    H2 7297   0.473   1.489   5.585
 2445TIP3   OH2 7298   4.123   2.272   0.651
 2445TIP3    H1 7299   4.094   2.255   0.740
 2445TIP3    H2 7300   4.183   2.346   0.659
 2446TIP3   OH2 7301   2.388   5.866   4.996
 2446TIP3    H1 7302   2.424   5.881   5.083
 2446TIP3    H2 7303   2.353   5.951   4.969
 2447TIP3   OH2 7304   5.582   5.134   2.015
 2447TIP3    H1 7305   5.544   5.209   1.969
 2447TIP3    H2 7306   5.515   5.066   2.008
 2448TIP3   OH2 7307   0.718   2.896   0.261
 2448TIP3    H1 7308   0.810   2.899   0.234
 2448TIP3    H2 7309   0.692   2.805   0.249
 2449TIP3   OH2 7310   1.688   3.526   4.147
 2449TIP3    H1 7311   1.635   3.580   4.088
 2449TIP3    H2 7312   1.753   3.587   4.183
 2450TIP3   OH2 7313   2.984   6.324   4.709
 2450TIP3    H1 7314   2.890   6.342   4.697
 2450TIP3    H2 7315   3.014   6.297   4.623
 2451TIP3   OH2 7316   2.797   4.025   4.893
 2451TIP3    H1 7317   2.858   4.055   4.961
 2451TIP3    H2 7318   2.821   4.077   4.816
 2452TIP3   OH2 7319   5.599   4.621   2.604
 2452TIP3    H1 7320   5.554   4.703   2.583
 2452TIP3    H2 7321   5.532   4.567   2.646
 2453TIP3   OH2 7322   0.473   3.724   3.534
 2453TIP3    H1 7323   0.432   3.698   3.451
 2453TIP3    H2 7324   0.561   3.687   3.530
 2454TIP3   OH2 7325   0.309   5.341   5.129
 2454TIP3    H1 7326   0.343   5.257   5.158
 2454TIP3    H2 7327   0.367   5.406   5.169
 2455TIP3   OH2 7328   2.386   2.755   4.007
 2455TIP3    H1 7329   2.364   2.838   4.049
 2455TIP3    H2 7330   2.314   2.697   4.029
 2456TIP3   OH2 7331   4.989   5.129   2.733
 2456TIP3    H1 7332   4.924   5.163   2.671
 2456TIP3    H2 7333   5.070   5.174   2.710
 2457TIP3   OH2 7334   0.117   0.746   4.845
 2457TIP3    H1 7335   0.113   0.707   4.933
 2457TIP3    H2 7336   0.205   0.784   4.841
 2458TIP3   OH2 7337   0.428   4.909   0.276
 2458TIP3    H1 7338   0.355   4.873   0.325
 2458TIP3    H2 7339   0.447   4.845   0.208
 2459TIP3   OH2 7340   3.236   3.853   1.778
 2459TIP3    H1 7341   3.185   3.823   1.853
 2459TIP3    H2 7342   3.282   3.774   1.748
 2460TIP3   OH2 7343   5.014   3.915   4.946
 2460TIP3    H1 7344   5.017   4.006   4.919
 2460TIP3    H2 7345   5.085   3.872   4.897
 2461TIP3   OH2 7346   2.984   0.621   0.235
 2461TIP3    H1 7347   3.058   0.614   0.295
 2461TIP3    H2 7348   2.951   0.531   0.228
 2462TIP3   OH2 7349   0.774   3.765   4.388
 2462TIP3    H1 7350   0.687   3.726   4.394
 2462TIP3    H2 7351   0.785   3.814   4.469
 2463TIP3   OH2 7352   2.006   1.710   4.766
 2463TIP3    H1 7353   1.958   1.764   4.829
 2463TIP3    H2 7354   1.954   1.715   4.686
 2464TIP3   OH2 7355   3.477   3.180   1.258
 2464TIP3    H1 7356   3.443   3.268   1.241
 2464TIP3    H2 7357   3.570   3.185   1.233
 2465TIP3   OH2 7358   6.767   0.661   5.344
 2465TIP3    H1 7359   6.689   0.638   5.394
 2465TIP3    H2 7360   6.780   0.754   5.362
 2466TIP3   OH2 7361   0.273   6.194   2.727
 2466TIP3    H1 7362   0.225   6.276   2.739
 2466TIP3    H2 7363   0.231   6.133   2.787
 2467TIP3   OH2 7364   3.134   1.724   5.365
 2467TIP3    H1 7365   3.060   1.777   5.336
 2467TIP3    H2 7366   3.160   1.763   5.449
 2468TIP3   OH2 7367   2.932   4.999   1.445
 2468TIP3    H1 7368   2.984   5.017   1.523
 2468TIP3    H2 7369   2.915   5.085   1.407
 2469TIP3   OH2 7370   3.265   0.163   0.759
 2469TIP3    H1 7371   3.320   0.122   0.826
 2469TIP3    H2 7372   3.261   0.255   0.785
 2470TIP3   OH2 7373   7.153   4.229   1.405
 2470TIP3    H1 7374   7.174   4.238   1.312
 2470TIP3    H2 7375   7.228   4.184   1.443
 2471TIP3   OH2 7376   4.828   5.371   3.676
 2471TIP3    H1 7377   4.884   5.379   3.599
 2471TIP3    H2 7378   4.860   5.438   3.736
 2472TIP3   OH2 7379   0.923   2.883   0.934
 2472TIP3    H1 7380   0.939   2.853   0.844
 2472TIP3    H2 7381   1.009   2.877   0.977
 2473TIP3   OH2 7382   4.831   4.803   5.300
 2473TIP3    H1 7383   4.892   4.842   5.238
 2473TIP3    H2 7384   4.814   4.716   5.265
 2474TIP3   OH2 7385   0.473   1.594   3.793
 2474TIP3    H1 7386   0.472   1.510   3.839
 2474TIP3    H2 7387   0.509   1.574   3.706
 2475TIP3   OH2 7388   5.322   1.546   4.667
 2475TIP3    H1 7389   5.408   1.534   4.708
 2475TIP3    H2 7390   5.295   1.458   4.642
 2476TIP3   OH2 7391   1.917   4.499   5.442
 2476TIP3    H1 7392   1.979   4.437   5.404
 2476TIP3    H2 7393   1.831   4.465   5.418
 2477TIP3   OH2 7394   1.037   0.259   0.455
 2477TIP3    H1 7395   1.100   0.315   0.500
 2477TIP3    H2 7396   1.090   0.198   0.405
 2478TIP3   OH2 7397   7.076   1.835   4.462
 2478TIP3    H1 7398   7.144   1.894   4.495
 2478TIP3    H2 7399   7.026   1.887   4.400
 2479TIP3   OH2 7400   0.390   3.548   0.731
 2479TIP3    H1 7401   0.332   3.594   0.671
 2479TIP3    H2 7402   0.348   3.462   0.743
 2480TIP3   OH2 7403   0.811   2.578   0.981
 2480TIP3    H1 7404   0.801   2.658   1.033
 2480TIP3    H2 7405   0.862   2.606   0.905
 2481TIP3   OH2 7406   6.416   5.607   5.694
 2481TIP3    H1 7407   6.345   5.550   5.725
 2481TIP3    H2 7408   6.382   5.696   5.705
 2482TIP3   OH2 7409   6.066   0.914   3.966
 2482TIP3    H1 7410   6.075   0.867   3.883
 2482TIP3    H2 7411   6.127   0.987   3.959
 2483TIP3   OH2 7412   6.583   4.860   0.647
 2483TIP3    H1 7413   6.654   4.886   0.588
 2483TIP3    H2 7414   6.594   4.766   0.656
 2484TIP3   OH2 7415   1.824   6.582   2.138
 2484TIP3    H1 7416   1.878   6.656   2.167
 2484TIP3    H2 7417   1.786   6.547   2.218
 2485TIP3   OH2 7418   4.348   5.287   2.224
 2485TIP3    H1 7419   4.436   5.265   2.193
 2485TIP3    H2 7420   4.293   5.279   2.147
 2486TIP3   OH2 7421   0.507   2.295   1.770
 2486TIP3    H1 7422   0.550   2.360   1.715
 2486TIP3    H2 7423   0.579   2.240   1.802
 2487TIP3   OH2 7424   1.214   4.284   3.616
 2487TIP3    H1 7425   1.222   4.195   3.649
 2487TIP3    H2 7426   1.119   4.297   3.606
 2488TIP3   OH2 7427   5.701   5.578   2.284
 2488TIP3    H1 7428   5.674   5.486   2.277
 2488TIP3    H2 7429   5.660   5.607   2.366
 2489TIP3   OH2 7430   5.564   5.674   3.429
 2489TIP3    H1 7431   5.659   5.681   3.434
 2489TIP3    H2 7432   5.538   5.745   3.371
 2490TIP3   OH2 7433   0.354   4.224   4.212
 2490TIP3    H1 7434   0.316   4.138   4.195
 2490TIP3    H2 7435   0.444   4.218   4.180
 2491TIP3   OH2 7436   2.499   1.504   5.489
 2491TIP3    H1 7437   2.537   1.477   5.406
 2491TIP3    H2 7438   2.546   1.453   5.555
 2492TIP3   OH2 7439   1.205   5.254   0.554
 2492TIP3    H1 7440   1.130   5.249   0.495
 2492TIP3    H2 7441   1.169   5.285   0.636
 2493TIP3   OH2 7442   2.347   1.345   0.055
 2493TIP3    H1 7443   2.406   1.393  -0.003
 2493TIP3    H2 7444   2.262   1.387   0.044
 2494TIP3   OH2 7445   4.183   2.450   0.142
 2494TIP3    H1 7446   4.208   2.531   0.187
 2494TIP3    H2 7447   4.245   2.443   0.069
 2495TIP3   OH2 7448   0.499   2.424   1.389
 2495TIP3    H1 7449   0.439   2.480   1.439
 2495TIP3    H2 7450   0.536   2.365   1.454
 2496TIP3   OH2 7451   6.765   5.594   4.588
 2496TIP3    H1 7452   6.731   5.600   4.498
 2496TIP3    H2 7453   6.735   5.673   4.631
 2497TIP3   OH2 7454   3.847   6.395   3.346
 2497TIP3    H1 7455   3.877   6.465   3.288
 2497TIP3    H2 7456   3.771   6.432   3.391
 2498TIP3   OH2 7457   7.008   4.249   4.168
 2498TIP3    H1 7458   7.060   4.194   4.226
 2498TIP3    H2 7459   7.015   4.337   4.205
 2499TIP3   OH2 7460   0.894   2.214   2.391
 2499TIP3    H1 7461   0.978   2.253   2.371
 2499TIP3    H2 7462   0.898   2.194   2.485
 2500TIP3   OH2 7463   4.989   6.544   0.725
 2500TIP3    H1 7464   4.937   6.552   0.804
 2500TIP3    H2 7465   4.979   6.453   0.698
 2501TIP3   OH2 7466   0.794   4.497   0.269
 2501TIP3    H1 7467   0.796   4.511   0.175
 2501TIP3    H2 7468   0.812   4.583   0.307
 2502TIP3   OH2 7469   5.143   4.288   1.865
 2502TIP3    H1 7470   5.126   4.230   1.791
 2502TIP3    H2 7471   5.213   4.244   1.914
 2503TIP3   OH2 7472   3.701   3.466   3.116
 2503TIP3    H1 7473   3.752   3.545   3.104
 2503TIP3    H2 7474   3.632   3.471   3.050
 2504TIP3   OH2 7475   2.639   3.619   1.052
 2504TIP3    H1 7476   2.568   3.593   1.111
 2504TIP3    H2 7477   2.709   3.648   1.110
 2505TIP3   OH2 7478   7.158   3.406   2.826
 2505TIP3    H1 7479   7.176   3.382   2.735
 2505TIP3    H2 7480   7.069   3.441   2.823
 2506TIP3   OH2 7481   4.447   4.885   1.827
 2506TIP3    H1 7482   4.379   4.907   1.890
 2506TIP3    H2 7483   4.414   4.808   1.781
 2507TIP3   OH2 7484   4.386   4.508   2.175
 2507TIP3    H1 7485   4.312   4.560   2.144
 2507TIP3    H2 7486   4.353   4.465   2.254
 2508TIP3   OH2 7487   0.569   3.130   0.847
 2508TIP3    H1 7488   0.592   3.041   0.820
 2508TIP3    H2 7489   0.615   3.186   0.785
 2509TIP3   OH2 7490   0.903   0.843   4.102
 2509TIP3    H1 7491   0.941   0.921   4.144
 2509TIP3    H2 7492   0.844   0.879   4.035
 2510TIP3   OH2 7493   0.114   6.712   4.354
 2510TIP3    H1 7494   0.203   6.701   4.388
 2510TIP3    H2 7495   0.073   6.775   4.413
 2511TIP3   OH2 7496   4.632   0.192   1.344
 2511TIP3    H1 7497   4.715   0.240   1.341
 2511TIP3    H2 7498   4.633   0.137   1.266
 2512TIP3   OH2 7499   1.724   3.293   4.937
 2512TIP3    H1 7500   1.783   3.356   4.896
 2512TIP3    H2 7501   1.776   3.213   4.947
 2513TIP3   OH2 7502   0.585   5.546   1.817
 2513TIP3    H1 7503   0.611   5.614   1.881
 2513TIP3    H2 7504   0.584   5.465   1.868
 2514TIP3   OH2 7505   1.444   6.292   0.460
 2514TIP3    H1 7506   1.498   6.223   0.421
 2514TIP3    H2 7507   1.363   6.292   0.409
 2515TIP3   OH2 7508   5.881   4.689   0.520
 2515TIP3    H1 7509   5.943   4.713   0.589
 2515TIP3    H2 7510   5.932   4.690   0.439
 2516TIP3   OH2 7511   2.342   5.355   4.126
 2516TIP3    H1 7512   2.345   5.445   4.157
 2516TIP3    H2 7513   2.416   5.348   4.066
 2517TIP3   OH2 7514   4.526   6.631   0.039
 2517TIP3    H1 7515   4.493   6.666   0.122
 2517TIP3    H2 7516   4.461   6.566   0.012
 2518TIP3   OH2 7517   4.405   4.533   5.139
 2518TIP3    H1 7518   4.353   4.555   5.062
 2518TIP3    H2 7519   4.363   4.454   5.173
 2519TIP3   OH2 7520   1.164   4.068   3.771
 2519TIP3    H1 7521   1.091   4.032   3.720
 2519TIP3    H2 7522   1.133   4.068   3.861
 2520TIP3   OH2 7523   3.215   3.560   4.709
 2520TIP3    H1 7524   3.216   3.634   4.648
 2520TIP3    H2 7525   3.213   3.601   4.796
 2521TIP3   OH2 7526   0.301   3.387   2.135
 2521TIP3    H1 7527   0.212   3.422   2.139
 2521TIP3    H2 7528   0.297   3.318   2.070
 2522TIP3   OH2 7529   1.315   2.182   1.070
 2522TIP3    H1 7530   1.386   2.227   1.117
 2522TIP3    H2 7531   1.292   2.241   0.998
 2523TIP3   OH2 7532   5.733   5.817   5.287
 2523TIP3    H1 7533   5.799   5.824   5.356
 2523TIP3    H2 7534   5.706   5.725   5.289
 2524TIP3   OH2 7535   2.944   3.011   1.312
 2524TIP3    H1 7536   2.972   2.923   1.336
 2524TIP3    H2 7537   2.851   3.014   1.334
 2525TIP3   OH2 7538   0.066   0.085   0.816
 2525TIP3    H1 7539   0.114   0.041   0.886
 2525TIP3    H2 7540   0.088   0.177   0.827
 2526TIP3   OH2 7541   2.587   6.091   3.576
 2526TIP3    H1 7542   2.629   6.079   3.661
 2526TIP3    H2 7543   2.560   6.003   3.551
 2527TIP3   OH2 7544   1.459   2.102   5.199
 2527TIP3    H1 7545   1.472   2.143   5.284
 2527TIP3    H2 7546   1.522   2.030   5.196
 2528TIP3   OH2 7547   1.867   5.759   2.078
 2528TIP3    H1 7548   1.933   5.700   2.115
 2528TIP3    H2 7549   1.846   5.819   2.150
 2529TIP3   OH2 7550   6.055   0.338   3.261
 2529TIP3    H1 7551   6.082   0.429   3.255
 2529TIP3    H2 7552   6.073   0.313   3.352
 2530TIP3   OH2 7553   7.025   2.464   4.792
 2530TIP3    H1 7554   6.973   2.545   4.787
 2530TIP3    H2 7555   7.089   2.481   4.861
 2531TIP3   OH2 7556   1.998   1.679   0.727
 2531TIP3    H1 7557   1.908   1.688   0.696
 2531TIP3    H2 7558   2.049   1.661   0.649
 2532TIP3   OH2 7559   5.756   4.574   5.905
 2532TIP3    H1 7560   5.790   4.593   5.818
 2532TIP3    H2 7561   5.687   4.639   5.919
 2533TIP3   OH2 7562   6.499   6.487   5.206
 2533TIP3    H1 7563   6.455   6.437   5.137
 2533TIP3    H2 7564   6.428   6.530   5.254
 2534TIP3   OH2 7565   5.883   3.070   3.373
 2534TIP3    H1 7566   5.808   3.124   3.347
 2534TIP3    H2 7567   5.956   3.104   3.321
 2535TIP3   OH2 7568   4.415   6.286   4.071
 2535TIP3    H1 7569   4.420   6.362   4.013
 2535TIP3    H2 7570   4.323   6.279   4.094
 2536TIP3   OH2 7571   4.685   3.109   2.430
 2536TIP3    H1 7572   4.660   3.018   2.419
 2536TIP3    H2 7573   4.709   3.139   2.343
 2537TIP3   OH2 7574   4.177   3.076   1.235
 2537TIP3    H1 7575   4.232   3.059   1.159
 2537TIP3    H2 7576   4.232   3.128   1.294
 2538TIP3   OH2 7577   1.448   5.907   4.383
 2538TIP3    H1 7578   1.362   5.865   4.379
 2538TIP3    H2 7579   1.449   5.952   4.467
 2539TIP3   OH2 7580   2.985   4.632   2.395
 2539TIP3    H1 7581   2.981   4.543   2.429
 2539TIP3    H2 7582   2.921   4.681   2.447
 2540TIP3   OH2 7583   0.325   3.947   3.553
 2540TIP3    H1 7584   0.403   3.891   3.548
 2540TIP3    H2 7585   0.254   3.891   3.523
 2541TIP3   OH2 7586   0.410   4.035   3.894
 2541TIP3    H1 7587   0.389   4.067   3.806
 2541TIP3    H2 7588   0.499   4.002   3.887
 2542TIP3   OH2 7589   0.813   2.551   3.635
 2542TIP3    H1 7590   0.902   2.520   3.654
 2542TIP3    H2 7591   0.756   2.496   3.689
 2543TIP3   OH2 7592   2.532   3.804   4.442
 2543TIP3    H1 7593   2.604   3.842   4.492
 2543TIP3    H2 7594   2.510   3.723   4.490
 2544TIP3   OH2 7595   3.827   2.911   2.507
 2544TIP3    H1 7596   3.743   2.912   2.462
 2544TIP3    H2 7597   3.833   2.997   2.549
 2545TIP3   OH2 7598   5.989   0.177   0.380
 2545TIP3    H1 7599   5.997   0.143   0.469
 2545TIP3    H2 7600   6.078   0.204   0.357
 2546TIP3   OH2 7601   2.030   1.827   4.344
 2546TIP3    H1 7602   2.005   1.752   4.290
 2546TIP3    H2 7603   2.123   1.814   4.362
 2547TIP3   OH2 7604   4.488   0.625   2.120
 2547TIP3    H1 7605   4.443   0.635   2.203
 2547TIP3    H2 7606   4.418   0.623   2.055
 2548TIP3   OH2 7607   5.222   4.701   0.050
 2548TIP3    H1 7608   5.297   4.642   0.041
 2548TIP3    H2 7609   5.178   4.671   0.129
 2549TIP3   OH2 7610   2.574   5.854   4.749
 2549TIP3    H1 7611   2.581   5.840   4.654
 2549TIP3    H2 7612   2.481   5.873   4.763
 2550TIP3   OH2 7613   1.008   4.878   2.886
 2550TIP3    H1 7614   0.964   4.804   2.927
 2550TIP3    H2 7615   1.001   4.949   2.950
 2551TIP3   OH2 7616   4.107   4.217   2.452
 2551TIP3    H1 7617   4.160   4.295   2.437
 2551TIP3    H2 7618   4.104   4.173   2.366
 2552TIP3   OH2 7619   0.933   0.595   2.480
 2552TIP3    H1 7620   0.995   0.522   2.478
 2552TIP3    H2 7621   0.861   0.564   2.534
 2553TIP3   OH2 7622   6.580   2.515   1.174
 2553TIP3    H1 7623   6.584   2.606   1.204
 2553TIP3    H2 7624   6.488   2.490   1.184
 2554TIP3   OH2 7625   2.645   5.095   1.496
 2554TIP3    H1 7626   2.640   5.120   1.404
 2554TIP3    H2 7627   2.645   5.178   1.544
 2555TIP3   OH2 7628   7.203   0.343   2.015
 2555TIP3    H1 7629   7.185   0.323   1.924
 2555TIP3    H2 7630   7.151   0.280   2.065
 2556TIP3   OH2 7631   5.632   0.796   4.063
 2556TIP3    H1 7632   5.664   0.793   4.154
 2556TIP3    H2 7633   5.634   0.888   4.040
 2557TIP3   OH2 7634   1.239   0.295   1.074
 2557TIP3    H1 7635   1.286   0.371   1.041
 2557TIP3    H2 7636   1.306   0.226   1.078
 2558TIP3   OH2 7637   0.961   5.296   1.943
 2558TIP3    H1 7638   0.881   5.262   1.984
 2558TIP3    H2 7639   0.994   5.361   2.005
 2559TIP3   OH2 7640   5.560   6.439   3.190
 2559TIP3    H1 7641   5.602   6.523   3.209
 2559TIP3    H2 7642   5.525   6.410   3.275
 2560TIP3   OH2 7643   1.482   4.477   0.680
 2560TIP3    H1 7644   1.481   4.439   0.767
 2560TIP3    H2 7645   1.506   4.568   0.694
 2561TIP3   OH2 7646   3.629   5.336   0.361
 2561TIP3    H1 7647   3.541   5.360   0.331
 2561TIP3    H2 7648   3.671   5.299   0.283
 2562TIP3   OH2 7649   2.059   4.790   0.634
 2562TIP3    H1 7650   2.067   4.786   0.729
 2562TIP3    H2 7651   1.984   4.736   0.613
 2563TIP3   OH2 7652   3.530   3.140   3.376
 2563TIP3    H1 7653   3.605   3.161   3.431
 2563TIP3    H2 7654   3.529   3.044   3.373
 2564TIP3   OH2 7655   6.822   1.935   5.720
 2564TIP3    H1 7656   6.748   1.963   5.666
 2564TIP3    H2 7657   6.885   1.900   5.658
 2565TIP3   OH2 7658   2.783   5.947   1.169
 2565TIP3    H1 7659   2.688   5.963   1.173
 2565TIP3    H2 7660   2.790   5.852   1.164
 2566TIP3   OH2 7661   0.891   0.680   0.764
 2566TIP3    H1 7662   0.860   0.666   0.675
 2566TIP3    H2 7663   0.957   0.612   0.777
 2567TIP3   OH2 7664   6.968   1.132   3.237
 2567TIP3    H1 7665   6.955   1.111   3.144
 2567TIP3    H2 7666   7.059   1.106   3.254
 2568TIP3   OH2 7667   6.935   0.404   0.144
 2568TIP3    H1 7668   6.943   0.456   0.064
 2568TIP3    H2 7669   7.024   0.399   0.179
 2569TIP3   OH2 7670   1.433   4.639   2.301
 2569TIP3    H1 7671   1.427   4.676   2.389
 2569TIP3    H2 7672   1.382   4.558   2.305
 2570TIP3   OH2 7673   3.261   5.366   2.654
 2570TIP3    H1 7674   3.167   5.382   2.668
 2570TIP3    H2 7675   3.277   5.281   2.696
 2571TIP3   OH2 7676   4.127   0.888   5.630
 2571TIP3    H1 7677   4.117   0.838   5.549
 2571TIP3    H2 7678   4.073   0.842   5.694
 2572TIP3   OH2 7679   4.713   5.512   4.046
 2572TIP3    H1 7680   4.775   5.506   4.119
 2572TIP3    H2 7681   4.768   5.516   3.968
 2573TIP3   OH2 7682   3.093   6.402   5.307
 2573TIP3    H1 7683   3.013   6.397   5.359
 2573TIP3    H2 7684   3.163   6.380   5.368
 2574TIP3   OH2 7685   1.910   3.393   1.435
 2574TIP3    H1 7686   1.897   3.461   1.368
 2574TIP3    H2 7687   1.915   3.442   1.517
 2575TIP3   OH2 7688   3.795   2.084   4.854
 2575TIP3    H1 7689   3.869   2.141   4.874
 2575TIP3    H2 7690   3.723   2.118   4.907
 2576TIP3   OH2 7691   0.715   1.307   5.369
 2576TIP3    H1 7692   0.767   1.328   5.445
 2576TIP3    H2 7693   0.733   1.214   5.352
 2577TIP3   OH2 7694   3.121   0.561   4.692
 2577TIP3    H1 7695   3.039   0.535   4.735
 2577TIP3    H2 7696   3.133   0.496   4.622
 2578TIP3   OH2 7697   3.299   5.751   5.275
 2578TIP3    H1 7698   3.294   5.748   5.179
 2578TIP3    H2 7699   3.219   5.708   5.305
 2579TIP3   OH2 7700   3.589   3.998   4.163
 2579TIP3    H1 7701   3.620   4.070   4.217
 2579TIP3    H2 7702   3.656   3.988   4.095
 2580TIP3   OH2 7703   7.118   5.241   1.530
 2580TIP3    H1 7704   7.053   5.309   1.548
 2580TIP3    H2 7705   7.067   5.168   1.495
 2581TIP3   OH2 7706   1.300   0.762   2.092
 2581TIP3    H1 7707   1.295   0.853   2.065
 2581TIP3    H2 7708   1.393   0.747   2.107
 2582TIP3   OH2 7709   6.181   5.219   4.048
 2582TIP3    H1 7710   6.134   5.146   4.007
 2582TIP3    H2 7711   6.246   5.176   4.104
 2583TIP3   OH2 7712   6.648   2.061   5.567
 2583TIP3    H1 7713   6.581   2.107   5.516
 2583TIP3    H2 7714   6.708   2.131   5.595
 2584TIP3   OH2 7715   3.002   2.799   4.285
 2584TIP3    H1 7716   2.930   2.817   4.223
 2584TIP3    H2 7717   2.973   2.838   4.367
 2585TIP3   OH2 7718   6.271   3.411   1.746
 2585TIP3    H1 7719   6.233   3.327   1.771
 2585TIP3    H2 7720   6.196   3.467   1.727
 2586TIP3   OH2 7721   5.976   0.365   2.973
 2586TIP3    H1 7722   5.973   0.367   3.068
 2586TIP3    H2 7723   6.031   0.289   2.952
 2587TIP3   OH2 7724   0.102   3.636   5.008
 2587TIP3    H1 7725   0.180   3.583   5.025
 2587TIP3    H2 7726   0.100   3.699   5.080
 2588TIP3   OH2 7727   1.571   0.489   4.314
 2588TIP3    H1 7728   1.508   0.440   4.261
 2588TIP3    H2 7729   1.614   0.424   4.368
 2589TIP3   OH2 7730   5.492   5.267   1.767
 2589TIP3    H1 7731   5.418   5.248   1.709
 2589TIP3    H2 7732   5.537   5.339   1.724
 2590TIP3   OH2 7733   4.830   1.237   3.937
 2590TIP3    H1 7734   4.909   1.273   3.976
 2590TIP3    H2 7735   4.773   1.218   4.012
 2591TIP3   OH2 7736   0.633   0.508   4.066
 2591TIP3    H1 7737   0.713   0.523   4.014
 2591TIP3    H2 7738   0.663   0.458   4.142
 2592TIP3   OH2 7739   7.171   3.715   3.739
 2592TIP3    H1 7740   7.252   3.674   3.710
 2592TIP3    H2 7741   7.132   3.651   3.799
 2593TIP3   OH2 7742   6.370   1.211   1.685
 2593TIP3    H1 7743   6.351   1.244   1.598
 2593TIP3    H2 7744   6.359   1.117   1.678
 2594TIP3   OH2 7745   5.520   4.138   0.591
 2594TIP3    H1 7746   5.467   4.210   0.624
 2594TIP3    H2 7747   5.470   4.105   0.516
 2595TIP3   OH2 7748   4.201   4.848   4.924
 2595TIP3    H1 7749   4.117   4.862   4.882
 2595TIP3    H2 7750   4.182   4.797   5.002
 2596TIP3   OH2 7751   2.904   2.263   2.498
 2596TIP3    H1 7752   2.971   2.205   2.463
 2596TIP3    H2 7753   2.929   2.350   2.468
 2597TIP3   OH2 7754   4.627   5.252   2.989
 2597TIP3    H1 7755   4.615   5.261   3.084
 2597TIP3    H2 7756   4.624   5.342   2.956
 2598TIP3   OH2 7757   3.376   2.712   4.762
 2598TIP3    H1 7758   3.450   2.773   4.759
 2598TIP3    H2 7759   3.302   2.764   4.793
 2599TIP3   OH2 7760   6.812   4.292   0.795
 2599TIP3    H1 7761   6.889   4.336   0.831
 2599TIP3    H2 7762   6.828   4.199   0.811
 2600TIP3   OH2 7763   5.824   0.822   1.403
 2600TIP3    H1 7764   5.794   0.883   1.470
 2600TIP3    H2 7765   5.744   0.781   1.370
 2601TIP3   OH2 7766   0.367   4.301   5.141
 2601TIP3    H1 7767   0.274   4.324   5.147
 2601TIP3    H2 7768   0.406   4.339   5.220
 2602TIP3   OH2 7769   2.019   1.378   2.543
 2602TIP3    H1 7770   1.965   1.300   2.549
 2602TIP3    H2 7771   2.107   1.348   2.564
 2603TIP3   OH2 7772   2.511   1.243   0.237
 2603TIP3    H1 7773   2.584   1.226   0.177
 2603TIP3    H2 7774   2.440   1.273   0.180
 2604TIP3   OH2 7775   2.146   1.334   5.647
 2604TIP3    H1 7776   2.208   1.338   5.574
 2604TIP3    H2 7777   2.163   1.415   5.697
 2605TIP3   OH2 7778   5.525   5.636   2.817
 2605TIP3    H1 7779   5.522   5.614   2.910
 2605TIP3    H2 7780   5.618   5.641   2.796
 2606TIP3   OH2 7781   6.191   6.366   5.276
 2606TIP3    H1 7782   6.162   6.454   5.300
 2606TIP3    H2 7783   6.113   6.311   5.284
 2607TIP3   OH2 7784   1.643   3.101   1.512
 2607TIP3    H1 7785   1.651   3.128   1.421
 2607TIP3    H2 7786   1.659   3.006   1.511
 2608TIP3   OH2 7787   0.355   0.864   4.966
 2608TIP3    H1 7788   0.299   0.868   5.043
 2608TIP3    H2 7789   0.444   0.861   5.000
 2609TIP3   OH2 7790   6.703   2.239   1.485
 2609TIP3    H1 7791   6.733   2.254   1.574
 2609TIP3    H2 7792   6.607   2.246   1.491
 2610TIP3   OH2 7793   2.877   1.135   2.892
 2610TIP3    H1 7794   2.829   1.217   2.903
 2610TIP3    H2 7795   2.821   1.069   2.933
 2611TIP3   OH2 7796   5.276   4.696   0.959
 2611TIP3    H1 7797   5.278   4.602   0.943
 2611TIP3    H2 7798   5.289   4.706   1.053
 2612TIP3   OH2 7799   6.660   4.087   0.367
 2612TIP3    H1 7800   6.619   4.058   0.449
 2612TIP3    H2 7801   6.675   4.006   0.318
 2613TIP3   OH2 7802   6.938   2.706   5.793
 2613TIP3    H1 7803   7.006   2.652   5.753
 2613TIP3    H2 7804   6.874   2.644   5.826
 2614TIP3   OH2 7805   1.476   2.468   3.295
 2614TIP3    H1 7806   1.531   2.514   3.358
 2614TIP3    H2 7807   1.484   2.519   3.215
 2615TIP3   OH2 7808   0.877   4.241   0.091
 2615TIP3    H1 7809   0.793   4.267   0.052
 2615TIP3    H2 7810   0.882   4.147   0.076
 2616TIP3   OH2 7811   6.555   4.432   5.696
 2616TIP3    H1 7812   6.514   4.395   5.618
 2616TIP3    H2 7813   6.590   4.356   5.743
 2617TIP3   OH2 7814   6.869   0.076   2.935
 2617TIP3    H1 7815   6.862  -0.015   2.963
 2617TIP3    H2 7816   6.793   0.120   2.973
 2618TIP3   OH2 7817   4.201   3.114   2.055
 2618TIP3    H1 7818   4.203   3.205   2.085
 2618TIP3    H2 7819   4.258   3.113   1.978
 2619TIP3   OH2 7820   3.913   6.692   2.696
 2619TIP3    H1 7821   3.997   6.709   2.737
 2619TIP3    H2 7822   3.900   6.597   2.706
 2620TIP3   OH2 7823   0.241   1.069   1.449
 2620TIP3    H1 7824   0.208   1.158   1.456
 2620TIP3    H2 7825   0.335   1.077   1.470
 2621TIP3   OH2 7826   5.884   2.510   4.710
 2621TIP3    H1 7827   5.859   2.592   4.668
 2621TIP3    H2 7828   5.979   2.506   4.700
 2622TIP3   OH2 7829   1.197   2.354   0.887
 2622TIP3    H1 7830   1.210   2.447   0.870
 2622TIP3    H2 7831   1.131   2.352   0.957
 2623TIP3   OH2 7832   2.320   3.566   3.262
 2623TIP3    H1 7833   2.288   3.581   3.351
 2623TIP3    H2 7834   2.255   3.608   3.205
 2624TIP3   OH2 7835   2.364   0.935   4.071
 2624TIP3    H1 7836   2.430   0.866   4.068
 2624TIP3    H2 7837   2.406   1.011   4.032
 2625TIP3   OH2 7838   5.944   6.173   3.744
 2625TIP3    H1 7839   6.018   6.132   3.788
 2625TIP3    H2 7840   5.881   6.102   3.733
 2626TIP3   OH2 7841   1.883   0.899   2.512
 2626TIP3    H1 7842   1.915   0.891   2.602
 2626TIP3    H2 7843   1.863   0.993   2.502
 2627TIP3   OH2 7844   0.327   5.556   2.041
 2627TIP3    H1 7845   0.251   5.523   1.994
 2627TIP3    H2 7846   0.356   5.632   1.990
 2628TIP3   OH2 7847   5.565   1.325   4.505
 2628TIP3    H1 7848   5.611   1.282   4.433
 2628TIP3    H2 7849   5.616   1.303   4.582
 2629TIP3   OH2 7850   2.572   6.391   0.825
 2629TIP3    H1 7851   2.572   6.482   0.855
 2629TIP3    H2 7852   2.632   6.346   0.884
 2630TIP3   OH2 7853   2.881   2.146   5.252
 2630TIP3    H1 7854   2.786   2.140   5.256
 2630TIP3    H2 7855   2.912   2.061   5.281
 2631TIP3   OH2 7856   1.812   5.593   0.731
 2631TIP3    H1 7857   1.744   5.593   0.798
 2631TIP3    H2 7858   1.769   5.627   0.653
 2632TIP3   OH2 7859   6.793   4.555   2.794
 2632TIP3    H1 7860   6.700   4.561   2.774
 2632TIP3    H2 7861   6.835   4.535   2.710
 2633TIP3   OH2 7862   6.407   0.328   5.234
 2633TIP3    H1 7863   6.424   0.245   5.189
 2633TIP3    H2 7864   6.492   0.372   5.237
 2634TIP3   OH2 7865   1.745   1.755   0.656
 2634TIP3    H1 7866   1.685   1.810   0.707
 2634TIP3    H2 7867   1.690   1.716   0.588
 2635TIP3   OH2 7868   5.378   6.707   5.051
 2635TIP3    H1 7869   5.310   6.771   5.071
 2635TIP3    H2 7870   5.330   6.626   5.034
 2636TIP3   OH2 7871   6.758   0.567   3.824
 2636TIP3    H1 7872   6.764   0.638   3.759
 2636TIP3    H2 7873   6.666   0.543   3.824
 2637TIP3   OH2 7874   3.193   1.394   3.684
 2637TIP3    H1 7875   3.280   1.430   3.699
 2637TIP3    H2 7876   3.136   1.444   3.743
 2638TIP3   OH2 7877   3.944   4.963   0.005
 2638TIP3    H1 7878   3.970   4.972  -0.087
 2638TIP3    H2 7879   4.012   4.908   0.043
 2639TIP3   OH2 7880   1.934   2.296   3.670
 2639TIP3    H1 7881   1.964   2.206   3.656
 2639TIP3    H2 7882   1.888   2.293   3.754
 2640TIP3   OH2 7883   1.687   6.174   5.131
 2640TIP3    H1 7884   1.735   6.111   5.184
 2640TIP3    H2 7885   1.598   6.172   5.164
 2641TIP3   OH2 7886   1.387   0.596   5.630
 2641TIP3    H1 7887   1.481   0.579   5.625
 2641TIP3    H2 7888   1.346   0.514   5.604
 2642TIP3   OH2 7889   0.534   2.952   1.596
 2642TIP3    H1 7890   0.467   2.914   1.653
 2642TIP3    H2 7891   0.558   3.034   1.638
 2643TIP3   OH2 7892   3.587   0.290   2.385
 2643TIP3    H1 7893   3.575   0.256   2.296
 2643TIP3    H2 7894   3.548   0.377   2.383
 2644TIP3   OH2 7895   6.555   5.760   0.471
 2644TIP3    H1 7896   6.507   5.797   0.545
 2644TIP3    H2 7897   6.571   5.833   0.413
 2645TIP3   OH2 7898   5.030   1.525   2.858
 2645TIP3    H1 7899   5.004   1.544   2.768
 2645TIP3    H2 7900   5.033   1.611   2.901
 2646TIP3   OH2 7901   3.999   1.590   2.541
 2646TIP3    H1 7902   4.082   1.622   2.579
 2646TIP3    H2 7903   3.948   1.561   2.617
 2647TIP3   OH2 7904   5.648   6.754   5.813
 2647TIP3    H1 7905   5.738   6.768   5.841
 2647TIP3    H2 7906   5.598   6.750   5.895
 2648TIP3   OH2 7907   6.450   5.023   1.478
 2648TIP3    H1 7908   6.531   5.070   1.458
 2648TIP3    H2 7909   6.478   4.943   1.522
 2649TIP3   OH2 7910   6.646   0.274   1.579
 2649TIP3    H1 7911   6.635   0.338   1.509
 2649TIP3    H2 7912   6.669   0.327   1.656
 2650TIP3   OH2 7913   1.939   0.723   4.960
 2650TIP3    H1 7914   1.917   0.638   4.999
 2650TIP3    H2 7915   2.035   0.724   4.960
 2651TIP3   OH2 7916   5.067   6.214   4.020
 2651TIP3    H1 7917   5.116   6.251   3.947
 2651TIP3    H2 7918   4.977   6.244   4.005
 2652TIP3   OH2 7919   4.871   5.179   1.993
 2652TIP3    H1 7920   4.931   5.159   2.065
 2652TIP3    H2 7921   4.918   5.152   1.914
 2653TIP3   OH2 7922   0.766   6.514   1.292
 2653TIP3    H1 7923   0.741   6.451   1.224
 2653TIP3    H2 7924   0.711   6.491   1.367
 2654TIP3   OH2 7925   3.279   6.076   0.767
 2654TIP3    H1 7926   3.244   6.108   0.850
 2654TIP3    H2 7927   3.292   6.155   0.715
 2655TIP3   OH2 7928   6.826   2.113   3.482
 2655TIP3    H1 7929   6.776   2.040   3.446
 2655TIP3    H2 7930   6.801   2.117   3.574
 2656TIP3   OH2 7931   1.346   4.708   5.453
 2656TIP3    H1 7932   1.368   4.802   5.451
 2656TIP3    H2 7933   1.251   4.706   5.467
 2657TIP3   OH2 7934   3.644   6.353   5.398
 2657TIP3    H1 7935   3.663   6.446   5.412
 2657TIP3    H2 7936   3.714   6.307   5.444
 2658TIP3   OH2 7937   1.451   0.631   4.771
 2658TIP3    H1 7938   1.449   0.643   4.676
 2658TIP3    H2 7939   1.360   0.621   4.796
 2659TIP3   OH2 7940   4.034   6.346   3.084
 2659TIP3    H1 7941   3.988   6.354   3.000
 2659TIP3    H2 7942   4.024   6.432   3.125
 2660TIP3   OH2 7943   2.838   1.196   0.963
 2660TIP3    H1 7944   2.919   1.167   0.921
 2660TIP3    H2 7945   2.798   1.256   0.899
 2661TIP3   OH2 7946   5.062   6.612   4.698
 2661TIP3    H1 7947   5.088   6.704   4.685
 2661TIP3    H2 7948   4.975   6.606   4.660
 2662TIP3   OH2 7949   6.109   3.946   4.673
 2662TIP3    H1 7950   6.159   3.984   4.746
 2662TIP3    H2 7951   6.173   3.937   4.602
 2663TIP3   OH2 7952   5.933   3.895   3.100
 2663TIP3    H1 7953   5.973   3.809   3.086
 2663TIP3    H2 7954   5.896   3.918   3.015
 2664TIP3   OH2 7955   0.017   5.980   5.495
 2664TIP3    H1 7956   0.104   6.004   5.463
 2664TIP3    H2 7957  -0.007   6.050   5.556
 2665TIP3   OH2 7958   0.717   5.705   5.878
 2665TIP3    H1 7959   0.704   5.778   5.817
 2665TIP3    H2 7960   0.796   5.729   5.927
 2666TIP3   OH2 7961   2.995   5.427   0.837
 2666TIP3    H1 7962   3.007   5.347   0.785
 2666TIP3    H2 7963   2.976   5.396   0.925
 2667TIP3   OH2 7964   2.557   6.300   5.449
 2667TIP3    H1 7965   2.484   6.361   5.459
 2667TIP3    H2 7966   2.549   6.241   5.523
 2668TIP3   OH2 7967   1.540   2.367   4.661
 2668TIP3    H1 7968   1.603   2.296   4.656
 2668TIP3    H2 7969   1.497   2.356   4.746
 2669TIP3   OH2 7970   2.096   3.634   0.875
 2669TIP3    H1 7971   2.049   3.711   0.842
 2669TIP3    H2 7972   2.162   3.616   0.807
 2670TIP3   OH2 7973   1.968   2.786   1.737
 2670TIP3    H1 7974   2.049   2.782   1.789
 2670TIP3    H2 7975   1.969   2.874   1.698
 2671TIP3   OH2 7976   2.320   6.812   5.269
 2671TIP3    H1 7977   2.244   6.759   5.246
 2671TIP3    H2 7978   2.392   6.776   5.217
 2672TIP3   OH2 7979   7.117   1.768   0.626
 2672TIP3    H1 7980   7.040   1.712   0.633
 2672TIP3    H2 7981   7.187   1.718   0.666
 2673TIP3   OH2 7982   4.287   3.522   1.355
 2673TIP3    H1 7983   4.239   3.574   1.419
 2673TIP3    H2 7984   4.268   3.565   1.271
 2674TIP3   OH2 7985   3.877   2.388   3.582
 2674TIP3    H1 7986   3.972   2.380   3.573
 2674TIP3    H2 7987   3.859   2.369   3.674
 2675TIP3   OH2 7988   5.863   3.900   5.224
 2675TIP3    H1 7989   5.920   3.883   5.299
 2675TIP3    H2 7990   5.920   3.941   5.159
 2676TIP3   OH2 7991   1.839   0.496   2.581
 2676TIP3    H1 7992   1.925   0.530   2.556
 2676TIP3    H2 7993   1.858   0.429   2.647
 2677TIP3   OH2 7994   6.232   4.862   1.597
 2677TIP3    H1 7995   6.262   4.823   1.515
 2677TIP3    H2 7996   6.309   4.858   1.654
 2678TIP3   OH2 7997   0.686   6.204   3.643
 2678TIP3    H1 7998   0.678   6.146   3.719
 2678TIP3    H2 7999   0.733   6.152   3.578
 2679TIP3   OH2 8000   2.315   6.353   4.442
 2679TIP3    H1 8001   2.285   6.390   4.360
 2679TIP3    H2 8002   2.269   6.270   4.450
 2680TIP3   OH2 8003   0.701   0.607   5.086
 2680TIP3    H1 8004   0.647   0.652   5.150
 2680TIP3    H2 8005   0.651   0.610   5.005
 2681TIP3   OH2 8006   2.673   6.026   2.089
 2681TIP3    H1 8007   2.594   6.072   2.115
 2681TIP3    H2 8008   2.660   5.936   2.119
 2682TIP3   OH2 8009   6.874   4.961   2.373
 2682TIP3    H1 8010   6.794   5.014   2.374
 2682TIP3    H2 8011   6.898   4.956   2.280
 2683TIP3   OH2 8012   6.566   0.214   1.924
 2683TIP3    H1 8013   6.647   0.171   1.949
 2683TIP3    H2 8014   6.502   0.183   1.989
 2684TIP3   OH2 8015   6.163   0.870   5.748
 2684TIP3    H1 8016   6.254   0.886   5.725
 2684TIP3    H2 8017   6.129   0.819   5.675
 2685TIP3   OH2 8018   4.101   5.445   4.831
 2685TIP3    H1 8019   4.176   5.430   4.889
 2685TIP3    H2 8020   4.138   5.487   4.754
 2686TIP3   OH2 8021   1.516   2.045   0.648
 2686TIP3    H1 8022   1.602   2.087   0.639
 2686TIP3    H2 8023   1.454   2.118   0.650
 2687TIP3   OH2 8024   4.204   0.281   3.608
 2687TIP3    H1 8025   4.130   0.272   3.668
 2687TIP3    H2 8026   4.179   0.232   3.530
 2688TIP3   OH2 8027   0.484   2.518   3.574
 2688TIP3    H1 8028   0.431   2.518   3.494
 2688TIP3    H2 8029   0.550   2.586   3.558
 2689TIP3   OH2 8030   4.126   1.576   4.597
 2689TIP3    H1 8031   4.035   1.567   4.568
 2689TIP3    H2 8032   4.145   1.493   4.641
 2690TIP3   OH2 8033   2.761   5.877   3.397
 2690TIP3    H1 8034   2.847   5.839   3.380
 2690TIP3    H2 8035   2.779   5.967   3.424
 2691TIP3   OH2 8036   4.513   1.919   5.018
 2691TIP3    H1 8037   4.571   1.992   5.039
 2691TIP3    H2 8038   4.555   1.876   4.944
 2692TIP3   OH2 8039   1.932   3.760   1.335
 2692TIP3    H1 8040   1.866   3.805   1.283
 2692TIP3    H2 8041   2.008   3.754   1.278
 2693TIP3   OH2 8042   2.184   1.946   5.387
 2693TIP3    H1 8043   2.260   1.897   5.354
 2693TIP3    H2 8044   2.169   1.909   5.474
 2694TIP3   OH2 8045   4.486   1.135   0.101
 2694TIP3    H1 8046   4.441   1.055   0.129
 2694TIP3    H2 8047   4.420   1.185   0.053
 2695TIP3   OH2 8048   1.650   0.035   3.892
 2695TIP3    H1 8049   1.558   0.014   3.880
 2695TIP3    H2 8050   1.684   0.049   3.803
 2696TIP3   OH2 8051   3.288   0.994   1.657
 2696TIP3    H1 8052   3.303   1.074   1.707
 2696TIP3    H2 8053   3.224   0.945   1.709
 2697TIP3   OH2 8054   2.795   4.470   2.685
 2697TIP3    H1 8055   2.708   4.508   2.676
 2697TIP3    H2 8056   2.833   4.516   2.760
 2698TIP3   OH2 8057   1.689   2.593   5.165
 2698TIP3    H1 8058   1.675   2.618   5.257
 2698TIP3    H2 8059   1.623   2.527   5.148
 2699TIP3   OH2 8060   6.180   5.192   4.524
 2699TIP3    H1 8061   6.145   5.104   4.534
 2699TIP3    H2 8062   6.174   5.231   4.611
 2700TIP3   OH2 8063   2.136   4.119   4.196
 2700TIP3    H1 8064   2.176   4.065   4.265
 2700TIP3    H2 8065   2.080   4.058   4.148
 2701TIP3   OH2 8066   2.448   4.477   4.705
 2701TIP3    H1 8067   2.431   4.571   4.712
 2701TIP3    H2 8068   2.401   4.449   4.626
 2702TIP3   OH2 8069   6.040   2.507   1.803
 2702TIP3    H1 8070   6.123   2.509   1.755
 2702TIP3    H2 8071   6.035   2.419   1.839
 2703TIP3   OH2 8072   3.605   1.694   3.178
 2703TIP3    H1 8073   3.700   1.690   3.192
 2703TIP3    H2 8074   3.587   1.627   3.112
 2704TIP3   OH2 8075   6.537   2.986   0.111
 2704TIP3    H1 8076   6.581   3.066   0.082
 2704TIP3    H2 8077   6.588   2.956   0.186
 2705TIP3   OH2 8078   6.250   3.448   3.890
 2705TIP3    H1 8079   6.197   3.488   3.821
 2705TIP3    H2 8080   6.282   3.523   3.941
 2706TIP3   OH2 8081   0.331   2.131   3.960
 2706TIP3    H1 8082   0.303   2.169   4.043
 2706TIP3    H2 8083   0.298   2.192   3.894
 2707TIP3   OH2 8084   5.492   4.353   5.086
 2707TIP3    H1 8085   5.515   4.312   5.170
 2707TIP3    H2 8086   5.445   4.285   5.038
 2708TIP3   OH2 8087   0.062   1.419   2.537
 2708TIP3    H1 8088   0.143   1.469   2.537
 2708TIP3    H2 8089   0.075   1.350   2.472
 2709TIP3   OH2 8090   2.996   5.245   3.618
 2709TIP3    H1 8091   2.964   5.290   3.540
 2709TIP3    H2 8092   2.993   5.152   3.595
 2710TIP3   OH2 8093   0.485   1.353   4.657
 2710TIP3    H1 8094   0.393   1.359   4.630
 2710TIP3    H2 8095   0.496   1.427   4.717
 2711TIP3   OH2 8096   4.142   0.134   3.943
 2711TIP3    H1 8097   4.193   0.070   3.895
 2711TIP3    H2 8098   4.067   0.152   3.886
 2712TIP3   OH2 8099   5.009   5.651   4.045
 2712TIP3    H1 8100   5.042   5.737   4.074
 2712TIP3    H2 8101   4.961   5.618   4.121
 2713TIP3   OH2 8102   6.649   5.831   3.028
 2713TIP3    H1 8103   6.683   5.751   2.990
 2713TIP3    H2 8104   6.727   5.880   3.054
 2714TIP3   OH2 8105   0.443   3.623   3.272
 2714TIP3    H1 8106   0.414   3.711   3.248
 2714TIP3    H2 8107   0.409   3.567   3.202
 2715TIP3   OH2 8108   5.780   3.363   2.564
 2715TIP3    H1 8109   5.814   3.290   2.512
 2715TIP3    H2 8110   5.687   3.368   2.539
 2716TIP3   OH2 8111   2.875   3.094   0.243
 2716TIP3    H1 8112   2.884   3.153   0.169
 2716TIP3    H2 8113   2.947   3.032   0.234
 2717TIP3   OH2 8114   5.871   4.636   1.741
 2717TIP3    H1 8115   5.863   4.702   1.810
 2717TIP3    H2 8116   5.794   4.650   1.686
 2718TIP3   OH2 8117   4.832   6.240   2.528
 2718TIP3    H1 8118   4.905   6.180   2.544
 2718TIP3    H2 8119   4.760   6.204   2.579
 2719TIP3   OH2 8120   2.684   6.633   4.264
 2719TIP3    H1 8121   2.613   6.609   4.324
 2719TIP3    H2 8122   2.678   6.570   4.193
 2720TIP3   OH2 8123   0.894   1.558   1.059
 2720TIP3    H1 8124   0.803   1.536   1.040
 2720TIP3    H2 8125   0.901   1.651   1.042
 2721TIP3   OH2 8126   4.416   1.051   1.667
 2721TIP3    H1 8127   4.406   1.000   1.587
 2721TIP3    H2 8128   4.356   1.125   1.655
 2722TIP3   OH2 8129   2.254   4.638   2.660
 2722TIP3    H1 8130   2.210   4.637   2.745
 2722TIP3    H2 8131   2.187   4.612   2.598
 2723TIP3   OH2 8132   6.929   6.377   1.241
 2723TIP3    H1 8133   6.846   6.344   1.277
 2723TIP3    H2 8134   6.964   6.433   1.310
 2724TIP3   OH2 8135   4.770   5.399   2.266
 2724TIP3    H1 8136   4.718   5.463   2.314
 2724TIP3    H2 8137   4.843   5.450   2.229
 2725TIP3   OH2 8138   0.750   1.236   3.313
 2725TIP3    H1 8139   0.810   1.308   3.294
 2725TIP3    H2 8140   0.738   1.239   3.408
 2726TIP3   OH2 8141   3.535   3.028   2.030
 2726TIP3    H1 8142   3.448   3.068   2.031
 2726TIP3    H2 8143   3.567   3.041   1.941
 2727TIP3   OH2 8144   2.649   3.646   5.132
 2727TIP3    H1 8145   2.598   3.597   5.068
 2727TIP3    H2 8146   2.726   3.676   5.085
 2728TIP3   OH2 8147   3.734   3.925   3.367
 2728TIP3    H1 8148   3.657   3.869   3.358
 2728TIP3    H2 8149   3.713   3.984   3.440
 2729TIP3   OH2 8150   4.218   2.069   2.192
 2729TIP3    H1 8151   4.173   2.137   2.243
 2729TIP3    H2 8152   4.149   2.006   2.171
 2730TIP3   OH2 8153   2.984   1.784   2.296
 2730TIP3    H1 8154   2.899   1.747   2.272
 2730TIP3    H2 8155   2.972   1.879   2.292
 2731TIP3   OH2 8156   6.606   1.202   4.224
 2731TIP3    H1 8157   6.602   1.146   4.147
 2731TIP3    H2 8158   6.515   1.207   4.255
 2732TIP3   OH2 8159   2.213   5.466   2.275
 2732TIP3    H1 8160   2.124   5.467   2.310
 2732TIP3    H2 8161   2.244   5.555   2.287
 2733TIP3   OH2 8162   6.077   5.742   2.614
 2733TIP3    H1 8163   6.013   5.685   2.570
 2733TIP3    H2 8164   6.135   5.771   2.545
 2734TIP3   OH2 8165   1.057   6.055   2.625
 2734TIP3    H1 8166   1.033   5.980   2.678
 2734TIP3    H2 8167   0.981   6.071   2.569
 2735TIP3   OH2 8168   6.436   1.631   5.007
 2735TIP3    H1 8169   6.473   1.717   5.026
 2735TIP3    H2 8170   6.398   1.641   4.920
 2736TIP3   OH2 8171   3.948   3.256   2.358
 2736TIP3    H1 8172   3.883   3.215   2.301
 2736TIP3    H2 8173   3.919   3.236   2.447
 2737TIP3   OH2 8174   3.521   0.643   0.879
 2737TIP3    H1 8175   3.488   0.560   0.913
 2737TIP3    H2 8176   3.607   0.652   0.919
 2738TIP3   OH2 8177   5.077   6.790   0.053
 2738TIP3    H1 8178   5.007   6.752   0.106
 2738TIP3    H2 8179   5.084   6.732  -0.023
 2739TIP3   OH2 8180   5.231   1.644   3.114
 2739TIP3    H1 8181   5.153   1.676   3.159
 2739TIP3    H2 8182   5.214   1.550   3.102
 2740TIP3   OH2 8183   1.678   3.435   4.600
 2740TIP3    H1 8184   1.611   3.498   4.625
 2740TIP3    H2 8185   1.638   3.384   4.530
 2741TIP3   OH2 8186   5.957   5.415   2.645
 2741TIP3    H1 8187   5.921   5.328   2.627
 2741TIP3    H2 8188   5.881   5.466   2.675
 2742TIP3   OH2 8189   2.088   6.481   2.437
 2742TIP3    H1 8190   2.153   6.491   2.367
 2742TIP3    H2 8191   2.102   6.393   2.471
 2743TIP3   OH2 8192   2.602   6.009   2.465
 2743TIP3    H1 8193   2.687   5.971   2.445
 2743TIP3    H2 8194   2.549   5.993   2.386
 2744TIP3   OH2 8195   1.445   5.892   1.448
 2744TIP3    H1 8196   1.407   5.941   1.521
 2744TIP3    H2 8197   1.483   5.960   1.391
 2745TIP3   OH2 8198   2.299   4.480   5.281
 2745TIP3    H1 8199   2.285   4.572   5.303
 2745TIP3    H2 8200   2.372   4.481   5.220
 2746TIP3   OH2 8201   0.705   1.205   4.737
 2746TIP3    H1 8202   0.742   1.277   4.789
 2746TIP3    H2 8203   0.613   1.231   4.724
 2747TIP3   OH2 8204   3.473   5.130   2.614
 2747TIP3    H1 8205   3.405   5.072   2.580
 2747TIP3    H2 8206   3.502   5.180   2.538
 2748TIP3   OH2 8207   1.191   5.171   1.777
 2748TIP3    H1 8208   1.220   5.089   1.816
 2748TIP3    H2 8209   1.120   5.201   1.833
 2749TIP3   OH2 8210   7.149   2.709   1.304
 2749TIP3    H1 8211   7.069   2.691   1.255
 2749TIP3    H2 8212   7.135   2.669   1.389
 2750TIP3   OH2 8213   5.985   5.543   4.917
 2750TIP3    H1 8214   6.068   5.511   4.951
 2750TIP3    H2 8215   5.957   5.478   4.854
 2751TIP3   OH2 8216   6.401   6.468   1.304
 2751TIP3    H1 8217   6.346   6.450   1.228
 2751TIP3    H2 8218   6.474   6.520   1.270
 2752TIP3   OH2 8219   1.000   3.879   4.878
 2752TIP3    H1 8220   0.969   3.956   4.830
 2752TIP3    H2 8221   1.086   3.904   4.910
 2753TIP3   OH2 8222   0.019   0.582   2.408
 2753TIP3    H1 8223  -0.019   0.627   2.483
 2753TIP3    H2 8224  -0.028   0.499   2.404
 2754TIP3   OH2 8225   3.844   1.110   1.124
 2754TIP3    H1 8226   3.779   1.095   1.192
 2754TIP3    H2 8227   3.876   1.022   1.102
 2755TIP3   OH2 8228   4.755   4.449   2.057
 2755TIP3    H1 8229   4.821   4.389   2.093
 2755TIP3    H2 8230   4.710   4.485   2.134
 2756TIP3   OH2 8231   0.030   5.151   2.459
 2756TIP3    H1 8232   0.112   5.130   2.504
 2756TIP3    H2 8233  -0.031   5.082   2.487
 2757TIP3   OH2 8234   0.747   0.536   3.164
 2757TIP3    H1 8235   0.739   0.446   3.193
 2757TIP3    H2 8236   0.787   0.530   3.078
 2758TIP3   OH2 8237   4.799   1.425   4.464
 2758TIP3    H1 8238   4.827   1.393   4.378
 2758TIP3    H2 8239   4.753   1.351   4.503
 2759TIP3   OH2 8240   4.840   5.640   4.641
 2759TIP3    H1 8241   4.809   5.591   4.717
 2759TIP3    H2 8242   4.936   5.633   4.645
 2760TIP3   OH2 8243   1.120   1.331   0.072
 2760TIP3    H1 8244   1.203   1.348   0.028
 2760TIP3    H2 8245   1.102   1.410   0.123
 2761TIP3   OH2 8246   2.384   6.316   3.511
 2761TIP3    H1 8247   2.334   6.300   3.591
 2761TIP3    H2 8248   2.448   6.245   3.508
 2762TIP3   OH2 8249   1.788   6.088   4.337
 2762TIP3    H1 8250   1.717   6.145   4.366
 2762TIP3    H2 8251   1.765   6.066   4.246
 2763TIP3   OH2 8252   2.921   2.635   2.533
 2763TIP3    H1 8253   2.902   2.598   2.447
 2763TIP3    H2 8254   3.004   2.595   2.559
 2764TIP3   OH2 8255   6.246   3.589   3.212
 2764TIP3    H1 8256   6.207   3.633   3.136
 2764TIP3    H2 8257   6.256   3.498   3.184
 2765TIP3   OH2 8258   1.559   2.593   1.816
 2765TIP3    H1 8259   1.488   2.586   1.753
 2765TIP3    H2 8260   1.617   2.660   1.779
 2766TIP3   OH2 8261   4.950   3.524   4.457
 2766TIP3    H1 8262   4.896   3.586   4.506
 2766TIP3    H2 8263   4.952   3.558   4.368
 2767TIP3   OH2 8264   1.552   5.751   2.701
 2767TIP3    H1 8265   1.539   5.667   2.658
 2767TIP3    H2 8266   1.507   5.743   2.785
 2768TIP3   OH2 8267   2.020   1.326   1.800
 2768TIP3    H1 8268   1.988   1.240   1.775
 2768TIP3    H2 8269   1.976   1.387   1.740
 2769TIP3   OH2 8270   0.662   6.441   3.151
 2769TIP3    H1 8271   0.730   6.479   3.208
 2769TIP3    H2 8272   0.705   6.430   3.067
 2770TIP3   OH2 8273   0.475   0.725   4.095
 2770TIP3    H1 8274   0.528   0.793   4.054
 2770TIP3    H2 8275   0.515   0.643   4.067
 2771TIP3   OH2 8276   0.522   4.628   4.898
 2771TIP3    H1 8277   0.517   4.721   4.876
 2771TIP3    H2 8278   0.508   4.584   4.814
 2772TIP3   OH2 8279   1.557   0.623   1.851
 2772TIP3    H1 8280   1.528   0.534   1.871
 2772TIP3    H2 8281   1.515   0.643   1.767
 2773TIP3   OH2 8282   2.439   5.207   4.383
 2773TIP3    H1 8283   2.428   5.245   4.296
 2773TIP3    H2 8284   2.508   5.260   4.424
 2774TIP3   OH2 8285   0.968   3.968   3.608
 2774TIP3    H1 8286   1.016   3.941   3.530
 2774TIP3    H2 8287   0.876   3.967   3.581
 2775TIP3   OH2 8288   3.942   4.094   0.716
 2775TIP3    H1 8289   4.027   4.056   0.737
 2775TIP3    H2 8290   3.956   4.139   0.633
 2776TIP3   OH2 8291   0.067   4.188   0.317
 2776TIP3    H1 8292   0.144   4.178   0.373
 2776TIP3    H2 8293   0.074   4.277   0.282
 2777TIP3   OH2 8294   0.088   2.788   0.942
 2777TIP3    H1 8295   0.093   2.707   0.891
 2777TIP3    H2 8296   0.009   2.778   0.996
 2778TIP3   OH2 8297   4.777   5.031   1.487
 2778TIP3    H1 8298   4.828   5.063   1.413
 2778TIP3    H2 8299   4.803   5.086   1.561
 2779TIP3   OH2 8300   0.170   0.995   4.356
 2779TIP3    H1 8301   0.116   0.972   4.281
 2779TIP3    H2 8302   0.211   0.912   4.382
 2780TIP3   OH2 8303   0.567   0.758   0.298
 2780TIP3    H1 8304   0.609   0.823   0.241
 2780TIP3    H2 8305   0.611   0.768   0.382
 2781TIP3   OH2 8306   5.763   3.060   3.821
 2781TIP3    H1 8307   5.751   3.142   3.773
 2781TIP3    H2 8308   5.814   3.005   3.762
 2782TIP3   OH2 8309   2.901   0.054   3.648
 2782TIP3    H1 8310   2.954   0.003   3.586
 2782TIP3    H2 8311   2.828   0.086   3.595
 2783TIP3   OH2 8312   3.375   4.379   1.490
 2783TIP3    H1 8313   3.427   4.379   1.410
 2783TIP3    H2 8314   3.322   4.299   1.483
 2784TIP3   OH2 8315   7.039   6.114   5.707
 2784TIP3    H1 8316   6.968   6.173   5.682
 2784TIP3    H2 8317   7.080   6.155   5.783
 2785TIP3   OH2 8318   1.104   3.187   2.033
 2785TIP3    H1 8319   1.158   3.256   2.071
 2785TIP3    H2 8320   1.112   3.199   1.938
 2786TIP3   OH2 8321   5.107   0.828   5.819
 2786TIP3    H1 8322   5.057   0.761   5.864
 2786TIP3    H2 8323   5.048   0.861   5.751
 2787TIP3   OH2 8324   4.606   0.961   0.381
 2787TIP3    H1 8325   4.533   0.996   0.431
 2787TIP3    H2 8326   4.632   1.031   0.322
 2788TIP3   OH2 8327   0.080   3.781   0.354
 2788TIP3    H1 8328   0.128   3.857   0.321
 2788TIP3    H2 8329   0.112   3.770   0.444
 2789TIP3   OH2 8330   0.651   5.169   3.403
 2789TIP3    H1 8331   0.608   5.227   3.340
 2789TIP3    H2 8332   0.583   5.148   3.466
 2790TIP3   OH2 8333   5.421   1.109   2.853
 2790TIP3    H1 8334   5.510   1.076   2.861
 2790TIP3    H2 8335   5.366   1.030   2.849
 2791TIP3   OH2 8336   5.290   0.316   5.059
 2791TIP3    H1 8337   5.358   0.363   5.109
 2791TIP3    H2 8338   5.336   0.285   4.980
 2792TIP3   OH2 8339   0.086   4.331   5.124
 2792TIP3    H1 8340   0.047   4.266   5.066
 2792TIP3    H2 8341   0.110   4.404   5.066
 2793TIP3   OH2 8342   5.449   1.872   5.027
 2793TIP3    H1 8343   5.442   1.871   4.931
 2793TIP3    H2 8344   5.410   1.789   5.054
 2794TIP3   OH2 8345   4.436   6.648   3.070
 2794TIP3    H1 8346   4.386   6.686   3.142
 2794TIP3    H2 8347   4.425   6.553   3.079
 2795TIP3   OH2 8348   5.745   1.161   2.656
 2795TIP3    H1 8349   5.673   1.153   2.593
 2795TIP3    H2 8350   5.714   1.114   2.734
 2796TIP3   OH2 8351   3.854   4.392   2.760
 2796TIP3    H1 8352   3.939   4.379   2.802
 2796TIP3    H2 8353   3.816   4.468   2.804
 2797TIP3   OH2 8354   6.517   5.321   3.652
 2797TIP3    H1 8355   6.465   5.277   3.719
 2797TIP3    H2 8356   6.548   5.251   3.595
 2798TIP3   OH2 8357   1.714   4.657   2.283
 2798TIP3    H1 8358   1.620   4.639   2.288
 2798TIP3    H2 8359   1.745   4.651   2.374
 2799TIP3   OH2 8360   0.754   3.208   3.705
 2799TIP3    H1 8361   0.791   3.216   3.618
 2799TIP3    H2 8362   0.684   3.273   3.708
 2800TIP3   OH2 8363   5.817   6.682   0.050
 2800TIP3    H1 8364   5.874   6.656   0.122
 2800TIP3    H2 8365   5.747   6.617   0.049
 2801TIP3   OH2 8366   2.396   4.653   5.590
 2801TIP3    H1 8367   2.367   4.697   5.670
 2801TIP3    H2 8368   2.397   4.722   5.524
 2802TIP3   OH2 8369   0.007   4.646   4.203
 2802TIP3    H1 8370   0.071   4.715   4.218
 2802TIP3    H2 8371   0.059   4.572   4.171
 2803TIP3   OH2 8372   3.916   2.351   1.757
 2803TIP3    H1 8373   3.853   2.280   1.743
 2803TIP3    H2 8374   3.900   2.379   1.847
 2804TIP3   OH2 8375   3.286   2.985   3.192
 2804TIP3    H1 8376   3.321   2.972   3.103
 2804TIP3    H2 8377   3.252   2.899   3.217
 2805TIP3   OH2 8378   5.300   1.627   5.074
 2805TIP3    H1 8379   5.261   1.621   4.987
 2805TIP3    H2 8380   5.250   1.565   5.127
 2806TIP3   OH2 8381   5.390   5.668   0.813
 2806TIP3    H1 8382   5.363   5.752   0.776
 2806TIP3    H2 8383   5.375   5.605   0.743
 2807TIP3   OH2 8384   4.303   2.235   1.987
 2807TIP3    H1 8385   4.269   2.158   2.035
 2807TIP3    H2 8386   4.261   2.310   2.030
 2808TIP3   OH2 8387   1.253   2.262   5.393
 2808TIP3    H1 8388   1.335   2.245   5.347
 2808TIP3    H2 8389   1.185   2.235   5.330
 2809TIP3   OH2 8390   6.917   4.087   3.929
 2809TIP3    H1 8391   6.920   4.182   3.920
 2809TIP3    H2 8392   6.856   4.058   3.861
 2810TIP3   OH2 8393   3.758   2.556   2.502
 2810TIP3    H1 8394   3.695   2.627   2.513
 2810TIP3    H2 8395   3.768   2.520   2.590
 2811TIP3   OH2 8396  -0.021   5.392   1.053
 2811TIP3    H1 8397  -0.047   5.463   1.111
 2811TIP3    H2 8398   0.066   5.417   1.021
 2812TIP3   OH2 8399   2.593   2.643   4.136
 2812TIP3    H1 8400   2.515   2.678   4.093
 2812TIP3    H2 8401   2.571   2.640   4.229
 2813TIP3   OH2 8402   0.828   3.165   5.097
 2813TIP3    H1 8403   0.855   3.160   5.005
 2813TIP3    H2 8404   0.742   3.124   5.099
 2814TIP3   OH2 8405   3.318   0.714   4.837
 2814TIP3    H1 8406   3.277   0.799   4.851
 2814TIP3    H2 8407   3.260   0.669   4.776
 2815TIP3   OH2 8408   0.504   3.721   4.691
 2815TIP3    H1 8409   0.540   3.634   4.672
 2815TIP3    H2 8410   0.555   3.751   4.767
 2816TIP3   OH2 8411   1.720   2.191   2.061
 2816TIP3    H1 8412   1.775   2.240   2.000
 2816TIP3    H2 8413   1.756   2.212   2.147
 2817TIP3   OH2 8414   0.452   1.451   2.567
 2817TIP3    H1 8415   0.400   1.392   2.512
 2817TIP3    H2 8416   0.404   1.534   2.566
 2818TIP3   OH2 8417   6.973   5.775   3.552
 2818TIP3    H1 8418   6.890   5.766   3.600
 2818TIP3    H2 8419   6.960   5.853   3.497
 2819TIP3   OH2 8420   2.230   5.827   2.990
 2819TIP3    H1 8421   2.247   5.910   2.945
 2819TIP3    H2 8422   2.241   5.760   2.922
 2820TIP3   OH2 8423   1.464   0.299   1.608
 2820TIP3    H1 8424   1.377   0.313   1.646
 2820TIP3    H2 8425   1.468   0.360   1.534
 2821TIP3   OH2 8426   4.262   1.581   2.171
 2821TIP3    H1 8427   4.342   1.529   2.159
 2821TIP3    H2 8428   4.197   1.519   2.202
 2822TIP3   OH2 8429   3.329   5.112   3.520
 2822TIP3    H1 8430   3.314   5.192   3.571
 2822TIP3    H2 8431   3.421   5.117   3.495
 2823TIP3   OH2 8432   2.829   0.391   5.547
 2823TIP3    H1 8433   2.870   0.333   5.611
 2823TIP3    H2 8434   2.900   0.414   5.487
 2824TIP3   OH2 8435   6.067   4.802   0.684
 2824TIP3    H1 8436   6.113   4.846   0.612
 2824TIP3    H2 8437   6.126   4.732   0.711
 2825TIP3   OH2 8438   6.233   6.028   1.271
 2825TIP3    H1 8439   6.182   5.968   1.325
 2825TIP3    H2 8440   6.317   6.036   1.317
 2826TIP3   OH2 8441   6.869   2.732   3.274
 2826TIP3    H1 8442   6.781   2.712   3.307
 2826TIP3    H2 8443   6.890   2.659   3.216
 2827TIP3   OH2 8444   4.145   1.161   3.657
 2827TIP3    H1 8445   4.076   1.135   3.719
 2827TIP3    H2 8446   4.113   1.129   3.572
 2828TIP3   OH2 8447   5.860   3.442   5.706
 2828TIP3    H1 8448   5.946   3.446   5.664
 2828TIP3    H2 8449   5.866   3.368   5.766
 2829TIP3   OH2 8450   3.997   1.465   0.098
 2829TIP3    H1 8451   4.076   1.448   0.047
 2829TIP3    H2 8452   4.029   1.482   0.187
 2830TIP3   OH2 8453   0.132   3.131   0.476
 2830TIP3    H1 8454   0.133   3.194   0.548
 2830TIP3    H2 8455   0.046   3.089   0.481
 2831TIP3   OH2 8456   6.174   1.744   3.369
 2831TIP3    H1 8457   6.168   1.734   3.464
 2831TIP3    H2 8458   6.266   1.761   3.352
 2832TIP3   OH2 8459   2.675   2.993   0.706
 2832TIP3    H1 8460   2.705   2.908   0.738
 2832TIP3    H2 8461   2.741   3.018   0.641
 2833TIP3   OH2 8462   4.802   2.052   1.807
 2833TIP3    H1 8463   4.737   2.030   1.873
 2833TIP3    H2 8464   4.774   2.002   1.729
 2834TIP3   OH2 8465   1.713   3.322   3.353
 2834TIP3    H1 8466   1.631   3.293   3.394
 2834TIP3    H2 8467   1.687   3.393   3.296
 2835TIP3   OH2 8468   6.716   5.733   1.984
 2835TIP3    H1 8469   6.717   5.682   1.903
 2835TIP3    H2 8470   6.807   5.733   2.014
 2836TIP3   OH2 8471   6.772   6.507   5.263
 2836TIP3    H1 8472   6.683   6.518   5.230
 2836TIP3    H2 8473   6.788   6.413   5.261
 2837TIP3   OH2 8474   2.083   5.617   0.319
 2837TIP3    H1 8475   1.999   5.571   0.316
 2837TIP3    H2 8476   2.136   5.568   0.382
 2838TIP3   OH2 8477   4.631   2.218   3.551
 2838TIP3    H1 8478   4.676   2.299   3.575
 2838TIP3    H2 8479   4.571   2.245   3.480
 2839TIP3   OH2 8480   4.656   2.278   4.618
 2839TIP3    H1 8481   4.642   2.370   4.598
 2839TIP3    H2 8482   4.749   2.263   4.599
 2840TIP3   OH2 8483   3.790   3.198   2.573
 2840TIP3    H1 8484   3.790   3.266   2.640
 2840TIP3    H2 8485   3.697   3.180   2.557
 2841TIP3   OH2 8486   7.016   2.892   3.098
 2841TIP3    H1 8487   6.945   2.869   3.038
 2841TIP3    H2 8488   6.973   2.909   3.182
 2842TIP3   OH2 8489   0.819   0.843   5.282
 2842TIP3    H1 8490   0.822   0.908   5.352
 2842TIP3    H2 8491   0.907   0.806   5.281
 2843TIP3   OH2 8492   6.657   5.928   5.044
 2843TIP3    H1 8493   6.675   5.874   5.121
 2843TIP3    H2 8494   6.738   5.976   5.029
 2844TIP3   OH2 8495   5.879   6.456   3.735
 2844TIP3    H1 8496   5.904   6.364   3.723
 2844TIP3    H2 8497   5.790   6.452   3.769
 2845TIP3   OH2 8498   3.597   1.270   1.904
 2845TIP3    H1 8499   3.692   1.280   1.909
 2845TIP3    H2 8500   3.563   1.356   1.931
 2846TIP3   OH2 8501   2.487   1.335   3.806
 2846TIP3    H1 8502   2.501   1.379   3.722
 2846TIP3    H2 8503   2.517   1.245   3.791
 2847TIP3   OH2 8504   3.317   0.920   0.067
 2847TIP3    H1 8505   3.335   1.010   0.038
 2847TIP3    H2 8506   3.294   0.929   0.160
 2848TIP3   OH2 8507   4.076  -0.007   5.471
 2848TIP3    H1 8508   3.984   0.004   5.496
 2848TIP3    H2 8509   4.117   0.077   5.492
 2849TIP3   OH2 8510   4.780   3.530   1.261
 2849TIP3    H1 8511   4.702   3.576   1.231
 2849TIP3    H2 8512   4.849   3.596   1.258
 2850TIP3   OH2 8513   2.082   4.362   0.911
 2850TIP3    H1 8514   2.089   4.270   0.938
 2850TIP3    H2 8515   2.111   4.412   0.988
 2851TIP3   OH2 8516   3.728   0.050   4.225
 2851TIP3    H1 8517   3.797   0.006   4.275
 2851TIP3    H2 8518   3.774   0.117   4.174
 2852TIP3   OH2 8519   1.769   5.205   2.002
 2852TIP3    H1 8520   1.735   5.164   1.923
 2852TIP3    H2 8521   1.712   5.281   2.016
 2853TIP3   OH2 8522   1.807   1.603   2.584
 2853TIP3    H1 8523   1.806   1.545   2.508
 2853TIP3    H2 8524   1.872   1.564   2.643
 2854TIP3   OH2 8525   1.602   5.985   4.629
 2854TIP3    H1 8526   1.521   5.947   4.663
 2854TIP3    H2 8527   1.654   6.006   4.708
 2855TIP3   OH2 8528   7.104   2.866   1.596
 2855TIP3    H1 8529   7.091   2.842   1.688
 2855TIP3    H2 8530   7.092   2.961   1.594
 2856TIP3   OH2 8531   3.619   0.790   0.525
 2856TIP3    H1 8532   3.707   0.807   0.560
 2856TIP3    H2 8533   3.584   0.877   0.505
 2857TIP3   OH2 8534   2.561   5.513   1.024
 2857TIP3    H1 8535   2.470   5.537   1.041
 2857TIP3    H2 8536   2.557   5.429   0.980
 2858TIP3   OH2 8537   7.083   0.925   2.349
 2858TIP3    H1 8538   7.048   0.852   2.298
 2858TIP3    H2 8539   7.106   0.887   2.434
 2859TIP3   OH2 8540   1.818   1.961   2.930
 2859TIP3    H1 8541   1.801   2.050   2.899
 2859TIP3    H2 8542   1.879   1.924   2.865
 2860TIP3   OH2 8543   1.738   2.696   3.646
 2860TIP3    H1 8544   1.785   2.772   3.610
 2860TIP3    H2 8545   1.796   2.663   3.715
 2861TIP3   OH2 8546   2.635   0.725   2.082
 2861TIP3    H1 8547   2.660   0.633   2.071
 2861TIP3    H2 8548   2.640   0.762   1.993
 2862TIP3   OH2 8549   4.325   1.050   4.641
 2862TIP3    H1 8550   4.349   1.137   4.608
 2862TIP3    H2 8551   4.409   1.008   4.659
 2863TIP3   OH2 8552   2.461   4.151   3.883
 2863TIP3    H1 8553   2.413   4.085   3.834
 2863TIP3    H2 8554   2.473   4.111   3.970
 2864TIP3   OH2 8555   0.305   0.983   5.721
 2864TIP3    H1 8556   0.283   0.960   5.811
 2864TIP3    H2 8557   0.261   1.067   5.706
 2865TIP3   OH2 8558   1.786   1.196   0.596
 2865TIP3    H1 8559   1.747   1.279   0.567
 2865TIP3    H2 8560   1.856   1.180   0.533
 2866TIP3   OH2 8561   5.156   0.819   3.691
 2866TIP3    H1 8562   5.151   0.743   3.633
 2866TIP3    H2 8563   5.080   0.872   3.668
 2867TIP3   OH2 8564   3.520   1.040   4.643
 2867TIP3    H1 8565   3.427   1.026   4.657
 2867TIP3    H2 8566   3.556   1.053   4.730
 2868TIP3   OH2 8567   2.030   1.315   5.364
 2868TIP3    H1 8568   2.110   1.359   5.391
 2868TIP3    H2 8569   2.046   1.290   5.273
 2869TIP3   OH2 8570   1.367   0.693   2.730
 2869TIP3    H1 8571   1.396   0.752   2.660
 2869TIP3    H2 8572   1.374   0.606   2.692
 2870TIP3   OH2 8573   0.451   3.542   2.326
 2870TIP3    H1 8574   0.381   3.555   2.391
 2870TIP3    H2 8575   0.411   3.487   2.259
 2871TIP3   OH2 8576   0.416   3.062   1.322
 2871TIP3    H1 8577   0.433   3.156   1.322
 2871TIP3    H2 8578   0.415   3.038   1.415
 2872TIP3   OH2 8579   0.227   1.454   3.256
 2872TIP3    H1 8580   0.313   1.494   3.254
 2872TIP3    H2 8581   0.244   1.359   3.260
 2873TIP3   OH2 8582   5.790   0.069   3.770
 2873TIP3    H1 8583   5.829   0.081   3.857
 2873TIP3    H2 8584   5.827   0.139   3.717
 2874TIP3   OH2 8585   2.892   5.013   2.283
 2874TIP3    H1 8586   2.801   5.017   2.313
 2874TIP3    H2 8587   2.895   4.936   2.226
 2875TIP3   OH2 8588   0.533   5.120   1.387
 2875TIP3    H1 8589   0.620   5.083   1.406
 2875TIP3    H2 8590   0.516   5.094   1.296
 2876TIP3   OH2 8591   1.300   4.333   1.499
 2876TIP3    H1 8592   1.346   4.390   1.560
 2876TIP3    H2 8593   1.208   4.359   1.506
 2877TIP3   OH2 8594   5.895   0.840   4.571
 2877TIP3    H1 8595   5.806   0.871   4.588
 2877TIP3    H2 8596   5.946   0.920   4.557
 2878TIP3   OH2 8597   3.764   1.031   2.668
 2878TIP3    H1 8598   3.754   1.075   2.753
 2878TIP3    H2 8599   3.803   0.946   2.690
 2879TIP3   OH2 8600   0.365   0.535   1.333
 2879TIP3    H1 8601   0.409   0.595   1.393
 2879TIP3    H2 8602   0.352   0.456   1.384
 2880TIP3   OH2 8603   3.375   4.015   3.503
 2880TIP3    H1 8604   3.426   3.944   3.463
 2880TIP3    H2 8605   3.293   4.015   3.455
 2881TIP3   OH2 8606   6.568   2.740   4.397
 2881TIP3    H1 8607   6.510   2.813   4.378
 2881TIP3    H2 8608   6.650   2.781   4.425
 2882TIP3   OH2 8609   1.721   1.620   4.056
 2882TIP3    H1 8610   1.712   1.708   4.019
 2882TIP3    H2 8611   1.673   1.563   3.996
 2883TIP3   OH2 8612   3.766   4.093   3.143
 2883TIP3    H1 8613   3.857   4.068   3.128
 2883TIP3    H2 8614   3.734   4.030   3.207
 2884TIP3   OH2 8615   1.204   4.833   5.175
 2884TIP3    H1 8616   1.216   4.893   5.101
 2884TIP3    H2 8617   1.256   4.871   5.245
 2885TIP3   OH2 8618   4.885   4.557   5.506
 2885TIP3    H1 8619   4.913   4.469   5.532
 2885TIP3    H2 8620   4.966   4.603   5.483
 2886TIP3   OH2 8621   4.264   5.096   3.913
 2886TIP3    H1 8622   4.172   5.084   3.891
 2886TIP3    H2 8623   4.264   5.159   3.984
 2887TIP3   OH2 8624   0.222   4.109   2.335
 2887TIP3    H1 8625   0.303   4.156   2.314
 2887TIP3    H2 8626   0.189   4.080   2.251
 2888TIP3   OH2 8627   6.535   1.635   0.957
 2888TIP3    H1 8628   6.512   1.627   0.864
 2888TIP3    H2 8629   6.457   1.672   0.998
 2889TIP3   OH2 8630   4.655   4.625   2.281
 2889TIP3    H1 8631   4.576   4.596   2.235
 2889TIP3    H2 8632   4.679   4.707   2.236
 2890TIP3   OH2 8633   4.302   2.788   4.575
 2890TIP3    H1 8634   4.389   2.788   4.615
 2890TIP3    H2 8635   4.251   2.726   4.628
 2891TIP3   OH2 8636   1.235   1.902   4.158
 2891TIP3    H1 8637   1.264   1.815   4.183
 2891TIP3    H2 8638   1.285   1.923   4.080
 2892TIP3   OH2 8639   5.562   2.264   2.248
 2892TIP3    H1 8640   5.469   2.266   2.226
 2892TIP3    H2 8641   5.570   2.192   2.311
 2893TIP3   OH2 8642   0.272   5.261   4.700
 2893TIP3    H1 8643   0.189   5.217   4.716
 2893TIP3    H2 8644   0.254   5.354   4.715
 2894TIP3   OH2 8645   4.604   4.495   3.460
 2894TIP3    H1 8646   4.600   4.583   3.424
 2894TIP3    H2 8647   4.513   4.471   3.476
 2895TIP3   OH2 8648   3.393   5.456   0.286
 2895TIP3    H1 8649   3.351   5.526   0.336
 2895TIP3    H2 8650   3.321   5.414   0.239
 2896TIP3   OH2 8651   5.617   1.350   5.282
 2896TIP3    H1 8652   5.605   1.331   5.189
 2896TIP3    H2 8653   5.667   1.275   5.315
 2897TIP3   OH2 8654   4.338   3.898   1.385
 2897TIP3    H1 8655   4.398   3.871   1.454
 2897TIP3    H2 8656   4.328   3.993   1.397
 2898TIP3   OH2 8657   1.483   4.760   2.577
 2898TIP3    H1 8658   1.512   4.670   2.590
 2898TIP3    H2 8659   1.516   4.807   2.653
 2899TIP3   OH2 8660   6.501   3.653   3.799
 2899TIP3    H1 8661   6.574   3.609   3.755
 2899TIP3    H2 8662   6.456   3.700   3.729
 2900TIP3   OH2 8663   5.189   5.132   5.047
 2900TIP3    H1 8664   5.266   5.110   5.100
 2900TIP3    H2 8665   5.193   5.227   5.038
 2901TIP3   OH2 8666   0.854   0.292   2.331
 2901TIP3    H1 8667   0.800   0.353   2.381
 2901TIP3    H2 8668   0.938   0.290   2.378
 2902TIP3   OH2 8669   5.576   4.190   5.763
 2902TIP3    H1 8670   5.613   4.234   5.840
 2902TIP3    H2 8671   5.631   4.219   5.690
 2903TIP3   OH2 8672   0.269   0.622   4.569
 2903TIP3    H1 8673   0.321   0.667   4.503
 2903TIP3    H2 8674   0.246   0.690   4.633
 2904TIP3   OH2 8675   6.721   2.738   0.791
 2904TIP3    H1 8676   6.757   2.798   0.725
 2904TIP3    H2 8677   6.709   2.792   0.869
 2905TIP3   OH2 8678   1.472   6.539   1.236
 2905TIP3    H1 8679   1.507   6.618   1.276
 2905TIP3    H2 8680   1.547   6.480   1.226
 2906TIP3   OH2 8681   3.214   3.542   2.357
 2906TIP3    H1 8682   3.199   3.540   2.262
 2906TIP3    H2 8683   3.304   3.574   2.366
 2907TIP3   OH2 8684   2.496   5.093   5.722
 2907TIP3    H1 8685   2.447   5.174   5.739
 2907TIP3    H2 8686   2.530   5.104   5.633
 2908TIP3   OH2 8687   2.574   1.539   4.497
 2908TIP3    H1 8688   2.494   1.494   4.470
 2908TIP3    H2 8689   2.643   1.474   4.487
 2909TIP3   OH2 8690   4.285   0.860   1.872
 2909TIP3    H1 8691   4.324   0.916   1.805
 2909TIP3    H2 8692   4.303   0.771   1.844
 2910TIP3   OH2 8693   0.110   1.560   0.300
 2910TIP3    H1 8694   0.124   1.496   0.230
 2910TIP3    H2 8695   0.068   1.510   0.369
 2911TIP3   OH2 8696   1.576   0.062   1.644
 2911TIP3    H1 8697   1.554  -0.024   1.606
 2911TIP3    H2 8698   1.497   0.114   1.629
 2912TIP3   OH2 8699   0.552   2.080   2.385
 2912TIP3    H1 8700   0.469   2.056   2.345
 2912TIP3    H2 8701   0.558   2.175   2.372
 2913TIP3   OH2 8702   1.037   5.210   0.330
 2913TIP3    H1 8703   0.949   5.219   0.295
 2913TIP3    H2 8704   1.093   5.252   0.264
 2914TIP3   OH2 8705   3.636   3.122   0.605
 2914TIP3    H1 8706   3.604   3.036   0.630
 2914TIP3    H2 8707   3.728   3.109   0.583
 2915TIP3   OH2 8708   1.656   4.565   0.401
 2915TIP3    H1 8709   1.693   4.620   0.332
 2915TIP3    H2 8710   1.577   4.527   0.361
 2916TIP3   OH2 8711   2.680   1.195   3.493
 2916TIP3    H1 8712   2.622   1.150   3.556
 2916TIP3    H2 8713   2.701   1.278   3.536
 2917TIP3   OH2 8714   3.255   3.541   1.566
 2917TIP3    H1 8715   3.338   3.495   1.554
 2917TIP3    H2 8716   3.275   3.633   1.547
 2918TIP3   OH2 8717   2.583   6.052   5.567
 2918TIP3    H1 8718   2.676   6.029   5.570
 2918TIP3    H2 8719   2.539   5.977   5.606
 2919TIP3   OH2 8720   1.367   0.308   3.612
 2919TIP3    H1 8721   1.433   0.318   3.680
 2919TIP3    H2 8722   1.415   0.274   3.536
 2920TIP3   OH2 8723   2.456   2.002   2.910
 2920TIP3    H1 8724   2.534   1.960   2.946
 2920TIP3    H2 8725   2.484   2.036   2.825
 2921TIP3   OH2 8726   6.692   0.447   4.093
 2921TIP3    H1 8727   6.749   0.370   4.088
 2921TIP3    H2 8728   6.721   0.503   4.021
 2922TIP3   OH2 8729   2.482   4.673   1.519
 2922TIP3    H1 8730   2.411   4.736   1.508
 2922TIP3    H2 8731   2.527   4.702   1.599
 2923TIP3   OH2 8732   2.755   5.678   1.136
 2923TIP3    H1 8733   2.836   5.650   1.093
 2923TIP3    H2 8734   2.687   5.620   1.100
 2924TIP3   OH2 8735   4.118   6.386   1.962
 2924TIP3    H1 8736   4.199   6.410   2.007
 2924TIP3    H2 8737   4.111   6.450   1.891
 2925TIP3   OH2 8738   0.683   6.731   0.977
 2925TIP3    H1 8739   0.743   6.661   0.953
 2925TIP3    H2 8740   0.730   6.782   1.043
 2926TIP3   OH2 8741   3.187   4.015   0.551
 2926TIP3    H1 8742   3.121   3.946   0.561
 2926TIP3    H2 8743   3.247   3.981   0.485
 2927TIP3   OH2 8744   3.204   6.539   2.495
 2927TIP3    H1 8745   3.257   6.521   2.572
 2927TIP3    H2 8746   3.186   6.633   2.499
 2928TIP3   OH2 8747   3.803   4.185   2.572
 2928TIP3    H1 8748   3.830   4.247   2.639
 2928TIP3    H2 8749   3.852   4.105   2.591
 2929TIP3   OH2 8750   0.240   0.576   3.120
 2929TIP3    H1 8751   0.318   0.523   3.136
 2929TIP3    H2 8752   0.266   0.635   3.048
 2930TIP3   OH2 8753   4.407   3.249   4.562
 2930TIP3    H1 8754   4.492   3.219   4.529
 2930TIP3    H2 8755   4.347   3.178   4.540
 2931TIP3   OH2 8756   3.739   0.518   2.633
 2931TIP3    H1 8757   3.655   0.552   2.604
 2931TIP3    H2 8758   3.783   0.593   2.674
 2932TIP3   OH2 8759   2.728   4.661   3.114
 2932TIP3    H1 8760   2.771   4.575   3.114
 2932TIP3    H2 8761   2.779   4.713   3.052
 2933TIP3   OH2 8762   6.384   1.084   2.113
 2933TIP3    H1 8763   6.360   1.158   2.168
 2933TIP3    H2 8764   6.443   1.121   2.047
 2934TIP3   OH2 8765   4.790   2.676   4.791
 2934TIP3    H1 8766   4.696   2.661   4.782
 2934TIP3    H2 8767   4.803   2.767   4.764
 2935TIP3   OH2 8768   6.277   1.969   3.944
 2935TIP3    H1 8769   6.362   1.929   3.963
 2935TIP3    H2 8770   6.261   2.029   4.017
 2936TIP3   OH2 8771   0.255   5.978   2.901
 2936TIP3    H1 8772   0.170   5.935   2.915
 2936TIP3    H2 8773   0.284   6.003   2.989
 2937TIP3   OH2 8774   0.225   1.311   2.137
 2937TIP3    H1 8775   0.130   1.306   2.138
 2937TIP3    H2 8776   0.246   1.366   2.062
 2938TIP3   OH2 8777   4.728   4.097   2.978
 2938TIP3    H1 8778   4.734   4.079   2.884
 2938TIP3    H2 8779   4.689   4.185   2.983
 2939TIP3   OH2 8780   0.875   4.465   5.043
 2939TIP3    H1 8781   0.935   4.536   5.023
 2939TIP3    H2 8782   0.868   4.466   5.138
 2940TIP3   OH2 8783   2.126   4.087   2.694
 2940TIP3    H1 8784   2.181   4.055   2.623
 2940TIP3    H2 8785   2.093   4.172   2.663
 2941TIP3   OH2 8786   5.233   4.104   3.799
 2941TIP3    H1 8787   5.275   4.023   3.769
 2941TIP3    H2 8788   5.281   4.174   3.754
 2942TIP3   OH2 8789   6.761   6.355   4.981
 2942TIP3    H1 8790   6.786   6.302   5.056
 2942TIP3    H2 8791   6.813   6.435   4.990
 2943TIP3   OH2 8792   2.185   6.468   2.040
 2943TIP3    H1 8793   2.209   6.560   2.037
 2943TIP3    H2 8794   2.114   6.460   1.976
 2944TIP3   OH2 8795   6.616   5.421   5.629
 2944TIP3    H1 8796   6.682   5.460   5.686
 2944TIP3    H2 8797   6.544   5.484   5.629
 2945TIP3   OH2 8798   0.459   5.377   0.401
 2945TIP3    H1 8799   0.468   5.470   0.383
 2945TIP3    H2 8800   0.490   5.367   0.491
 2946TIP3   OH2 8801   2.723   3.319   1.228
 2946TIP3    H1 8802   2.787   3.282   1.289
 2946TIP3    H2 8803   2.777   3.351   1.155
 2947TIP3   OH2 8804   2.246   3.583   4.936
 2947TIP3    H1 8805   2.201   3.605   4.854
 2947TIP3    H2 8806   2.187   3.523   4.981
 2948TIP3   OH2 8807   2.938   4.966   4.459
 2948TIP3    H1 8808   2.956   4.909   4.384
 2948TIP3    H2 8809   2.842   4.972   4.462
 2949TIP3   OH2 8810   2.119   0.608   2.127
 2949TIP3    H1 8811   2.120   0.665   2.204
 2949TIP3    H2 8812   2.201   0.557   2.134
 2950TIP3   OH2 8813   5.679   6.303   0.869
 2950TIP3    H1 8814   5.737   6.235   0.903
 2950TIP3    H2 8815   5.630   6.333   0.946
 2951TIP3   OH2 8816   1.217   5.312   2.584
 2951TIP3    H1 8817   1.207   5.362   2.503
 2951TIP3    H2 8818   1.305   5.275   2.580
 2952TIP3   OH2 8819   2.997   5.247   4.430
 2952TIP3    H1 8820   2.941   5.176   4.464
 2952TIP3    H2 8821   3.086   5.212   4.436
 2953TIP3   OH2 8822   1.409   0.898   3.835
 2953TIP3    H1 8823   1.404   0.994   3.835
 2953TIP3    H2 8824   1.318   0.870   3.833
 2954TIP3   OH2 8825   5.254   2.512   5.181
 2954TIP3    H1 8826   5.342   2.550   5.192
 2954TIP3    H2 8827   5.216   2.561   5.108
 2955TIP3   OH2 8828   3.503   3.572   4.418
 2955TIP3    H1 8829   3.561   3.539   4.486
 2955TIP3    H2 8830   3.488   3.664   4.442
 2956TIP3   OH2 8831   3.250   4.863   1.626
 2956TIP3    H1 8832   3.335   4.906   1.616
 2956TIP3    H2 8833   3.271   4.778   1.666
 2957TIP3   OH2 8834   3.125   0.366   3.377
 2957TIP3    H1 8835   3.213   0.358   3.340
 2957TIP3    H2 8836   3.127   0.449   3.425
 2958TIP3   OH2 8837   0.940   1.431   1.300
 2958TIP3    H1 8838   0.904   1.496   1.239
 2958TIP3    H2 8839   1.034   1.431   1.284
 2959TIP3   OH2 8840   3.832   6.426   1.885
 2959TIP3    H1 8841   3.907   6.451   1.831
 2959TIP3    H2 8842   3.793   6.351   1.839
 2960TIP3   OH2 8843   3.142   5.118   1.242
 2960TIP3    H1 8844   3.137   5.025   1.261
 2960TIP3    H2 8845   3.236   5.137   1.238
 2961TIP3   OH2 8846   0.885   0.987   1.551
 2961TIP3    H1 8847   0.817   0.944   1.499
 2961TIP3    H2 8848   0.962   0.988   1.494
 2962TIP3   OH2 8849   1.199   0.370   1.677
 2962TIP3    H1 8850   1.177   0.353   1.585
 2962TIP3    H2 8851   1.193   0.466   1.686
 2963TIP3   OH2 8852   1.237   3.001   2.595
 2963TIP3    H1 8853   1.257   2.909   2.609
 2963TIP3    H2 8854   1.152   3.001   2.550
 2964TIP3   OH2 8855   1.340   5.993   5.782
 2964TIP3    H1 8856   1.357   5.902   5.808
 2964TIP3    H2 8857   1.389   6.004   5.700
 2965TIP3   OH2 8858   3.691   0.478   2.104
 2965TIP3    H1 8859   3.663   0.487   2.013
 2965TIP3    H2 8860   3.785   0.458   2.098
 2966TIP3   OH2 8861   2.395   2.266   0.673
 2966TIP3    H1 8862   2.392   2.198   0.740
 2966TIP3    H2 8863   2.482   2.304   0.680
 2967TIP3   OH2 8864   0.121   0.167   4.663
 2967TIP3    H1 8865   0.175   0.172   4.742
 2967TIP3    H2 8866   0.092   0.076   4.659
 2968TIP3   OH2 8867   4.781   5.051   4.158
 2968TIP3    H1 8868   4.717   5.078   4.093
 2968TIP3    H2 8869   4.865   5.054   4.113
 2969TIP3   OH2 8870   5.632   2.915   4.712
 2969TIP3    H1 8871   5.710   2.880   4.754
 2969TIP3    H2 8872   5.559   2.886   4.766
 2970TIP3   OH2 8873   1.098   3.786   1.171
 2970TIP3    H1 8874   1.157   3.846   1.125
 2970TIP3    H2 8875   1.072   3.723   1.104
 2971TIP3   OH2 8876   3.880   5.405   2.060
 2971TIP3    H1 8877   3.924   5.473   2.110
 2971TIP3    H2 8878   3.842   5.348   2.126
 2972TIP3   OH2 8879   6.240   2.173   2.368
 2972TIP3    H1 8880   6.292   2.238   2.416
 2972TIP3    H2 8881   6.250   2.093   2.419
 2973TIP3   OH2 8882   1.683   0.819   5.349
 2973TIP3    H1 8883   1.666   0.737   5.395
 2973TIP3    H2 8884   1.660   0.801   5.258
 2974TIP3   OH2 8885   6.031   2.730   2.859
 2974TIP3    H1 8886   6.062   2.639   2.864
 2974TIP3    H2 8887   5.982   2.733   2.777
 2975TIP3   OH2 8888   6.043   2.935   4.588
 2975TIP3    H1 8889   6.099   2.992   4.535
 2975TIP3    H2 8890   5.954   2.963   4.566
 2976TIP3   OH2 8891   2.286   4.146   0.443
 2976TIP3    H1 8892   2.306   4.194   0.362
 2976TIP3    H2 8893   2.344   4.184   0.508
 2977TIP3   OH2 8894   2.536   4.404   4.336
 2977TIP3    H1 8895   2.533   4.309   4.324
 2977TIP3    H2 8896   2.613   4.432   4.286
 2978TIP3   OH2 8897   3.827   4.296   0.284
 2978TIP3    H1 8898   3.798   4.241   0.356
 2978TIP3    H2 8899   3.791   4.255   0.205
 2979TIP3   OH2 8900   6.836   4.750   2.991
 2979TIP3    H1 8901   6.931   4.736   3.000
 2979TIP3    H2 8902   6.806   4.674   2.940
 2980TIP3   OH2 8903   3.756   5.446   0.793
 2980TIP3    H1 8904   3.722   5.397   0.868
 2980TIP3    H2 8905   3.698   5.422   0.720
 2981TIP3   OH2 8906   0.932   6.375   0.373
 2981TIP3    H1 8907   0.863   6.425   0.416
 2981TIP3    H2 8908   0.889   6.335   0.297
 2982TIP3   OH2 8909   2.558   3.162   4.045
 2982TIP3    H1 8910   2.472   3.122   4.052
 2982TIP3    H2 8911   2.572   3.176   3.952
 2983TIP3   OH2 8912   0.658   0.661   1.224
 2983TIP3    H1 8913   0.721   0.729   1.199
 2983TIP3    H2 8914   0.573   0.695   1.195
 2984TIP3   OH2 8915   6.313   4.726   1.371
 2984TIP3    H1 8916   6.265   4.676   1.305
 2984TIP3    H2 8917   6.405   4.713   1.350
 2985TIP3   OH2 8918   0.309   6.673   2.871
 2985TIP3    H1 8919   0.321   6.578   2.872
 2985TIP3    H2 8920   0.396   6.708   2.850
 2986TIP3   OH2 8921   5.499   0.248   4.309
 2986TIP3    H1 8922   5.567   0.235   4.375
 2986TIP3    H2 8923   5.509   0.174   4.250
 2987TIP3   OH2 8924   0.461   1.333   3.864
 2987TIP3    H1 8925   0.491   1.253   3.821
 2987TIP3    H2 8926   0.400   1.303   3.931
 2988TIP3   OH2 8927   6.609   0.183   2.958
 2988TIP3    H1 8928   6.559   0.170   2.877
 2988TIP3    H2 8929   6.625   0.277   2.962
 2989TIP3   OH2 8930   4.836   1.047   1.045
 2989TIP3    H1 8931   4.835   0.953   1.059
 2989TIP3    H2 8932   4.842   1.085   1.133
 2990TIP3   OH2 8933   2.081   1.787   1.127
 2990TIP3    H1 8934   2.009   1.848   1.109
 2990TIP3    H2 8935   2.044   1.701   1.107
 2991TIP3   OH2 8936   6.982   3.680   4.622
 2991TIP3    H1 8937   7.075   3.661   4.638
 2991TIP3    H2 8938   6.947   3.703   4.708
 2992TIP3   OH2 8939   3.337   0.551   5.667
 2992TIP3    H1 8940   3.394   0.539   5.591
 2992TIP3    H2 8941   3.294   0.636   5.651
 2993TIP3   OH2 8942   1.556   5.085   4.362
 2993TIP3    H1 8943   1.487   5.034   4.405
 2993TIP3    H2 8944   1.583   5.031   4.288
 2994TIP3   OH2 8945   4.167   5.822   3.056
 2994TIP3    H1 8946   4.170   5.799   3.148
 2994TIP3    H2 8947   4.153   5.917   3.055
 2995TIP3   OH2 8948   3.011   3.091   4.207
 2995TIP3    H1 8949   3.031   3.184   4.192
 2995TIP3    H2 8950   3.096   3.049   4.215
 2996TIP3   OH2 8951   4.545   6.235   2.026
 2996TIP3    H1 8952   4.605   6.168   1.992
 2996TIP3    H2 8953   4.587   6.266   2.106
 2997TIP3   OH2 8954   5.539   3.408   2.426
 2997TIP3    H1 8955   5.518   3.322   2.391
 2997TIP3    H2 8956   5.489   3.469   2.372
 2998TIP3   OH2 8957   7.146   4.334   2.584
 2998TIP3    H1 8958   7.215   4.332   2.651
 2998TIP3    H2 8959   7.101   4.250   2.593
 2999TIP3   OH2 8960   3.550   2.722   2.569
 2999TIP3    H1 8961   3.508   2.788   2.513
 2999TIP3    H2 8962   3.525   2.747   2.658
 3000TIP3   OH2 8963   3.896   1.176   1.738
 3000TIP3    H1 8964   3.867   1.224   1.661
 3000TIP3    H2 8965   3.984   1.146   1.715
 3001TIP3   OH2 8966   5.780   2.006   2.377
 3001TIP3    H1 8967   5.692   2.028   2.407
 3001TIP3    H2 8968   5.837   2.034   2.448
 3002TIP3   OH2 8969   2.703   1.915   2.155
 3002TIP3    H1 8970   2.642   1.877   2.218
 3002TIP3    H2 8971   2.646   1.954   2.089
 3003TIP3   OH2 8972   0.595   3.386   5.361
 3003TIP3    H1 8973   0.662   3.339   5.410
 3003TIP3    H2 8974   0.638   3.413   5.280
 3004TIP3   OH2 8975   2.477   4.057   2.048
 3004TIP3    H1 8976   2.384   4.060   2.027
 3004TIP3    H2 8977   2.484   4.096   2.135
 3005TIP3   OH2 8978   7.022   3.344   5.642
 3005TIP3    H1 8979   7.111   3.310   5.631
 3005TIP3    H2 8980   6.984   3.338   5.554
 3006TIP3   OH2 8981   5.789   4.554   3.125
 3006TIP3    H1 8982   5.792   4.602   3.042
 3006TIP3    H2 8983   5.708   4.503   3.121
 3007TIP3   OH2 8984   2.943   2.655   5.463
 3007TIP3    H1 8985   2.864   2.706   5.446
 3007TIP3    H2 8986   2.925   2.570   5.422
 3008TIP3   OH2 8987   0.382   1.475   2.880
 3008TIP3    H1 8988   0.440   1.492   2.805
 3008TIP3    H2 8989   0.396   1.383   2.899
 3009TIP3   OH2 8990   5.583   3.099   5.782
 3009TIP3    H1 8991   5.548   3.058   5.703
 3009TIP3    H2 8992   5.641   3.168   5.750
 3010TIP3   OH2 8993   2.724   3.373   0.381
 3010TIP3    H1 8994   2.707   3.280   0.396
 3010TIP3    H2 8995   2.644   3.417   0.410
 3011TIP3   OH2 8996   1.449   1.972   4.663
 3011TIP3    H1 8997   1.418   1.978   4.754
 3011TIP3    H2 8998   1.374   1.997   4.610
 3012TIP3   OH2 8999   6.875   4.302   3.275
 3012TIP3    H1 9000   6.897   4.359   3.201
 3012TIP3    H2 9001   6.957   4.257   3.296
 3013TIP3   OH2 9002   6.474   0.454   4.712
 3013TIP3    H1 9003   6.471   0.360   4.732
 3013TIP3    H2 9004   6.534   0.461   4.639
 3014TIP3   OH2 9005   5.830   0.494   4.489
 3014TIP3    H1 9006   5.839   0.495   4.393
 3014TIP3    H2 9007   5.913   0.530   4.521
 3015TIP3   OH2 9008   1.590   1.896   1.206
 3015TIP3    H1 9009   1.600   1.802   1.193
 3015TIP3    H2 9010   1.567   1.931   1.120
 3016TIP3   OH2 9011   0.161   5.913   2.500
 3016TIP3    H1 9012   0.213   5.886   2.575
 3016TIP3    H2 9013   0.073   5.926   2.536
 3017TIP3   OH2 9014   6.413   1.943   3.575
 3017TIP3    H1 9015   6.422   1.878   3.645
 3017TIP3    H2 9016   6.370   2.018   3.617
 3018TIP3   OH2 9017   7.120   6.191   4.927
 3018TIP3    H1 9018   7.113   6.142   4.845
 3018TIP3    H2 9019   7.195   6.249   4.914
 3019TIP3   OH2 9020   3.661   4.333   3.075
 3019TIP3    H1 9021   3.697   4.249   3.104
 3019TIP3    H2 9022   3.735   4.379   3.035
 3020TIP3   OH2 9023   5.652   6.090   1.462
 3020TIP3    H1 9024   5.632   6.181   1.441
 3020TIP3    H2 9025   5.569   6.052   1.489
 3021TIP3   OH2 9026   0.844   3.897   0.308
 3021TIP3    H1 9027   0.881   3.898   0.220
 3021TIP3    H2 9028   0.879   3.975   0.350
 3022TIP3   OH2 9029   6.156   0.147   4.872
 3022TIP3    H1 9030   6.142   0.139   4.966
 3022TIP3    H2 9031   6.099   0.219   4.845
 3023TIP3   OH2 9032   2.995   0.818   3.603
 3023TIP3    H1 9033   2.961   0.757   3.537
 3023TIP3    H2 9034   2.987   0.904   3.562
 3024TIP3   OH2 9035   0.914   5.526   4.758
 3024TIP3    H1 9036   0.895   5.614   4.725
 3024TIP3    H2 9037   0.918   5.471   4.680
 3025TIP3   OH2 9038   6.694   1.607   4.755
 3025TIP3    H1 9039   6.779   1.638   4.723
 3025TIP3    H2 9040   6.672   1.667   4.826
 3026TIP3   OH2 9041   4.027   0.340   1.377
 3026TIP3    H1 9042   4.107   0.393   1.372
 3026TIP3    H2 9043   4.053   0.261   1.425
 3027TIP3   OH2 9044   4.969   1.227   2.528
 3027TIP3    H1 9045   5.060   1.232   2.557
 3027TIP3    H2 9046   4.948   1.316   2.499
 3028TIP3   OH2 9047   6.855   5.505   0.982
 3028TIP3    H1 9048   6.887   5.592   1.005
 3028TIP3    H2 9049   6.831   5.512   0.890
 3029TIP3   OH2 9050   5.299   3.703   1.131
 3029TIP3    H1 9051   5.346   3.706   1.048
 3029TIP3    H2 9052   5.340   3.630   1.178
 3030TIP3   OH2 9053   1.554   4.286   4.006
 3030TIP3    H1 9054   1.531   4.272   3.914
 3030TIP3    H2 9055   1.470   4.281   4.052
 3031TIP3   OH2 9056   1.283   0.381   2.681
 3031TIP3    H1 9057   1.284   0.286   2.669
 3031TIP3    H2 9058   1.230   0.395   2.759
 3032TIP3   OH2 9059   4.664   5.559   4.448
 3032TIP3    H1 9060   4.592   5.619   4.466
 3032TIP3    H2 9061   4.724   5.572   4.522
 3033TIP3   OH2 9062   3.096   0.068   2.428
 3033TIP3    H1 9063   3.007   0.068   2.463
 3033TIP3    H2 9064   3.149   0.030   2.498
 3034TIP3   OH2 9065   5.207   0.455   2.101
 3034TIP3    H1 9066   5.291   0.444   2.056
 3034TIP3    H2 9067   5.228   0.503   2.181
 3035TIP3   OH2 9068   3.364   5.454   4.670
 3035TIP3    H1 9069   3.451   5.414   4.677
 3035TIP3    H2 9070   3.330   5.454   4.759
 3036TIP3   OH2 9071   3.992   6.726   4.858
 3036TIP3    H1 9072   3.927   6.684   4.802
 3036TIP3    H2 9073   3.944   6.748   4.938
 3037TIP3   OH2 9074   6.035   0.033   4.595
 3037TIP3    H1 9075   6.047   0.124   4.620
 3037TIP3    H2 9076   5.941   0.020   4.592
 3038TIP3   OH2 9077   3.751   6.568   0.681
 3038TIP3    H1 9078   3.749   6.576   0.776
 3038TIP3    H2 9079   3.777   6.655   0.650
 3039TIP3   OH2 9080   3.049   3.991   3.826
 3039TIP3    H1 9081   3.082   4.044   3.899
 3039TIP3    H2 9082   3.000   4.052   3.771
 3040TIP3   OH2 9083   4.775   2.778   3.851
 3040TIP3    H1 9084   4.852   2.761   3.904
 3040TIP3    H2 9085   4.765   2.873   3.852
 3041TIP3   OH2 9086   2.366   1.384   4.364
 3041TIP3    H1 9087   2.330   1.306   4.407
 3041TIP3    H2 9088   2.316   1.392   4.283
 3042TIP3   OH2 9089   0.267   2.362   4.737
 3042TIP3    H1 9090   0.297   2.421   4.807
 3042TIP3    H2 9091   0.223   2.419   4.675
 3043TIP3   OH2 9092   5.780   4.042   2.575
 3043TIP3    H1 9093   5.705   4.061   2.519
 3043TIP3    H2 9094   5.837   4.119   2.565
 3044TIP3   OH2 9095   3.394   3.791   0.605
 3044TIP3    H1 9096   3.309   3.766   0.641
 3044TIP3    H2 9097   3.454   3.784   0.680
 3045TIP3   OH2 9098   0.004   1.076   1.625
 3045TIP3    H1 9099   0.073   1.083   1.559
 3045TIP3    H2 9100  -0.058   1.146   1.603
 3046TIP3   OH2 9101   2.791   4.837   1.631
 3046TIP3    H1 9102   2.879   4.818   1.597
 3046TIP3    H2 9103   2.769   4.922   1.593
 3047TIP3   OH2 9104   0.729   5.612   2.061
 3047TIP3    H1 9105   0.800   5.550   2.043
 3047TIP3    H2 9106   0.773   5.696   2.072
 3048TIP3   OH2 9107   2.661   3.008   1.387
 3048TIP3    H1 9108   2.657   2.941   1.319
 3048TIP3    H2 9109   2.617   2.968   1.462
 3049TIP3   OH2 9110   1.219   2.049   3.083
 3049TIP3    H1 9111   1.222   2.072   3.176
 3049TIP3    H2 9112   1.136   2.002   3.073
 3050TIP3   OH2 9113   1.487   3.666   1.290
 3050TIP3    H1 9114   1.513   3.587   1.242
 3050TIP3    H2 9115   1.562   3.725   1.280
 3051TIP3   OH2 9116   2.850   2.553   1.252
 3051TIP3    H1 9117   2.804   2.515   1.326
 3051TIP3    H2 9118   2.780   2.578   1.191
 3052TIP3   OH2 9119   5.215   4.603   2.482
 3052TIP3    H1 9120   5.235   4.696   2.497
 3052TIP3    H2 9121   5.124   4.602   2.452
 3053TIP3   OH2 9122   7.042   3.076   2.580
 3053TIP3    H1 9123   6.955   3.044   2.606
 3053TIP3    H2 9124   7.057   3.036   2.494
 3054TIP3   OH2 9125   0.069   5.350   4.994
 3054TIP3    H1 9126   0.059   5.445   5.003
 3054TIP3    H2 9127   0.152   5.330   5.037
 3055TIP3   OH2 9128   6.696   6.021   2.184
 3055TIP3    H1 9129   6.677   6.099   2.131
 3055TIP3    H2 9130   6.657   5.949   2.136
 3056TIP3   OH2 9131   4.640   5.666   2.158
 3056TIP3    H1 9132   4.717   5.700   2.203
 3056TIP3    H2 9133   4.603   5.742   2.113
 3057TIP3   OH2 9134   6.734   1.729   4.982
 3057TIP3    H1 9135   6.827   1.712   4.967
 3057TIP3    H2 9136   6.733   1.798   5.049
 3058TIP3   OH2 9137   5.804   4.205   1.012
 3058TIP3    H1 9138   5.788   4.115   0.984
 3058TIP3    H2 9139   5.745   4.218   1.086
 3059TIP3   OH2 9140   2.266   6.046   5.541
 3059TIP3    H1 9141   2.289   6.024   5.451
 3059TIP3    H2 9142   2.275   6.141   5.547
 3060TIP3   OH2 9143   4.001   0.599   0.780
 3060TIP3    H1 9144   4.011   0.545   0.702
 3060TIP3    H2 9145   3.996   0.536   0.852
 3061TIP3   OH2 9146   0.270   3.579   2.543
 3061TIP3    H1 9147   0.246   3.490   2.569
 3061TIP3    H2 9148   0.197   3.633   2.573
 3062TIP3   OH2 9149   4.141   2.330   2.289
 3062TIP3    H1 9150   4.089   2.389   2.345
 3062TIP3    H2 9151   4.191   2.389   2.232
 3063TIP3   OH2 9152   2.672   2.258   5.795
 3063TIP3    H1 9153   2.587   2.223   5.822
 3063TIP3    H2 9154   2.670   2.350   5.823
 3064TIP3   OH2 9155   4.918   1.090   0.786
 3064TIP3    H1 9156   4.940   1.183   0.788
 3064TIP3    H2 9157   4.884   1.070   0.873
 3065TIP3   OH2 9158   0.740   3.851   3.321
 3065TIP3    H1 9159   0.821   3.902   3.313
 3065TIP3    H2 9160   0.728   3.812   3.235
 3066TIP3   OH2 9161   7.179   0.953   3.924
 3066TIP3    H1 9162   7.262   0.909   3.944
 3066TIP3    H2 9163   7.113   0.885   3.935
 3067TIP3   OH2 9164   0.417   1.745   4.230
 3067TIP3    H1 9165   0.478   1.814   4.256
 3067TIP3    H2 9166   0.397   1.764   4.138
 3068TIP3   OH2 9167   2.943   2.859   0.771
 3068TIP3    H1 9168   2.950   2.913   0.849
 3068TIP3    H2 9169   3.029   2.864   0.729
 3069TIP3   OH2 9170   3.192   4.243   4.917
 3069TIP3    H1 9171   3.145   4.307   4.863
 3069TIP3    H2 9172   3.219   4.175   4.856
 3070TIP3   OH2 9173   2.712   1.005   4.658
 3070TIP3    H1 9174   2.749   0.950   4.728
 3070TIP3    H2 9175   2.674   0.943   4.596
 3071TIP3   OH2 9176   3.374   5.329   2.406
 3071TIP3    H1 9177   3.316   5.377   2.346
 3071TIP3    H2 9178   3.334   5.342   2.492
 3072TIP3   OH2 9179   2.715   3.606   1.483
 3072TIP3    H1 9180   2.805   3.639   1.489
 3072TIP3    H2 9181   2.696   3.571   1.570
 3073TIP3   OH2 9182   3.587   1.619   5.794
 3073TIP3    H1 9183   3.682   1.611   5.809
 3073TIP3    H2 9184   3.552   1.534   5.822
 3074TIP3   OH2 9185   1.574   5.434   0.276
 3074TIP3    H1 9186   1.553   5.357   0.223
 3074TIP3    H2 9187   1.532   5.507   0.231
 3075TIP3   OH2 9188   1.992   2.515   1.866
 3075TIP3    H1 9189   1.936   2.443   1.841
 3075TIP3    H2 9190   1.948   2.593   1.833
 3076TIP3   OH2 9191   0.282   0.719   5.491
 3076TIP3    H1 9192   0.186   0.714   5.492
 3076TIP3    H2 9193   0.302   0.797   5.543
 3077TIP3   OH2 9194   4.480   1.702   5.701
 3077TIP3    H1 9195   4.418   1.774   5.689
 3077TIP3    H2 9196   4.438   1.627   5.658
 3078TIP3   OH2 9197   0.823   0.046   4.803
 3078TIP3    H1 9198   0.858   0.026   4.889
 3078TIP3    H2 9199   0.879  -0.003   4.742
 3079TIP3   OH2 9200   0.255   2.364   3.722
 3079TIP3    H1 9201   0.238   2.348   3.629
 3079TIP3    H2 9202   0.335   2.315   3.741
 3080TIP3   OH2 9203   0.426   2.486   4.261
 3080TIP3    H1 9204   0.482   2.532   4.323
 3080TIP3    H2 9205   0.472   2.493   4.177
 3081TIP3   OH2 9206   3.197   3.931   2.992
 3081TIP3    H1 9207   3.232   3.843   3.004
 3081TIP3    H2 9208   3.253   3.987   3.046
 3082TIP3   OH2 9209   2.562   5.339   3.940
 3082TIP3    H1 9210   2.495   5.286   3.897
 3082TIP3    H2 9211   2.645   5.302   3.910
 3083TIP3   OH2 9212   1.689   2.109   5.647
 3083TIP3    H1 9213   1.748   2.043   5.610
 3083TIP3    H2 9214   1.630   2.060   5.703
 3084TIP3   OH2 9215   6.356   6.684   2.355
 3084TIP3    H1 9216   6.272   6.730   2.348
 3084TIP3    H2 9217   6.381   6.693   2.447
 3085TIP3   OH2 9218   3.483   0.493   0.184
 3085TIP3    H1 9219   3.431   0.499   0.104
 3085TIP3    H2 9220   3.418   0.480   0.254
 3086TIP3   OH2 9221   4.973   0.066   4.133
 3086TIP3    H1 9222   5.015   0.004   4.193
 3086TIP3    H2 9223   4.888   0.083   4.173
 3087TIP3   OH2 9224   0.626   1.800   3.644
 3087TIP3    H1 9225   0.661   1.884   3.615
 3087TIP3    H2 9226   0.549   1.784   3.588
 3088TIP3   OH2 9227   1.984   0.797   4.356
 3088TIP3    H1 9228   2.070   0.776   4.319
 3088TIP3    H2 9229   1.964   0.883   4.320
 3089TIP3   OH2 9230   1.666   6.489   4.321
 3089TIP3    H1 9231   1.615   6.431   4.378
 3089TIP3    H2 9232   1.678   6.439   4.241
 3090TIP3   OH2 9233   0.506   4.504   0.766
 3090TIP3    H1 9234   0.485   4.592   0.735
 3090TIP3    H2 9235   0.443   4.487   0.835
 3091TIP3   OH2 9236   4.129   1.800   1.829
 3091TIP3    H1 9237   4.144   1.738   1.759
 3091TIP3    H2 9238   4.127   1.886   1.786
 3092TIP3   OH2 9239   2.562  -0.021   0.042
 3092TIP3    H1 9240   2.512   0.054   0.010
 3092TIP3    H2 9241   2.621   0.017   0.108
 3093TIP3   OH2 9242   2.085   5.308   0.618
 3093TIP3    H1 9243   2.126   5.222   0.611
 3093TIP3    H2 9244   1.999   5.291   0.656
 3094TIP3   OH2 9245   5.400   6.085   3.194
 3094TIP3    H1 9246   5.341   6.131   3.253
 3094TIP3    H2 9247   5.406   6.141   3.117
 3095TIP3   OH2 9248   2.705   5.495   1.882
 3095TIP3    H1 9249   2.780   5.548   1.857
 3095TIP3    H2 9250   2.635   5.557   1.899
 3096TIP3   OH2 9251   5.910   0.383   1.512
 3096TIP3    H1 9252   5.957   0.371   1.595
 3096TIP3    H2 9253   5.953   0.458   1.471
 3097TIP3   OH2 9254   2.983   5.069   5.047
 3097TIP3    H1 9255   3.043   5.020   4.990
 3097TIP3    H2 9256   2.917   5.005   5.073
 3098TIP3   OH2 9257   1.901   3.104   5.843
 3098TIP3    H1 9258   1.823   3.060   5.807
 3098TIP3    H2 9259   1.872   3.194   5.860
 3099TIP3   OH2 9260   3.541   2.867   3.405
 3099TIP3    H1 9261   3.507   2.782   3.375
 3099TIP3    H2 9262   3.612   2.844   3.465
 3100TIP3   OH2 9263   6.929   3.733   1.881
 3100TIP3    H1 9264   6.876   3.795   1.930
 3100TIP3    H2 9265   6.867   3.684   1.827
 3101TIP3   OH2 9266   1.131   6.193   4.061
 3101TIP3    H1 9267   1.124   6.278   4.016
 3101TIP3    H2 9268   1.221   6.191   4.093
 3102TIP3   OH2 9269   6.693   4.463   3.590
 3102TIP3    H1 9270   6.708   4.552   3.560
 3102TIP3    H2 9271   6.770   4.414   3.560
 3103TIP3   OH2 9272   5.027   4.135   3.445
 3103TIP3    H1 9273   5.104   4.183   3.415
 3103TIP3    H2 9274   4.954   4.195   3.430
 3104TIP3   OH2 9275   5.299   5.406   3.305
 3104TIP3    H1 9276   5.271   5.362   3.225
 3104TIP3    H2 9277   5.239   5.479   3.316
 3105TIP3   OH2 9278   0.253   0.506   2.292
 3105TIP3    H1 9279   0.262   0.441   2.361
 3105TIP3    H2 9280   0.176   0.558   2.318
 3106TIP3   OH2 9281   6.435   5.866   1.411
 3106TIP3    H1 9282   6.445   5.868   1.506
 3106TIP3    H2 9283   6.363   5.804   1.396
 3107TIP3   OH2 9284   2.113   0.467   1.368
 3107TIP3    H1 9285   2.117   0.379   1.331
 3107TIP3    H2 9286   2.148   0.524   1.299
 3108TIP3   OH2 9287   2.055   4.134   0.631
 3108TIP3    H1 9288   2.121   4.111   0.566
 3108TIP3    H2 9289   2.105   4.162   0.708
 3109TIP3   OH2 9290   0.316   6.406   0.591
 3109TIP3    H1 9291   0.306   6.493   0.630
 3109TIP3    H2 9292   0.329   6.423   0.497
 3110TIP3   OH2 9293   4.715   5.877   4.759
 3110TIP3    H1 9294   4.779   5.831   4.704
 3110TIP3    H2 9295   4.768   5.925   4.823
 3111TIP3   OH2 9296   4.225   0.160   4.832
 3111TIP3    H1 9297   4.212   0.069   4.860
 3111TIP3    H2 9298   4.281   0.154   4.755
 3112TIP3   OH2 9299   6.120   3.196   0.699
 3112TIP3    H1 9300   6.197   3.172   0.751
 3112TIP3    H2 9301   6.078   3.113   0.679
 3113TIP3   OH2 9302   0.127   1.802   2.334
 3113TIP3    H1 9303   0.034   1.814   2.356
 3113TIP3    H2 9304   0.166   1.768   2.414
 3114TIP3   OH2 9305   6.449   3.664   1.198
 3114TIP3    H1 9306   6.433   3.695   1.109
 3114TIP3    H2 9307   6.383   3.709   1.251
 3115TIP3   OH2 9308   6.344   0.813   1.297
 3115TIP3    H1 9309   6.306   0.832   1.383
 3115TIP3    H2 9310   6.378   0.897   1.267
 3116TIP3   OH2 9311   0.329   1.925   3.211
 3116TIP3    H1 9312   0.326   2.020   3.215
 3116TIP3    H2 9313   0.268   1.896   3.279
 3117TIP3   OH2 9314   5.370   0.618   0.524
 3117TIP3    H1 9315   5.389   0.596   0.615
 3117TIP3    H2 9316   5.314   0.547   0.493
 3118TIP3   OH2 9317   4.715   2.074   0.670
 3118TIP3    H1 9318   4.646   2.007   0.675
 3118TIP3    H2 9319   4.783   2.042   0.729
 3119TIP3   OH2 9320   5.512   2.083   4.755
 3119TIP3    H1 9321   5.451   2.077   4.682
 3119TIP3    H2 9322   5.534   1.992   4.776
 3120TIP3   OH2 9323   5.308   1.708   3.627
 3120TIP3    H1 9324   5.383   1.765   3.643
 3120TIP3    H2 9325   5.262   1.750   3.554
 3121TIP3   OH2 9326   6.553   3.104   3.656
 3121TIP3    H1 9327   6.499   3.184   3.660
 3121TIP3    H2 9328   6.537   3.060   3.740
 3122TIP3   OH2 9329   2.979   3.446   1.603
 3122TIP3    H1 9330   2.966   3.387   1.529
 3122TIP3    H2 9331   3.051   3.503   1.577
 3123TIP3   OH2 9332   5.130   2.626   4.702
 3123TIP3    H1 9333   5.222   2.614   4.726
 3123TIP3    H2 9334   5.127   2.714   4.664
 3124TIP3   OH2 9335   4.078   6.702   2.071
 3124TIP3    H1 9336   4.070   6.694   1.976
 3124TIP3    H2 9337   4.005   6.651   2.106
 3125TIP3   OH2 9338   5.461   0.026   1.636
 3125TIP3    H1 9339   5.514  -0.004   1.562
 3125TIP3    H2 9340   5.391  -0.040   1.643
 3126TIP3   OH2 9341   3.604   5.317   4.767
 3126TIP3    H1 9342   3.667   5.299   4.836
 3126TIP3    H2 9343   3.650   5.298   4.686
 3127TIP3   OH2 9344   6.090   6.786   2.458
 3127TIP3    H1 9345   6.077   6.695   2.431
 3127TIP3    H2 9346   6.017   6.804   2.518
 3128TIP3   OH2 9347   2.325   3.506   4.365
 3128TIP3    H1 9348   2.328   3.413   4.343
 3128TIP3    H2 9349   2.297   3.509   4.456
 3129TIP3   OH2 9350   6.274   0.870   0.296
 3129TIP3    H1 9351   6.294   0.956   0.260
 3129TIP3    H2 9352   6.277   0.811   0.221
 3130TIP3   OH2 9353   5.593   1.621   4.435
 3130TIP3    H1 9354   5.575   1.530   4.412
 3130TIP3    H2 9355   5.604   1.620   4.530
 3131TIP3   OH2 9356   3.779   4.515   1.909
 3131TIP3    H1 9357   3.728   4.447   1.866
 3131TIP3    H2 9358   3.817   4.566   1.838
 3132TIP3   OH2 9359   0.901   3.362   0.374
 3132TIP3    H1 9360   0.888   3.456   0.359
 3132TIP3    H2 9361   0.964   3.358   0.446
 3133TIP3   OH2 9362   1.076   5.573   0.063
 3133TIP3    H1 9363   1.128   5.499   0.093
 3133TIP3    H2 9364   1.120   5.602  -0.017
 3134TIP3   OH2 9365   6.871   5.983   2.439
 3134TIP3    H1 9366   6.832   5.960   2.354
 3134TIP3    H2 9367   6.833   6.068   2.461
 3135TIP3   OH2 9368   0.642   3.113   2.102
 3135TIP3    H1 9369   0.719   3.165   2.125
 3135TIP3    H2 9370   0.585   3.121   2.178
 3136TIP3   OH2 9371   4.134   1.236   2.638
 3136TIP3    H1 9372   4.106   1.326   2.624
 3136TIP3    H2 9373   4.171   1.235   2.726
 3137TIP3   OH2 9374   0.765   4.966   0.859
 3137TIP3    H1 9375   0.750   4.878   0.824
 3137TIP3    H2 9376   0.678   5.007   0.859
 3138TIP3   OH2 9377   5.904   6.105   1.352
 3138TIP3    H1 9378   5.828   6.067   1.395
 3138TIP3    H2 9379   5.971   6.036   1.358
 3139TIP3   OH2 9380   6.656   5.714   4.002
 3139TIP3    H1 9381   6.705   5.796   3.998
 3139TIP3    H2 9382   6.722   5.648   4.025
 3140TIP3   OH2 9383   0.225   2.016   5.579
 3140TIP3    H1 9384   0.187   1.961   5.511
 3140TIP3    H2 9385   0.151   2.039   5.635
 3141TIP3   OH2 9386   1.598   3.397   3.711
 3141TIP3    H1 9387   1.642   3.460   3.654
 3141TIP3    H2 9388   1.527   3.446   3.752
 3142TIP3   OH2 9389   4.048   4.354   4.850
 3142TIP3    H1 9390   4.013   4.409   4.920
 3142TIP3    H2 9391   3.971   4.306   4.818
 3143TIP3   OH2 9392   6.820   2.172   3.174
 3143TIP3    H1 9393   6.819   2.102   3.109
 3143TIP3    H2 9394   6.869   2.136   3.248
 3144TIP3   OH2 9395   3.979   2.903   0.861
 3144TIP3    H1 9396   3.896   2.891   0.813
 3144TIP3    H2 9397   3.953   2.942   0.944
 3145TIP3   OH2 9398   6.900   0.895   1.761
 3145TIP3    H1 9399   6.961   0.875   1.691
 3145TIP3    H2 9400   6.955   0.910   1.838
 3146TIP3   OH2 9401   1.809   3.230   1.726
 3146TIP3    H1 9402   1.747   3.193   1.663
 3146TIP3    H2 9403   1.786   3.322   1.731
 3147TIP3   OH2 9404   0.661   4.169   1.669
 3147TIP3    H1 9405   0.736   4.203   1.620
 3147TIP3    H2 9406   0.687   4.178   1.761
 3148TIP3   OH2 9407   2.600   5.307   4.626
 3148TIP3    H1 9408   2.630   5.398   4.636
 3148TIP3    H2 9409   2.520   5.303   4.679
 3149TIP3   OH2 9410   0.381   3.421   4.755
 3149TIP3    H1 9411   0.312   3.354   4.761
 3149TIP3    H2 9412   0.377   3.467   4.838
 3150TIP3   OH2 9413   6.719   3.849   3.441
 3150TIP3    H1 9414   6.647   3.799   3.402
 3150TIP3    H2 9415   6.684   3.937   3.452
 3151TIP3   OH2 9416   2.767   1.401   3.670
 3151TIP3    H1 9417   2.725   1.485   3.685
 3151TIP3    H2 9418   2.759   1.355   3.754
 3152TIP3   OH2 9419   1.377   5.552   1.970
 3152TIP3    H1 9420   1.416   5.602   1.898
 3152TIP3    H2 9421   1.382   5.610   2.045
 3153TIP3   OH2 9422   2.803   0.531   2.481
 3153TIP3    H1 9423   2.788   0.438   2.498
 3153TIP3    H2 9424   2.869   0.533   2.412
 3154TIP3   OH2 9425   0.998   2.512   2.237
 3154TIP3    H1 9426   1.033   2.598   2.258
 3154TIP3    H2 9427   1.001   2.464   2.320
 3155TIP3   OH2 9428   4.886   1.309   5.190
 3155TIP3    H1 9429   4.936   1.385   5.160
 3155TIP3    H2 9430   4.908   1.301   5.283
 3156TIP3   OH2 9431   5.821   5.037   2.139
 3156TIP3    H1 9432   5.729   5.058   2.125
 3156TIP3    H2 9433   5.847   5.090   2.215
 3157TIP3   OH2 9434   1.031   3.770   1.717
 3157TIP3    H1 9435   1.022   3.761   1.812
 3157TIP3    H2 9436   1.017   3.863   1.700
 3158TIP3   OH2 9437   7.016   1.240   1.516
 3158TIP3    H1 9438   7.004   1.213   1.425
 3158TIP3    H2 9439   6.935   1.213   1.560
 3159TIP3   OH2 9440   3.052   5.842   4.127
 3159TIP3    H1 9441   3.072   5.753   4.098
 3159TIP3    H2 9442   2.990   5.831   4.199
 3160TIP3   OH2 9443   3.223   5.713   1.726
 3160TIP3    H1 9444   3.262   5.753   1.804
 3160TIP3    H2 9445   3.274   5.633   1.712
 3161TIP3   OH2 9446   4.355   4.130   3.125
 3161TIP3    H1 9447   4.369   4.064   3.056
 3161TIP3    H2 9448   4.285   4.185   3.091
 3162TIP3   OH2 9449   5.940   1.861   0.859
 3162TIP3    H1 9450   5.954   1.955   0.848
 3162TIP3    H2 9451   6.012   1.820   0.812
 3163TIP3   OH2 9452   0.862   3.740   5.076
 3163TIP3    H1 9453   0.926   3.791   5.026
 3163TIP3    H2 9454   0.895   3.651   5.072
 3164TIP3   OH2 9455   1.959   2.412   4.382
 3164TIP3    H1 9456   1.918   2.348   4.439
 3164TIP3    H2 9457   2.051   2.385   4.379
 3165TIP3   OH2 9458   0.619   2.181   5.310
 3165TIP3    H1 9459   0.681   2.237   5.264
 3165TIP3    H2 9460   0.548   2.167   5.248
 3166TIP3   OH2 9461   3.697   4.863   4.900
 3166TIP3    H1 9462   3.736   4.790   4.852
 3166TIP3    H2 9463   3.672   4.925   4.833
 3167TIP3   OH2 9464   3.578   5.436   4.208
 3167TIP3    H1 9465   3.484   5.451   4.201
 3167TIP3    H2 9466   3.601   5.467   4.295
 3168TIP3   OH2 9467   1.019   1.116   2.684
 3168TIP3    H1 9468   0.942   1.164   2.656
 3168TIP3    H2 9469   1.062   1.090   2.602
 3169TIP3   OH2 9470   2.147   3.725   1.827
 3169TIP3    H1 9471   2.148   3.632   1.851
 3169TIP3    H2 9472   2.208   3.766   1.888
 3170TIP3   OH2 9473   2.884   0.127   1.304
 3170TIP3    H1 9474   2.892   0.031   1.297
 3170TIP3    H2 9475   2.798   0.140   1.344
 3171TIP3   OH2 9476   7.135   3.198   2.279
 3171TIP3    H1 9477   7.196   3.272   2.287
 3171TIP3    H2 9478   7.189   3.121   2.296
 3172TIP3   OH2 9479   4.602   3.676   4.432
 3172TIP3    H1 9480   4.630   3.653   4.521
 3172TIP3    H2 9481   4.600   3.592   4.386
 3173TIP3   OH2 9482   3.783   3.476   0.945
 3173TIP3    H1 9483   3.805   3.437   1.030
 3173TIP3    H2 9484   3.811   3.410   0.881
 3174TIP3   OH2 9485   2.446   0.073   3.527
 3174TIP3    H1 9486   2.382   0.135   3.561
 3174TIP3    H2 9487   2.509   0.062   3.599
 3175TIP3   OH2 9488   1.562   0.413   1.183
 3175TIP3    H1 9489   1.524   0.476   1.121
 3175TIP3    H2 9490   1.601   0.346   1.127
 3176TIP3   OH2 9491   0.533   4.369   3.695
 3176TIP3    H1 9492   0.548   4.384   3.788
 3176TIP3    H2 9493   0.473   4.295   3.691
 3177TIP3   OH2 9494   6.703   6.623   2.243
 3177TIP3    H1 9495   6.697   6.628   2.148
 3177TIP3    H2 9496   6.732   6.533   2.260
 3178TIP3   OH2 9497   4.889   0.588   2.571
 3178TIP3    H1 9498   4.890   0.499   2.607
 3178TIP3    H2 9499   4.796   0.610   2.565
 3179TIP3   OH2 9500   0.282   5.461   3.423
 3179TIP3    H1 9501   0.302   5.465   3.329
 3179TIP3    H2 9502   0.365   5.478   3.467
 3180TIP3   OH2 9503   3.306   6.130   2.039
 3180TIP3    H1 9504   3.397   6.153   2.022
 3180TIP3    H2 9505   3.300   6.124   2.135
 3181TIP3   OH2 9506   6.678   4.398   0.030
 3181TIP3    H1 9507   6.614   4.329   0.049
 3181TIP3    H2 9508   6.630   4.461  -0.024
 3182TIP3   OH2 9509   0.257   5.945   3.782
 3182TIP3    H1 9510   0.163   5.927   3.779
 3182TIP3    H2 9511   0.298   5.866   3.746
 3183TIP3   OH2 9512   6.065   5.142   4.826
 3183TIP3    H1 9513   6.092   5.052   4.843
 3183TIP3    H2 9514   6.100   5.192   4.900
 3184TIP3   OH2 9515   2.656   4.748   0.433
 3184TIP3    H1 9516   2.680   4.726   0.343
 3184TIP3    H2 9517   2.573   4.702   0.447
 3185TIP3   OH2 9518   5.529   6.288   5.682
 3185TIP3    H1 9519   5.445   6.333   5.685
 3185TIP3    H2 9520   5.592   6.355   5.654
 3186TIP3   OH2 9521   6.957   2.126   4.007
 3186TIP3    H1 9522   6.916   2.186   4.068
 3186TIP3    H2 9523   6.982   2.050   4.059
 3187TIP3   OH2 9524   0.806   4.657   1.089
 3187TIP3    H1 9525   0.847   4.615   1.164
 3187TIP3    H2 9526   0.746   4.721   1.127
 3188TIP3   OH2 9527   6.437   2.345   2.848
 3188TIP3    H1 9528   6.437   2.250   2.861
 3188TIP3    H2 9529   6.527   2.372   2.867
 3189TIP3   OH2 9530   4.766   5.067   3.414
 3189TIP3    H1 9531   4.832   4.998   3.423
 3189TIP3    H2 9532   4.807   5.132   3.357
 3190TIP3   OH2 9533   2.702   3.551   0.622
 3190TIP3    H1 9534   2.747   3.537   0.538
 3190TIP3    H2 9535   2.772   3.574   0.683
 3191TIP3   OH2 9536   3.545   4.295   0.071
 3191TIP3    H1 9537   3.543   4.364   0.137
 3191TIP3    H2 9538   3.629   4.306   0.026
 3192TIP3   OH2 9539   0.253   3.711   1.531
 3192TIP3    H1 9540   0.276   3.629   1.488
 3192TIP3    H2 9541   0.334   3.762   1.530
 3193TIP3   OH2 9542   6.035   2.339   5.399
 3193TIP3    H1 9543   6.025   2.429   5.367
 3193TIP3    H2 9544   5.953   2.295   5.373
 3194TIP3   OH2 9545   4.934   6.263   4.898
 3194TIP3    H1 9546   4.942   6.289   4.990
 3194TIP3    H2 9547   4.868   6.323   4.862
 3195TIP3   OH2 9548   4.457   2.811   3.693
 3195TIP3    H1 9549   4.455   2.901   3.724
 3195TIP3    H2 9550   4.458   2.757   3.772
 3196TIP3   OH2 9551   6.243   0.400   4.145
 3196TIP3    H1 9552   6.331   0.363   4.131
 3196TIP3    H2 9553   6.250   0.448   4.228
 3197TIP3   OH2 9554   3.122   5.035   0.914
 3197TIP3    H1 9555   3.160   4.959   0.959
 3197TIP3    H2 9556   3.044   5.000   0.872
 3198TIP3   OH2 9557   6.900   3.176   4.664
 3198TIP3    H1 9558   6.919   3.264   4.631
 3198TIP3    H2 9559   6.933   3.117   4.596
 3199TIP3   OH2 9560   5.156   3.826   4.663
 3199TIP3    H1 9561   5.219   3.875   4.716
 3199TIP3    H2 9562   5.208   3.758   4.621
 3200TIP3   OH2 9563   4.776   3.620   5.308
 3200TIP3    H1 9564   4.804   3.698   5.261
 3200TIP3    H2 9565   4.782   3.549   5.244
 3201TIP3   OH2 9566   7.176   2.122   2.614
 3201TIP3    H1 9567   7.108   2.062   2.643
 3201TIP3    H2 9568   7.258   2.076   2.631
 3202TIP3   OH2 9569   4.951   4.806   4.199
 3202TIP3    H1 9570   4.857   4.819   4.197
 3202TIP3    H2 9571   4.988   4.894   4.190
 3203TIP3   OH2 9572   0.014   2.833   5.442
 3203TIP3    H1 9573  -0.054   2.874   5.495
 3203TIP3    H2 9574   0.084   2.898   5.439
 3204TIP3   OH2 9575   0.269   2.037   1.813
 3204TIP3    H1 9576   0.192   1.993   1.778
 3204TIP3    H2 9577   0.336   1.969   1.818
 3205TIP3   OH2 9578   7.162   2.682   2.488
 3205TIP3    H1 9579   7.190   2.757   2.436
 3205TIP3    H2 9580   7.167   2.608   2.428
 3206TIP3   OH2 9581   5.114   0.670   3.215
 3206TIP3    H1 9582   5.204   0.642   3.197
 3206TIP3    H2 9583   5.080   0.604   3.275
 3207TIP3   OH2 9584   6.178   2.812   0.133
 3207TIP3    H1 9585   6.240   2.821   0.206
 3207TIP3    H2 9586   6.234   2.798   0.056
 3208TIP3   OH2 9587   1.648   2.079   0.977
 3208TIP3    H1 9588   1.582   2.027   0.931
 3208TIP3    H2 9589   1.620   2.170   0.963
 3209TIP3   OH2 9590   1.448   1.353   4.618
 3209TIP3    H1 9591   1.452   1.258   4.605
 3209TIP3    H2 9592   1.480   1.389   4.535
 3210TIP3   OH2 9593   4.360   5.450   4.736
 3210TIP3    H1 9594   4.395   5.368   4.702
 3210TIP3    H2 9595   4.431   5.487   4.788
 3211TIP3   OH2 9596   6.663   5.131   0.283
 3211TIP3    H1 9597   6.631   5.129   0.193
 3211TIP3    H2 9598   6.586   5.108   0.336
 3212TIP3   OH2 9599   1.520   4.081   1.150
 3212TIP3    H1 9600   1.584   4.136   1.105
 3212TIP3    H2 9601   1.531   4.103   1.243
 3213TIP3   OH2 9602   3.786   5.344   1.809
 3213TIP3    H1 9603   3.740   5.409   1.755
 3213TIP3    H2 9604   3.802   5.389   1.892
 3214TIP3   OH2 9605   6.040   0.398   0.828
 3214TIP3    H1 9606   6.091   0.319   0.846
 3214TIP3    H2 9607   6.106   0.466   0.810
 3215TIP3   OH2 9608   0.329   6.491   2.121
 3215TIP3    H1 9609   0.405   6.446   2.158
 3215TIP3    H2 9610   0.320   6.453   2.033
 3216TIP3   OH2 9611   1.112   2.293   2.108
 3216TIP3    H1 9612   1.175   2.333   2.048
 3216TIP3    H2 9613   1.069   2.367   2.150
 3217TIP3   OH2 9614   0.596   0.972   4.491
 3217TIP3    H1 9615   0.680   1.014   4.474
 3217TIP3    H2 9616   0.531   1.035   4.459
 3218TIP3   OH2 9617   2.887   4.201   1.303
 3218TIP3    H1 9618   2.898   4.210   1.397
 3218TIP3    H2 9619   2.974   4.219   1.266
 3219TIP3   OH2 9620   0.977   6.521   3.884
 3219TIP3    H1 9621   0.906   6.531   3.821
 3219TIP3    H2 9622   0.990   6.610   3.919
 3220TIP3   OH2 9623   5.618   6.156   3.710
 3220TIP3    H1 9624   5.549   6.120   3.765
 3220TIP3    H2 9625   5.659   6.224   3.764
 3221TIP3   OH2 9626   2.864   2.136   3.887
 3221TIP3    H1 9627   2.811   2.183   3.952
 3221TIP3    H2 9628   2.814   2.143   3.806
 3222TIP3   OH2 9629   3.853   2.501   2.785
 3222TIP3    H1 9630   3.923   2.566   2.779
 3222TIP3    H2 9631   3.890   2.432   2.840
 3223TIP3   OH2 9632   1.819   5.290   4.229
 3223TIP3    H1 9633   1.765   5.254   4.159
 3223TIP3    H2 9634   1.756   5.330   4.289
 3224TIP3   OH2 9635   3.599   4.353   4.070
 3224TIP3    H1 9636   3.533   4.303   4.118
 3224TIP3    H2 9637   3.675   4.295   4.064
 3225TIP3   OH2 9638   1.607   1.844   3.073
 3225TIP3    H1 9639   1.669   1.901   3.028
 3225TIP3    H2 9640   1.588   1.774   3.010
 3226TIP3   OH2 9641   1.994   3.131   3.644
 3226TIP3    H1 9642   1.982   3.217   3.605
 3226TIP3    H2 9643   2.067   3.142   3.705
 3227TIP3   OH2 9644   3.608   3.880   2.362
 3227TIP3    H1 9645   3.661   3.873   2.282
 3227TIP3    H2 9646   3.528   3.924   2.335
 3228TIP3   OH2 9647   4.434   6.099   4.383
 3228TIP3    H1 9648   4.478   6.170   4.335
 3228TIP3    H2 9649   4.455   6.020   4.334
 3229TIP3   OH2 9650   5.197   4.216   0.636
 3229TIP3    H1 9651   5.127   4.245   0.694
 3229TIP3    H2 9652   5.152   4.184   0.557
 3230TIP3   OH2 9653   6.938   4.039   4.750
 3230TIP3    H1 9654   6.855   4.081   4.730
 3230TIP3    H2 9655   6.916   3.948   4.765
 3231TIP3   OH2 9656   5.865   4.779   5.352
 3231TIP3    H1 9657   5.816   4.770   5.270
 3231TIP3    H2 9658   5.875   4.873   5.365
 3232TIP3   OH2 9659   6.916   1.150   4.019
 3232TIP3    H1 9660   6.923   1.185   3.930
 3232TIP3    H2 9661   6.839   1.192   4.056
 3233TIP3   OH2 9662   5.257   5.383   5.001
 3233TIP3    H1 9663   5.300   5.395   5.085
 3233TIP3    H2 9664   5.304   5.441   4.941
 3234TIP3   OH2 9665   5.345   3.820   2.537
 3234TIP3    H1 9666   5.273   3.777   2.584
 3234TIP3    H2 9667   5.364   3.761   2.464
 3235TIP3   OH2 9668   0.733   6.050   3.880
 3235TIP3    H1 9669   0.645   6.016   3.899
 3235TIP3    H2 9670   0.773   6.061   3.967
 3236TIP3   OH2 9671   1.699   3.516   2.673
 3236TIP3    H1 9672   1.697   3.580   2.602
 3236TIP3    H2 9673   1.756   3.446   2.642
 3237TIP3   OH2 9674   5.325   6.258   2.225
 3237TIP3    H1 9675   5.277   6.243   2.144
 3237TIP3    H2 9676   5.338   6.353   2.227
 3238TIP3   OH2 9677   6.126   1.386   5.684
 3238TIP3    H1 9678   6.080   1.389   5.600
 3238TIP3    H2 9679   6.105   1.300   5.720
 3239TIP3   OH2 9680   4.357   2.765   1.087
 3239TIP3    H1 9681   4.345   2.803   1.174
 3239TIP3    H2 9682   4.451   2.748   1.082
 3240TIP3   OH2 9683   1.646   0.801   3.936
 3240TIP3    H1 9684   1.561   0.846   3.934
 3240TIP3    H2 9685   1.682   0.814   3.849
 3241TIP3   OH2 9686   3.405   3.751   3.973
 3241TIP3    H1 9687   3.368   3.828   4.016
 3241TIP3    H2 9688   3.488   3.736   4.019
 3242TIP3   OH2 9689   4.943   5.605   0.187
 3242TIP3    H1 9690   4.950   5.701   0.183
 3242TIP3    H2 9691   4.866   5.584   0.135
 3243TIP3   OH2 9692   3.116   6.328   0.469
 3243TIP3    H1 9693   3.148   6.331   0.379
 3243TIP3    H2 9694   3.180   6.273   0.516
 3244TIP3   OH2 9695   2.606   0.050   3.786
 3244TIP3    H1 9696   2.596   0.141   3.814
 3244TIP3    H2 9697   2.699   0.043   3.762
 3245TIP3   OH2 9698   3.827   1.027   4.097
 3245TIP3    H1 9699   3.800   0.956   4.039
 3245TIP3    H2 9700   3.783   1.007   4.180
 3246TIP3   OH2 9701   5.898   5.428   5.371
 3246TIP3    H1 9702   5.949   5.506   5.350
 3246TIP3    H2 9703   5.861   5.400   5.288
 3247TIP3   OH2 9704   6.397   3.665   5.081
 3247TIP3    H1 9705   6.364   3.671   4.991
 3247TIP3    H2 9706   6.412   3.755   5.107
 3248TIP3   OH2 9707   6.425   4.347   4.207
 3248TIP3    H1 9708   6.435   4.254   4.187
 3248TIP3    H2 9709   6.332   4.359   4.225
 3249TIP3   OH2 9710   4.450   2.382   2.479
 3249TIP3    H1 9711   4.457   2.336   2.396
 3249TIP3    H2 9712   4.417   2.316   2.541
 3250TIP3   OH2 9713   2.192   3.687   4.205
 3250TIP3    H1 9714   2.224   3.624   4.269
 3250TIP3    H2 9715   2.165   3.633   4.130
 3251TIP3   OH2 9716   1.611   1.982   0.277
 3251TIP3    H1 9717   1.669   1.972   0.352
 3251TIP3    H2 9718   1.653   2.050   0.224
 3252TIP3   OH2 9719   1.634   5.268   3.131
 3252TIP3    H1 9720   1.689   5.331   3.176
 3252TIP3    H2 9721   1.597   5.317   3.057
 3253TIP3   OH2 9722   1.200   6.479   0.458
 3253TIP3    H1 9723   1.181   6.397   0.412
 3253TIP3    H2 9724   1.283   6.508   0.419
 3254TIP3   OH2 9725   2.206   4.674   4.627
 3254TIP3    H1 9726   2.226   4.697   4.536
 3254TIP3    H2 9727   2.110   4.678   4.632
 3255TIP3   OH2 9728   6.985   4.011   5.184
 3255TIP3    H1 9729   6.893   3.990   5.200
 3255TIP3    H2 9730   6.985   4.055   5.099
 3256TIP3   OH2 9731   2.878   2.263   4.201
 3256TIP3    H1 9732   2.919   2.333   4.251
 3256TIP3    H2 9733   2.792   2.298   4.176
 3257TIP3   OH2 9734   2.552   3.315   3.446
 3257TIP3    H1 9735   2.520   3.229   3.419
 3257TIP3    H2 9736   2.648   3.305   3.450
 3258TIP3   OH2 9737   0.998   0.767   4.951
 3258TIP3    H1 9738   0.966   0.687   4.991
 3258TIP3    H2 9739   0.920   0.810   4.917
 3259TIP3   OH2 9740   4.878   0.855   5.262
 3259TIP3    H1 9741   4.890   0.790   5.193
 3259TIP3    H2 9742   4.839   0.930   5.217
 3260TIP3   OH2 9743   6.995   1.575   0.971
 3260TIP3    H1 9744   6.940   1.543   0.899
 3260TIP3    H2 9745   7.076   1.524   0.964
 3261TIP3   OH2 9746   4.473   4.524   5.545
 3261TIP3    H1 9747   4.486   4.599   5.603
 3261TIP3    H2 9748   4.558   4.512   5.503
 3262TIP3   OH2 9749   4.257   4.326   4.363
 3262TIP3    H1 9750   4.322   4.345   4.295
 3262TIP3    H2 9751   4.174   4.322   4.316
 3263TIP3   OH2 9752   1.118   0.051   3.838
 3263TIP3    H1 9753   1.127  -0.013   3.908
 3263TIP3    H2 9754   1.130   0.000   3.757
 3264TIP3   OH2 9755   3.489   3.858   4.380
 3264TIP3    H1 9756   3.537   3.915   4.320
 3264TIP3    H2 9757   3.431   3.807   4.323
 3265TIP3   OH2 9758   4.182   2.913   0.665
 3265TIP3    H1 9759   4.097   2.896   0.705
 3265TIP3    H2 9760   4.191   3.008   0.669
 3266TIP3   OH2 9761   2.956   4.651   1.889
 3266TIP3    H1 9762   2.882   4.689   1.935
 3266TIP3    H2 9763   3.033   4.685   1.936
 3267TIP3   OH2 9764   6.818   3.217   0.297
 3267TIP3    H1 9765   6.874   3.144   0.270
 3267TIP3    H2 9766   6.858   3.249   0.378
 3268TIP3   OH2 9767   6.739   3.905   5.227
 3268TIP3    H1 9768   6.743   3.883   5.320
 3268TIP3    H2 9769   6.725   3.821   5.183
 3269TIP3   OH2 9770   0.672   0.775   4.697
 3269TIP3    H1 9771   0.733   0.823   4.753
 3269TIP3    H2 9772   0.643   0.840   4.633
 3270TIP3   OH2 9773   3.408   5.815   4.568
 3270TIP3    H1 9774   3.395   5.821   4.473
 3270TIP3    H2 9775   3.452   5.731   4.580
 3271TIP3   OH2 9776   0.134   4.408   3.704
 3271TIP3    H1 9777   0.066   4.348   3.673
 3271TIP3    H2 9778   0.107   4.494   3.670
 3272TIP3   OH2 9779   3.000   2.622   4.913
 3272TIP3    H1 9780   2.966   2.533   4.920
 3272TIP3    H2 9781   3.003   2.654   5.003
 3273TIP3   OH2 9782   2.197   5.064   2.095
 3273TIP3    H1 9783   2.252   4.986   2.102
 3273TIP3    H2 9784   2.110   5.031   2.075
 3274TIP3   OH2 9785   2.862   0.028   3.253
 3274TIP3    H1 9786   2.858  -0.067   3.249
 3274TIP3    H2 9787   2.954   0.050   3.239
 3275TIP3   OH2 9788   0.883   5.906   1.816
 3275TIP3    H1 9789   0.850   5.829   1.770
 3275TIP3    H2 9790   0.961   5.873   1.863
 3276TIP3   OH2 9791   2.543   0.894   4.960
 3276TIP3    H1 9792   2.582   0.877   5.046
 3276TIP3    H2 9793   2.618   0.911   4.903
 3277TIP3   OH2 9794   2.826   0.081   0.514
 3277TIP3    H1 9795   2.852   0.045   0.599
 3277TIP3    H2 9796   2.879   0.159   0.504
 3278TIP3   OH2 9797   7.080   2.028   0.620
 3278TIP3    H1 9798   7.122   1.942   0.615
 3278TIP3    H2 9799   6.990   2.012   0.592
 3279TIP3   OH2 9800   1.793   5.092   2.638
 3279TIP3    H1 9801   1.838   5.041   2.570
 3279TIP3    H2 9802   1.854   5.093   2.712
 3280TIP3   OH2 9803   1.205   3.370   3.204
 3280TIP3    H1 9804   1.172   3.283   3.179
 3280TIP3    H2 9805   1.175   3.428   3.134
 3281TIP3   OH2 9806   5.211   5.958   3.903
 3281TIP3    H1 9807   5.129   5.970   3.951
 3281TIP3    H2 9808   5.186   5.970   3.811
 3282TIP3   OH2 9809   0.354   1.792   3.955
 3282TIP3    H1 9810   0.270   1.746   3.962
 3282TIP3    H2 9811   0.404   1.740   3.892
 3283TIP3   OH2 9812   6.468   4.065   4.209
 3283TIP3    H1 9813   6.517   4.001   4.262
 3283TIP3    H2 9814   6.502   4.052   4.120
 3284TIP3   OH2 9815   1.762   4.663   4.222
 3284TIP3    H1 9816   1.758   4.569   4.239
 3284TIP3    H2 9817   1.732   4.703   4.304
 3285TIP3   OH2 9818   3.986   6.782   5.392
 3285TIP3    H1 9819   4.053   6.718   5.416
 3285TIP3    H2 9820   3.915   6.766   5.455
 3286TIP3   OH2 9821   2.383   4.276   2.706
 3286TIP3    H1 9822   2.363   4.182   2.705
 3286TIP3    H2 9823   2.359   4.305   2.794
 3287TIP3   OH2 9824   1.863   3.805   1.833
 3287TIP3    H1 9825   1.898   3.773   1.750
 3287TIP3    H2 9826   1.938   3.803   1.892
 3288TIP3   OH2 9827   1.174   4.461   2.987
 3288TIP3    H1 9828   1.138   4.527   2.928
 3288TIP3    H2 9829   1.099   4.407   3.012
 3289TIP3   OH2 9830   4.670   3.369   0.096
 3289TIP3    H1 9831   4.666   3.352   0.001
 3289TIP3    H2 9832   4.660   3.282   0.135
 3290TIP3   OH2 9833   0.870   3.480   3.957
 3290TIP3    H1 9834   0.856   3.568   3.921
 3290TIP3    H2 9835   0.784   3.438   3.951
 3291TIP3   OH2 9836   2.780   3.326   3.983
 3291TIP3    H1 9837   2.723   3.321   4.060
 3291TIP3    H2 9838   2.861   3.366   4.015
 3292TIP3   OH2 9839   2.427   3.444   0.273
 3292TIP3    H1 9840   2.348   3.498   0.265
 3292TIP3    H2 9841   2.447   3.445   0.367
 3293TIP3   OH2 9842   6.827   1.712   5.422
 3293TIP3    H1 9843   6.743   1.758   5.418
 3293TIP3    H2 9844   6.820   1.645   5.354
 3294TIP3   OH2 9845   2.474   5.061   3.313
 3294TIP3    H1 9846   2.431   4.975   3.314
 3294TIP3    H2 9847   2.404   5.121   3.287
 3295TIP3   OH2 9848   5.298   3.227   0.432
 3295TIP3    H1 9849   5.260   3.304   0.474
 3295TIP3    H2 9850   5.271   3.154   0.489
 3296TIP3   OH2 9851   0.352   4.257   1.848
 3296TIP3    H1 9852   0.280   4.299   1.895
 3296TIP3    H2 9853   0.427   4.315   1.863
 3297TIP3   OH2 9854   3.532   6.311   0.857
 3297TIP3    H1 9855   3.539   6.383   0.920
 3297TIP3    H2 9856   3.617   6.309   0.813
 3298TIP3   OH2 9857   4.299   2.815   5.871
 3298TIP3    H1 9858   4.344   2.861   5.800
 3298TIP3    H2 9859   4.229   2.875   5.897
 3299TIP3   OH2 9860   1.454   2.798   2.488
 3299TIP3    H1 9861   1.391   2.865   2.461
 3299TIP3    H2 9862   1.535   2.822   2.443
 3300TIP3   OH2 9863   1.769   2.425   4.936
 3300TIP3    H1 9864   1.771   2.337   4.972
 3300TIP3    H2 9865   1.737   2.479   5.008
 3301TIP3   OH2 9866   6.382   3.980   1.632
 3301TIP3    H1 9867   6.471   3.948   1.647
 3301TIP3    H2 9868   6.337   3.964   1.715
 3302TIP3   OH2 9869   5.849   5.228   0.058
 3302TIP3    H1 9870   5.866   5.145   0.013
 3302TIP3    H2 9871   5.791   5.205   0.130
 3303TIP3   OH2 9872   1.277   0.357   5.357
 3303TIP3    H1 9873   1.354   0.380   5.306
 3303TIP3    H2 9874   1.242   0.279   5.314
 3304TIP3   OH2 9875   6.444   0.612   0.131
 3304TIP3    H1 9876   6.472   0.691   0.085
 3304TIP3    H2 9877   6.447   0.543   0.064
 3305TIP3   OH2 9878   7.086   1.878   1.041
 3305TIP3    H1 9879   7.066   1.972   1.045
 3305TIP3    H2 9880   7.170   1.874   0.996
 3306TIP3   OH2 9881   7.204   5.214   5.637
 3306TIP3    H1 9882   7.162   5.208   5.723
 3306TIP3    H2 9883   7.132   5.205   5.575
 3307TIP3   OH2 9884   1.510   1.953   1.913
 3307TIP3    H1 9885   1.559   1.895   1.855
 3307TIP3    H2 9886   1.560   1.954   1.994
 3308TIP3   OH2 9887   5.670   5.885   0.799
 3308TIP3    H1 9888   5.614   5.808   0.805
 3308TIP3    H2 9889   5.615   5.953   0.762
 3309TIP3   OH2 9890   1.588   0.478   1.433
 3309TIP3    H1 9891   1.643   0.418   1.485
 3309TIP3    H2 9892   1.560   0.425   1.358
 3310TIP3   OH2 9893   5.562   5.874   4.762
 3310TIP3    H1 9894   5.645   5.874   4.713
 3310TIP3    H2 9895   5.505   5.932   4.712
 3311TIP3   OH2 9896   4.993   2.770   2.356
 3311TIP3    H1 9897   4.927   2.743   2.420
 3311TIP3    H2 9898   5.058   2.819   2.406
 3312TIP3   OH2 9899   3.268   2.876   1.322
 3312TIP3    H1 9900   3.352   2.863   1.279
 3312TIP3    H2 9901   3.211   2.808   1.285
 3313TIP3   OH2 9902   5.823   6.144   5.567
 3313TIP3    H1 9903   5.803   6.236   5.582
 3313TIP3    H2 9904   5.833   6.106   5.654
 3314TIP3   OH2 9905   6.172   2.705   2.331
 3314TIP3    H1 9906   6.103   2.670   2.275
 3314TIP3    H2 9907   6.240   2.638   2.330
 3315TIP3   OH2 9908   5.870   3.517   2.142
 3315TIP3    H1 9909   5.953   3.526   2.189
 3315TIP3    H2 9910   5.811   3.579   2.185
 3316TIP3   OH2 9911   5.143   3.496   2.032
 3316TIP3    H1 9912   5.079   3.458   2.092
 3316TIP3    H2 9913   5.157   3.585   2.065
 3317TIP3   OH2 9914   0.077   1.100   1.951
 3317TIP3    H1 9915   0.075   1.151   1.870
 3317TIP3    H2 9916   0.146   1.140   2.003
 3318TIP3   OH2 9917   5.231   0.400   1.337
 3318TIP3    H1 9918   5.160   0.341   1.362
 3318TIP3    H2 9919   5.187   0.475   1.296
 3319TIP3   OH2 9920   0.621   2.910   1.216
 3319TIP3    H1 9921   0.595   2.818   1.223
 3319TIP3    H2 9922   0.538   2.958   1.214
 3320TIP3   OH2 9923   3.611   4.058   1.530
 3320TIP3    H1 9924   3.583   4.037   1.441
 3320TIP3    H2 9925   3.553   4.005   1.586
 3321TIP3   OH2 9926   1.422   3.814   2.247
 3321TIP3    H1 9927   1.496   3.874   2.240
 3321TIP3    H2 9928   1.456   3.738   2.295
 3322TIP3   OH2 9929   7.114   0.067   2.405
 3322TIP3    H1 9930   7.091   0.133   2.470
 3322TIP3    H2 9931   7.039   0.008   2.402
 3323TIP3   OH2 9932   0.158   2.525   1.203
 3323TIP3    H1 9933   0.210   2.605   1.202
 3323TIP3    H2 9934   0.071   2.554   1.232
 3324TIP3   OH2 9935   1.593   5.629   1.466
 3324TIP3    H1 9936   1.649   5.656   1.394
 3324TIP3    H2 9937   1.546   5.708   1.491
 3325TIP3   OH2 9938   0.128   6.258   5.164
 3325TIP3    H1 9939   0.176   6.290   5.088
 3325TIP3    H2 9940   0.196   6.229   5.225
 3326TIP3   OH2 9941   1.147   0.088   0.737
 3326TIP3    H1 9942   1.065   0.134   0.751
 3326TIP3    H2 9943   1.204   0.153   0.694
 3327TIP3   OH2 9944   3.536   0.185   1.842
 3327TIP3    H1 9945   3.495   0.099   1.840
 3327TIP3    H2 9946   3.536   0.214   1.750
 3328TIP3   OH2 9947   2.980   6.009   0.065
 3328TIP3    H1 9948   3.009   5.983   0.153
 3328TIP3    H2 9949   2.945   6.097   0.076
 3329TIP3   OH2 9950   5.140   1.276   0.268
 3329TIP3    H1 9951   5.114   1.189   0.239
 3329TIP3    H2 9952   5.058   1.319   0.293
 3330TIP3   OH2 9953   6.335   4.968   0.675
 3330TIP3    H1 9954   6.295   4.927   0.751
 3330TIP3    H2 9955   6.427   4.939   0.678
 3331TIP3   OH2 9956   5.829   4.664   2.867
 3331TIP3    H1 9957   5.783   4.713   2.797
 3331TIP3    H2 9958   5.921   4.674   2.846
 3332TIP3   OH2 9959   4.551   0.196   2.731
 3332TIP3    H1 9960   4.464   0.207   2.767
 3332TIP3    H2 9961   4.536   0.170   2.640
 3333TIP3   OH2 9962   5.936   3.548   0.787
 3333TIP3    H1 9963   6.004   3.503   0.836
 3333TIP3    H2 9964   5.976   3.566   0.702
 3334TIP3   OH2 9965   7.091   5.518   5.697
 3334TIP3    H1 9966   7.094   5.613   5.706
 3334TIP3    H2 9967   7.118   5.502   5.607
 3335TIP3   OH2 9968   5.812   5.323   4.822
 3335TIP3    H1 9969   5.811   5.346   4.729
 3335TIP3    H2 9970   5.874   5.250   4.828
 3336TIP3   OH2 9971   0.615   6.730   1.677
 3336TIP3    H1 9972   0.545   6.725   1.743
 3336TIP3    H2 9973   0.603   6.650   1.625
 3337TIP3   OH2 9974   2.386   4.846   5.789
 3337TIP3    H1 9975   2.430   4.836   5.873
 3337TIP3    H2 9976   2.410   4.934   5.760
 3338TIP3   OH2 9977   4.495   2.292   3.341
 3338TIP3    H1 9978   4.415   2.337   3.315
 3338TIP3    H2 9979   4.560   2.319   3.276
 3339TIP3   OH2 9980   2.531   0.463   3.099
 3339TIP3    H1 9981   2.443   0.428   3.114
 3339TIP3    H2 9982   2.580   0.389   3.064
 3340TIP3   OH2 9983   6.042   3.831   4.969
 3340TIP3    H1 9984   6.046   3.820   4.874
 3340TIP3    H2 9985   6.110   3.896   4.988
 3341TIP3   OH2 9986   2.149   2.061   1.379
 3341TIP3    H1 9987   2.226   2.007   1.396
 3341TIP3    H2 9988   2.162   2.139   1.432
 3342TIP3   OH2 9989   6.162   6.499   1.696
 3342TIP3    H1 9990   6.115   6.522   1.777
 3342TIP3    H2 9991   6.190   6.409   1.710
 3343TIP3   OH2 9992   3.156   0.690   1.495
 3343TIP3    H1 9993   3.109   0.725   1.570
 3343TIP3    H2 9994   3.088   0.651   1.440
 3344TIP3   OH2 9995   5.535   2.606   3.509
 3344TIP3    H1 9996   5.589   2.543   3.557
 3344TIP3    H2 9997   5.597   2.670   3.474
 3345TIP3   OH2 9998   1.123   0.998   1.376
 3345TIP3    H1 9999   1.071   1.027   1.302
 3345TIP3    H210000   1.210   0.982   1.339
 3346TIP3   OH210001   6.920   4.950   1.106
 3346TIP3    H110002   6.940   5.043   1.113
 3346TIP3    H210003   6.864   4.942   1.029
 3347TIP3   OH210004   2.086   5.862   3.775
 3347TIP3    H110005   2.046   5.776   3.759
 3347TIP3    H210006   2.176   5.841   3.799
 3348TIP3   OH210007   6.540   3.378   4.510
 3348TIP3    H110008   6.553   3.289   4.544
 3348TIP3    H210009   6.629   3.413   4.502
 3349TIP3   OH210010   1.056   4.827   3.869
 3349TIP3    H110011   1.047   4.776   3.788
 3349TIP3    H210012   1.149   4.819   3.892
 3350TIP3   OH210013   0.672   5.416   4.359
 3350TIP3    H110014   0.730   5.347   4.390
 3350TIP3    H210015   0.632   5.380   4.280
 3351TIP3   OH210016   0.610   3.668   5.517
 3351TIP3    H110017   0.578   3.581   5.542
 3351TIP3    H210018   0.551   3.729   5.563
 3352TIP3   OH210019   0.148   2.461   3.987
 3352TIP3    H110020   0.163   2.453   4.081
 3352TIP3    H210021   0.234   2.479   3.950
 3353TIP3   OH210022   5.191   2.677   3.127
 3353TIP3    H110023   5.202   2.677   3.222
 3353TIP3    H210024   5.097   2.685   3.113
 3354TIP3   OH210025   0.723   2.606   4.975
 3354TIP3    H110026   0.816   2.618   4.956
 3354TIP3    H210027   0.704   2.669   5.044
 3355TIP3   OH210028   3.543   4.122   5.900
 3355TIP3    H110029   3.550   4.056   5.831
 3355TIP3    H210030   3.472   4.180   5.871
 3356TIP3   OH210031   3.447   1.309   2.555
 3356TIP3    H110032   3.473   1.376   2.493
 3356TIP3    H210033   3.493   1.230   2.526
 3357TIP3   OH210034   5.222   3.929   5.141
 3357TIP3    H110035   5.133   3.934   5.104
 3357TIP3    H210036   5.231   3.838   5.168
 3358TIP3   OH210037   5.104   5.151   0.558
 3358TIP3    H110038   5.017   5.135   0.520
 3358TIP3    H210039   5.144   5.065   0.565
 3359TIP3   OH210040   5.275   3.499   3.767
 3359TIP3    H110041   5.243   3.478   3.855
 3359TIP3    H210042   5.370   3.485   3.773
 3360TIP3   OH210043   0.024   1.497   1.215
 3360TIP3    H110044   0.057   1.585   1.233
 3360TIP3    H210045  -0.060   1.492   1.262
 3361TIP3   OH210046   6.097   4.754   2.997
 3361TIP3    H110047   6.083   4.839   2.955
 3361TIP3    H210048   6.172   4.717   2.951
 3362TIP3   OH210049   7.046   2.246   0.796
 3362TIP3    H110050   7.072   2.164   0.756
 3362TIP3    H210051   7.044   2.227   0.890
 3363TIP3   OH210052   0.252   1.308   1.088
 3363TIP3    H110053   0.257   1.403   1.095
 3363TIP3    H210054   0.250   1.290   0.994
 3364TIP3   OH210055   0.603   3.137   4.565
 3364TIP3    H110056   0.684   3.141   4.514
 3364TIP3    H210057   0.541   3.091   4.508
 3365TIP3   OH210058   1.514   4.268   3.730
 3365TIP3    H110059   1.422   4.287   3.717
 3365TIP3    H210060   1.534   4.199   3.667
 3366TIP3   OH210061   4.927   5.173   0.345
 3366TIP3    H110062   4.847   5.155   0.295
 3366TIP3    H210063   4.992   5.198   0.279
 3367TIP3   OH210064   5.794   5.090   5.033
 3367TIP3    H110065   5.710   5.118   4.996
 3367TIP3    H210066   5.827   5.024   4.972
 3368TIP3   OH210067   2.126   5.655   5.000
 3368TIP3    H110068   2.192   5.712   5.041
 3368TIP3    H210069   2.149   5.655   4.907
 3369TIP3   OH210070   0.691   1.385   2.411
 3369TIP3    H110071   0.624   1.326   2.376
 3369TIP3    H210072   0.667   1.397   2.503
 3370TIP3   OH210073   3.907   2.960   5.522
 3370TIP3    H110074   3.994   2.945   5.560
 3370TIP3    H210075   3.878   2.874   5.493
 3371TIP3   OH210076   1.940   6.318   5.456
 3371TIP3    H110077   1.926   6.337   5.549
 3371TIP3    H210078   1.893   6.236   5.441
 3372TIP3   OH210079   2.735   2.390   5.043
 3372TIP3    H110080   2.698   2.302   5.048
 3372TIP3    H210081   2.808   2.382   4.981
 3373TIP3   OH210082   3.372   5.938   4.051
 3373TIP3    H110083   3.390   5.895   4.135
 3373TIP3    H210084   3.429   5.893   3.988
 3374TIP3   OH210085   7.084   4.931   5.818
 3374TIP3    H110086   7.155   4.893   5.767
 3374TIP3    H210087   7.009   4.931   5.759
 3375TIP3   OH210088   4.226   3.715   1.194
 3375TIP3    H110089   4.277   3.779   1.243
 3375TIP3    H210090   4.199   3.761   1.115
 3376TIP3   OH210091   6.874   3.571   4.077
 3376TIP3    H110092   6.961   3.553   4.042
 3376TIP3    H210093   6.814   3.544   4.007
 3377TIP3   OH210094   3.060   2.308   1.589
 3377TIP3    H110095   3.061   2.268   1.503
 3377TIP3    H210096   3.062   2.402   1.572
 3378TIP3   OH210097   3.506   1.992   5.733
 3378TIP3    H110098   3.420   2.025   5.709
 3378TIP3    H210099   3.493   1.948   5.817
 3379TIP3   OH210100   6.845   6.465   1.005
 3379TIP3    H110101   6.771   6.410   1.027
 3379TIP3    H210102   6.910   6.446   1.073
 3380TIP3   OH210103   2.633   1.060   4.000
 3380TIP3    H110104   2.656   1.112   4.077
 3380TIP3    H210105   2.710   1.006   3.984
 3381TIP3   OH210106   6.681   3.077   4.490
 3381TIP3    H110107   6.748   3.112   4.549
 3381TIP3    H210108   6.648   2.999   4.535
 3382TIP3   OH210109   2.420   1.699   1.258
 3382TIP3    H110110   2.349   1.643   1.228
 3382TIP3    H210111   2.474   1.713   1.180
 3383TIP3   OH210112   5.065   0.093   2.293
 3383TIP3    H110113   5.044   0.161   2.229
 3383TIP3    H210114   5.030   0.012   2.255
 3384TIP3   OH210115   7.072   0.342   0.857
 3384TIP3    H110116   7.109   0.374   0.775
 3384TIP3    H210117   7.028   0.418   0.895
 3385TIP3   OH210118   0.346   4.716   4.214
 3385TIP3    H110119   0.441   4.706   4.216
 3385TIP3    H210120   0.312   4.627   4.207
 3386TIP3   OH210121   6.023   3.474   0.132
 3386TIP3    H110122   6.081   3.470   0.208
 3386TIP3    H210123   5.935   3.482   0.169
 3387TIP3   OH210124   5.594   6.107   4.339
 3387TIP3    H110125   5.645   6.149   4.407
 3387TIP3    H210126   5.573   6.178   4.278
 3388TIP3   OH210127   3.416   0.038   3.923
 3388TIP3    H110128   3.509   0.017   3.912
 3388TIP3    H210129   3.408   0.129   3.894
 3389TIP3   OH210130   0.161   0.909   5.187
 3389TIP3    H110131   0.087   0.970   5.193
 3389TIP3    H210132   0.222   0.939   5.254
 3390TIP3   OH210133   0.085   3.539   5.702
 3390TIP3    H110134   0.059   3.533   5.794
 3390TIP3    H210135   0.104   3.449   5.677
 3391TIP3   OH210136   6.580   4.995   4.132
 3391TIP3    H110137   6.647   4.966   4.195
 3391TIP3    H210138   6.558   5.084   4.160
 3392TIP3   OH210139   3.585   4.485   5.402
 3392TIP3    H110140   3.497   4.481   5.364
 3392TIP3    H210141   3.594   4.403   5.451
 3393TIP3   OH210142   2.785   6.153   4.370
 3393TIP3    H110143   2.850   6.133   4.437
 3393TIP3    H210144   2.832   6.206   4.306
 3394TIP3   OH210145   0.397   1.229   3.489
 3394TIP3    H110146   0.425   1.184   3.410
 3394TIP3    H210147   0.302   1.228   3.485
 3395TIP3   OH210148   7.063   0.087   5.046
 3395TIP3    H110149   7.107   0.156   4.996
 3395TIP3    H210150   7.007   0.135   5.107
 3396TIP3   OH210151   7.139   4.628   4.463
 3396TIP3    H110152   7.158   4.636   4.370
 3396TIP3    H210153   7.075   4.557   4.469
 3397TIP3   OH210154   6.134   5.437   0.856
 3397TIP3    H110155   6.100   5.515   0.813
 3397TIP3    H210156   6.077   5.366   0.827
 3398TIP3   OH210157   3.384   0.747   3.469
 3398TIP3    H110158   3.442   0.761   3.544
 3398TIP3    H210159   3.320   0.682   3.500
 3399TIP3   OH210160   2.722   1.328   2.412
 3399TIP3    H110161   2.677   1.411   2.400
 3399TIP3    H210162   2.712   1.308   2.505
 3400TIP3   OH210163   2.049   1.608   3.349
 3400TIP3    H110164   1.962   1.572   3.360
 3400TIP3    H210165   2.106   1.532   3.336
 3401TIP3   OH210166   2.268   3.135   0.418
 3401TIP3    H110167   2.260   3.072   0.490
 3401TIP3    H210168   2.203   3.202   0.438
 3402TIP3   OH210169   5.119   0.064   1.870
 3402TIP3    H110170   5.136   0.115   1.791
 3402TIP3    H210171   5.062   0.119   1.922
 3403TIP3   OH210172   7.127   0.992   5.366
 3403TIP3    H110173   7.113   1.031   5.279
 3403TIP3    H210174   7.038   0.976   5.399
 3404TIP3   OH210175   4.858   6.142   0.414
 3404TIP3    H110176   4.796   6.171   0.347
 3404TIP3    H210177   4.918   6.084   0.367
 3405TIP3   OH210178   2.444   4.176   1.473
 3405TIP3    H110179   2.400   4.115   1.531
 3405TIP3    H210180   2.460   4.254   1.527
 3406TIP3   OH210181   1.485   5.491   4.138
 3406TIP3    H110182   1.455   5.428   4.204
 3406TIP3    H210183   1.428   5.567   4.150
 3407TIP3   OH210184   7.186   4.339   3.946
 3407TIP3    H110185   7.188   4.249   3.979
 3407TIP3    H210186   7.215   4.331   3.855
 3408TIP3   OH210187   6.694   2.258   1.031
 3408TIP3    H110188   6.746   2.309   1.093
 3408TIP3    H210189   6.689   2.313   0.953
 3409TIP3   OH210190   4.386   0.704   4.536
 3409TIP3    H110191   4.295   0.700   4.563
 3409TIP3    H210192   4.390   0.775   4.473
 3410TIP3   OH210193   3.264   0.918   4.151
 3410TIP3    H110194   3.258   0.826   4.175
 3410TIP3    H210195   3.225   0.965   4.225
 3411TIP3   OH210196   3.949   0.005   1.386
 3411TIP3    H110197   3.996   0.041   1.461
 3411TIP3    H210198   3.865  -0.025   1.421
 3412TIP3   OH210199   6.463   0.879   2.288
 3412TIP3    H110200   6.553   0.884   2.255
 3412TIP3    H210201   6.414   0.939   2.232
 3413TIP3   OH210202   1.719   0.651   0.989
 3413TIP3    H110203   1.632   0.668   1.026
 3413TIP3    H210204   1.702   0.638   0.895
 3414TIP3   OH210205   0.141   3.029   0.767
 3414TIP3    H110206   0.101   2.991   0.845
 3414TIP3    H210207   0.125   2.964   0.698
 3415TIP3   OH210208   3.191   5.579   4.443
 3415TIP3    H110209   3.097   5.580   4.461
 3415TIP3    H210210   3.231   5.598   4.528
 3416TIP3   OH210211   7.048   3.565   5.369
 3416TIP3    H110212   7.144   3.565   5.372
 3416TIP3    H210213   7.024   3.472   5.369
 3417TIP3   OH210214   6.929   4.995   2.110
 3417TIP3    H110215   6.855   5.026   2.057
 3417TIP3    H210216   7.003   5.048   2.082
 3418TIP3   OH210217   1.035   4.115   0.373
 3418TIP3    H110218   1.061   4.110   0.465
 3418TIP3    H210219   0.957   4.170   0.373
 3419TIP3   OH210220   5.905   2.894   1.661
 3419TIP3    H110221   5.973   2.880   1.727
 3419TIP3    H210222   5.892   2.808   1.621
 3420TIP3   OH210223   7.001   6.725   4.659
 3420TIP3    H110224   6.956   6.808   4.676
 3420TIP3    H210225   6.939   6.675   4.606
 3421TIP3   OH210226   6.119   0.516   2.431
 3421TIP3    H110227   6.125   0.473   2.346
 3421TIP3    H210228   6.197   0.572   2.435
 3422TIP3   OH210229   5.451   6.227   5.152
 3422TIP3    H110230   5.397   6.264   5.082
 3422TIP3    H210231   5.487   6.304   5.197
 3423TIP3   OH210232   1.677   0.738   2.420
 3423TIP3    H110233   1.601   0.775   2.464
 3423TIP3    H210234   1.752   0.782   2.460
 3424TIP3   OH210235   0.948   3.624   0.970
 3424TIP3    H110236   0.896   3.552   0.934
 3424TIP3    H210237   0.969   3.678   0.893
 3425TIP3   OH210238   2.956   1.989   3.535
 3425TIP3    H110239   2.873   2.035   3.543
 3425TIP3    H210240   3.021   2.059   3.526
 3426TIP3   OH210241   5.243   1.411   5.889
 3426TIP3    H110242   5.157   1.384   5.858
 3426TIP3    H210243   5.283   1.457   5.815
 3427TIP3   OH210244   5.771   5.110   3.012
 3427TIP3    H110245   5.715   5.036   3.036
 3427TIP3    H210246   5.756   5.175   3.081
 3428TIP3   OH210247   4.184   5.365   4.334
 3428TIP3    H110248   4.169   5.273   4.310
 3428TIP3    H210249   4.269   5.365   4.378
 3429TIP3   OH210250   2.114   3.395   5.357
 3429TIP3    H110251   2.087   3.361   5.443
 3429TIP3    H210252   2.057   3.470   5.342
 3430TIP3   OH210253   1.961   6.575   2.664
 3430TIP3    H110254   2.005   6.557   2.581
 3430TIP3    H210255   1.910   6.655   2.647
 3431TIP3   OH210256   3.226   4.491   1.048
 3431TIP3    H110257   3.165   4.564   1.040
 3431TIP3    H210258   3.250   4.471   0.957
 3432TIP3   OH210259   2.373   2.916   3.220
 3432TIP3    H110260   2.351   2.970   3.144
 3432TIP3    H210261   2.420   2.841   3.183
 3433TIP3   OH210262   6.485   3.981   4.600
 3433TIP3    H110263   6.415   4.019   4.547
 3433TIP3    H210264   6.530   3.921   4.540
 3434TIP3   OH210265   5.410   0.499   3.780
 3434TIP3    H110266   5.423   0.553   3.702
 3434TIP3    H210267   5.426   0.557   3.854
 3435TIP3   OH210268   2.403   6.565   1.480
 3435TIP3    H110269   2.419   6.471   1.470
 3435TIP3    H210270   2.348   6.572   1.558
 3436TIP3   OH210271   3.994   4.687   1.470
 3436TIP3    H110272   3.910   4.684   1.423
 3436TIP3    H210273   4.035   4.603   1.450
 3437TIP3   OH210274   1.420   4.486   0.193
 3437TIP3    H110275   1.374   4.560   0.151
 3437TIP3    H210276   1.354   4.418   0.200
 3438TIP3   OH210277   4.787   6.284   3.470
 3438TIP3    H110278   4.825   6.247   3.390
 3438TIP3    H210279   4.794   6.214   3.535
 3439TIP3   OH210280   6.800   6.649   3.101
 3439TIP3    H110281   6.708   6.672   3.109
 3439TIP3    H210282   6.814   6.582   3.169
 3440TIP3   OH210283   6.778   6.611   2.770
 3440TIP3    H110284   6.763   6.520   2.793
 3440TIP3    H210285   6.716   6.660   2.825
 3441TIP3   OH210286   2.815   1.367   5.008
 3441TIP3    H110287   2.824   1.455   5.046
 3441TIP3    H210288   2.735   1.333   5.048
 3442TIP3   OH210289   4.721   5.783   1.412
 3442TIP3    H110290   4.626   5.783   1.409
 3442TIP3    H210291   4.744   5.720   1.481
 3443TIP3   OH210292   5.842   2.909   4.137
 3443TIP3    H110293   5.851   3.000   4.110
 3443TIP3    H210294   5.758   2.907   4.184
 3444TIP3   OH210295   2.531   1.807   3.458
 3444TIP3    H110296   2.621   1.776   3.468
 3444TIP3    H210297   2.519   1.816   3.363
 3445TIP3   OH210298   1.361   4.373   2.354
 3445TIP3    H110299   1.447   4.350   2.388
 3445TIP3    H210300   1.329   4.291   2.314
 3446TIP3   OH210301   4.696   2.337   3.141
 3446TIP3    H110302   4.623   2.366   3.086
 3446TIP3    H210303   4.739   2.270   3.089
 3447TIP3   OH210304   4.409   0.912   5.446
 3447TIP3    H110305   4.370   0.824   5.452
 3447TIP3    H210306   4.501   0.899   5.468
 3448TIP3   OH210307   4.150   5.808   3.324
 3448TIP3    H110308   4.056   5.787   3.325
 3448TIP3    H210309   4.157   5.888   3.376
 3449TIP3   OH210310   6.082   3.822   1.660
 3449TIP3    H110311   6.032   3.893   1.701
 3449TIP3    H210312   6.137   3.787   1.730
 3450TIP3   OH210313   1.307   6.737   5.803
 3450TIP3    H110314   1.358   6.804   5.758
 3450TIP3    H210315   1.266   6.782   5.876
 3451TIP3   OH210316   2.879   0.363   0.168
 3451TIP3    H110317   2.871   0.270   0.190
 3451TIP3    H210318   2.952   0.366   0.105
 3452TIP3   OH210319   0.175   2.555   2.648
 3452TIP3    H110320   0.266   2.548   2.677
 3452TIP3    H210321   0.179   2.605   2.567
 3453TIP3   OH210322   2.942   4.673   4.682
 3453TIP3    H110323   2.856   4.662   4.724
 3453TIP3    H210324   2.969   4.761   4.707
 3454TIP3   OH210325   0.138   1.667   3.820
 3454TIP3    H110326   0.192   1.653   3.742
 3454TIP3    H210327   0.080   1.591   3.821
 3455TIP3   OH210328   5.619   3.678   3.089
 3455TIP3    H110329   5.711   3.655   3.101
 3455TIP3    H210330   5.590   3.623   3.016
 3456TIP3   OH210331   6.197   2.756   4.113
 3456TIP3    H110332   6.146   2.813   4.170
 3456TIP3    H210333   6.287   2.768   4.142
 3457TIP3   OH210334   2.891   5.485   4.508
 3457TIP3    H110335   2.876   5.449   4.596
 3457TIP3    H210336   2.916   5.409   4.455
 3458TIP3   OH210337   6.435   3.210   0.778
 3458TIP3    H110338   6.433   3.129   0.728
 3458TIP3    H210339   6.466   3.184   0.865
 3459TIP3   OH210340   2.607   6.388   4.470
 3459TIP3    H110341   2.630   6.342   4.389
 3459TIP3    H210342   2.512   6.379   4.477
 3460TIP3   OH210343   0.299   5.371   3.098
 3460TIP3    H110344   0.296   5.467   3.089
 3460TIP3    H210345   0.244   5.339   3.027
 3461TIP3   OH210346   5.370   4.504   2.104
 3461TIP3    H110347   5.450   4.500   2.155
 3461TIP3    H210348   5.300   4.500   2.169
 3462TIP3   OH210349   2.863   4.050  -0.014
 3462TIP3    H110350   2.914   4.020  -0.089
 3462TIP3    H210351   2.902   4.133   0.011
 3463TIP3   OH210352   4.380   4.505   1.410
 3463TIP3    H110353   4.345   4.587   1.444
 3463TIP3    H210354   4.442   4.476   1.477
 3464TIP3   OH210355   5.612   1.254   4.992
 3464TIP3    H110356   5.647   1.169   4.963
 3464TIP3    H210357   5.690   1.307   5.010
 3465TIP3   OH210358   2.211   4.055   3.344
 3465TIP3    H110359   2.217   4.116   3.271
 3465TIP3    H210360   2.244   4.104   3.420
 3466TIP3   OH210361   1.132   5.924   4.477
 3466TIP3    H110362   1.058   5.927   4.416
 3466TIP3    H210363   1.144   5.831   4.496
 3467TIP3   OH210364   6.254   2.064   4.784
 3467TIP3    H110365   6.339   2.020   4.782
 3467TIP3    H210366   6.208   2.030   4.707
 3468TIP3   OH210367   0.268   0.208   3.135
 3468TIP3    H110368   0.274   0.270   3.208
 3468TIP3    H210369   0.313   0.130   3.167
 3469TIP3   OH210370   2.084   6.553   0.958
 3469TIP3    H110371   2.104   6.470   0.916
 3469TIP3    H210372   2.158   6.610   0.936
 3470TIP3   OH210373   5.731   6.256   4.121
 3470TIP3    H110374   5.784   6.313   4.064
 3470TIP3    H210375   5.795   6.205   4.170
 3471TIP3   OH210376   4.731   4.342   0.013
 3471TIP3    H110377   4.659   4.402  -0.004
 3471TIP3    H210378   4.794   4.394   0.063
 3472TIP3   OH210379   7.012   3.012   5.567
 3472TIP3    H110380   6.923   3.020   5.602
 3472TIP3    H210381   7.013   3.073   5.492
 3473TIP3   OH210382   2.461   1.565   3.937
 3473TIP3    H110383   2.476   1.556   4.031
 3473TIP3    H210384   2.479   1.478   3.901
 3474TIP3   OH210385   0.892   0.690   1.604
 3474TIP3    H110386   0.821   0.723   1.660
 3474TIP3    H210387   0.890   0.595   1.617
 3475TIP3   OH210388  -0.009   3.102   1.060
 3475TIP3    H110389  -0.033   3.078   1.150
 3475TIP3    H210390   0.076   3.145   1.069
 3476TIP3   OH210391   3.565   4.554   3.299
 3476TIP3    H110392   3.552   4.610   3.222
 3476TIP3    H210393   3.660   4.555   3.312
 3477TIP3   OH210394   4.321   4.258   5.554
 3477TIP3    H110395   4.268   4.288   5.628
 3477TIP3    H210396   4.385   4.328   5.540
 3478TIP3   OH210397   1.725   1.792   3.310
 3478TIP3    H110398   1.672   1.809   3.232
 3478TIP3    H210399   1.723   1.697   3.320
 3479TIP3   OH210400   2.358   5.352   2.990
 3479TIP3    H110401   2.432   5.336   3.049
 3479TIP3    H210402   2.392   5.330   2.903
 3480TIP3   OH210403   3.668   2.323   3.797
 3480TIP3    H110404   3.603   2.255   3.781
 3480TIP3    H210405   3.699   2.307   3.886
 3481TIP3   OH210406   1.613   0.746   1.317
 3481TIP3    H110407   1.672   0.796   1.261
 3481TIP3    H210408   1.643   0.655   1.310
 3482TIP3   OH210409   4.644   6.067   2.675
 3482TIP3    H110410   4.673   5.998   2.735
 3482TIP3    H210411   4.570   6.029   2.629
 3483TIP3   OH210412   6.853   3.455   1.966
 3483TIP3    H110413   6.907   3.451   1.887
 3483TIP3    H210414   6.779   3.398   1.948
 3484TIP3   OH210415   4.617   6.241   4.232
 3484TIP3    H110416   4.550   6.245   4.165
 3484TIP3    H210417   4.642   6.332   4.247
 3485TIP3   OH210418   7.101   2.750   5.219
 3485TIP3    H110419   7.155   2.768   5.296
 3485TIP3    H210420   7.067   2.836   5.193
 3486TIP3   OH210421   0.687   1.945   1.560
 3486TIP3    H110422   0.738   1.917   1.485
 3486TIP3    H210423   0.750   1.949   1.632
 3487TIP3   OH210424   5.770   4.486   5.076
 3487TIP3    H110425   5.752   4.392   5.070
 3487TIP3    H210426   5.712   4.516   5.146
 3488TIP3   OH210427   6.249   3.438   0.624
 3488TIP3    H110428   6.185   3.497   0.584
 3488TIP3    H210429   6.197   3.362   0.652
 3489TIP3   OH210430   5.089   2.182   1.424
 3489TIP3    H110431   5.038   2.249   1.469
 3489TIP3    H210432   5.119   2.124   1.494
 3490TIP3   OH210433   5.006   5.413   3.473
 3490TIP3    H110434   5.083   5.380   3.519
 3490TIP3    H210435   5.033   5.498   3.438
 3491TIP3   OH210436   5.852   5.080   1.491
 3491TIP3    H110437   5.782   5.092   1.556
 3491TIP3    H210438   5.918   5.145   1.515
 3492TIP3   OH210439   2.652   4.271   5.039
 3492TIP3    H110440   2.675   4.333   5.108
 3492TIP3    H210441   2.734   4.225   5.020
 3493TIP3   OH210442   6.315   6.701   4.988
 3493TIP3    H110443   6.255   6.752   4.935
 3493TIP3    H210444   6.297   6.610   4.964
 3494TIP3   OH210445   3.614   5.439   2.141
 3494TIP3    H110446   3.622   5.344   2.141
 3494TIP3    H210447   3.608   5.462   2.234
 3495TIP3   OH210448   4.592   1.441   2.407
 3495TIP3    H110449   4.544   1.367   2.443
 3495TIP3    H210450   4.661   1.458   2.471
 3496TIP3   OH210451   3.958   1.154   2.457
 3496TIP3    H110452   4.041   1.152   2.503
 3496TIP3    H210453   3.898   1.104   2.512
 3497TIP3   OH210454   5.303   5.556   1.297
 3497TIP3    H110455   5.218   5.588   1.268
 3497TIP3    H210456   5.362   5.575   1.224
 3498TIP3   OH210457   6.741   5.503   3.552
 3498TIP3    H110458   6.715   5.585   3.595
 3498TIP3    H210459   6.666   5.481   3.496
 3499TIP3   OH210460   5.626   5.482   0.607
 3499TIP3    H110461   5.592   5.568   0.585
 3499TIP3    H210462   5.645   5.441   0.522
 3500TIP3   OH210463   1.724   0.050   4.971
 3500TIP3    H110464   1.653  -0.012   4.986
 3500TIP3    H210465   1.686   0.135   4.992
 3501TIP3   OH210466   4.072   4.077   2.676
 3501TIP3    H110467   4.096   4.117   2.592
 3501TIP3    H210468   4.095   3.985   2.667
 3502TIP3   OH210469   4.445   6.045   3.018
 3502TIP3    H110470   4.404   6.020   2.935
 3502TIP3    H210471   4.372   6.068   3.075
 3503TIP3   OH210472   4.327   3.175   3.193
 3503TIP3    H110473   4.385   3.237   3.238
 3503TIP3    H210474   4.263   3.150   3.260
 3504TIP3   OH210475   3.349   1.220   1.786
 3504TIP3    H110476   3.316   1.307   1.806
 3504TIP3    H210477   3.441   1.222   1.812
 3505TIP3   OH210478   2.055   5.132   5.309
 3505TIP3    H110479   2.127   5.195   5.309
 3505TIP3    H210480   2.090   5.056   5.354
 3506TIP3   OH210481   5.579   5.013   1.296
 3506TIP3    H110482   5.600   4.921   1.307
 3506TIP3    H210483   5.557   5.043   1.384
 3507TIP3   OH210484   0.045   3.949   1.536
 3507TIP3    H110485   0.115   3.889   1.511
 3507TIP3    H210486  -0.030   3.892   1.553
 3508TIP3   OH210487   0.901   0.187   3.864
 3508TIP3    H110488   0.994   0.166   3.858
 3508TIP3    H210489   0.863   0.148   3.785
 3509TIP3   OH210490   7.041   1.942   3.723
 3509TIP3    H110491   7.069   2.029   3.694
 3509TIP3    H210492   7.109   1.914   3.784
 3510TIP3   OH210493   6.056   5.124   5.478
 3510TIP3    H110494   5.972   5.126   5.524
 3510TIP3    H210495   6.033   5.115   5.385
 3511TIP3   OH210496   6.370   5.262   1.286
 3511TIP3    H110497   6.398   5.252   1.195
 3511TIP3    H210498   6.416   5.192   1.333
 3512TIP3   OH210499   5.275   5.672   2.021
 3512TIP3    H110500   5.211   5.678   1.949
 3512TIP3    H210501   5.355   5.708   1.984
 3513TIP3   OH210502   1.190   6.193   4.432
 3513TIP3    H110503   1.163   6.106   4.461
 3513TIP3    H210504   1.217   6.238   4.512
 3514TIP3   OH210505   1.791   2.210   5.144
 3514TIP3    H110506   1.791   2.138   5.207
 3514TIP3    H210507   1.875   2.254   5.158
 3515TIP3   OH210508   4.661   1.641   2.676
 3515TIP3    H110509   4.715   1.669   2.750
 3515TIP3    H210510   4.645   1.720   2.626
 3516TIP3   OH210511   4.634   1.915   1.651
 3516TIP3    H110512   4.622   1.893   1.559
 3516TIP3    H210513   4.545   1.935   1.682
 3517TIP3   OH210514   0.926   0.003   1.395
 3517TIP3    H110515   0.836   0.000   1.361
 3517TIP3    H210516   0.974   0.057   1.333
 3518TIP3   OH210517   0.535   2.983   0.540
 3518TIP3    H110518   0.600   3.042   0.501
 3518TIP3    H210519   0.473   2.965   0.469
 3519TIP3   OH210520   1.964   5.789   5.248
 3519TIP3    H110521   1.917   5.869   5.272
 3519TIP3    H210522   2.056   5.813   5.253
 3520TIP3   OH210523   4.924   0.819   2.945
 3520TIP3    H110524   4.922   0.724   2.955
 3520TIP3    H210525   4.846   0.850   2.991
 3521TIP3   OH210526   3.129   3.409   5.827
 3521TIP3    H110527   3.217   3.375   5.815
 3521TIP3    H210528   3.099   3.429   5.738
 3522TIP3   OH210529   2.399   3.993   1.670
 3522TIP3    H110530   2.394   3.902   1.640
 3522TIP3    H210531   2.427   3.986   1.761
 3523TIP3   OH210532   6.057   1.155   2.115
 3523TIP3    H110533   6.129   1.217   2.120
 3523TIP3    H210534   6.050   1.118   2.202
 3524TIP3   OH210535   6.757   2.976   2.429
 3524TIP3    H110536   6.738   2.949   2.518
 3524TIP3    H210537   6.673   2.975   2.384
 3525TIP3   OH210538   7.025   5.888   5.846
 3525TIP3    H110539   7.039   5.971   5.800
 3525TIP3    H210540   6.936   5.893   5.879
 3526TIP3   OH210541   6.808   3.942   4.164
 3526TIP3    H110542   6.836   4.018   4.112
 3526TIP3    H210543   6.888   3.891   4.177
 3527TIP3   OH210544   6.914   5.696   4.979
 3527TIP3    H110545   6.956   5.781   4.969
 3527TIP3    H210546   6.984   5.638   5.010
 3528TIP3   OH210547   1.160   2.460   3.941
 3528TIP3    H110548   1.170   2.453   4.036
 3528TIP3    H210549   1.248   2.484   3.910
 3529TIP3   OH210550   4.931   0.947   2.472
 3529TIP3    H110551   4.993   0.897   2.525
 3529TIP3    H210552   4.939   1.037   2.505
 3530TIP3   OH210553   3.417   6.247   4.330
 3530TIP3    H110554   3.402   6.315   4.264
 3530TIP3    H210555   3.342   6.188   4.320
 3531TIP3   OH210556   5.643   3.153   1.168
 3531TIP3    H110557   5.692   3.112   1.096
 3531TIP3    H210558   5.558   3.175   1.129
 3532TIP3   OH210559   0.918   2.325   1.050
 3532TIP3    H110560   0.884   2.267   1.118
 3532TIP3    H210561   0.858   2.400   1.051
 3533TIP3   OH210562   3.746   2.310   0.730
 3533TIP3    H110563   3.678   2.246   0.754
 3533TIP3    H210564   3.829   2.263   0.745
 3534TIP3   OH210565   4.267   3.063  -0.029
 3534TIP3    H110566   4.207   3.076   0.044
 3534TIP3    H210567   4.354   3.068   0.010
 3535TIP3   OH210568   6.654   4.429   2.452
 3535TIP3    H110569   6.740   4.472   2.454
 3535TIP3    H210570   6.649   4.382   2.535
 3536TIP3   OH210571   6.151   0.398   0.258
 3536TIP3    H110572   6.238   0.428   0.285
 3536TIP3    H210573   6.167   0.319   0.207
 3537TIP3   OH210574   2.234   6.116   4.974
 3537TIP3    H110575   2.177   6.088   5.046
 3537TIP3    H210576   2.234   6.212   4.980
 3538TIP3   OH210577   5.000   4.597   3.032
 3538TIP3    H110578   4.916   4.640   3.016
 3538TIP3    H210579   5.037   4.643   3.108
 3539TIP3   OH210580   0.977   1.918   5.471
 3539TIP3    H110581   0.926   1.857   5.418
 3539TIP3    H210582   1.067   1.886   5.465
 3540TIP3   OH210583   4.922   4.525   0.135
 3540TIP3    H110584   4.935   4.593   0.202
 3540TIP3    H210585   4.970   4.449   0.169
 3541TIP3   OH210586   0.110   3.669   1.745
 3541TIP3    H110587   0.043   3.731   1.715
 3541TIP3    H210588   0.181   3.679   1.682
 3542TIP3   OH210589   6.419   1.571   4.296
 3542TIP3    H110590   6.465   1.567   4.381
 3542TIP3    H210591   6.412   1.664   4.277
 3543TIP3   OH210592   6.220   6.693   3.853
 3543TIP3    H110593   6.153   6.692   3.922
 3543TIP3    H210594   6.171   6.699   3.771
 3544TIP3   OH210595   0.035   2.531   4.648
 3544TIP3    H110596  -0.050   2.548   4.688
 3544TIP3    H210597   0.014   2.485   4.566
 3545TIP3   OH210598   2.835   5.297   3.894
 3545TIP3    H110599   2.862   5.292   3.985
 3545TIP3    H210600   2.915   5.316   3.846
 3546TIP3   OH210601   4.952   1.803   1.254
 3546TIP3    H110602   4.975   1.764   1.170
 3546TIP3    H210603   4.913   1.887   1.232
 3547TIP3   OH210604   7.006   6.685   5.711
 3547TIP3    H110605   6.992   6.756   5.647
 3547TIP3    H210606   6.932   6.626   5.697
 3548TIP3   OH210607   2.576   1.920   1.685
 3548TIP3    H110608   2.509   1.892   1.622
 3548TIP3    H210609   2.543   2.002   1.721
 3549TIP3   OH210610   4.504   2.788   4.028
 3549TIP3    H110611   4.442   2.771   4.100
 3549TIP3    H210612   4.585   2.813   4.072
 3550TIP3   OH210613   0.046   1.883   1.979
 3550TIP3    H110614   0.046   1.892   1.884
 3550TIP3    H210615   0.099   1.805   1.996
 3551TIP3   OH210616   2.118   0.887   5.417
 3551TIP3    H110617   2.057   0.955   5.446
 3551TIP3    H210618   2.172   0.869   5.493
 3552TIP3   OH210619   3.585   1.702   3.905
 3552TIP3    H110620   3.596   1.796   3.892
 3552TIP3    H210621   3.671   1.673   3.936
 3553TIP3   OH210622   4.255   2.090   4.950
 3553TIP3    H110623   4.216   2.088   5.038
 3553TIP3    H210624   4.350   2.092   4.966
 3554TIP3   OH210625   6.590   2.761   2.847
 3554TIP3    H110626   6.617   2.672   2.824
 3554TIP3    H210627   6.511   2.748   2.900
 3555TIP3   OH210628   3.889   6.286   4.760
 3555TIP3    H110629   3.865   6.318   4.848
 3555TIP3    H210630   3.848   6.349   4.700
 3556TIP3   OH210631   3.303   2.554   4.143
 3556TIP3    H110632   3.378   2.582   4.092
 3556TIP3    H210633   3.291   2.623   4.208
 3557TIP3   OH210634   4.458   1.216   2.195
 3557TIP3    H110635   4.437   1.199   2.287
 3557TIP3    H210636   4.550   1.191   2.187
 3558TIP3   OH210637   6.797   4.912   0.477
 3558TIP3    H110638   6.791   4.995   0.430
 3558TIP3    H210639   6.874   4.921   0.533
 3559TIP3   OH210640   3.875   2.913   3.315
 3559TIP3    H110641   3.885   2.963   3.234
 3559TIP3    H210642   3.964   2.885   3.336
 3560TIP3   OH210643   6.820   6.735   0.936
 3560TIP3    H110644   6.831   6.641   0.928
 3560TIP3    H210645   6.860   6.771   0.856
 3561TIP3   OH210646   5.419   1.955   3.730
 3561TIP3    H110647   5.335   1.992   3.758
 3561TIP3    H210648   5.478   1.972   3.804
 3562TIP3   OH210649   5.421   5.680   4.516
 3562TIP3    H110650   5.411   5.758   4.461
 3562TIP3    H210651   5.401   5.710   4.605
 3563TIP3   OH210652   5.242   2.100   3.903
 3563TIP3    H110653   5.150   2.117   3.888
 3563TIP3    H210654   5.243   2.020   3.956
 3564TIP3   OH210655   2.174   2.281   0.530
 3564TIP3    H110656   2.218   2.295   0.446
 3564TIP3    H210657   2.245   2.275   0.594
 3565TIP3   OH210658   5.013   5.786   5.508
 3565TIP3    H110659   5.106   5.805   5.498
 3565TIP3    H210660   4.971   5.835   5.437
 3566TIP3   OH210661   0.279   4.555   0.244
 3566TIP3    H110662   0.189   4.547   0.274
 3566TIP3    H210663   0.332   4.535   0.322
 3567TIP3   OH210664   2.029   4.588   4.404
 3567TIP3    H110665   2.020   4.674   4.364
 3567TIP3    H210666   1.976   4.593   4.484
 3568TIP3   OH210667   5.276   6.155   4.235
 3568TIP3    H110668   5.227   6.187   4.159
 3568TIP3    H210669   5.213   6.157   4.307
 3569TIP3   OH210670   2.896   3.572   2.236
 3569TIP3    H110671   2.808   3.563   2.200
 3569TIP3    H210672   2.928   3.656   2.203
 3570TIP3   OH210673   6.241   1.464   3.905
 3570TIP3    H110674   6.184   1.540   3.914
 3570TIP3    H210675   6.261   1.460   3.811
 3571TIP3   OH210676   7.206   5.911   3.016
 3571TIP3    H110677   7.214   5.835   3.074
 3571TIP3    H210678   7.167   5.876   2.936
 3572TIP3   OH210679   4.536   6.713   3.510
 3572TIP3    H110680   4.587   6.752   3.439
 3572TIP3    H210681   4.444   6.727   3.485
 3573TIP3   OH210682   6.787   5.715   5.604
 3573TIP3    H110683   6.753   5.674   5.525
 3573TIP3    H210684   6.817   5.642   5.658
 3574TIP3   OH210685   6.490   6.478   1.016
 3574TIP3    H110686   6.548   6.403   1.025
 3574TIP3    H210687   6.411   6.443   0.975
 3575TIP3   OH210688   6.071   4.719   2.679
 3575TIP3    H110689   6.039   4.809   2.690
 3575TIP3    H210690   6.162   4.729   2.651
 3576TIP3   OH210691   5.629   0.430   2.513
 3576TIP3    H110692   5.698   0.431   2.446
 3576TIP3    H210693   5.676   0.431   2.596
 3577TIP3   OH210694   0.560   1.560   5.445
 3577TIP3    H110695   0.621   1.623   5.484
 3577TIP3    H210696   0.616   1.495   5.403
 3578TIP3   OH210697   6.442   6.714   2.086
 3578TIP3    H110698   6.510   6.664   2.131
 3578TIP3    H210699   6.381   6.738   2.156
 3579TIP3   OH210700   5.723   4.086   1.454
 3579TIP3    H110701   5.798   4.144   1.467
 3579TIP3    H210702   5.748   4.005   1.499
 3580TIP3   OH210703   1.714   1.638   1.277
 3580TIP3    H110704   1.779   1.668   1.341
 3580TIP3    H210705   1.637   1.615   1.330
 3581TIP3   OH210706   6.750   1.717   2.543
 3581TIP3    H110707   6.761   1.808   2.515
 3581TIP3    H210708   6.838   1.686   2.560
 3582TIP3   OH210709   5.974   1.432   2.242
 3582TIP3    H110710   5.909   1.492   2.206
 3582TIP3    H210711   5.956   1.349   2.197
 3583TIP3   OH210712   4.520   6.472   1.417
 3583TIP3    H110713   4.547   6.541   1.357
 3583TIP3    H210714   4.600   6.447   1.463
 3584TIP3   OH210715   5.692   1.098   1.290
 3584TIP3    H110716   5.648   1.170   1.245
 3584TIP3    H210717   5.662   1.019   1.244
 3585TIP3   OH210718   5.186   5.210   0.296
 3585TIP3    H110719   5.280   5.212   0.315
 3585TIP3    H210720   5.146   5.173   0.375
 3586TIP3   OH210721   1.652   6.715   5.717
 3586TIP3    H110722   1.694   6.729   5.633
 3586TIP3    H210723   1.572   6.667   5.696
 3587TIP3   OH210724   2.884   3.015   2.574
 3587TIP3    H110725   2.834   2.935   2.558
 3587TIP3    H210726   2.966   3.002   2.526
 3588TIP3   OH210727   4.788   0.186   4.454
 3588TIP3    H110728   4.881   0.167   4.451
 3588TIP3    H210729   4.779   0.270   4.408
 3589TIP3   OH210730   3.244   1.913   1.223
 3589TIP3    H110731   3.148   1.908   1.227
 3589TIP3    H210732   3.262   2.004   1.198
 3590TIP3   OH210733   0.996   5.305   5.780
 3590TIP3    H110734   1.070   5.281   5.836
 3590TIP3    H210735   0.983   5.229   5.723
 3591TIP3   OH210736   5.756   2.758   1.127
 3591TIP3    H110737   5.727   2.708   1.051
 3591TIP3    H210738   5.696   2.733   1.197
 3592TIP3   OH210739   6.067   2.897   5.203
 3592TIP3    H110740   5.993   2.923   5.258
 3592TIP3    H210741   6.080   2.970   5.143
 3593TIP3   OH210742   5.068   1.801   0.654
 3593TIP3    H110743   5.050   1.824   0.746
 3593TIP3    H210744   5.045   1.879   0.605
 3594TIP3   OH210745   0.038   5.352   3.499
 3594TIP3    H110746   0.005   5.330   3.412
 3594TIP3    H210747   0.125   5.390   3.483
 3595TIP3   OH210748   7.097   0.090   5.754
 3595TIP3    H110749   7.179   0.082   5.803
 3595TIP3    H210750   7.067   0.179   5.773
 3596TIP3   OH210751   2.575   3.368   5.378
 3596TIP3    H110752   2.658   3.358   5.425
 3596TIP3    H210753   2.588   3.319   5.297
 3597TIP3   OH210754   4.598   5.450   5.604
 3597TIP3    H110755   4.670   5.387   5.602
 3597TIP3    H210756   4.634   5.526   5.650
 3598TIP3   OH210757   1.995   2.723   0.187
 3598TIP3    H110758   2.086   2.694   0.176
 3598TIP3    H210759   2.003   2.818   0.199
 3599TIP3   OH210760   3.085   3.667   1.252
 3599TIP3    H110761   3.120   3.678   1.163
 3599TIP3    H210762   3.116   3.581   1.279
 3600TIP3   OH210763   3.548   0.881   4.243
 3600TIP3    H110764   3.474   0.920   4.197
 3600TIP3    H210765   3.510   0.844   4.323
 3601TIP3   OH210766   5.908   4.090   1.690
 3601TIP3    H110767   5.868   4.174   1.712
 3601TIP3    H210768   6.002   4.108   1.683
 3602TIP3   OH210769   2.076   3.248   4.088
 3602TIP3    H110770   2.006   3.303   4.125
 3602TIP3    H210771   2.091   3.181   4.154
 3603TIP3   OH210772   4.556   2.785   4.680
 3603TIP3    H110773   4.543   2.778   4.774
 3603TIP3    H210774   4.572   2.879   4.665
 3604TIP3   OH210775   6.821   5.143   0.745
 3604TIP3    H110776   6.744   5.192   0.717
 3604TIP3    H210777   6.890   5.209   0.752
 3605TIP3   OH210778   5.950   6.620   4.417
 3605TIP3    H110779   6.034   6.659   4.394
 3605TIP3    H210780   5.952   6.533   4.379
 3606TIP3   OH210781   1.686   5.888   3.410
 3606TIP3    H110782   1.690   5.824   3.482
 3606TIP3    H210783   1.655   5.968   3.451
 3607TIP3   OH210784   2.234   4.824   0.255
 3607TIP3    H110785   2.296   4.862   0.318
 3607TIP3    H210786   2.278   4.832   0.171
 3608TIP3   OH210787   1.130   3.980   0.649
 3608TIP3    H110788   1.190   3.914   0.615
 3608TIP3    H210789   1.184   4.037   0.703
 3609TIP3   OH210790   1.465   1.853   4.338
 3609TIP3    H110791   1.372   1.857   4.359
 3609TIP3    H210792   1.475   1.772   4.288
 3610TIP3   OH210793   3.528   5.465   1.187
 3610TIP3    H110794   3.512   5.501   1.275
 3610TIP3    H210795   3.484   5.525   1.128
 3611TIP3   OH210796   3.015   0.476   1.329
 3611TIP3    H110797   3.104   0.454   1.302
 3611TIP3    H210798   2.995   0.557   1.282
 3612TIP3   OH210799   6.901   6.201   0.169
 3612TIP3    H110800   6.962   6.269   0.143
 3612TIP3    H210801   6.827   6.210   0.109
 3613TIP3   OH210802   1.520   2.185   5.436
 3613TIP3    H110803   1.546   2.133   5.512
 3613TIP3    H210804   1.533   2.276   5.464
 3614TIP3   OH210805   2.463   1.802   5.566
 3614TIP3    H110806   2.529   1.746   5.606
 3614TIP3    H210807   2.419   1.844   5.640
 3615TIP3   OH210808   4.996   6.748   5.297
 3615TIP3    H110809   5.009   6.720   5.387
 3615TIP3    H210810   4.966   6.669   5.251
 3616TIP3   OH210811   5.933   6.038   4.121
 3616TIP3    H110812   5.969   6.014   4.036
 3616TIP3    H210813   5.989   5.993   4.184
 3617TIP3   OH210814   0.926   1.105   1.190
 3617TIP3    H110815   0.879   1.177   1.232
 3617TIP3    H210816   0.956   1.140   1.107
 3618TIP3   OH210817   0.104   4.774   3.223
 3618TIP3    H110818   0.146   4.852   3.258
 3618TIP3    H210819   0.176   4.721   3.190
 3619TIP3   OH210820   0.164   2.511   2.105
 3619TIP3    H110821   0.254   2.530   2.129
 3619TIP3    H210822   0.116   2.511   2.187
 3620TIP3   OH210823   5.021   5.362   0.131
 3620TIP3    H110824   5.026   5.456   0.151
 3620TIP3    H210825   5.091   5.323   0.182
 3621TIP3   OH210826   1.365   4.954   2.437
 3621TIP3    H110827   1.399   4.882   2.491
 3621TIP3    H210828   1.443   5.003   2.411
 3622TIP3   OH210829   5.468   2.073   0.412
 3622TIP3    H110830   5.501   2.143   0.356
 3622TIP3    H210831   5.547   2.038   0.454
 3623TIP3   OH210832   3.504   1.180   0.916
 3623TIP3    H110833   3.586   1.193   0.964
 3623TIP3    H210834   3.442   1.152   0.982
 3624TIP3   OH210835   7.016   0.106   2.693
 3624TIP3    H110836   6.966   0.095   2.774
 3624TIP3    H210837   6.960   0.162   2.638
 3625TIP3   OH210838   6.784   3.582   5.206
 3625TIP3    H110839   6.847   3.614   5.270
 3625TIP3    H210840   6.719   3.535   5.257
 3626TIP3   OH210841   3.094   4.622   4.413
 3626TIP3    H110842   3.095   4.713   4.386
 3626TIP3    H210843   3.057   4.624   4.502
 3627TIP3   OH210844   2.529   2.493   5.243
 3627TIP3    H110845   2.565   2.452   5.322
 3627TIP3    H210846   2.563   2.439   5.172
 3628TIP3   OH210847   5.138   0.607   4.376
 3628TIP3    H110848   5.175   0.530   4.333
 3628TIP3    H210849   5.214   0.658   4.403
 3629TIP3   OH210850   7.090   4.779   3.037
 3629TIP3    H110851   7.087   4.875   3.032
 3629TIP3    H210852   7.178   4.759   3.068
 3630TIP3   OH210853   1.612   1.926   5.823
 3630TIP3    H110854   1.703   1.910   5.795
 3630TIP3    H210855   1.615   1.918   5.918
 3631TIP3   OH210856   5.428   6.677   2.512
 3631TIP3    H110857   5.407   6.739   2.581
 3631TIP3    H210858   5.386   6.712   2.434
 3632TIP3   OH210859   4.780   3.086   3.795
 3632TIP3    H110860   4.852   3.093   3.732
 3632TIP3    H210861   4.795   3.159   3.855
 3633TIP3   OH210862   1.738   3.219   1.284
 3633TIP3    H110863   1.772   3.274   1.354
 3633TIP3    H210864   1.808   3.216   1.219
 3634TIP3   OH210865   2.896   2.582   0.743
 3634TIP3    H110866   2.958   2.654   0.757
 3634TIP3    H210867   2.811   2.619   0.766
 3635TIP3   OH210868   0.998   2.694   2.939
 3635TIP3    H110869   1.051   2.628   2.893
 3635TIP3    H210870   1.036   2.699   3.027
 3636TIP3   OH210871   0.556   5.414   5.262
 3636TIP3    H110872   0.593   5.340   5.213
 3636TIP3    H210873   0.568   5.390   5.354
 3637TIP3   OH210874   3.746   2.696   3.163
 3637TIP3    H110875   3.778   2.752   3.234
 3637TIP3    H210876   3.732   2.611   3.204
 3638TIP3   OH210877   5.937   6.425   4.011
 3638TIP3    H110878   6.027   6.458   4.005
 3638TIP3    H210879   5.898   6.447   3.927
 3639TIP3   OH210880   5.850   6.082   3.197
 3639TIP3    H110881   5.904   6.056   3.122
 3639TIP3    H210882   5.903   6.147   3.243
 3640TIP3   OH210883   5.543   2.331   0.309
 3640TIP3    H110884   5.594   2.380   0.244
 3640TIP3    H210885   5.561   2.374   0.392
 3641TIP3   OH210886   5.221   1.925   5.778
 3641TIP3    H110887   5.302   1.974   5.786
 3641TIP3    H210888   5.206   1.887   5.865
 3642TIP3   OH210889   1.909   3.680   2.489
 3642TIP3    H110890   1.892   3.711   2.400
 3642TIP3    H210891   1.981   3.619   2.480
 3643TIP3   OH210892   5.046   2.956   0.148
 3643TIP3    H110893   5.007   3.035   0.185
 3643TIP3    H210894   5.112   2.929   0.212
 3644TIP3   OH210895   2.013   3.063   1.769
 3644TIP3    H110896   2.060   3.099   1.693
 3644TIP3    H210897   1.937   3.121   1.779
 3645TIP3   OH210898   3.457   4.997   3.833
 3645TIP3    H110899   3.411   4.974   3.753
 3645TIP3    H210900   3.482   5.089   3.820
 3646TIP3   OH210901   4.278   3.059   0.929
 3646TIP3    H110902   4.322   2.975   0.918
 3646TIP3    H210903   4.227   3.070   0.849
 3647TIP3   OH210904   6.715   2.869   1.033
 3647TIP3    H110905   6.809   2.854   1.043
 3647TIP3    H210906   6.676   2.829   1.111
 3648TIP3   OH210907   3.396   6.650   0.603
 3648TIP3    H110908   3.392   6.639   0.508
 3648TIP3    H210909   3.315   6.696   0.625
 3649TIP3   OH210910   1.705   6.218   4.853
 3649TIP3    H110911   1.686   6.201   4.945
 3649TIP3    H210912   1.781   6.162   4.834
 3650TIP3   OH210913   5.128   0.516   4.968
 3650TIP3    H110914   5.175   0.458   5.028
 3650TIP3    H210915   5.192   0.583   4.945
 3651TIP3   OH210916   3.071   3.500   0.707
 3651TIP3    H110917   3.102   3.449   0.782
 3651TIP3    H210918   2.995   3.548   0.740
 3652TIP3   OH210919   4.851   5.361   5.485
 3652TIP3    H110920   4.915   5.294   5.462
 3652TIP3    H210921   4.902   5.431   5.526
 3653TIP3   OH210922   6.415   1.373   5.668
 3653TIP3    H110923   6.320   1.374   5.668
 3653TIP3    H210924   6.438   1.303   5.729
 3654TIP3   OH210925   0.412   2.809   4.757
 3654TIP3    H110926   0.428   2.869   4.829
 3654TIP3    H210927   0.343   2.751   4.788
 3655TIP3   OH210928   3.869   5.749   5.035
 3655TIP3    H110929   3.832   5.766   5.122
 3655TIP3    H210930   3.956   5.713   5.053
 3656TIP3   OH210931   2.770   2.758   3.962
 3656TIP3    H110932   2.725   2.685   4.006
 3656TIP3    H210933   2.728   2.836   3.998
 3657TIP3   OH210934   6.831   0.004   4.296
 3657TIP3    H110935   6.755  -0.050   4.276
 3657TIP3    H210936   6.815   0.087   4.251
 3658TIP3   OH210937   1.658   2.144   3.199
 3658TIP3    H110938   1.679   2.177   3.287
 3658TIP3    H210939   1.624   2.056   3.214
 3659TIP3   OH210940   0.569   6.715   2.769
 3659TIP3    H110941   0.650   6.695   2.815
 3659TIP3    H210942   0.569   6.810   2.759
 3660TIP3   OH210943   0.079   0.963   1.238
 3660TIP3    H110944   0.128   0.948   1.158
 3660TIP3    H210945   0.145   0.985   1.304
 3661TIP3   OH210946   4.507   4.990   0.523
 3661TIP3    H110947   4.549   5.036   0.596
 3661TIP3    H210948   4.431   4.948   0.563
 3662TIP3   OH210949   5.466   3.356   3.177
 3662TIP3    H110950   5.488   3.447   3.156
 3662TIP3    H210951   5.442   3.317   3.094
 3663TIP3   OH210952   6.196   6.396   4.167
 3663TIP3    H110953   6.108   6.433   4.168
 3663TIP3    H210954   6.186   6.307   4.201
 3664TIP3   OH210955   1.651   0.602   4.932
 3664TIP3    H110956   1.578   0.605   4.870
 3664TIP3    H210957   1.624   0.658   5.005
 3665TIP3   OH210958   1.449   0.769   0.821
 3665TIP3    H110959   1.433   0.690   0.873
 3665TIP3    H210960   1.446   0.841   0.885
 3666TIP3   OH210961   4.239   0.503   5.225
 3666TIP3    H110962   4.175   0.488   5.294
 3666TIP3    H210963   4.189   0.542   5.153
 3667TIP3   OH210964   3.869   4.259   5.346
 3667TIP3    H110965   3.885   4.200   5.272
 3667TIP3    H210966   3.920   4.337   5.326
 3668TIP3   OH210967   4.797   1.401   1.218
 3668TIP3    H110968   4.815   1.313   1.251
 3668TIP3    H210969   4.829   1.459   1.287
 3669TIP3   OH210970   2.940   2.763   1.432
 3669TIP3    H110971   2.998   2.689   1.413
 3669TIP3    H210972   2.873   2.727   1.491
 3670TIP3   OH210973   2.778   1.407   2.908
 3670TIP3    H110974   2.723   1.398   2.830
 3670TIP3    H210975   2.734   1.474   2.961
 3671TIP3   OH210976   3.322   5.756   2.418
 3671TIP3    H110977   3.306   5.773   2.325
 3671TIP3    H210978   3.413   5.779   2.431
 3672TIP3   OH210979   1.604   1.241   3.393
 3672TIP3    H110980   1.694   1.209   3.397
 3672TIP3    H210981   1.567   1.198   3.315
 3673TIP3   OH210982   1.229   4.022   5.661
 3673TIP3    H110983   1.319   3.997   5.684
 3673TIP3    H210984   1.179   4.007   5.741
 3674TIP3   OH210985   6.461   6.350   1.835
 3674TIP3    H110986   6.405   6.367   1.910
 3674TIP3    H210987   6.405   6.366   1.759
 3675TIP3   OH210988   1.270   6.709   5.427
 3675TIP3    H110989   1.296   6.773   5.362
 3675TIP3    H210990   1.350   6.689   5.475
 3676TIP3   OH210991   3.465   2.335   1.049
 3676TIP3    H110992   3.535   2.305   1.107
 3676TIP3    H210993   3.492   2.305   0.962
 3677TIP3   OH210994   1.137   5.713   1.554
 3677TIP3    H110995   1.168   5.803   1.558
 3677TIP3    H210996   1.043   5.719   1.569
 3678TIP3   OH210997   6.258   4.626   0.809
 3678TIP3    H110998   6.317   4.565   0.855
 3678TIP3    H210999   6.261   4.706   0.862
 3679TIP3   OH211000   1.662   3.404   5.387
 3679TIP3    H111001   1.739   3.394   5.331
 3679TIP3    H211002   1.643   3.315   5.418
 3680TIP3   OH211003   3.140   5.820   2.958
 3680TIP3    H111004   3.187   5.736   2.955
 3680TIP3    H211005   3.178   5.872   2.888
 3681TIP3   OH211006   6.240   6.045   5.103
 3681TIP3    H111007   6.259   6.026   5.011
 3681TIP3    H211008   6.150   6.017   5.116
 3682TIP3   OH211009   1.907   2.664   4.994
 3682TIP3    H111010   1.853   2.687   5.069
 3682TIP3    H211011   1.849   2.614   4.937
 3683TIP3   OH211012   3.672   1.584   1.532
 3683TIP3    H111013   3.654   1.600   1.624
 3683TIP3    H211014   3.626   1.655   1.486
 3684TIP3   OH211015   0.545   5.982   0.268
 3684TIP3    H111016   0.462   5.945   0.239
 3684TIP3    H211017   0.520   6.050   0.330
 3685TIP3   OH211018   2.519   1.477   3.038
 3685TIP3    H111019   2.543   1.456   3.129
 3685TIP3    H211020   2.471   1.400   3.008
 3686TIP3   OH211021   0.499   0.286   5.691
 3686TIP3    H111022   0.462   0.355   5.637
 3686TIP3    H211023   0.438   0.213   5.682
 3687TIP3   OH211024   3.229   5.954   1.520
 3687TIP3    H111025   3.283   5.875   1.521
 3687TIP3    H211026   3.242   5.992   1.607
 3688TIP3   OH211027   6.941   0.574   0.587
 3688TIP3    H111028   6.878   0.505   0.608
 3688TIP3    H211029   7.024   0.542   0.621
 3689TIP3   OH211030   3.658   2.759   2.045
 3689TIP3    H111031   3.585   2.729   1.990
 3689TIP3    H211032   3.658   2.854   2.034
 3690TIP3   OH211033   1.549   4.571   4.646
 3690TIP3    H111034   1.523   4.566   4.554
 3690TIP3    H211035   1.591   4.487   4.664
 3691TIP3   OH211036   6.549   0.694   3.404
 3691TIP3    H111037   6.611   0.690   3.477
 3691TIP3    H211038   6.552   0.607   3.365
 3692TIP3   OH211039   5.841   2.473   2.825
 3692TIP3    H111040   5.844   2.519   2.909
 3692TIP3    H211041   5.894   2.395   2.838
 3693TIP3   OH211042   5.927   2.695   5.552
 3693TIP3    H111043   5.967   2.699   5.639
 3693TIP3    H211044   5.837   2.725   5.565
 3694TIP3   OH211045   4.529   2.364   1.716
 3694TIP3    H111046   4.495   2.451   1.736
 3694TIP3    H211047   4.457   2.320   1.670
 3695TIP3   OH211048   6.685   4.907   5.862
 3695TIP3    H111049   6.725   4.834   5.816
 3695TIP3    H211050   6.715   4.985   5.816
 3696TIP3   OH211051   3.207   2.055   5.373
 3696TIP3    H111052   3.141   2.124   5.386
 3696TIP3    H211053   3.174   2.005   5.298
 3697TIP3   OH211054   3.479   5.268   3.746
 3697TIP3    H111055   3.446   5.343   3.795
 3697TIP3    H211056   3.562   5.297   3.711
 3698TIP3   OH211057   5.199   1.590   5.362
 3698TIP3    H111058   5.153   1.512   5.330
 3698TIP3    H211059   5.289   1.579   5.333
 3699TIP3   OH211060   6.573   4.783   1.939
 3699TIP3    H111061   6.633   4.786   2.014
 3699TIP3    H211062   6.557   4.690   1.925
 3700TIP3   OH211063   2.627   5.011   4.043
 3700TIP3    H111064   2.538   4.980   4.026
 3700TIP3    H211065   2.644   5.074   3.973
 3701TIP3   OH211066   3.337   3.105   3.769
 3701TIP3    H111067   3.433   3.105   3.772
 3701TIP3    H211068   3.316   3.153   3.689
 3702TIP3   OH211069   3.385   0.587   3.813
 3702TIP3    H111070   3.428   0.626   3.889
 3702TIP3    H211071   3.454   0.579   3.747
 3703TIP3   OH211072   7.171   3.286   5.082
 3703TIP3    H111073   7.162   3.374   5.043
 3703TIP3    H211074   7.113   3.288   5.159
 3704TIP3   OH211075   3.007   1.765   4.808
 3704TIP3    H111076   2.920   1.755   4.771
 3704TIP3    H211077   3.066   1.761   4.733
 3705TIP3   OH211078   6.185   5.630   4.163
 3705TIP3    H111079   6.181   5.672   4.249
 3705TIP3    H211080   6.103   5.580   4.158
 3706TIP3   OH211081   5.393   0.249   3.693
 3706TIP3    H111082   5.396   0.265   3.599
 3706TIP3    H211083   5.422   0.331   3.733
 3707TIP3   OH211084   2.119   6.026   5.212
 3707TIP3    H111085   2.027   6.054   5.206
 3707TIP3    H211086   2.159   6.087   5.273
 3708TIP3   OH211087   3.062   2.773   4.672
 3708TIP3    H111088   3.003   2.714   4.719
 3708TIP3    H211089   3.139   2.719   4.652
 3709TIP3   OH211090   4.077   0.454   1.773
 3709TIP3    H111091   4.109   0.366   1.752
 3709TIP3    H211092   3.984   0.451   1.750
 3710TIP3   OH211093   4.773   1.409   1.880
 3710TIP3    H111094   4.765   1.488   1.827
 3710TIP3    H211095   4.694   1.408   1.934
 3711TIP3   OH211096   6.469   1.710   2.989
 3711TIP3    H111097   6.492   1.640   3.050
 3711TIP3    H211098   6.505   1.789   3.029
 3712TIP3   OH211099   2.265   0.249   5.528
 3712TIP3    H111100   2.180   0.218   5.559
 3712TIP3    H211101   2.295   0.182   5.467
 3713TIP3   OH211102   2.021   4.444   3.794
 3713TIP3    H111103   1.934   4.419   3.825
 3713TIP3    H211104   2.079   4.423   3.867
 3714TIP3   OH211105   2.142   3.512   2.479
 3714TIP3    H111106   2.171   3.422   2.459
 3714TIP3    H211107   2.199   3.539   2.551
 3715TIP3   OH211108   4.954   2.021   5.117
 3715TIP3    H111109   5.028   2.080   5.122
 3715TIP3    H211110   4.990   1.936   5.142
 3716TIP3   OH211111   3.005   3.532   3.936
 3716TIP3    H111112   3.038   3.532   3.846
 3716TIP3    H211113   2.938   3.600   3.937
 3717TIP3   OH211114   0.800   2.841   2.314
 3717TIP3    H111115   0.706   2.845   2.293
 3717TIP3    H211116   0.840   2.905   2.255
 3718TIP3   OH211117   3.525   1.365   3.977
 3718TIP3    H111118   3.465   1.385   3.904
 3718TIP3    H211119   3.490   1.283   4.014
 3719TIP3   OH211120   2.852   0.309   3.336
 3719TIP3    H111121   2.863   0.223   3.297
 3719TIP3    H211122   2.941   0.340   3.352
 3720TIP3   OH211123   4.017   2.692   5.819
 3720TIP3    H111124   3.973   2.619   5.776
 3720TIP3    H211125   4.109   2.666   5.822
 3721TIP3   OH211126   5.047   1.888   4.619
 3721TIP3    H111127   5.061   1.796   4.594
 3721TIP3    H211128   5.006   1.883   4.705
 3722TIP3   OH211129   5.930   0.460   5.804
 3722TIP3    H111130   5.922   0.470   5.709
 3722TIP3    H211131   6.019   0.487   5.824
 3723TIP3   OH211132   3.846   4.688   2.579
 3723TIP3    H111133   3.875   4.675   2.488
 3723TIP3    H211134   3.926   4.685   2.630
 3724TIP3   OH211135   1.786   1.376   1.115
 3724TIP3    H111136   1.709   1.320   1.105
 3724TIP3    H211137   1.758   1.445   1.176
 3725TIP3   OH211138   0.784   5.907   0.378
 3725TIP3    H111139   0.700   5.929   0.338
 3725TIP3    H211140   0.833   5.863   0.309
 3726TIP3   OH211141   4.015   0.559   3.773
 3726TIP3    H111142   3.931   0.559   3.819
 3726TIP3    H211143   4.074   0.608   3.830
 3727TIP3   OH211144   0.987   1.044   5.670
 3727TIP3    H111145   0.989   1.038   5.766
 3727TIP3    H211146   1.012   0.956   5.641
 3728TIP3   OH211147   7.063   4.472   3.623
 3728TIP3    H111148   7.057   4.537   3.553
 3728TIP3    H211149   7.011   4.398   3.591
 3729TIP3   OH211150   2.431   1.341   0.767
 3729TIP3    H111151   2.476   1.263   0.798
 3729TIP3    H211152   2.439   1.338   0.672
 3730TIP3   OH211153   6.234   3.427   4.929
 3730TIP3    H111154   6.170   3.419   4.859
 3730TIP3    H211155   6.268   3.516   4.921
 3731TIP3   OH211156   1.308   4.118   2.930
 3731TIP3    H111157   1.401   4.117   2.906
 3731TIP3    H211158   1.295   4.203   2.972
 3732TIP3   OH211159   3.895   3.967   4.513
 3732TIP3    H111160   3.830   3.961   4.583
 3732TIP3    H211161   3.964   3.906   4.539
 3733TIP3   OH211162   2.006   2.297   0.133
 3733TIP3    H111163   2.055   2.359   0.080
 3733TIP3    H211164   1.990   2.343   0.215
 3734TIP3   OH211165   1.073   2.595   3.714
 3734TIP3    H111166   1.101   2.538   3.786
 3734TIP3    H211167   1.054   2.679   3.755
 3735TIP3   OH211168   4.509   3.281   3.387
 3735TIP3    H111169   4.475   3.203   3.431
 3735TIP3    H211170   4.583   3.250   3.335
 3736TIP3   OH211171   6.150   1.990   2.861
 3736TIP3    H111172   6.067   1.942   2.863
 3736TIP3    H211173   6.125   2.082   2.871
 3737TIP3   OH211174   0.746   2.067   5.516
 3737TIP3    H111175   0.692   2.118   5.455
 3737TIP3    H211176   0.683   2.025   5.575
 3738TIP3   OH211177   3.222   3.254   4.521
 3738TIP3    H111178   3.312   3.220   4.524
 3738TIP3    H211179   3.167   3.176   4.524
 3739TIP3   OH211180   6.066   6.258   0.436
 3739TIP3    H111181   6.121   6.321   0.481
 3739TIP3    H211182   5.979   6.298   0.434
 3740TIP3   OH211183   3.268   6.077   3.232
 3740TIP3    H111184   3.203   6.007   3.223
 3740TIP3    H211185   3.216   6.155   3.253
 3741TIP3   OH211186   3.860   6.406   1.191
 3741TIP3    H111187   3.860   6.393   1.096
 3741TIP3    H211188   3.810   6.333   1.226
 3742TIP3   OH211189   6.932   4.476   2.555
 3742TIP3    H111190   6.967   4.538   2.491
 3742TIP3    H211191   7.006   4.419   2.576
 3743TIP3   OH211192   4.256   4.852   0.606
 3743TIP3    H111193   4.206   4.771   0.598
 3743TIP3    H211194   4.199   4.919   0.569
 3744TIP3   OH211195   4.485   3.106   2.997
 3744TIP3    H111196   4.568   3.153   2.999
 3744TIP3    H211197   4.439   3.135   3.076
 3745TIP3   OH211198   5.962   1.734   1.820
 3745TIP3    H111199   6.033   1.783   1.862
 3745TIP3    H211200   5.889   1.795   1.817
 3746TIP3   OH211201   1.159   0.807   3.851
 3746TIP3    H111202   1.113   0.881   3.811
 3746TIP3    H211203   1.112   0.730   3.819
 3747TIP3   OH211204   1.218   6.274   1.256
 3747TIP3    H111205   1.125   6.282   1.238
 3747TIP3    H211206   1.261   6.293   1.173
 3748TIP3   OH211207   2.995   4.650   5.391
 3748TIP3    H111208   2.937   4.673   5.463
 3748TIP3    H211209   3.011   4.733   5.346
 3749TIP3   OH211210   0.953   0.233   5.450
 3749TIP3    H111211   0.940   0.273   5.365
 3749TIP3    H211212   0.965   0.307   5.510
 3750TIP3   OH211213   2.259   1.567   5.760
 3750TIP3    H111214   2.281   1.546   5.850
 3750TIP3    H211215   2.342   1.595   5.720
 3751TIP3   OH211216   2.578   5.646   3.327
 3751TIP3    H111217   2.639   5.712   3.360
 3751TIP3    H211218   2.506   5.696   3.289
 3752TIP3   OH211219   1.626   5.817   5.270
 3752TIP3    H111220   1.535   5.786   5.272
 3752TIP3    H211221   1.673   5.757   5.329
 3753TIP3   OH211222   0.765   2.308   5.095
 3753TIP3    H111223   0.719   2.381   5.054
 3753TIP3    H211224   0.856   2.317   5.065
 3754TIP3   OH211225   1.473   0.212   0.791
 3754TIP3    H111226   1.495   0.120   0.772
 3754TIP3    H211227   1.416   0.238   0.719
 3755TIP3   OH211228   1.739   5.496   4.437
 3755TIP3    H111229   1.715   5.579   4.477
 3755TIP3    H211230   1.725   5.431   4.506
 3756TIP3   OH211231   0.510   6.658   5.226
 3756TIP3    H111232   0.559   6.628   5.303
 3756TIP3    H211233   0.573   6.708   5.175
 3757TIP3   OH211234   5.131   3.026   2.233
 3757TIP3    H111235   5.194   2.961   2.203
 3757TIP3    H211236   5.072   3.037   2.158
 3758TIP3   OH211237   3.780   0.478   4.670
 3758TIP3    H111238   3.704   0.445   4.718
 3758TIP3    H211239   3.806   0.556   4.719
 3759TIP3   OH211240   2.718   5.779   4.972
 3759TIP3    H111241   2.702   5.841   4.901
 3759TIP3    H211242   2.635   5.733   4.984
 3760TIP3   OH211243   0.190   4.533   4.491
 3760TIP3    H111244   0.097   4.555   4.486
 3760TIP3    H211245   0.193   4.438   4.488
 3761TIP3   OH211246   0.054   1.693   2.831
 3761TIP3    H111247   0.088   1.607   2.853
 3761TIP3    H211248   0.098   1.717   2.750
 3762TIP3   OH211249   7.079   5.302   2.624
 3762TIP3    H111250   7.079   5.251   2.706
 3762TIP3    H211251   7.115   5.241   2.559
 3763TIP3   OH211252   3.764   6.746   0.386
 3763TIP3    H111253   3.693   6.749   0.451
 3763TIP3    H211254   3.827   6.811   0.416
 3764TIP3   OH211255   7.154   1.093   3.672
 3764TIP3    H111256   7.164   1.062   3.762
 3764TIP3    H211257   7.072   1.141   3.672
 3765TIP3   OH211258   5.099   1.868   5.319
 3765TIP3    H111259   5.019   1.887   5.369
 3765TIP3    H211260   5.122   1.778   5.344
 3766TIP3   OH211261   2.617   0.282   0.999
 3766TIP3    H111262   2.700   0.327   0.986
 3766TIP3    H211263   2.639   0.189   0.996
 3767TIP3   OH211264   0.379   4.869   1.656
 3767TIP3    H111265   0.347   4.950   1.616
 3767TIP3    H211266   0.321   4.801   1.622
 3768TIP3   OH211267   6.803   2.453   0.851
 3768TIP3    H111268   6.781   2.545   0.843
 3768TIP3    H211269   6.894   2.452   0.882
 3769TIP3   OH211270   1.088   0.212   3.579
 3769TIP3    H111271   1.031   0.288   3.590
 3769TIP3    H211272   1.173   0.241   3.612
 3770TIP3   OH211273   2.676   0.622   0.779
 3770TIP3    H111274   2.589   0.648   0.748
 3770TIP3    H211275   2.730   0.620   0.700
 3771TIP3   OH211276   1.199   5.667   4.536
 3771TIP3    H111277   1.242   5.676   4.621
 3771TIP3    H211278   1.132   5.599   4.549
 3772TIP3   OH211279   5.074   3.033   3.322
 3772TIP3    H111280   5.052   3.084   3.244
 3772TIP3    H211281   5.015   2.958   3.319
 3773TIP3   OH211282   3.935   2.884   0.136
 3773TIP3    H111283   4.017   2.841   0.112
 3773TIP3    H211284   3.873   2.813   0.148
 3774TIP3   OH211285   1.791   1.458   2.358
 3774TIP3    H111286   1.719   1.486   2.301
 3774TIP3    H211287   1.817   1.373   2.323
 3775TIP3   OH211288   5.515   4.787   5.151
 3775TIP3    H111289   5.498   4.861   5.209
 3775TIP3    H211290   5.604   4.759   5.174
 3776TIP3   OH211291   3.214   5.725   5.007
 3776TIP3    H111292   3.128   5.711   4.968
 3776TIP3    H211293   3.267   5.761   4.936
 3777TIP3   OH211294   0.129   6.009   0.585
 3777TIP3    H111295   0.213   6.029   0.544
 3777TIP3    H211296   0.118   5.915   0.572
 3778TIP3   OH211297   3.322   5.386   3.416
 3778TIP3    H111298   3.415   5.383   3.440
 3778TIP3    H211299   3.286   5.455   3.470
 3779TIP3   OH211300   4.619   4.804   4.101
 3779TIP3    H111301   4.645   4.827   4.191
 3779TIP3    H211302   4.580   4.717   4.110
 3780TIP3   OH211303   4.318   4.476   3.280
 3780TIP3    H111304   4.314   4.566   3.310
 3780TIP3    H211305   4.326   4.424   3.360
 3781TIP3   OH211306   2.628   1.501   1.218
 3781TIP3    H111307   2.602   1.583   1.261
 3781TIP3    H211308   2.547   1.452   1.208
 3782TIP3   OH211309   5.531   3.616   4.910
 3782TIP3    H111310   5.615   3.647   4.877
 3782TIP3    H211311   5.526   3.525   4.880
 3783TIP3   OH211312   4.777   5.591   2.583
 3783TIP3    H111313   4.777   5.684   2.606
 3783TIP3    H211314   4.700   5.580   2.526
 3784TIP3   OH211315   3.202   6.579   4.540
 3784TIP3    H111316   3.124   6.607   4.587
 3784TIP3    H211317   3.230   6.657   4.492
 3785TIP3   OH211318   0.842   1.590   0.228
 3785TIP3    H111319   0.782   1.547   0.167
 3785TIP3    H211320   0.834   1.540   0.309
 3786TIP3   OH211321   7.136   0.293   3.676
 3786TIP3    H111322   7.078   0.232   3.630
 3786TIP3    H211323   7.084   0.372   3.688
 3787TIP3   OH211324   5.591   0.202   2.112
 3787TIP3    H111325   5.616   0.294   2.103
 3787TIP3    H211326   5.568   0.175   2.023
 3788TIP3   OH211327   5.253   4.706   5.124
 3788TIP3    H111328   5.347   4.715   5.139
 3788TIP3    H211329   5.245   4.694   5.029
 3789TIP3   OH211330   0.212   6.124   0.166
 3789TIP3    H111331   0.122   6.141   0.195
 3789TIP3    H211332   0.237   6.204   0.120
 3790TIP3   OH211333   1.495   2.860   1.035
 3790TIP3    H111334   1.455   2.895   1.115
 3790TIP3    H211335   1.578   2.907   1.027
 3791TIP3   OH211336   1.782   4.062   4.667
 3791TIP3    H111337   1.803   3.972   4.642
 3791TIP3    H211338   1.802   4.066   4.760
 3792TIP3   OH211339   0.521   0.357   2.594
 3792TIP3    H111340   0.516   0.261   2.595
 3792TIP3    H211341   0.455   0.384   2.530
 3793TIP3   OH211342   3.390   0.798   4.439
 3793TIP3    H111343   3.315   0.770   4.387
 3793TIP3    H211344   3.353   0.821   4.524
 3794TIP3   OH211345   6.141   0.926   4.935
 3794TIP3    H111346   6.200   0.918   5.011
 3794TIP3    H211347   6.180   0.996   4.882
 3795TIP3   OH211348   0.463   0.604   0.661
 3795TIP3    H111349   0.475   0.535   0.596
 3795TIP3    H211350   0.504   0.569   0.740
 3796TIP3   OH211351   6.759   2.810   3.698
 3796TIP3    H111352   6.759   2.751   3.774
 3796TIP3    H211353   6.691   2.874   3.717
 3797TIP3   OH211354   0.110   3.786   3.454
 3797TIP3    H111355   0.085   3.740   3.374
 3797TIP3    H211356   0.123   3.717   3.518
 3798TIP3   OH211357   2.003   2.880   0.479
 3798TIP3    H111358   2.028   2.938   0.408
 3798TIP3    H211359   2.074   2.888   0.543
 3799TIP3   OH211360   3.876   0.476   0.440
 3799TIP3    H111361   3.923   0.417   0.498
 3799TIP3    H211362   3.785   0.445   0.441
 3800TIP3   OH211363   7.137   1.576   5.360
 3800TIP3    H111364   7.180   1.534   5.286
 3800TIP3    H211365   7.045   1.580   5.334
 3801TIP3   OH211366   4.794   3.354   0.700
 3801TIP3    H111367   4.756   3.346   0.788
 3801TIP3    H211368   4.828   3.443   0.696
 3802TIP3   OH211369   5.948   5.227   0.834
 3802TIP3    H111370   5.915   5.152   0.882
 3802TIP3    H211371   5.910   5.218   0.747
 3803TIP3   OH211372   6.568   0.501   5.006
 3803TIP3    H111373   6.487   0.551   5.013
 3803TIP3    H211374   6.559   0.452   4.924
 3804TIP3   OH211375   6.887   3.177   4.153
 3804TIP3    H111376   6.880   3.111   4.085
 3804TIP3    H211377   6.798   3.190   4.185
 3805TIP3   OH211378   3.946   1.106   5.617
 3805TIP3    H111379   3.918   1.120   5.707
 3805TIP3    H211380   4.028   1.056   5.625
 3806TIP3   OH211381   4.483   0.746   0.000
 3806TIP3    H111382   4.578   0.747   0.009
 3806TIP3    H211383   4.451   0.729   0.088
 3807TIP3   OH211384   5.016   5.177   5.741
 3807TIP3    H111385   4.926   5.197   5.766
 3807TIP3    H211386   5.059   5.152   5.823
 3808TIP3   OH211387   1.410   4.201   5.921
 3808TIP3    H111388   1.431   4.114   5.888
 3808TIP3    H211389   1.463   4.260   5.869
 3809TIP3   OH211390   4.931   6.123   3.678
 3809TIP3    H111391   5.018   6.124   3.638
 3809TIP3    H211392   4.919   6.211   3.714
 3810TIP3   OH211393   7.185   5.773   1.559
 3810TIP3    H111394   7.254   5.708   1.568
 3810TIP3    H211395   7.139   5.749   1.478
 3811TIP3   OH211396   3.516   1.074   3.781
 3811TIP3    H111397   3.442   1.104   3.834
 3811TIP3    H211398   3.525   1.142   3.713
 3812TIP3   OH211399   5.044   5.342   4.332
 3812TIP3    H111400   5.126   5.388   4.318
 3812TIP3    H211401   5.061   5.284   4.406
 3813TIP3   OH211402   4.972   6.342   5.155
 3813TIP3    H111403   5.045   6.308   5.206
 3813TIP3    H211404   4.928   6.404   5.214
 3814TIP3   OH211405   2.727   0.841   2.829
 3814TIP3    H111406   2.796   0.873   2.771
 3814TIP3    H211407   2.774   0.799   2.901
 3815TIP3   OH211408   5.633   5.139   4.564
 3815TIP3    H111409   5.603   5.229   4.575
 3815TIP3    H211410   5.729   5.146   4.559
 3816TIP3   OH211411   6.990   3.013   0.191
 3816TIP3    H111412   6.949   2.945   0.138
 3816TIP3    H211413   7.083   2.990   0.194
 3817TIP3   OH211414   3.919   0.431   3.205
 3817TIP3    H111415   3.855   0.392   3.145
 3817TIP3    H211416   3.956   0.356   3.251
 3818TIP3   OH211417   5.389   5.182   4.796
 3818TIP3    H111418   5.319   5.167   4.859
 3818TIP3    H211419   5.403   5.096   4.755
 3819TIP3   OH211420   4.775   3.322   4.869
 3819TIP3    H111421   4.685   3.340   4.842
 3819TIP3    H211422   4.825   3.395   4.835
 3820TIP3   OH211423   6.706   3.682   1.691
 3820TIP3    H111424   6.670   3.735   1.620
 3820TIP3    H211425   6.629   3.642   1.732
 3821TIP3   OH211426   4.347   0.869   2.545
 3821TIP3    H111427   4.407   0.942   2.557
 3821TIP3    H211428   4.303   0.860   2.630
 3822TIP3   OH211429   3.375   0.020   0.961
 3822TIP3    H111430   3.439   0.050   1.026
 3822TIP3    H211431   3.357  -0.071   0.985
 3823TIP3   OH211432   1.485   3.203   1.933
 3823TIP3    H111433   1.438   3.201   1.849
 3823TIP3    H211434   1.531   3.287   1.933
 3824TIP3   OH211435   1.580   6.541   3.498
 3824TIP3    H111436   1.597   6.477   3.567
 3824TIP3    H211437   1.665   6.581   3.481
 3825TIP3   OH211438   3.731   1.457   2.248
 3825TIP3    H111439   3.802   1.422   2.303
 3825TIP3    H211440   3.682   1.379   2.220
 3826TIP3   OH211441   3.527   1.596   2.112
 3826TIP3    H111442   3.553   1.586   2.203
 3826TIP3    H211443   3.443   1.552   2.106
 3827TIP3   OH211444   5.820   4.044   3.529
 3827TIP3    H111445   5.742   4.059   3.583
 3827TIP3    H211446   5.889   4.093   3.572
 3828TIP3   OH211447   2.529   2.528   3.812
 3828TIP3    H111448   2.488   2.567   3.889
 3828TIP3    H211449   2.534   2.599   3.749
 3829TIP3   OH211450   2.633  -0.012   3.117
 3829TIP3    H111451   2.696   0.027   3.177
 3829TIP3    H211452   2.687  -0.058   3.053
 3830TIP3   OH211453   4.158   5.499   0.903
 3830TIP3    H111454   4.183   5.513   0.811
 3830TIP3    H211455   4.238   5.516   0.952
 3831TIP3   OH211456   4.852   4.156   5.207
 3831TIP3    H111457   4.901   4.126   5.283
 3831TIP3    H211458   4.833   4.248   5.226
 3832TIP3   OH211459   2.760   1.381   3.976
 3832TIP3    H111460   2.677   1.408   4.015
 3832TIP3    H211461   2.814   1.353   4.050
 3833TIP3   OH211462   3.247   1.342   4.952
 3833TIP3    H111463   3.322   1.386   4.912
 3833TIP3    H211464   3.215   1.402   5.019
 3834TIP3   OH211465   0.050   5.487   5.461
 3834TIP3    H111466   0.047   5.539   5.380
 3834TIP3    H211467   0.135   5.508   5.499
 3835TIP3   OH211468   0.590   5.582   3.283
 3835TIP3    H111469   0.613   5.606   3.193
 3835TIP3    H211470   0.604   5.487   3.286
 3836TIP3   OH211471   3.674   6.179   4.501
 3836TIP3    H111472   3.596   6.206   4.454
 3836TIP3    H211473   3.659   6.086   4.521
 3837TIP3   OH211474   6.701   0.879   2.161
 3837TIP3    H111475   6.790   0.847   2.174
 3837TIP3    H211476   6.687   0.874   2.066
 3838TIP3   OH211477   4.670   4.466   5.900
 3838TIP3    H111478   4.742   4.403   5.896
 3838TIP3    H211479   4.712   4.549   5.923
 3839TIP3   OH211480   5.317   3.437   4.687
 3839TIP3    H111481   5.390   3.413   4.744
 3839TIP3    H211482   5.334   3.529   4.664
 3840TIP3   OH211483   3.897   3.300   5.036
 3840TIP3    H111484   3.840   3.377   5.034
 3840TIP3    H211485   3.950   3.312   5.115
 3841TIP3   OH211486   3.212   1.918   4.110
 3841TIP3    H111487   3.260   2.000   4.103
 3841TIP3    H211488   3.245   1.865   4.038
 3842TIP3   OH211489   1.838   6.150   0.922
 3842TIP3    H111490   1.864   6.225   0.869
 3842TIP3    H211491   1.791   6.093   0.860
 3843TIP3   OH211492   6.426   2.261   3.213
 3843TIP3    H111493   6.503   2.266   3.156
 3843TIP3    H211494   6.461   2.231   3.297
 3844TIP3   OH211495   0.321   0.538   2.781
 3844TIP3    H111496   0.279   0.453   2.767
 3844TIP3    H211497   0.400   0.535   2.727
 3845TIP3   OH211498   0.751   1.491   4.060
 3845TIP3    H111499   0.742   1.586   4.054
 3845TIP3    H211500   0.741   1.460   3.970
 3846TIP3   OH211501   2.479   4.202   3.119
 3846TIP3    H111502   2.518   4.120   3.091
 3846TIP3    H211503   2.387   4.180   3.138
 3847TIP3   OH211504   1.656   6.399   0.858
 3847TIP3    H111505   1.744   6.407   0.821
 3847TIP3    H211506   1.597   6.421   0.786
 3848TIP3   OH211507   6.125   6.308   1.441
 3848TIP3    H111508   6.051   6.248   1.444
 3848TIP3    H211509   6.179   6.284   1.517
 3849TIP3   OH211510   5.434   2.340   3.811
 3849TIP3    H111511   5.373   2.268   3.830
 3849TIP3    H211512   5.446   2.383   3.896
 3850TIP3   OH211513   6.186   6.156   4.289
 3850TIP3    H111514   6.130   6.157   4.367
 3850TIP3    H211515   6.269   6.120   4.320
 3851TIP3   OH211516   2.632   1.379   5.688
 3851TIP3    H111517   2.713   1.390   5.739
 3851TIP3    H211518   2.622   1.284   5.679
 3852TIP3   OH211519   2.810   3.724   1.218
 3852TIP3    H111520   2.770   3.763   1.296
 3852TIP3    H211521   2.901   3.708   1.243
 3853TIP3   OH211522   1.102   4.496   2.495
 3853TIP3    H111523   1.096   4.590   2.476
 3853TIP3    H211524   1.195   4.477   2.497
 3854TIP3   OH211525   3.368   3.438   1.202
 3854TIP3    H111526   3.396   3.445   1.293
 3854TIP3    H211527   3.434   3.487   1.153
 3855TIP3   OH211528   2.265   1.602   4.619
 3855TIP3    H111529   2.298   1.517   4.646
 3855TIP3    H211530   2.170   1.597   4.634
 3856TIP3   OH211531   1.301   3.573   4.087
 3856TIP3    H111532   1.229   3.607   4.035
 3856TIP3    H211533   1.372   3.637   4.075
 3857TIP3   OH211534   4.961   2.418   0.774
 3857TIP3    H111535   5.037   2.369   0.743
 3857TIP3    H211536   4.887   2.379   0.727
 3858TIP3   OH211537   7.122   3.967   3.337
 3858TIP3    H111538   7.208   3.947   3.373
 3858TIP3    H211539   7.140   4.010   3.254
 3859TIP3   OH211540   1.879   3.681   3.201
 3859TIP3    H111541   1.849   3.769   3.177
 3859TIP3    H211542   1.958   3.696   3.254
 3860TIP3   OH211543   4.116   1.745   0.125
 3860TIP3    H111544   4.031   1.729   0.167
 3860TIP3    H211545   4.154   1.657   0.113
 3861TIP3   OH211546   1.823   6.646   3.440
 3861TIP3    H111547   1.915   6.643   3.467
 3861TIP3    H211548   1.825   6.687   3.353
 3862TIP3   OH211549   0.251   2.799   1.186
 3862TIP3    H111550   0.158   2.813   1.171
 3862TIP3    H211551   0.275   2.864   1.252
 3863TIP3   OH211552   0.920   6.735   3.533
 3863TIP3    H111553   0.866   6.814   3.541
 3863TIP3    H211554   0.872   6.668   3.582
 3864TIP3   OH211555   2.851   1.539   3.237
 3864TIP3    H111556   2.859   1.604   3.167
 3864TIP3    H211557   2.785   1.477   3.205
 3865TIP3   OH211558   1.560   1.720   4.635
 3865TIP3    H111559   1.475   1.694   4.602
 3865TIP3    H211560   1.555   1.816   4.640
 3866TIP3   OH211561   2.271   0.610   5.144
 3866TIP3    H111562   2.279   0.633   5.052
 3866TIP3    H211563   2.234   0.521   5.143
 3867TIP3   OH211564   0.201   4.396   2.262
 3867TIP3    H111565   0.214   4.442   2.344
 3867TIP3    H211566   0.125   4.340   2.277
 3868TIP3   OH211567   1.458   6.660   0.847
 3868TIP3    H111568   1.526   6.641   0.782
 3868TIP3    H211569   1.387   6.699   0.796
 3869TIP3   OH211570   3.214   3.507   3.407
 3869TIP3    H111571   3.224   3.426   3.357
 3869TIP3    H211572   3.302   3.542   3.416
 3870TIP3   OH211573   0.171   3.190   1.569
 3870TIP3    H111574   0.089   3.234   1.593
 3870TIP3    H211575   0.236   3.225   1.630
 3871TIP3   OH211576   1.832   3.940   5.779
 3871TIP3    H111577   1.806   4.013   5.722
 3871TIP3    H211578   1.897   3.978   5.838
 3872TIP3   OH211579   2.490   2.080   2.031
 3872TIP3    H111580   2.495   2.174   2.014
 3872TIP3    H211581   2.475   2.074   2.126
 3873TIP3   OH211582   3.948   3.189   4.731
 3873TIP3    H111583   4.015   3.257   4.741
 3873TIP3    H211584   3.959   3.159   4.641
 3874TIP3   OH211585   3.469   5.653   1.391
 3874TIP3    H111586   3.482   5.720   1.458
 3874TIP3    H211587   3.382   5.617   1.409
 3875TIP3   OH211588   0.543   2.250   0.745
 3875TIP3    H111589   0.554   2.313   0.816
 3875TIP3    H211590   0.532   2.304   0.667
 3876TIP3   OH211591   4.589   3.925   1.209
 3876TIP3    H111592   4.538   4.006   1.214
 3876TIP3    H211593   4.664   3.940   1.266
 3877TIP3   OH211594   0.000   3.861   0.703
 3877TIP3    H111595   0.004   3.841   0.797
 3877TIP3    H211596   0.087   3.892   0.681
 3878TIP3   OH211597   2.092   5.308   5.571
 3878TIP3    H111598   2.153   5.368   5.528
 3878TIP3    H211599   2.080   5.237   5.509
 3879TIP3   OH211600   5.697   4.654   1.047
 3879TIP3    H111601   5.682   4.653   0.953
 3879TIP3    H211602   5.729   4.566   1.068
 3880TIP3   OH211603   4.915   0.615   1.793
 3880TIP3    H111604   4.975   0.650   1.726
 3880TIP3    H211605   4.842   0.580   1.744
 3881TIP3   OH211606   5.076   0.468   0.935
 3881TIP3    H111607   4.985   0.440   0.930
 3881TIP3    H211608   5.083   0.511   1.021
 3882TIP3   OH211609   3.948   4.841   3.593
 3882TIP3    H111610   3.898   4.778   3.541
 3882TIP3    H211611   3.926   4.822   3.684
 3883TIP3   OH211612   1.282   0.526   4.557
 3883TIP3    H111613   1.292   0.507   4.464
 3883TIP3    H211614   1.275   0.439   4.598
 3884TIP3   OH211615   3.646   4.948   5.695
 3884TIP3    H111616   3.569   5.000   5.672
 3884TIP3    H211617   3.629   4.861   5.658
 3885TIP3   OH211618   2.884   5.316   4.723
 3885TIP3    H111619   2.809   5.256   4.730
 3885TIP3    H211620   2.909   5.334   4.814
 3886TIP3   OH211621   1.314   1.005   5.254
 3886TIP3    H111622   1.375   1.079   5.249
 3886TIP3    H211623   1.305   0.989   5.348
 3887TIP3   OH211624   4.317   5.725   2.010
 3887TIP3    H111625   4.328   5.644   1.961
 3887TIP3    H211626   4.306   5.697   2.101
 3888TIP3   OH211627   6.752   1.044   3.392
 3888TIP3    H111628   6.683   1.081   3.338
 3888TIP3    H211629   6.831   1.090   3.364
 3889TIP3   OH211630   4.805   2.948   5.581
 3889TIP3    H111631   4.746   2.931   5.508
 3889TIP3    H211632   4.778   3.033   5.614
 3890TIP3   OH211633   3.316   2.664   3.806
 3890TIP3    H111634   3.283   2.743   3.765
 3890TIP3    H211635   3.369   2.622   3.738
 3891TIP3   OH211636   3.253   6.383   3.962
 3891TIP3    H111637   3.166   6.420   3.977
 3891TIP3    H211638   3.253   6.360   3.869
 3892TIP3   OH211639   5.008   0.469   3.385
 3892TIP3    H111640   5.055   0.390   3.357
 3892TIP3    H211641   4.917   0.441   3.392
 3893TIP3   OH211642   3.963   2.002   3.854
 3893TIP3    H111643   4.004   2.025   3.938
 3893TIP3    H211644   4.027   2.030   3.788
 3894TIP3   OH211645   6.908   3.769   4.875
 3894TIP3    H111646   6.818   3.741   4.894
 3894TIP3    H211647   6.961   3.720   4.939
 3895TIP3   OH211648   6.245   4.557   3.899
 3895TIP3    H111649   6.277   4.579   3.986
 3895TIP3    H211650   6.316   4.585   3.840
 3896TIP3   OH211651   6.783   4.642   0.937
 3896TIP3    H111652   6.770   4.732   0.969
 3896TIP3    H211653   6.801   4.652   0.844
 3897TIP3   OH211654   3.111   2.883   0.452
 3897TIP3    H111655   3.105   2.798   0.494
 3897TIP3    H211656   3.073   2.869   0.365
 3898TIP3   OH211657   4.647   2.132   5.446
 3898TIP3    H111658   4.731   2.097   5.417
 3898TIP3    H211659   4.646   2.118   5.541
 3899TIP3   OH211660   5.414   6.301   0.555
 3899TIP3    H111661   5.456   6.385   0.572
 3899TIP3    H211662   5.325   6.324   0.528
 3900TIP3   OH211663   1.689   2.110   1.354
 3900TIP3    H111664   1.651   2.038   1.304
 3900TIP3    H211665   1.614   2.162   1.383
 3901TIP3   OH211666   1.295   4.136   2.240
 3901TIP3    H111667   1.206   4.105   2.251
 3901TIP3    H211668   1.313   4.128   2.146
 3902TIP3   OH211669   5.155   6.669   3.797
 3902TIP3    H111670   5.108   6.588   3.774
 3902TIP3    H211671   5.121   6.734   3.735
 3903TIP3   OH211672   5.568   3.942   1.858
 3903TIP3    H111673   5.637   4.000   1.893
 3903TIP3    H211674   5.544   3.887   1.932
 3904TIP3   OH211675   1.042   3.167   2.450
 3904TIP3    H111676   0.954   3.181   2.484
 3904TIP3    H211677   1.099   3.220   2.506
 3905TIP3   OH211678   3.745   4.035   0.009
 3905TIP3    H111679   3.757   4.061  -0.082
 3905TIP3    H211680   3.677   3.967   0.005
 3906TIP3   OH211681   2.629   1.224   5.367
 3906TIP3    H111682   2.702   1.181   5.412
 3906TIP3    H211683   2.670   1.293   5.315
 3907TIP3   OH211684   4.213   3.643   4.089
 3907TIP3    H111685   4.194   3.728   4.130
 3907TIP3    H211686   4.290   3.611   4.136
 3908TIP3   OH211687   5.640   5.566   1.413
 3908TIP3    H111688   5.591   5.502   1.363
 3908TIP3    H211689   5.599   5.650   1.392
 3909TIP3   OH211690   1.357   2.032   3.959
 3909TIP3    H111691   1.280   2.037   3.903
 3909TIP3    H211692   1.383   2.124   3.973
 3910TIP3   OH211693   5.299   2.973   4.279
 3910TIP3    H111694   5.347   2.982   4.361
 3910TIP3    H211695   5.333   2.893   4.239
 3911TIP3   OH211696   1.671   1.071   0.142
 3911TIP3    H111697   1.673   1.006   0.213
 3911TIP3    H211698   1.762   1.093   0.127
 3912TIP3   OH211699   4.367   4.871   0.851
 3912TIP3    H111700   4.455   4.848   0.821
 3912TIP3    H211701   4.313   4.867   0.772
 3913TIP3   OH211702   5.888   5.159   2.618
 3913TIP3    H111703   5.928   5.073   2.632
 3913TIP3    H211704   5.806   5.156   2.667
 3914TIP3   OH211705   0.915   2.112   0.222
 3914TIP3    H111706   0.926   2.078   0.311
 3914TIP3    H211707   0.912   2.034   0.167
 3915TIP3   OH211708   5.736   1.999   5.679
 3915TIP3    H111709   5.680   2.058   5.629
 3915TIP3    H211710   5.789   2.057   5.735
 3916TIP3   OH211711   3.922   2.579   4.071
 3916TIP3    H111712   3.877   2.573   3.987
 3916TIP3    H211713   3.852   2.584   4.136
 3917TIP3   OH211714   5.717   3.325   4.323
 3917TIP3    H111715   5.632   3.325   4.278
 3917TIP3    H211716   5.699   3.281   4.406
 3918TIP3   OH211717   5.326   4.105   5.671
 3918TIP3    H111718   5.298   4.160   5.744
 3918TIP3    H211719   5.421   4.112   5.671
 3919TIP3   OH211720   2.417   1.236   2.922
 3919TIP3    H111721   2.323   1.236   2.904
 3919TIP3    H211722   2.442   1.144   2.921
 3920TIP3   OH211723   1.497   0.056   4.670
 3920TIP3    H111724   1.512   0.142   4.712
 3920TIP3    H211725   1.583   0.014   4.671
 3921TIP3   OH211726   2.712   2.358   1.414
 3921TIP3    H111727   2.737   2.387   1.502
 3921TIP3    H211728   2.635   2.303   1.428
 3922TIP3   OH211729   0.206   2.364   1.880
 3922TIP3    H111730   0.188   2.408   1.963
 3922TIP3    H211731   0.159   2.416   1.814
 3923TIP3   OH211732   2.882   1.103   5.145
 3923TIP3    H111733   2.975   1.086   5.156
 3923TIP3    H211734   2.878   1.180   5.088
 3924TIP3   OH211735   5.997   0.962   0.344
 3924TIP3    H111736   6.027   0.879   0.380
 3924TIP3    H211737   5.907   0.971   0.377
 3925TIP3   OH211738   1.863   3.997   0.383
 3925TIP3    H111739   1.947   4.003   0.336
 3925TIP3    H211740   1.846   4.086   0.413
 3926TIP3   OH211741   5.262   5.041   1.205
 3926TIP3    H111742   5.305   5.074   1.127
 3926TIP3    H211743   5.246   5.119   1.259
 3927TIP3   OH211744   3.274   4.185   3.117
 3927TIP3    H111745   3.304   4.276   3.123
 3927TIP3    H211746   3.351   4.133   3.142
 3928TIP3   OH211747   3.942   3.254   2.004
 3928TIP3    H111748   3.884   3.218   2.072
 3928TIP3    H211749   4.030   3.239   2.038
 3929TIP3   OH211750   3.722   2.259   2.217
 3929TIP3    H111751   3.717   2.355   2.212
 3929TIP3    H211752   3.761   2.241   2.302
 3930TIP3   OH211753   6.839   3.242   3.702
 3930TIP3    H111754   6.909   3.181   3.677
 3930TIP3    H211755   6.775   3.187   3.748
 3931TIP3   OH211756   5.743   1.072   1.544
 3931TIP3    H111757   5.700   1.120   1.616
 3931TIP3    H211758   5.690   1.093   1.467
 3932TIP3   OH211759   2.749   1.743   1.453
 3932TIP3    H111760   2.671   1.702   1.491
 3932TIP3    H211761   2.725   1.835   1.442
 3933TIP3   OH211762   5.469   2.484   1.640
 3933TIP3    H111763   5.381   2.505   1.671
 3933TIP3    H211764   5.517   2.567   1.647
 3934TIP3   OH211765   3.360   1.595   1.539
 3934TIP3    H111766   3.323   1.512   1.509
 3934TIP3    H211767   3.382   1.580   1.631
 3935TIP3   OH211768   1.081   1.149   5.213
 3935TIP3    H111769   1.081   1.149   5.117
 3935TIP3    H211770   1.164   1.108   5.237
 3936TIP3   OH211771   2.192   2.301   4.650
 3936TIP3    H111772   2.158   2.229   4.597
 3936TIP3    H211773   2.132   2.305   4.725
 3937TIP3   OH211774   3.489   4.950   0.589
 3937TIP3    H111775   3.542   4.969   0.666
 3937TIP3    H211776   3.441   5.031   0.572
 3938TIP3   OH211777   1.857   3.656   5.479
 3938TIP3    H111778   1.903   3.620   5.403
 3938TIP3    H211779   1.926   3.694   5.533
 3939TIP3   OH211780   6.301   3.645  -0.034
 3939TIP3    H111781   6.382   3.687  -0.005
 3939TIP3    H211782   6.289   3.573   0.029
 3940TIP3   OH211783   0.637   4.999   3.032
 3940TIP3    H111784   0.684   4.930   3.079
 3940TIP3    H211785   0.690   5.077   3.044
 3941TIP3   OH211786   3.263   1.066   5.386
 3941TIP3    H111787   3.304   1.052   5.471
 3941TIP3    H211788   3.201   1.138   5.401
 3942TIP3   OH211789   6.658   6.247   3.491
 3942TIP3    H111790   6.603   6.323   3.471
 3942TIP3    H211791   6.716   6.277   3.561
 3943TIP3   OH211792   5.349   1.062   1.659
 3943TIP3    H111793   5.328   1.155   1.650
 3943TIP3    H211794   5.271   1.023   1.696
 3944TIP3   OH211795   2.778   3.897   4.555
 3944TIP3    H111796   2.837   3.952   4.502
 3944TIP3    H211797   2.735   3.959   4.614
 3945TIP3   OH211798   6.091   2.966   4.238
 3945TIP3    H111799   6.001   2.944   4.217
 3945TIP3    H211800   6.083   3.033   4.307
 3946TIP3   OH211801   1.265   6.046   0.982
 3946TIP3    H111802   1.326   5.978   0.955
 3946TIP3    H211803   1.315   6.127   0.977
 3947TIP3   OH211804   2.021   0.291   2.734
 3947TIP3    H111805   1.966   0.232   2.786
 3947TIP3    H211806   2.096   0.238   2.709
 3948TIP3   OH211807   5.813   5.534   2.852
 3948TIP3    H111808   5.843   5.475   2.921
 3948TIP3    H211809   5.832   5.621   2.885
 3949TIP3   OH211810   6.666   5.191   1.440
 3949TIP3    H111811   6.722   5.268   1.435
 3949TIP3    H211812   6.696   5.144   1.518
 3950TIP3   OH211813   6.086   3.750   3.923
 3950TIP3    H111814   6.087   3.792   3.837
 3950TIP3    H211815   6.027   3.674   3.912
 3951TIP3   OH211816   0.564   5.278   1.887
 3951TIP3    H111817   0.511   5.201   1.908
 3951TIP3    H211818   0.595   5.263   1.798
 3952TIP3   OH211819   2.075   6.130   3.864
 3952TIP3    H111820   2.059   6.122   3.958
 3952TIP3    H211821   2.080   6.039   3.833
 3953TIP3   OH211822   5.767   4.272   0.386
 3953TIP3    H111823   5.855   4.236   0.377
 3953TIP3    H211824   5.754   4.279   0.481
 3954TIP3   OH211825   2.850   5.699   1.696
 3954TIP3    H111826   2.776   5.732   1.644
 3954TIP3    H211827   2.911   5.772   1.700
 3955TIP3   OH211828   3.179   6.597   5.102
 3955TIP3    H111829   3.180   6.521   5.161
 3955TIP3    H211830   3.105   6.581   5.044
 3956TIP3   OH211831   4.875   0.773   0.472
 3956TIP3    H111832   4.953   0.760   0.418
 3956TIP3    H211833   4.824   0.839   0.425
 3957TIP3   OH211834   4.695   2.091   5.078
 3957TIP3    H111835   4.782   2.066   5.109
 3957TIP3    H211836   4.663   2.153   5.144
 3958TIP3   OH211837   6.119   2.974   3.936
 3958TIP3    H111838   6.177   2.937   4.003
 3958TIP3    H211839   6.132   3.069   3.943
 3959TIP3   OH211840   4.265   2.538   5.785
 3959TIP3    H111841   4.311   2.617   5.814
 3959TIP3    H211842   4.274   2.539   5.690
 3960TIP3   OH211843   2.721   3.990   5.543
 3960TIP3    H111844   2.628   3.999   5.523
 3960TIP3    H211845   2.765   4.009   5.460
 3961TIP3   OH211846   6.562   4.901   2.840
 3961TIP3    H111847   6.624   4.941   2.901
 3961TIP3    H211848   6.614   4.882   2.762
 3962TIP3   OH211849   0.631   1.533   0.601
 3962TIP3    H111850   0.564   1.483   0.554
 3962TIP3    H211851   0.583   1.603   0.645
 3963TIP3   OH211852   6.765   1.735   1.107
 3963TIP3    H111853   6.732   1.825   1.105
 3963TIP3    H211854   6.690   1.681   1.083
 3964TIP3   OH211855   5.604   6.671   3.748
 3964TIP3    H111856   5.543   6.729   3.794
 3964TIP3    H211857   5.663   6.729   3.701
 3965TIP3   OH211858   1.754   4.883   3.490
 3965TIP3    H111859   1.799   4.807   3.526
 3965TIP3    H211860   1.663   4.872   3.519
 3966TIP3   OH211861   3.726   0.852   4.550
 3966TIP3    H111862   3.772   0.818   4.627
 3966TIP3    H211863   3.634   0.853   4.575
 3967TIP3   OH211864   4.080   3.849   2.212
 3967TIP3    H111865   4.105   3.941   2.205
 3967TIP3    H211866   4.162   3.801   2.219
 3968TIP3   OH211867   3.546   5.593   5.468
 3968TIP3    H111868   3.549   5.662   5.534
 3968TIP3    H211869   3.461   5.604   5.425
 3969TIP3   OH211870   1.134   1.512   4.861
 3969TIP3    H111871   1.116   1.595   4.905
 3969TIP3    H211872   1.220   1.485   4.895
 3970TIP3   OH211873   7.191   2.625   5.004
 3970TIP3    H111874   7.159   2.697   4.950
 3970TIP3    H211875   7.167   2.648   5.093
 3971TIP3   OH211876   5.859   4.842   3.146
 3971TIP3    H111877   5.805   4.792   3.208
 3971TIP3    H211878   5.915   4.777   3.104
 3972TIP3   OH211879   1.258   6.771   3.857
 3972TIP3    H111880   1.219   6.762   3.770
 3972TIP3    H211881   1.329   6.706   3.859
 3973TIP3   OH211882   0.109   0.053   1.509
 3973TIP3    H111883   0.160   0.028   1.586
 3973TIP3    H211884   0.019   0.055   1.540
 3974TIP3   OH211885   4.055   2.045   2.810
 3974TIP3    H111886   4.096   1.975   2.862
 3974TIP3    H211887   4.049   2.119   2.869
 3975TIP3   OH211888   0.305   1.728   2.964
 3975TIP3    H111889   0.224   1.732   2.914
 3975TIP3    H211890   0.341   1.641   2.946
 3976TIP3   OH211891   5.731   2.694   4.562
 3976TIP3    H111892   5.693   2.781   4.552
 3976TIP3    H211893   5.731   2.658   4.473
 3977TIP3   OH211894   2.364   5.924   4.378
 3977TIP3    H111895   2.453   5.935   4.344
 3977TIP3    H211896   2.307   5.954   4.307
 3978TIP3   OH211897   7.008   1.918   2.659
 3978TIP3    H111898   6.921   1.921   2.698
 3978TIP3    H211899   7.028   1.825   2.649
 3979TIP3   OH211900   5.184   1.704   2.247
 3979TIP3    H111901   5.115   1.688   2.182
 3979TIP3    H211902   5.183   1.626   2.303
 3980TIP3   OH211903   5.013   2.925   4.298
 3980TIP3    H111904   5.089   2.880   4.262
 3980TIP3    H211905   4.944   2.860   4.297
 3981TIP3   OH211906   0.508   1.157   5.232
 3981TIP3    H111907   0.585   1.214   5.231
 3981TIP3    H211908   0.437   1.210   5.196
 3982TIP3   OH211909   1.702   0.076   2.618
 3982TIP3    H111910   1.744   0.065   2.533
 3982TIP3    H211911   1.770   0.113   2.674
 3983TIP3   OH211912   0.058   3.439   3.079
 3983TIP3    H111913   0.036   3.366   3.136
 3983TIP3    H211914   0.029   3.412   2.992
 3984TIP3   OH211915   6.270   5.747   0.573
 3984TIP3    H111916   6.216   5.787   0.641
 3984TIP3    H211917   6.211   5.734   0.499
 3985TIP3   OH211918   5.561   4.182   5.281
 3985TIP3    H111919   5.569   4.089   5.264
 3985TIP3    H211920   5.621   4.198   5.354
 3986TIP3   OH211921   2.993   0.002   3.939
 3986TIP3    H111922   2.949  -0.008   3.854
 3986TIP3    H211923   3.013   0.095   3.946
 3987TIP3   OH211924   6.737   2.652   3.947
 3987TIP3    H111925   6.696   2.722   3.998
 3987TIP3    H211926   6.820   2.635   3.992
 3988TIP3   OH211927   2.486   5.645   3.939
 3988TIP3    H111928   2.544   5.720   3.929
 3988TIP3    H211929   2.541   5.576   3.974
 3989TIP3   OH211930   3.167   3.100   1.151
 3989TIP3    H111931   3.242   3.055   1.189
 3989TIP3    H211932   3.091   3.062   1.195
 3990TIP3   OH211933   0.564   1.447   3.506
 3990TIP3    H111934   0.530   1.493   3.429
 3990TIP3    H211935   0.500   1.379   3.523
 3991TIP3   OH211936   6.173   4.534   0.020
 3991TIP3    H111937   6.114   4.488   0.080
 3991TIP3    H211938   6.229   4.586   0.077
 3992TIP3   OH211939   2.823   6.302   3.820
 3992TIP3    H111940   2.876   6.363   3.770
 3992TIP3    H211941   2.887   6.242   3.860
 3993TIP3   OH211942   1.322   1.163   3.819
 3993TIP3    H111943   1.327   1.198   3.730
 3993TIP3    H211944   1.360   1.231   3.874
 3994TIP3   OH211945   4.122   3.966   1.097
 3994TIP3    H111946   4.153   4.032   1.159
 3994TIP3    H211947   4.028   3.958   1.115
 3995TIP3   OH211948   6.979   1.274   2.445
 3995TIP3    H111949   7.027   1.297   2.366
 3995TIP3    H211950   6.922   1.202   2.418
 3996TIP3   OH211951   0.678   1.593   2.232
 3996TIP3    H111952   0.760   1.624   2.193
 3996TIP3    H211953   0.703   1.512   2.276
 3997TIP3   OH211954   2.132   4.096   4.694
 3997TIP3    H111955   2.117   4.023   4.753
 3997TIP3    H211956   2.213   4.073   4.648
 3998TIP3   OH211957   1.469   6.602   3.784
 3998TIP3    H111958   1.564   6.591   3.779
 3998TIP3    H211959   1.435   6.515   3.805
 3999TIP3   OH211960   6.981   2.661   3.554
 3999TIP3    H111961   6.956   2.745   3.592
 3999TIP3    H211962   6.941   2.596   3.612
 4000TIP3   OH211963   4.828   0.955   1.544
 4000TIP3    H111964   4.865   0.870   1.521
 4000TIP3    H211965   4.869   1.016   1.483
 4001TIP3   OH211966   1.629   0.378   2.071
 4001TIP3    H111967   1.611   0.312   2.005
 4001TIP3    H211968   1.700   0.430   2.035
 4002TIP3   OH211969   5.450   6.617   0.377
 4002TIP3    H111970   5.529   6.671   0.374
 4002TIP3    H211971   5.392   6.656   0.311
 4003TIP3   OH211972   5.194   3.767   3.726
 4003TIP3    H111973   5.227   3.677   3.719
 4003TIP3    H211974   5.157   3.773   3.814
 4004TIP3   OH211975   6.162   3.231   4.026
 4004TIP3    H111976   6.074   3.263   4.047
 4004TIP3    H211977   6.209   3.309   3.997
 4005TIP3   OH211978   1.518   1.638   0.339
 4005TIP3    H111979   1.488   1.717   0.384
 4005TIP3    H211980   1.469   1.637   0.257
 4006TIP3   OH211981   4.131   3.274   5.740
 4006TIP3    H111982   4.054   3.268   5.683
 4006TIP3    H211983   4.102   3.325   5.815
 4007TIP3   OH211984   4.263   2.572   0.668
 4007TIP3    H111985   4.233   2.606   0.752
 4007TIP3    H211986   4.347   2.616   0.653
 4008TIP3   OH211987   0.734   4.141   5.363
 4008TIP3    H111988   0.685   4.143   5.445
 4008TIP3    H211989   0.736   4.049   5.338
 4009TIP3   OH211990   4.176   5.623   4.609
 4009TIP3    H111991   4.188   5.685   4.681
 4009TIP3    H211992   4.248   5.561   4.618
 4010TIP3   OH211993   4.246   3.283   3.838
 4010TIP3    H111994   4.180   3.350   3.853
 4010TIP3    H211995   4.225   3.247   3.751
 4011TIP3   OH211996   0.318   6.218   3.830
 4011TIP3    H111997   0.326   6.125   3.812
 4011TIP3    H211998   0.294   6.257   3.745
 4012TIP3   OH211999   6.122   3.613   4.378
 4012TIP3    H112000   6.029   3.603   4.360
 4012TIP3    H212001   6.161   3.637   4.294
 4013TIP3   OH212002   4.426   5.501   3.985
 4013TIP3    H112003   4.522   5.498   3.986
 4013TIP3    H212004   4.404   5.594   3.979
 4014TIP3   OH212005   6.525   6.440   4.870
 4014TIP3    H112006   6.604   6.414   4.918
 4014TIP3    H212007   6.454   6.396   4.916
 4015TIP3   OH212008   3.809   5.559   0.336
 4015TIP3    H112009   3.861   5.531   0.412
 4015TIP3    H212010   3.733   5.501   0.335
 4016TIP3   OH212011   5.772   6.019   2.765
 4016TIP3    H112012   5.749   6.045   2.675
 4016TIP3    H212013   5.696   6.045   2.817
 4017TIP3   OH212014   2.403   3.062   3.447
 4017TIP3    H112015   2.393   3.022   3.361
 4017TIP3    H212016   2.413   2.988   3.507
 4018TIP3   OH212017   2.098   0.608   1.612
 4018TIP3    H112018   2.158   0.633   1.542
 4018TIP3    H212019   2.088   0.514   1.603
 4019TIP3   OH212020   6.851   5.893   3.971
 4019TIP3    H112021   6.883   5.884   3.881
 4019TIP3    H212022   6.931   5.891   4.024
 4020TIP3   OH212023   0.811   4.751   5.324
 4020TIP3    H112024   0.813   4.666   5.280
 4020TIP3    H212025   0.763   4.808   5.264
 4021TIP3   OH212026   1.095   1.787   3.577
 4021TIP3    H112027   1.017   1.746   3.615
 4021TIP3    H212028   1.067   1.814   3.489
 4022TIP3   OH212029   0.942   6.135   0.646
 4022TIP3    H112030   0.926   6.198   0.576
 4022TIP3    H212031   1.033   6.149   0.672
 4023TIP3   OH212032   6.730   1.393   3.943
 4023TIP3    H112033   6.781   1.451   4.000
 4023TIP3    H212034   6.644   1.388   3.984
 4024TIP3   OH212035   6.929   0.360   3.871
 4024TIP3    H112036   6.906   0.452   3.862
 4024TIP3    H212037   6.896   0.319   3.792
 4025TIP3   OH212038   4.421   4.886   0.288
 4025TIP3    H112039   4.466   4.916   0.367
 4025TIP3    H212040   4.385   4.801   0.311
 4026TIP3   OH212041   6.559   0.708   0.953
 4026TIP3    H112042   6.568   0.767   1.028
 4026TIP3    H212043   6.489   0.748   0.901
 4027TIP3   OH212044   6.795   3.300   1.395
 4027TIP3    H112045   6.857   3.243   1.350
 4027TIP3    H212046   6.735   3.329   1.326
 4028TIP3   OH212047   4.653   2.000   2.164
 4028TIP3    H112048   4.609   2.037   2.088
 4028TIP3    H212049   4.584   1.956   2.213
 4029TIP3   OH212050   4.584   1.369   4.725
 4029TIP3    H112051   4.512   1.340   4.781
 4029TIP3    H212052   4.563   1.335   4.638
 4030TIP3   OH212053   1.451   2.193   0.349
 4030TIP3    H112054   1.487   2.138   0.280
 4030TIP3    H212055   1.514   2.187   0.421
 4031TIP3   OH212056   6.759   1.342   3.145
 4031TIP3    H112057   6.680   1.383   3.109
 4031TIP3    H212058   6.734   1.250   3.157
 4032TIP3   OH212059   1.528   3.474   0.109
 4032TIP3    H112060   1.554   3.450   0.020
 4032TIP3    H212061   1.523   3.570   0.107
 4033TIP3   OH212062   4.186   6.745   0.021
 4033TIP3    H112063   4.138   6.814  -0.025
 4033TIP3    H212064   4.256   6.792   0.066
 4034TIP3   OH212065   3.523   3.463   2.910
 4034TIP3    H112066   3.463   3.390   2.897
 4034TIP3    H212067   3.467   3.536   2.936
 4035TIP3   OH212068   3.223   3.748   3.759
 4035TIP3    H112069   3.283   3.739   3.832
 4035TIP3    H212070   3.181   3.833   3.773
 4036TIP3   OH212071   7.017   6.298   3.447
 4036TIP3    H112072   7.078   6.271   3.516
 4036TIP3    H212073   7.070   6.353   3.389
 4037TIP3   OH212074   7.083   6.392   0.838
 4037TIP3    H112075   7.008   6.419   0.786
 4037TIP3    H212076   7.063   6.302   0.865
 4038TIP3   OH212077   2.933   2.702   3.419
 4038TIP3    H112078   2.931   2.679   3.511
 4038TIP3    H212079   3.026   2.712   3.398
 4039TIP3   OH212080   2.486   5.901   1.199
 4039TIP3    H112081   2.521   5.816   1.174
 4039TIP3    H212082   2.397   5.903   1.164
 4040TIP3   OH212083   0.644   4.094   2.240
 4040TIP3    H112084   0.604   4.180   2.226
 4040TIP3    H212085   0.581   4.032   2.203
 4041TIP3   OH212086   6.358   1.111   0.230
 4041TIP3    H112087   6.338   1.169   0.156
 4041TIP3    H212088   6.292   1.133   0.296
 4042TIP3   OH212089   3.195   5.483   1.108
 4042TIP3    H112090   3.112   5.436   1.114
 4042TIP3    H212091   3.258   5.416   1.080
 4043TIP3   OH212092   1.425   2.256   3.459
 4043TIP3    H112093   1.418   2.319   3.388
 4043TIP3    H212094   1.516   2.265   3.489
 4044TIP3   OH212095   5.989   5.423   4.069
 4044TIP3    H112096   6.024   5.391   3.986
 4044TIP3    H212097   6.023   5.362   4.135
 4045TIP3   OH212098   0.110   3.516   5.367
 4045TIP3    H112099   0.087   3.425   5.385
 4045TIP3    H212100   0.206   3.517   5.369
 4046TIP3   OH212101   1.062   2.985   4.944
 4046TIP3    H112102   0.997   3.036   4.895
 4046TIP3    H212103   1.146   3.013   4.907
 4047TIP3   OH212104   2.837   6.108   5.305
 4047TIP3    H112105   2.849   6.018   5.276
 4047TIP3    H212106   2.746   6.129   5.284
 4048TIP3   OH212107   2.608   4.327   3.556
 4048TIP3    H112108   2.576   4.339   3.467
 4048TIP3    H212109   2.630   4.415   3.586
 4049TIP3   OH212110   3.078  -0.019   0.135
 4049TIP3    H112111   3.038   0.030   0.064
 4049TIP3    H212112   3.140   0.042   0.175
 4050TIP3   OH212113   6.488   3.364   3.161
 4050TIP3    H112114   6.442   3.373   3.245
 4050TIP3    H212115   6.565   3.420   3.171
 4051TIP3   OH212116   6.506   5.555   3.812
 4051TIP3    H112117   6.557   5.553   3.893
 4051TIP3    H212118   6.558   5.506   3.749
 4052TIP3   OH212119   7.063   4.084   0.567
 4052TIP3    H112120   7.158   4.084   0.563
 4052TIP3    H212121   7.037   3.994   0.545
 4053TIP3   OH212122   6.877   1.243   5.278
 4053TIP3    H112123   6.926   1.240   5.196
 4053TIP3    H212124   6.859   1.151   5.299
 4054TIP3   OH212125   1.744   1.906   2.083
 4054TIP3    H112126   1.831   1.868   2.077
 4054TIP3    H212127   1.757   1.999   2.069
 4055TIP3   OH212128   1.539   4.748   4.920
 4055TIP3    H112129   1.509   4.699   4.996
 4055TIP3    H212130   1.633   4.757   4.931
 4056TIP3   OH212131   0.527   5.618   5.627
 4056TIP3    H112132   0.582   5.655   5.696
 4056TIP3    H212133   0.503   5.692   5.572
 4057TIP3   OH212134   2.789   5.390   2.447
 4057TIP3    H112135   2.809   5.478   2.479
 4057TIP3    H212136   2.864   5.367   2.392
 4058TIP3   OH212137   3.866   5.191   5.618
 4058TIP3    H112138   3.788   5.244   5.602
 4058TIP3    H212139   3.838   5.124   5.680
 4059TIP3   OH212140   4.301   4.496   4.577
 4059TIP3    H112141   4.277   4.445   4.500
 4059TIP3    H212142   4.381   4.455   4.610
 4060TIP3   OH212143   6.878   0.582   2.425
 4060TIP3    H112144   6.928   0.555   2.502
 4060TIP3    H212145   6.864   0.676   2.438
 4061TIP3   OH212146   0.185   1.121   4.610
 4061TIP3    H112147   0.208   1.211   4.584
 4061TIP3    H212148   0.181   1.073   4.528
 4062TIP3   OH212149   4.024   4.409   3.219
 4062TIP3    H112150   4.116   4.414   3.243
 4062TIP3    H212151   3.981   4.478   3.270
 4063TIP3   OH212152   7.037   2.514   1.468
 4063TIP3    H112153   7.040   2.441   1.530
 4063TIP3    H212154   6.986   2.480   1.394
 4064TIP3   OH212155   2.854   0.904   1.411
 4064TIP3    H112156   2.911   0.876   1.483
 4064TIP3    H212157   2.899   0.980   1.373
 4065TIP3   OH212158   4.367   1.517   0.321
 4065TIP3    H112159   4.449   1.468   0.316
 4065TIP3    H212160   4.371   1.579   0.248
 4066TIP3   OH212161   5.915   3.558   3.954
 4066TIP3    H112162   5.838   3.523   3.909
 4066TIP3    H212163   5.943   3.488   4.013
 4067TIP3   OH212164   0.412   2.062   1.238
 4067TIP3    H112165   0.476   2.128   1.209
 4067TIP3    H212166   0.327   2.098   1.212
 4068TIP3   OH212167   6.723   1.911   0.138
 4068TIP3    H112168   6.642   1.884   0.183
 4068TIP3    H212169   6.793   1.884   0.198
 4069TIP3   OH212170   2.118   4.292   5.212
 4069TIP3    H112171   2.164   4.250   5.140
 4069TIP3    H212172   2.165   4.374   5.226
 4070TIP3   OH212173   2.123   2.376   1.308
 4070TIP3    H112174   2.143   2.458   1.263
 4070TIP3    H212175   2.173   2.310   1.259
 4071TIP3   OH212176   1.114   2.586   1.129
 4071TIP3    H112177   1.128   2.677   1.106
 4071TIP3    H212178   1.035   2.561   1.081
 4072TIP3   OH212179   6.338   2.449   2.044
 4072TIP3    H112180   6.292   2.499   2.113
 4072TIP3    H212181   6.289   2.467   1.965
 4073TIP3   OH212182   5.098   6.535   2.361
 4073TIP3    H112183   5.144   6.618   2.348
 4073TIP3    H212184   5.108   6.517   2.454
 4074TIP3   OH212185   1.967   1.602   2.992
 4074TIP3    H112186   2.013   1.661   3.051
 4074TIP3    H212187   2.036   1.564   2.937
 4075TIP3   OH212188   6.831   4.924   4.181
 4075TIP3    H112189   6.910   4.968   4.150
 4075TIP3    H212190   6.844   4.832   4.157
 4076TIP3   OH212191   1.770   0.537   5.287
 4076TIP3    H112192   1.810   0.470   5.343
 4076TIP3    H212193   1.841   0.567   5.230
 4077TIP3   OH212194   3.891   3.932   0.496
 4077TIP3    H112195   3.947   4.001   0.530
 4077TIP3    H212196   3.803   3.968   0.500
 4078TIP3   OH212197   1.398   5.951   4.094
 4078TIP3    H112198   1.424   6.027   4.145
 4078TIP3    H212199   1.381   5.883   4.159
 4079TIP3   OH212200   3.265   1.042   0.333
 4079TIP3    H112201   3.351   1.040   0.374
 4079TIP3    H212202   3.239   1.134   0.336
 4080TIP3   OH212203   0.928   1.835   0.185
 4080TIP3    H112204   1.014   1.825   0.227
 4080TIP3    H212205   0.886   1.749   0.196
 4081TIP3   OH212206   5.727   6.634   3.287
 4081TIP3    H112207   5.754   6.699   3.221
 4081TIP3    H212208   5.808   6.616   3.336
 4082TIP3   OH212209   0.619   4.823   4.119
 4082TIP3    H112210   0.712   4.809   4.100
 4082TIP3    H212211   0.610   4.917   4.128
 4083TIP3   OH212212   4.996   5.027   0.841
 4083TIP3    H112213   5.087   5.007   0.818
 4083TIP3    H212214   5.000   5.111   0.886
 4084TIP3   OH212215   2.516   0.168   5.115
 4084TIP3    H112216   2.524   0.262   5.131
 4084TIP3    H212217   2.451   0.138   5.178
 4085TIP3   OH212218   6.316   4.642   0.253
 4085TIP3    H112219   6.384   4.585   0.290
 4085TIP3    H212220   6.365   4.710   0.207
 4086TIP3   OH212221   0.358   2.837   5.405
 4086TIP3    H112222   0.321   2.881   5.481
 4086TIP3    H212223   0.438   2.795   5.437
 4087TIP3   OH212224   5.245   1.501   4.267
 4087TIP3    H112225   5.313   1.434   4.264
 4087TIP3    H212226   5.190   1.483   4.190
 4088TIP3   OH212227   4.751   5.948   3.398
 4088TIP3    H112228   4.692   5.941   3.323
 4088TIP3    H212229   4.712   5.890   3.465
 4089TIP3   OH212230   0.466   3.789   1.824
 4089TIP3    H112231   0.523   3.738   1.766
 4089TIP3    H212232   0.446   3.868   1.774
 4090TIP3   OH212233   3.324   5.471   0.574
 4090TIP3    H112234   3.280   5.527   0.511
 4090TIP3    H212235   3.289   5.497   0.659
 4091TIP3   OH212236   3.331   0.217   5.308
 4091TIP3    H112237   3.369   0.134   5.338
 4091TIP3    H212238   3.286   0.251   5.386
 4092TIP3   OH212239   2.276   5.585   3.792
 4092TIP3    H112240   2.359   5.604   3.836
 4092TIP3    H212241   2.296   5.591   3.699
 4093TIP3   OH212242   1.071   4.690   3.350
 4093TIP3    H112243   1.034   4.652   3.270
 4093TIP3    H212244   1.126   4.762   3.319
 4094TIP3   OH212245   5.524   6.401   1.627
 4094TIP3    H112246   5.593   6.338   1.646
 4094TIP3    H212247   5.533   6.419   1.533
 4095TIP3   OH212248   6.846   2.755   4.920
 4095TIP3    H112249   6.927   2.758   4.870
 4095TIP3    H212250   6.803   2.839   4.904
 4096TIP3   OH212251   4.674   5.422   0.564
 4096TIP3    H112252   4.740   5.423   0.495
 4096TIP3    H212253   4.680   5.508   0.605
 4097TIP3   OH212254   1.162   1.726   0.958
 4097TIP3    H112255   1.094   1.743   1.023
 4097TIP3    H212256   1.221   1.801   0.966
 4098TIP3   OH212257   5.986   6.502   3.408
 4098TIP3    H112258   6.080   6.486   3.412
 4098TIP3    H212259   5.947   6.415   3.416
 4099TIP3   OH212260   3.955   0.698   5.772
 4099TIP3    H112261   3.942   0.725   5.863
 4099TIP3    H212262   3.869   0.710   5.731
 4100TIP3   OH212263   5.525   6.383   4.731
 4100TIP3    H112264   5.524   6.466   4.683
 4100TIP3    H212265   5.586   6.397   4.803
 4101TIP3   OH212266   6.739   5.756   1.515
 4101TIP3    H112267   6.811   5.792   1.567
 4101TIP3    H212268   6.757   5.786   1.426
 4102TIP3   OH212269   4.698   6.020   0.202
 4102TIP3    H112270   4.728   5.940   0.244
 4102TIP3    H212271   4.608   6.031   0.233
 4103TIP3   OH212272   3.243   3.201   5.564
 4103TIP3    H112273   3.162   3.185   5.612
 4103TIP3    H212274   3.215   3.232   5.478
 4104TIP3   OH212275   6.848   1.819   3.574
 4104TIP3    H112276   6.906   1.863   3.635
 4104TIP3    H212277   6.905   1.767   3.518
 4105TIP3   OH212278   0.767   0.944   2.693
 4105TIP3    H112279   0.801   0.949   2.783
 4105TIP3    H212280   0.829   0.888   2.647
 4106TIP3   OH212281   2.179   4.081   5.033
 4106TIP3    H112282   2.200   4.013   5.098
 4106TIP3    H212283   2.264   4.110   5.000
 4107TIP3   OH212284   6.468   5.539   4.830
 4107TIP3    H112285   6.437   5.514   4.917
 4107TIP3    H212286   6.562   5.550   4.840
 4108TIP3   OH212287   6.969   2.990   0.748
 4108TIP3    H112288   6.906   3.025   0.685
 4108TIP3    H212289   7.019   2.925   0.698
 4109TIP3   OH212290   6.939   5.860   5.261
 4109TIP3    H112291   6.955   5.942   5.214
 4109TIP3    H212292   6.951   5.881   5.353
 4110TIP3   OH212293   3.044   1.540   0.328
 4110TIP3    H112294   2.962   1.515   0.370
 4110TIP3    H212295   3.021   1.615   0.273
 4111TIP3   OH212296   1.760   2.134   0.112
 4111TIP3    H112297   1.742   2.086   0.031
 4111TIP3    H212298   1.820   2.204   0.085
 4112TIP3   OH212299   2.334   0.670   1.180
 4112TIP3    H112300   2.297   0.751   1.144
 4112TIP3    H212301   2.299   0.601   1.125
 4113TIP3   OH212302   6.312   2.167   3.692
 4113TIP3    H112303   6.302   2.159   3.787
 4113TIP3    H212304   6.249   2.234   3.667
 4114TIP3   OH212305   3.457   2.387   4.359
 4114TIP3    H112306   3.542   2.373   4.316
 4114TIP3    H212307   3.402   2.427   4.292
 4115TIP3   OH212308   7.059   4.270   2.005
 4115TIP3    H112309   7.077   4.358   2.039
 4115TIP3    H212310   7.058   4.214   2.083
 4116TIP3   OH212311   2.178   6.807   0.242
 4116TIP3    H112312   2.205   6.740   0.179
 4116TIP3    H212313   2.168   6.758   0.324
 4117TIP3   OH212314   5.805   2.936   4.997
 4117TIP3    H112315   5.858   2.857   4.986
 4117TIP3    H212316   5.721   2.903   5.030
 4118TIP3   OH212317   0.727   0.367   4.859
 4118TIP3    H112318   0.670   0.433   4.898
 4118TIP3    H212319   0.693   0.283   4.892
 4119TIP3   OH212320   1.334   3.086   3.588
 4119TIP3    H112321   1.423   3.066   3.618
 4119TIP3    H212322   1.294   3.132   3.662
 4120TIP3   OH212323   5.306   5.366   2.978
 4120TIP3    H112324   5.352   5.432   3.031
 4120TIP3    H212325   5.334   5.384   2.888
 4121TIP3   OH212326   3.739   4.676   4.707
 4121TIP3    H112327   3.820   4.626   4.713
 4121TIP3    H212328   3.755   4.740   4.638
 4122TIP3   OH212329   0.185   5.785   3.474
 4122TIP3    H112330   0.269   5.810   3.437
 4122TIP3    H212331   0.205   5.711   3.532
 4123TIP3   OH212332   0.671   2.889   0.828
 4123TIP3    H112333   0.757   2.889   0.871
 4123TIP3    H212334   0.629   2.809   0.859
 4124TIP3   OH212335   3.516   2.585   1.297
 4124TIP3    H112336   3.516   2.680   1.284
 4124TIP3    H212337   3.516   2.574   1.392
 4125TIP3   OH212338   5.736   1.888   1.803
 4125TIP3    H112339   5.776   1.937   1.875
 4125TIP3    H212340   5.642   1.900   1.814
 4126TIP3   OH212341   6.364   6.064   0.227
 4126TIP3    H112342   6.457   6.043   0.237
 4126TIP3    H212343   6.344   6.042   0.136
 4127TIP3   OH212344   3.521   1.248   3.261
 4127TIP3    H112345   3.461   1.210   3.325
 4127TIP3    H212346   3.510   1.194   3.183
 4128TIP3   OH212347   5.614   6.144   0.671
 4128TIP3    H112348   5.645   6.203   0.740
 4128TIP3    H212349   5.535   6.186   0.637
 4129TIP3   OH212350   3.773   2.450   3.262
 4129TIP3    H112351   3.750   2.378   3.203
 4129TIP3    H212352   3.734   2.426   3.346
 4130TIP3   OH212353   5.795   4.669   4.227
 4130TIP3    H112354   5.724   4.696   4.286
 4130TIP3    H212355   5.804   4.742   4.166
 4131TIP3   OH212356   1.492   6.490   2.275
 4131TIP3    H112357   1.460   6.534   2.197
 4131TIP3    H212358   1.588   6.497   2.269
 4132TIP3   OH212359   6.015   4.975   2.825
 4132TIP3    H112360   6.004   5.057   2.874
 4132TIP3    H212361   6.108   4.971   2.805
 4133TIP3   OH212362   3.199   4.686   2.026
 4133TIP3    H112363   3.273   4.673   1.966
 4133TIP3    H212364   3.182   4.780   2.021
 4134TIP3   OH212365   2.720   6.328   4.989
 4134TIP3    H112366   2.765   6.244   4.982
 4134TIP3    H212367   2.686   6.344   4.901
 4135TIP3   OH212368   5.689   0.656   5.044
 4135TIP3    H112369   5.638   0.607   4.979
 4135TIP3    H212370   5.761   0.694   4.993
 4136TIP3   OH212371   3.167   4.713  -0.009
 4136TIP3    H112372   3.253   4.713   0.034
 4136TIP3    H212373   3.118   4.644   0.036
 4137TIP3   OH212374   6.841   5.259   3.986
 4137TIP3    H112375   6.839   5.266   3.891
 4137TIP3    H212376   6.752   5.233   4.010
 4138TIP3   OH212377   0.086   0.854   3.209
 4138TIP3    H112378   0.131   0.831   3.127
 4138TIP3    H212379   0.108   0.783   3.269
 4139TIP3   OH212380   3.840   3.035   5.157
 4139TIP3    H112381   3.864   3.059   5.068
 4139TIP3    H212382   3.748   3.009   5.152
 4140TIP3   OH212383   1.895   3.499   3.009
 4140TIP3    H112384   1.905   3.563   3.079
 4140TIP3    H212385   1.815   3.525   2.963
 4141TIP3   OH212386   4.126   6.300   5.121
 4141TIP3    H112387   4.136   6.371   5.058
 4141TIP3    H212388   4.039   6.264   5.103
 4142TIP3   OH212389   1.055   3.529   1.546
 4142TIP3    H112390   1.025   3.600   1.604
 4142TIP3    H212391   1.128   3.568   1.497
 4143TIP3   OH212392   6.051   0.627   4.568
 4143TIP3    H112393   5.984   0.695   4.559
 4143TIP3    H212394   6.106   0.658   4.640
 4144TIP3   OH212395   3.314   5.562   2.933
 4144TIP3    H112396   3.357   5.480   2.956
 4144TIP3    H212397   3.338   5.577   2.842
 4145TIP3   OH212398   2.885   1.299   1.230
 4145TIP3    H112399   2.861   1.258   1.147
 4145TIP3    H212400   2.803   1.309   1.278
 4146TIP3   OH212401   1.857   5.818   0.228
 4146TIP3    H112402   1.925   5.756   0.255
 4146TIP3    H212403   1.872   5.895   0.283
 4147TIP3   OH212404   4.937   0.130   2.934
 4147TIP3    H112405   4.853   0.134   2.980
 4147TIP3    H212406   4.918   0.081   2.854
 4148TIP3   OH212407   4.328   5.867   5.451
 4148TIP3    H112408   4.310   5.796   5.513
 4148TIP3    H212409   4.417   5.852   5.421
 4149TIP3   OH212410   5.388   0.335   3.433
 4149TIP3    H112411   5.377   0.425   3.464
 4149TIP3    H212412   5.318   0.323   3.369
 4150TIP3   OH212413   0.376   3.843   5.378
 4150TIP3    H112414   0.377   3.931   5.415
 4150TIP3    H212415   0.310   3.797   5.429
 4151TIP3   OH212416   2.358   0.264   0.865
 4151TIP3    H112417   2.429   0.297   0.921
 4151TIP3    H212418   2.290   0.331   0.871
 4152TIP3   OH212419   2.385   2.084   4.636
 4152TIP3    H112420   2.445   2.057   4.706
 4152TIP3    H212421   2.304   2.107   4.681
 4153TIP3   OH212422   5.467   3.968   3.471
 4153TIP3    H112423   5.418   3.954   3.390
 4153TIP3    H212424   5.487   4.062   3.470
 4154TIP3   OH212425   3.038   3.352   5.425
 4154TIP3    H112426   3.066   3.440   5.450
 4154TIP3    H212427   3.060   3.346   5.332
 4155TIP3   OH212428   4.946   2.005   0.834
 4155TIP3    H112429   4.938   2.009   0.929
 4155TIP3    H212430   5.020   2.063   0.814
 4156TIP3   OH212431   5.203   1.179   3.450
 4156TIP3    H112432   5.248   1.122   3.388
 4156TIP3    H212433   5.228   1.268   3.422
 4157TIP3   OH212434   4.713   3.374   0.431
 4157TIP3    H112435   4.730   3.367   0.525
 4157TIP3    H212436   4.626   3.337   0.420
 4158TIP3   OH212437   3.754   4.972   3.805
 4158TIP3    H112438   3.693   4.914   3.850
 4158TIP3    H212439   3.699   5.042   3.770
 4159TIP3   OH212440   0.498   2.725   2.529
 4159TIP3    H112441   0.429   2.700   2.467
 4159TIP3    H212442   0.496   2.821   2.530
 4160TIP3   OH212443   6.769   3.004   4.875
 4160TIP3    H112444   6.760   3.063   4.950
 4160TIP3    H212445   6.816   3.056   4.809
 4161TIP3   OH212446   0.373   6.557   3.492
 4161TIP3    H112447   0.386   6.576   3.400
 4161TIP3    H212448   0.278   6.553   3.503
 4162TIP3   OH212449   5.470   3.715   5.643
 4162TIP3    H112450   5.430   3.798   5.618
 4162TIP3    H212451   5.558   3.719   5.606
 4163TIP3   OH212452   4.772   2.927   5.285
 4163TIP3    H112453   4.735   2.839   5.277
 4163TIP3    H212454   4.866   2.914   5.294
 4164TIP3   OH212455   3.191   2.971   0.872
 4164TIP3    H112456   3.256   2.909   0.904
 4164TIP3    H212457   3.204   3.050   0.926
 4165TIP3   OH212458   2.251   5.222   3.266
 4165TIP3    H112459   2.240   5.254   3.355
 4165TIP3    H212460   2.225   5.296   3.211
 4166TIP3   OH212461   3.069   2.689   5.203
 4166TIP3    H112462   3.122   2.757   5.243
 4166TIP3    H212463   3.025   2.646   5.277
 4167TIP3   OH212464   2.117   5.752   5.686
 4167TIP3    H112465   2.174   5.805   5.743
 4167TIP3    H212466   2.172   5.679   5.659
 4168TIP3   OH212467   1.366   1.048   2.065
 4168TIP3    H112468   1.302   1.066   2.134
 4168TIP3    H212469   1.340   1.106   1.993
 4169TIP3   OH212470   5.328   5.855   5.089
 4169TIP3    H112471   5.284   5.939   5.081
 4169TIP3    H212472   5.422   5.876   5.084
 4170TIP3   OH212473   5.271   1.730   1.806
 4170TIP3    H112474   5.184   1.758   1.834
 4170TIP3    H212475   5.322   1.725   1.887
 4171TIP3   OH212476   2.796   2.382   3.407
 4171TIP3    H112477   2.843   2.427   3.476
 4171TIP3    H212478   2.704   2.385   3.434
 4172TIP3   OH212479   5.145   0.731   1.698
 4172TIP3    H112480   5.210   0.780   1.748
 4172TIP3    H212481   5.172   0.639   1.706
 4173TIP3   OH212482   1.513   2.285   4.219
 4173TIP3    H112483   1.480   2.309   4.132
 4173TIP3    H212484   1.435   2.256   4.266
 4174TIP3   OH212485   5.912   3.398   0.456
 4174TIP3    H112486   5.825   3.360   0.439
 4174TIP3    H212487   5.973   3.333   0.421
 4175TIP3   OH212488   5.089   1.296   1.428
 4175TIP3    H112489   5.022   1.350   1.469
 4175TIP3    H212490   5.165   1.303   1.487
 4176TIP3   OH212491   2.275   6.214   0.184
 4176TIP3    H112492   2.338   6.153   0.146
 4176TIP3    H212493   2.200   6.160   0.207
 4177TIP3   OH212494   3.829   0.341   1.780
 4177TIP3    H112495   3.752   0.389   1.809
 4177TIP3    H212496   3.803   0.302   1.697
 4178TIP3   OH212497   6.403   6.581   1.572
 4178TIP3    H112498   6.314   6.561   1.599
 4178TIP3    H212499   6.407   6.554   1.480
 4179TIP3   OH212500   1.772   4.304   1.272
 4179TIP3    H112501   1.722   4.258   1.339
 4179TIP3    H212502   1.835   4.356   1.321
 4180TIP3   OH212503   1.692   5.496   2.047
 4180TIP3    H112504   1.622   5.559   2.059
 4180TIP3    H212505   1.737   5.524   1.967
 4181TIP3   OH212506   0.163   2.743   1.921
 4181TIP3    H112507   0.086   2.777   1.967
 4181TIP3    H212508   0.192   2.668   1.973
 4182TIP3   OH212509   1.398   0.961   5.873
 4182TIP3    H112510   1.490   0.935   5.861
 4182TIP3    H212511   1.402   1.043   5.923
 4183TIP3   OH212512   0.695   2.621   5.689
 4183TIP3    H112513   0.683   2.550   5.626
 4183TIP3    H212514   0.649   2.591   5.767
 4184TIP3   OH212515   6.483   4.826   1.670
 4184TIP3    H112516   6.463   4.733   1.656
 4184TIP3    H212517   6.498   4.833   1.765
 4185TIP3   OH212518   4.974   5.461   2.005
 4185TIP3    H112519   4.917   5.389   1.974
 4185TIP3    H212520   5.063   5.426   1.997
 4186TIP3   OH212521   2.061   4.000   0.190
 4186TIP3    H112522   2.148   4.028   0.162
 4186TIP3    H212523   2.001   4.042   0.128
 4187TIP3   OH212524   1.628   2.999   3.881
 4187TIP3    H112525   1.636   2.916   3.928
 4187TIP3    H212526   1.710   3.044   3.898
 4188TIP3   OH212527   6.008   6.665   3.638
 4188TIP3    H112528   5.959   6.586   3.662
 4188TIP3    H212529   6.018   6.658   3.543
 4189TIP3   OH212530   1.215   3.670   3.344
 4189TIP3    H112531   1.208   3.580   3.376
 4189TIP3    H212532   1.204   3.663   3.249
 4190TIP3   OH212533   6.202   3.595   2.056
 4190TIP3    H112534   6.116   3.617   2.020
 4190TIP3    H212535   6.182   3.550   2.138
 4191TIP3   OH212536   1.494   0.734   5.127
 4191TIP3    H112537   1.472   0.655   5.175
 4191TIP3    H212538   1.409   0.771   5.102
 4192TIP3   OH212539   4.426   4.797   0.029
 4192TIP3    H112540   4.425   4.856   0.105
 4192TIP3    H212541   4.341   4.811  -0.013
 4193TIP3   OH212542   0.110   5.742   0.547
 4193TIP3    H112543   0.032   5.687   0.543
 4193TIP3    H212544   0.179   5.683   0.578
 4194TIP3   OH212545   4.519   4.143   3.565
 4194TIP3    H112546   4.459   4.086   3.612
 4194TIP3    H212547   4.606   4.112   3.590
 4195TIP3   OH212548   0.096   6.283   4.520
 4195TIP3    H112549   0.012   6.279   4.474
 4195TIP3    H212550   0.081   6.344   4.593
 4196TIP3   OH212551   5.009   1.324   4.149
 4196TIP3    H112552   5.046   1.315   4.061
 4196TIP3    H212553   4.997   1.418   4.161
 4197TIP3   OH212554   3.608   3.218   3.092
 4197TIP3    H112555   3.576   3.179   3.173
 4197TIP3    H212556   3.647   3.301   3.119
 4198TIP3   OH212557   6.819   2.821   4.490
 4198TIP3    H112558   6.868   2.886   4.441
 4198TIP3    H212559   6.884   2.753   4.511
 4199TIP3   OH212560   5.284   0.510   0.033
 4199TIP3    H112561   5.261   0.490  -0.058
 4199TIP3    H212562   5.357   0.450   0.052
 4200TIP3   OH212563   1.449   3.776   3.082
 4200TIP3    H112564   1.380   3.712   3.063
 4200TIP3    H212565   1.530   3.727   3.073
 4201TIP3   OH212566   6.001   1.729   5.027
 4201TIP3    H112567   5.914   1.703   4.996
 4201TIP3    H212568   6.060   1.699   4.958
 4202TIP3   OH212569   6.449   5.625   4.433
 4202TIP3    H112570   6.515   5.668   4.378
 4202TIP3    H212571   6.451   5.533   4.404
 4203TIP3   OH212572   5.485   1.998   1.940
 4203TIP3    H112573   5.402   2.040   1.916
 4203TIP3    H212574   5.460   1.927   1.999
 4204TIP3   OH212575   6.419   4.972   2.381
 4204TIP3    H112576   6.457   4.994   2.296
 4204TIP3    H212577   6.358   5.043   2.399
 4205TIP3   OH212578   4.715   4.578   0.992
 4205TIP3    H112579   4.665   4.527   1.055
 4205TIP3    H212580   4.803   4.582   1.029
 4206TIP3   OH212581   3.788   1.064   4.375
 4206TIP3    H112582   3.754   0.993   4.430
 4206TIP3    H212583   3.714   1.124   4.367
 4207TIP3   OH212584   1.386   4.314   5.574
 4207TIP3    H112585   1.400   4.224   5.603
 4207TIP3    H212586   1.301   4.312   5.530
 4208TIP3   OH212587   6.040   2.922   0.610
 4208TIP3    H112588   5.976   2.872   0.660
 4208TIP3    H212589   6.122   2.873   0.621
 4209TIP3   OH212590   5.265   5.530   4.336
 4209TIP3    H112591   5.200   5.600   4.343
 4209TIP3    H212592   5.340   5.561   4.385
 4210TIP3   OH212593   3.168   2.895   2.730
 4210TIP3    H112594   3.213   2.836   2.670
 4210TIP3    H212595   3.167   2.980   2.685
 4211TIP3   OH212596   6.771   4.607   3.856
 4211TIP3    H112597   6.709   4.674   3.884
 4211TIP3    H212598   6.810   4.643   3.776
 4212TIP3   OH212599   4.062   5.097   2.356
 4212TIP3    H112600   4.104   5.053   2.431
 4212TIP3    H212601   4.129   5.157   2.324
 4213TIP3   OH212602   3.521   0.460   4.180
 4213TIP3    H112603   3.514   0.365   4.190
 4213TIP3    H212604   3.540   0.492   4.268
 4214TIP3   OH212605   6.337   4.121   0.939
 4214TIP3    H112606   6.265   4.159   0.988
 4214TIP3    H212607   6.314   4.028   0.930
 4215TIP3   OH212608   4.072   2.215   0.169
 4215TIP3    H112609   4.109   2.303   0.166
 4215TIP3    H212610   4.090   2.184   0.258
 4216TIP3   OH212611   1.171   4.352   1.105
 4216TIP3    H112612   1.161   4.395   1.020
 4216TIP3    H212613   1.187   4.423   1.166
 4217TIP3   OH212614   4.768   4.152   4.182
 4217TIP3    H112615   4.820   4.215   4.231
 4217TIP3    H212616   4.814   4.069   4.192
 4218TIP3   OH212617   4.153   5.672   5.130
 4218TIP3    H112618   4.213   5.629   5.191
 4218TIP3    H212619   4.205   5.740   5.088
 4219TIP3   OH212620   3.055   2.915   0.177
 4219TIP3    H112621   3.123   2.970   0.139
 4219TIP3    H212622   3.029   2.856   0.105
 4220TIP3   OH212623   4.906   1.310   3.327
 4220TIP3    H112624   4.978   1.278   3.272
 4220TIP3    H212625   4.865   1.230   3.360
 4221TIP3   OH212626   0.003   0.482   3.345
 4221TIP3    H112627   0.090   0.469   3.307
 4221TIP3    H212628   0.020   0.504   3.436
 4222TIP3   OH212629   2.045   6.492   4.030
 4222TIP3    H112630   2.094   6.509   4.110
 4222TIP3    H212631   1.981   6.564   4.024
 4223TIP3   OH212632   2.804   1.487   0.458
 4223TIP3    H112633   2.711   1.509   0.454
 4223TIP3    H212634   2.810   1.399   0.420
 4224TIP3   OH212635   2.756   0.883   0.801
 4224TIP3    H112636   2.787   0.897   0.712
 4224TIP3    H212637   2.739   0.789   0.806
 4225TIP3   OH212638   2.664   3.587   4.053
 4225TIP3    H112639   2.693   3.535   3.978
 4225TIP3    H212640   2.572   3.563   4.065
 4226TIP3   OH212641   1.548   2.325   1.507
 4226TIP3    H112642   1.635   2.362   1.490
 4226TIP3    H212643   1.553   2.291   1.596
 4227TIP3   OH212644   3.637   6.343   2.991
 4227TIP3    H112645   3.675   6.267   3.036
 4227TIP3    H212646   3.552   6.312   2.959
 4228TIP3   OH212647   1.696   2.826   1.745
 4228TIP3    H112648   1.708   2.825   1.650
 4228TIP3    H212649   1.785   2.836   1.780
 4229TIP3   OH212650   0.338   2.914   5.691
 4229TIP3    H112651   0.327   2.825   5.724
 4229TIP3    H212652   0.303   2.970   5.761
 4230TIP3   OH212653   4.865   4.611   1.213
 4230TIP3    H112654   4.916   4.588   1.291
 4230TIP3    H212655   4.890   4.701   1.195
 4231TIP3   OH212656   6.023   1.773   2.543
 4231TIP3    H112657   5.943   1.770   2.491
 4231TIP3    H212658   6.021   1.693   2.596
 4232TIP3   OH212659   1.958   3.832   2.706
 4232TIP3    H112660   2.016   3.905   2.687
 4232TIP3    H212661   1.965   3.774   2.630
 4233TIP3   OH212662   1.711   2.535   3.422
 4233TIP3    H112663   1.770   2.592   3.373
 4233TIP3    H212664   1.696   2.580   3.505
 4234TIP3   OH212665   6.025   6.524   2.426
 4234TIP3    H112666   5.942   6.501   2.469
 4234TIP3    H212667   6.087   6.460   2.459
 4235TIP3   OH212668   3.163   4.178   4.596
 4235TIP3    H112669   3.230   4.119   4.629
 4235TIP3    H212670   3.211   4.255   4.567
 4236TIP3   OH212671   1.571   2.970   2.242
 4236TIP3    H112672   1.612   3.046   2.283
 4236TIP3    H212673   1.645   2.918   2.209
 4237TIP3   OH212674   3.007   2.142   2.748
 4237TIP3    H112675   2.940   2.181   2.692
 4237TIP3    H212676   2.963   2.069   2.792
 4238TIP3   OH212677   1.846   3.284   5.207
 4238TIP3    H112678   1.901   3.307   5.132
 4238TIP3    H212679   1.901   3.229   5.262
 4239TIP3   OH212680   7.103   3.315   4.036
 4239TIP3    H112681   7.176   3.267   4.075
 4239TIP3    H212682   7.025   3.278   4.077
 4240TIP3   OH212683   1.657   1.982   4.456
 4240TIP3    H112684   1.588   1.928   4.418
 4240TIP3    H212685   1.633   1.991   4.548
 4241TIP3   OH212686   6.408   6.574   4.414
 4241TIP3    H112687   6.464   6.498   4.430
 4241TIP3    H212688   6.456   6.626   4.349
 4242TIP3   OH212689   2.195   4.233   5.770
 4242TIP3    H112690   2.188   4.265   5.860
 4242TIP3    H212691   2.193   4.312   5.716
 4243TIP3   OH212692   3.506   2.652   3.993
 4243TIP3    H112693   3.443   2.646   3.921
 4243TIP3    H212694   3.517   2.746   4.008
 4244TIP3   OH212695   5.696   3.715   2.245
 4244TIP3    H112696   5.668   3.673   2.326
 4244TIP3    H212697   5.683   3.809   2.261
 4245TIP3   OH212698   6.384   4.236   3.536
 4245TIP3    H112699   6.402   4.197   3.622
 4245TIP3    H212700   6.312   4.183   3.501
 4246TIP3   OH212701   3.444   6.369   5.648
 4246TIP3    H112702   3.397   6.314   5.586
 4246TIP3    H212703   3.375   6.405   5.704
 4247TIP3   OH212704   3.171   2.232   3.458
 4247TIP3    H112705   3.111   2.271   3.395
 4247TIP3    H212706   3.197   2.305   3.515
 4248TIP3   OH212707   3.730   6.597   0.952
 4248TIP3    H112708   3.803   6.655   0.974
 4248TIP3    H212709   3.657   6.631   1.005
 4249TIP3   OH212710   4.927   0.436   0.371
 4249TIP3    H112711   4.922   0.368   0.303
 4249TIP3    H212712   4.855   0.496   0.350
 4250TIP3   OH212713   0.359   4.026   1.255
 4250TIP3    H112714   0.411   3.988   1.326
 4250TIP3    H212715   0.423   4.056   1.191
 4251TIP3   OH212716   5.033   0.882   4.289
 4251TIP3    H112717   5.045   0.794   4.325
 4251TIP3    H212718   5.102   0.890   4.223
 4252TIP3   OH212719   6.272   2.209   4.107
 4252TIP3    H112720   6.361   2.186   4.134
 4252TIP3    H212721   6.269   2.304   4.115
 4253TIP3   OH212722   5.125   5.674   2.587
 4253TIP3    H112723   5.147   5.657   2.496
 4253TIP3    H212724   5.052   5.736   2.583
 4254TIP3   OH212725   3.056   2.024   4.567
 4254TIP3    H112726   3.086   1.939   4.599
 4254TIP3    H212727   3.056   2.014   4.471
 4255TIP3   OH212728   3.690   5.336   5.062
 4255TIP3    H112729   3.661   5.319   5.151
 4255TIP3    H212730   3.783   5.311   5.062
 4256TIP3   OH212731   2.651   4.337   0.128
 4256TIP3    H112732   2.659   4.244   0.149
 4256TIP3    H212733   2.558   4.356   0.139
 4257TIP3   OH212734   3.055   2.041   5.888
 4257TIP3    H112735   2.979   2.030   5.831
 4257TIP3    H212736   3.090   2.127   5.865
 4258TIP3   OH212737   1.709   3.211   0.082
 4258TIP3    H112738   1.783   3.208   0.021
 4258TIP3    H212739   1.715   3.299   0.121
 4259TIP3   OH212740   5.377   0.199   0.439
 4259TIP3    H112741   5.467   0.228   0.422
 4259TIP3    H212742   5.375   0.109   0.406
 4260TIP3   OH212743   1.764   2.034   2.453
 4260TIP3    H112744   1.850   2.075   2.463
 4260TIP3    H212745   1.705   2.107   2.433
 4261TIP3   OH212746   5.701   6.340   4.957
 4261TIP3    H112747   5.687   6.263   5.013
 4261TIP3    H212748   5.726   6.409   5.018
 4262TIP3   OH212749   2.275   5.531   3.271
 4262TIP3    H112750   2.328   5.518   3.193
 4262TIP3    H212751   2.194   5.572   3.239
 4263TIP3   OH212752   1.009   0.823   2.259
 4263TIP3    H112753   1.056   0.760   2.314
 4263TIP3    H212754   0.925   0.781   2.242
 4264TIP3   OH212755   4.379   2.707   2.209
 4264TIP3    H112756   4.430   2.665   2.279
 4264TIP3    H212757   4.324   2.771   2.255
 4265TIP3   OH212758   2.918   0.948   4.446
 4265TIP3    H112759   2.830   0.983   4.459
 4265TIP3    H212760   2.974   1.026   4.443
 4266TIP3   OH212761   5.439   1.061   0.316
 4266TIP3    H112762   5.469   0.976   0.348
 4266TIP3    H212763   5.476   1.124   0.377
 4267TIP3   OH212764   6.557   1.172   1.896
 4267TIP3    H112765   6.603   1.089   1.884
 4267TIP3    H212766   6.520   1.192   1.810
 4268TIP3   OH212767   2.566   2.108   0.307
 4268TIP3    H112768   2.598   2.165   0.237
 4268TIP3    H212769   2.644   2.086   0.358
 4269TIP3   OH212770   5.885   0.610   0.000
 4269TIP3    H112771   5.906   0.642   0.088
 4269TIP3    H212772   5.804   0.656  -0.024
 4270TIP3   OH212773   3.909   5.000   4.079
 4270TIP3    H112774   3.900   4.916   4.033
 4270TIP3    H212775   3.923   5.064   4.010
 4271TIP3   OH212776   5.410   6.382   4.391
 4271TIP3    H112777   5.341   6.428   4.438
 4271TIP3    H212778   5.426   6.436   4.313
 4272TIP3   OH212779   1.325   4.385   2.744
 4272TIP3    H112780   1.381   4.461   2.727
 4272TIP3    H212781   1.274   4.409   2.821
 4273TIP3   OH212782   4.230   0.638   3.972
 4273TIP3    H112783   4.306   0.595   4.012
 4273TIP3    H212784   4.245   0.731   3.984
 4274TIP3   OH212785   0.506   5.520   4.809
 4274TIP3    H112786   0.415   5.548   4.803
 4274TIP3    H212787   0.543   5.573   4.879
 4275TIP3   OH212788   3.384   5.626   2.649
 4275TIP3    H112789   3.355   5.534   2.651
 4275TIP3    H212790   3.344   5.662   2.570
 4276TIP3   OH212791   0.657   2.491   5.359
 4276TIP3    H112792   0.609   2.445   5.428
 4276TIP3    H212793   0.589   2.539   5.311
 4277TIP3   OH212794   1.622   0.387   2.825
 4277TIP3    H112795   1.584   0.395   2.913
 4277TIP3    H212796   1.681   0.312   2.831
 4278TIP3   OH212797   0.592   2.889   1.941
 4278TIP3    H112798   0.674   2.880   1.891
 4278TIP3    H212799   0.603   2.970   1.990
 4279TIP3   OH212800   3.875   3.584   4.973
 4279TIP3    H112801   3.906   3.640   5.044
 4279TIP3    H212802   3.850   3.645   4.903
 4280TIP3   OH212803   4.674   0.814   1.998
 4280TIP3    H112804   4.610   0.763   2.048
 4280TIP3    H212805   4.636   0.901   1.990
 4281TIP3   OH212806   4.441   1.856   1.917
 4281TIP3    H112807   4.369   1.797   1.894
 4281TIP3    H212808   4.431   1.931   1.858
 4282TIP3   OH212809   2.173   3.663   4.680
 4282TIP3    H112810   2.150   3.752   4.707
 4282TIP3    H212811   2.156   3.662   4.586
 4283TIP3   OH212812   6.408   3.829   5.451
 4283TIP3    H112813   6.496   3.793   5.440
 4283TIP3    H212814   6.410   3.913   5.406
 4284TIP3   OH212815   3.548   4.432   1.752
 4284TIP3    H112816   3.526   4.362   1.692
 4284TIP3    H212817   3.500   4.508   1.719
 4285TIP3   OH212818   3.602   3.440   2.240
 4285TIP3    H112819   3.581   3.450   2.333
 4285TIP3    H212820   3.565   3.518   2.199
 4286TIP3   OH212821   2.880   6.492   3.162
 4286TIP3    H112822   2.938   6.548   3.110
 4286TIP3    H212823   2.831   6.442   3.097
 4287TIP3   OH212824   4.037   2.434   3.135
 4287TIP3    H112825   4.053   2.507   3.076
 4287TIP3    H212826   3.959   2.459   3.184
 4288TIP3   OH212827   2.201   0.714   0.724
 4288TIP3    H112828   2.105   0.711   0.730
 4288TIP3    H212829   2.219   0.795   0.677
 4289TIP3   OH212830   4.328   0.555   1.898
 4289TIP3    H112831   4.369   0.476   1.863
 4289TIP3    H212832   4.234   0.537   1.894
 4290TIP3   OH212833   5.390   6.109   0.056
 4290TIP3    H112834   5.438   6.165  -0.006
 4290TIP3    H212835   5.428   6.130   0.141
 4291TIP3   OH212836   4.630   5.142   0.302
 4291TIP3    H112837   4.590   5.088   0.370
 4291TIP3    H212838   4.570   5.216   0.292
 4292TIP3   OH212839   6.886   6.227   3.845
 4292TIP3    H112840   6.805   6.272   3.872
 4292TIP3    H212841   6.954   6.292   3.858
 4293TIP3   OH212842   4.152   2.079   3.678
 4293TIP3    H112843   4.242   2.093   3.707
 4293TIP3    H212844   4.135   2.150   3.616
 4294TIP3   OH212845   5.901   3.127   2.969
 4294TIP3    H112846   5.944   3.069   3.032
 4294TIP3    H212847   5.863   3.067   2.905
 4295TIP3   OH212848   4.457   0.251   3.713
 4295TIP3    H112849   4.469   0.168   3.759
 4295TIP3    H212850   4.368   0.248   3.679
 4296TIP3   OH212851   2.554   4.931   0.761
 4296TIP3    H112852   2.499   4.883   0.700
 4296TIP3    H212853   2.631   4.956   0.710
 4297TIP3   OH212854   4.136   6.636   1.468
 4297TIP3    H112855   4.201   6.701   1.495
 4297TIP3    H212856   4.189   6.559   1.445
 4298TIP3   OH212857   3.155   5.765   2.141
 4298TIP3    H112858   3.200   5.795   2.062
 4298TIP3    H212859   3.069   5.807   2.137
 4299TIP3   OH212860   2.098   3.144   1.462
 4299TIP3    H112861   2.177   3.165   1.413
 4299TIP3    H212862   2.044   3.223   1.457
 4300TIP3   OH212863   1.747   3.107   4.719
 4300TIP3    H112864   1.756   3.014   4.697
 4300TIP3    H212865   1.776   3.112   4.810
 4301TIP3   OH212866   3.552   2.041   0.152
 4301TIP3    H112867   3.642   2.074   0.148
 4301TIP3    H212868   3.505   2.091   0.087
 4302TIP3   OH212869   4.836   2.197   2.923
 4302TIP3    H112870   4.803   2.244   2.847
 4302TIP3    H212871   4.760   2.149   2.956
 4303TIP3   OH212872   0.776   5.418   3.105
 4303TIP3    H112873   0.714   5.466   3.050
 4303TIP3    H212874   0.841   5.483   3.131
 4304TIP3   OH212875   1.195   0.721   4.739
 4304TIP3    H112876   1.192   0.636   4.695
 4304TIP3    H212877   1.134   0.713   4.811
 4305TIP3   OH212878   1.155   0.431   5.816
 4305TIP3    H112879   1.073   0.386   5.835
 4305TIP3    H212880   1.217   0.362   5.792
 4306TIP3   OH212881   1.861   2.644   4.515
 4306TIP3    H112882   1.830   2.625   4.603
 4306TIP3    H212883   1.875   2.558   4.475
 4307TIP3   OH212884   2.233   1.854   3.504
 4307TIP3    H112885   2.325   1.879   3.503
 4307TIP3    H212886   2.229   1.780   3.565
 4308TIP3   OH212887   6.455   4.653   5.274
 4308TIP3    H112888   6.432   4.663   5.367
 4308TIP3    H212889   6.486   4.740   5.248
 4309TIP3   OH212890   2.095   2.716   2.148
 4309TIP3    H112891   2.187   2.692   2.158
 4309TIP3    H212892   2.076   2.769   2.226
 4310TIP3   OH212893   1.787   0.204   0.227
 4310TIP3    H112894   1.760   0.280   0.175
 4310TIP3    H212895   1.753   0.222   0.314
 4311TIP3   OH212896   4.653   1.365   0.149
 4311TIP3    H112897   4.629   1.291   0.094
 4311TIP3    H212898   4.647   1.441   0.091
 4312TIP3   OH212899   4.798   6.752   2.842
 4312TIP3    H112900   4.860   6.739   2.770
 4312TIP3    H212901   4.718   6.780   2.799
 4313TIP3   OH212902   0.474   6.438   3.924
 4313TIP3    H112903   0.428   6.362   3.888
 4313TIP3    H212904   0.523   6.473   3.849
 4314TIP3   OH212905   0.619   0.941   5.069
 4314TIP3    H112906   0.660   0.886   5.137
 4314TIP3    H212907   0.600   1.024   5.113
 4315TIP3   OH212908   5.794   4.375   4.644
 4315TIP3    H112909   5.744   4.318   4.702
 4315TIP3    H212910   5.805   4.456   4.694
 4316TIP3   OH212911   6.886   3.912   2.248
 4316TIP3    H112912   6.825   3.971   2.291
 4316TIP3    H212913   6.845   3.826   2.254
 4317TIP3   OH212914   5.805   2.293   5.579
 4317TIP3    H112915   5.728   2.319   5.629
 4317TIP3    H212916   5.783   2.313   5.488
 4318TIP3   OH212917   4.153   0.807   0.854
 4318TIP3    H112918   4.107   0.729   0.824
 4318TIP3    H212919   4.227   0.774   0.905
 4319TIP3   OH212920   3.863   4.175   1.836
 4319TIP3    H112921   3.835   4.219   1.756
 4319TIP3    H212922   3.930   4.113   1.807
 4320TIP3   OH212923   3.027   0.424   0.578
 4320TIP3    H112924   2.932   0.438   0.576
 4320TIP3    H212925   3.049   0.427   0.671
 4321TIP3   OH212926   5.054   5.283   2.402
 4321TIP3    H112927   5.034   5.196   2.368
 4321TIP3    H212928   4.969   5.327   2.405
 4322TIP3   OH212929   0.688   2.324   1.568
 4322TIP3    H112930   0.702   2.416   1.547
 4322TIP3    H212931   0.762   2.278   1.529
 4323TIP3   OH212932   3.320   1.368   1.328
 4323TIP3    H112933   3.262   1.321   1.268
 4323TIP3    H212934   3.306   1.460   1.307
 4324TIP3   OH212935   1.758   6.182   2.500
 4324TIP3    H112936   1.669   6.158   2.524
 4324TIP3    H212937   1.800   6.099   2.479
 4325TIP3   OH212938   6.512   4.505   5.044
 4325TIP3    H112939   6.566   4.564   4.991
 4325TIP3    H212940   6.509   4.548   5.130
 4326TIP3   OH212941   4.809   6.168   0.951
 4326TIP3    H112942   4.880   6.141   1.009
 4326TIP3    H212943   4.738   6.193   1.011
 4327TIP3   OH212944   3.906   2.104   1.484
 4327TIP3    H112945   3.814   2.110   1.458
 4327TIP3    H212946   3.914   2.016   1.521
 4328TIP3   OH212947   5.471   5.276   0.202
 4328TIP3    H112948   5.497   5.187   0.180
 4328TIP3    H212949   5.478   5.325   0.120
 4329TIP3   OH212950   6.070   0.465   3.955
 4329TIP3    H112951   6.124   0.432   3.884
 4329TIP3    H212952   6.121   0.448   4.035
 4330TIP3   OH212953   0.757   3.522   4.866
 4330TIP3    H112954   0.694   3.594   4.858
 4330TIP3    H212955   0.754   3.478   4.781
 4331TIP3   OH212956   5.471   5.551   1.639
 4331TIP3    H112957   5.530   5.610   1.686
 4331TIP3    H212958   5.507   5.547   1.550
 4332TIP3   OH212959   3.570   1.596   4.567
 4332TIP3    H112960   3.643   1.549   4.607
 4332TIP3    H212961   3.612   1.655   4.505
 4333TIP3   OH212962   0.583   0.313   0.194
 4333TIP3    H112963   0.612   0.382   0.254
 4333TIP3    H212964   0.664   0.278   0.156
 4334TIP3   OH212965   5.636   4.225   0.141
 4334TIP3    H112966   5.635   4.132   0.119
 4334TIP3    H212967   5.677   4.229   0.227
 4335TIP3   OH212968   3.547   2.619   2.835
 4335TIP3    H112969   3.505   2.667   2.906
 4335TIP3    H212970   3.629   2.667   2.821
 4336TIP3   OH212971   3.864   0.883   1.429
 4336TIP3    H112972   3.948   0.892   1.384
 4336TIP3    H212973   3.810   0.954   1.393
 4337TIP3   OH212974   4.473   1.455   5.165
 4337TIP3    H112975   4.391   1.475   5.120
 4337TIP3    H212976   4.510   1.541   5.187
 4338TIP3   OH212977   1.220   3.413   3.522
 4338TIP3    H112978   1.169   3.384   3.447
 4338TIP3    H212979   1.173   3.381   3.598
 4339TIP3   OH212980   2.233   2.545   0.389
 4339TIP3    H112981   2.140   2.523   0.380
 4339TIP3    H212982   2.279   2.468   0.357
 4340TIP3   OH212983   4.750   1.787   5.463
 4340TIP3    H112984   4.707   1.792   5.549
 4340TIP3    H212985   4.808   1.863   5.461
 4341TIP3   OH212986   5.726   1.687   5.015
 4341TIP3    H112987   5.707   1.703   5.108
 4341TIP3    H212988   5.654   1.728   4.968
 4342TIP3   OH212989   2.789   3.492   0.152
 4342TIP3    H112990   2.764   3.584   0.157
 4342TIP3    H212991   2.744   3.450   0.225
 4343TIP3   OH212992   5.877   2.604   2.149
 4343TIP3    H112993   5.927   2.525   2.168
 4343TIP3    H212994   5.866   2.604   2.054
 4344TIP3   OH212995   0.804   0.956   4.860
 4344TIP3    H112996   0.734   0.957   4.925
 4344TIP3    H212997   0.790   1.036   4.809
 4345TIP3   OH212998   7.026   3.286   0.490
 4345TIP3    H112999   6.971   3.363   0.477
 4345TIP3    H213000   7.107   3.306   0.443
 4346TIP3   OH213001   5.349   2.541   4.865
 4346TIP3    H113002   5.444   2.547   4.864
 4346TIP3    H213003   5.331   2.447   4.864
 4347TIP3   OH213004   5.356   2.345   2.065
 4347TIP3    H113005   5.314   2.395   1.994
 4347TIP3    H213006   5.342   2.398   2.143
 4348TIP3   OH213007   4.105   4.284   1.589
 4348TIP3    H113008   4.114   4.298   1.495
 4348TIP3    H213009   4.010   4.280   1.603
 4349TIP3   OH213010   1.329   2.567   5.731
 4349TIP3    H113011   1.311   2.632   5.662
 4349TIP3    H213012   1.298   2.485   5.694
 4350TIP3   OH213013   5.253   5.987   1.216
 4350TIP3    H113014   5.252   5.923   1.287
 4350TIP3    H213015   5.253   5.934   1.136
 4351TIP3   OH213016   0.561   0.788   1.858
 4351TIP3    H113017   0.517   0.806   1.941
 4351TIP3    H213018   0.604   0.704   1.871
 4352TIP3   OH213019   3.371   3.126   5.022
 4352TIP3    H113020   3.350   3.148   4.932
 4352TIP3    H213021   3.391   3.210   5.063
 4353TIP3   OH213022   0.353   1.463   0.746
 4353TIP3    H113023   0.429   1.451   0.802
 4353TIP3    H213024   0.302   1.383   0.757
 4354TIP3   OH213025   4.625   4.745   0.786
 4354TIP3    H113026   4.636   4.696   0.867
 4354TIP3    H213027   4.714   4.770   0.761
 4355TIP3   OH213028   3.811   2.579   0.622
 4355TIP3    H113029   3.830   2.545   0.709
 4355TIP3    H213030   3.889   2.558   0.570
 4356TIP3   OH213031   0.221   2.090   2.949
 4356TIP3    H113032   0.177   2.174   2.957
 4356TIP3    H213033   0.157   2.026   2.980
 4357TIP3   OH213034   0.641   2.814   4.600
 4357TIP3    H113035   0.575   2.819   4.669
 4357TIP3    H213036   0.601   2.857   4.524
 4358TIP3   OH213037   5.613   3.986   3.104
 4358TIP3    H113038   5.543   3.932   3.141
 4358TIP3    H213039   5.627   3.952   3.016
 4359TIP3   OH213040   0.470   0.145   0.400
 4359TIP3    H113041   0.447   0.054   0.422
 4359TIP3    H213042   0.512   0.138   0.314
 4360TIP3   OH213043   2.116   5.682   1.199
 4360TIP3    H113044   2.076   5.684   1.287
 4360TIP3    H213045   2.042   5.665   1.140
 4361TIP3   OH213046   2.962   3.267   1.356
 4361TIP3    H113047   2.967   3.172   1.364
 4361TIP3    H213048   3.021   3.288   1.284
 4362TIP3   OH213049   5.073   3.258   0.776
 4362TIP3    H113050   5.102   3.334   0.826
 4362TIP3    H213051   4.978   3.268   0.769
 4363TIP3   OH213052   2.450   5.431   5.777
 4363TIP3    H113053   2.492   5.408   5.861
 4363TIP3    H213054   2.366   5.468   5.802
 4364TIP3   OH213055   4.336   4.626   0.341
 4364TIP3    H113056   4.403   4.568   0.377
 4364TIP3    H213057   4.296   4.576   0.270
 4365TIP3   OH213058   3.570   5.483   3.466
 4365TIP3    H113059   3.596   5.458   3.377
 4365TIP3    H213060   3.568   5.578   3.464
 4366TIP3   OH213061   4.189   2.397   1.738
 4366TIP3    H113062   4.204   2.319   1.790
 4366TIP3    H213063   4.095   2.415   1.749
 4367TIP3   OH213064   0.673   0.857   0.788
 4367TIP3    H113065   0.728   0.778   0.786
 4367TIP3    H213066   0.632   0.855   0.875
 4368TIP3   OH213067   6.949   0.726   2.179
 4368TIP3    H113068   6.941   0.667   2.254
 4368TIP3    H213069   6.995   0.674   2.113
 4369TIP3   OH213070   1.880   6.025   4.777
 4369TIP3    H113071   1.926   5.962   4.833
 4369TIP3    H213072   1.921   6.016   4.691
 4370TIP3   OH213073   2.095   3.787   5.612
 4370TIP3    H113074   2.134   3.831   5.688
 4370TIP3    H213075   2.050   3.857   5.565
 4371TIP3   OH213076   5.614   2.599   4.798
 4371TIP3    H113077   5.650   2.625   4.714
 4371TIP3    H213078   5.671   2.528   4.828
 4372TIP3   OH213079   3.343   5.275   4.495
 4372TIP3    H113080   3.288   5.233   4.561
 4372TIP3    H213081   3.355   5.364   4.527
 4373TIP3   OH213082   5.815   5.203   0.613
 4373TIP3    H113083   5.783   5.254   0.539
 4373TIP3    H213084   5.790   5.113   0.592
 4374TIP3   OH213085   5.651   3.905   0.308
 4374TIP3    H113086   5.719   3.962   0.344
 4374TIP3    H213087   5.611   3.863   0.384
 4375TIP3   OH213088   3.627   0.375   4.883
 4375TIP3    H113089   3.582   0.334   4.956
 4375TIP3    H213090   3.671   0.451   4.922
 4376TIP3   OH213091   6.855   1.300   0.405
 4376TIP3    H113092   6.891   1.228   0.456
 4376TIP3    H213093   6.804   1.257   0.336
 4377TIP3   OH213094   4.775   1.851   0.483
 4377TIP3    H113095   4.820   1.800   0.415
 4377TIP3    H213096   4.728   1.785   0.535
 4378TIP3   OH213097   7.026   3.917   3.618
 4378TIP3    H113098   7.019   3.915   3.522
 4378TIP3    H213099   7.095   3.854   3.638
 4379TIP3   OH213100   6.114   4.920   4.547
 4379TIP3    H113101   6.165   4.842   4.527
 4379TIP3    H213102   6.033   4.909   4.496
 4380TIP3   OH213103   4.369   0.269   2.911
 4380TIP3    H113104   4.362   0.185   2.957
 4380TIP3    H213105   4.354   0.334   2.979
 4381TIP3   OH213106   6.157   0.106   5.159
 4381TIP3    H113107   6.075   0.094   5.206
 4381TIP3    H213108   6.203   0.175   5.207
 4382TIP3   OH213109   1.687   3.573   3.525
 4382TIP3    H113110   1.740   3.650   3.511
 4382TIP3    H213111   1.632   3.566   3.447
 4383TIP3   OH213112   1.926   2.586   3.796
 4383TIP3    H113113   1.910   2.497   3.827
 4383TIP3    H213114   1.983   2.625   3.863
 4384TIP3   OH213115   0.601   4.245   2.766
 4384TIP3    H113116   0.664   4.216   2.832
 4384TIP3    H213117   0.620   4.192   2.689
 4385TIP3   OH213118   4.334   2.687   5.546
 4385TIP3    H113119   4.250   2.691   5.500
 4385TIP3    H213120   4.382   2.616   5.503
 4386TIP3   OH213121   2.340   3.515   5.497
 4386TIP3    H113122   2.330   3.543   5.588
 4386TIP3    H213123   2.309   3.590   5.446
 4387TIP3   OH213124   2.780   0.346   0.653
 4387TIP3    H113125   2.685   0.335   0.642
 4387TIP3    H213126   2.795   0.334   0.747
 4388TIP3   OH213127   6.263   3.786   1.868
 4388TIP3    H113128   6.340   3.837   1.889
 4388TIP3    H213129   6.278   3.701   1.911
 4389TIP3   OH213130   3.032   3.853   4.336
 4389TIP3    H113131   3.105   3.813   4.290
 4389TIP3    H213132   2.954   3.822   4.290
 4390TIP3   OH213133   1.355   6.454   5.115
 4390TIP3    H113134   1.306   6.479   5.194
 4390TIP3    H213135   1.332   6.521   5.050
 4391TIP3   OH213136   0.963   0.854   4.388
 4391TIP3    H113137   0.913   0.834   4.309
 4391TIP3    H213138   0.908   0.917   4.436
 4392TIP3   OH213139   5.090   4.153   4.839
 4392TIP3    H113140   5.179   4.172   4.872
 4392TIP3    H213141   5.047   4.239   4.837
 4393TIP3   OH213142   5.971   0.861   0.595
 4393TIP3    H113143   5.905   0.854   0.526
 4393TIP3    H213144   5.926   0.836   0.675
 4394TIP3   OH213145   2.669   6.479   4.031
 4394TIP3    H113146   2.673   6.385   4.016
 4394TIP3    H213147   2.649   6.516   3.945
 4395TIP3   OH213148   3.648   5.913   4.593
 4395TIP3    H113149   3.556   5.899   4.612
 4395TIP3    H213150   3.694   5.850   4.648
 4396TIP3   OH213151   5.243   5.295   1.326
 4396TIP3    H113152   5.160   5.330   1.293
 4396TIP3    H213153   5.306   5.366   1.311
 4397TIP3   OH213154   5.369   0.569   5.890
 4397TIP3    H113155   5.382   0.632   5.962
 4397TIP3    H213156   5.358   0.624   5.812
 4398TIP3   OH213157   0.802   4.236   0.387
 4398TIP3    H113158   0.813   4.294   0.312
 4398TIP3    H213159   0.763   4.292   0.454
 4399TIP3   OH213160   5.886   4.902   4.868
 4399TIP3    H113161   5.825   4.866   4.803
 4399TIP3    H213162   5.939   4.826   4.894
 4400TIP3   OH213163   3.412   3.384   5.164
 4400TIP3    H113164   3.464   3.438   5.105
 4400TIP3    H213165   3.470   3.366   5.238
 4401TIP3   OH213166   6.542   3.410   0.522
 4401TIP3    H113167   6.465   3.378   0.569
 4401TIP3    H213168   6.550   3.351   0.447
 4402TIP3   OH213169   0.203   0.515   3.832
 4402TIP3    H113170   0.251   0.450   3.883
 4402TIP3    H213171   0.140   0.551   3.894
 4403TIP3   OH213172   0.062   1.353   0.134
 4403TIP3    H113173   0.012   1.323   0.210
 4403TIP3    H213174   0.092   1.273   0.091
 4404TIP3   OH213175   2.285   0.329   1.853
 4404TIP3    H113176   2.213   0.360   1.797
 4404TIP3    H213177   2.320   0.409   1.893
 4405TIP3   OH213178   3.943   2.368   4.692
 4405TIP3    H113179   3.889   2.362   4.614
 4405TIP3    H213180   3.990   2.285   4.696
 4406TIP3   OH213181   3.486   6.374   2.065
 4406TIP3    H113182   3.537   6.408   1.992
 4406TIP3    H213183   3.438   6.450   2.099
 4407TIP3   OH213184   5.253   2.724   1.648
 4407TIP3    H113185   5.210   2.693   1.728
 4407TIP3    H213186   5.268   2.817   1.664
 4408TIP3   OH213187   0.052   4.149   3.664
 4408TIP3    H113188   0.005   4.180   3.586
 4408TIP3    H213189   0.031   4.056   3.669
 4409TIP3   OH213190   6.692   0.834   3.812
 4409TIP3    H113191   6.601   0.807   3.812
 4409TIP3    H213192   6.698   0.901   3.743
 4410TIP3   OH213193   6.298   6.663   5.600
 4410TIP3    H113194   6.323   6.730   5.537
 4410TIP3    H213195   6.375   6.608   5.609
 4411TIP3   OH213196   1.185   5.709   2.208
 4411TIP3    H113197   1.265   5.751   2.240
 4411TIP3    H213198   1.139   5.779   2.162
 4412TIP3   OH213199   1.887   0.842   1.512
 4412TIP3    H113200   1.852   0.806   1.430
 4412TIP3    H213201   1.902   0.935   1.492
 4413TIP3   OH213202   4.406   1.831   2.854
 4413TIP3    H113203   4.404   1.790   2.767
 4413TIP3    H213204   4.488   1.802   2.893
 4414TIP3   OH213205   1.426   5.113   1.296
 4414TIP3    H113206   1.463   5.117   1.208
 4414TIP3    H213207   1.335   5.141   1.286
 4415TIP3   OH213208   6.032   4.736   3.802
 4415TIP3    H113209   6.104   4.675   3.816
 4415TIP3    H213210   6.048   4.773   3.715
 4416TIP3   OH213211   7.042   1.072   5.783
 4416TIP3    H113212   7.001   1.135   5.723
 4416TIP3    H213213   7.040   0.989   5.735
 4417TIP3   OH213214   6.441   3.797   0.940
 4417TIP3    H113215   6.448   3.723   0.879
 4417TIP3    H213216   6.523   3.845   0.927
 4418TIP3   OH213217   6.199   3.038   3.235
 4418TIP3    H113218   6.142   2.965   3.209
 4418TIP3    H213219   6.247   3.005   3.311
 4419TIP3   OH213220   1.739   5.438   2.856
 4419TIP3    H113221   1.783   5.418   2.774
 4419TIP3    H213222   1.778   5.379   2.920
 4420TIP3   OH213223   0.332   5.818   0.145
 4420TIP3    H113224   0.297   5.886   0.088
 4420TIP3    H213225   0.260   5.755   0.155
 4421TIP3   OH213226   4.121   4.774   0.929
 4421TIP3    H113227   4.215   4.775   0.912
 4421TIP3    H213228   4.110   4.712   1.001
 4422TIP3   OH213229   0.751   5.456   0.196
 4422TIP3    H113230   0.663   5.473   0.230
 4422TIP3    H213231   0.767   5.364   0.215
 4423TIP3   OH213232   4.601   4.431   4.859
 4423TIP3    H113233   4.554   4.506   4.896
 4423TIP3    H213234   4.557   4.354   4.895
 4424TIP3   OH213235   5.922   1.767   5.771
 4424TIP3    H113236   5.851   1.818   5.732
 4424TIP3    H213237   5.883   1.682   5.789
 4425TIP3   OH213238   6.517   6.716   2.925
 4425TIP3    H113239   6.430   6.712   2.886
 4425TIP3    H213240   6.513   6.655   2.998
 4426TIP3   OH213241   3.464   2.124   0.542
 4426TIP3    H113242   3.446   2.039   0.501
 4426TIP3    H213243   3.472   2.185   0.468
 4427TIP3   OH213244   7.099   0.133   4.270
 4427TIP3    H113245   7.067   0.043   4.275
 4427TIP3    H213246   7.090   0.166   4.359
 4428TIP3   OH213247   0.091   6.152   2.060
 4428TIP3    H113248   0.186   6.158   2.059
 4428TIP3    H213249   0.070   6.076   2.006
 4429TIP3   OH213250   6.512   4.341   5.398
 4429TIP3    H113251   6.420   4.370   5.398
 4429TIP3    H213252   6.547   4.372   5.315
 4430TIP3   OH213253   0.870   5.450   3.948
 4430TIP3    H113254   0.785   5.462   3.905
 4430TIP3    H213255   0.935   5.472   3.881
 4431TIP3   OH213256   3.761   2.927   0.368
 4431TIP3    H113257   3.749   2.863   0.298
 4431TIP3    H213258   3.825   2.989   0.334
 4432TIP3   OH213259   0.891   6.753   4.361
 4432TIP3    H113260   0.873   6.667   4.399
 4432TIP3    H213261   0.849   6.751   4.276
 4433TIP3   OH213262   5.606   2.486   0.529
 4433TIP3    H113263   5.569   2.437   0.603
 4433TIP3    H213264   5.621   2.574   0.563
 4434TIP3   OH213265   2.535   0.371   0.363
 4434TIP3    H113266   2.477   0.418   0.424
 4434TIP3    H213267   2.547   0.285   0.402
 4435TIP3   OH213268   1.635   1.287   4.170
 4435TIP3    H113269   1.619   1.202   4.211
 4435TIP3    H213270   1.692   1.333   4.232
 4436TIP3   OH213271   0.352   6.207   5.319
 4436TIP3    H113272   0.412   6.206   5.394
 4436TIP3    H213273   0.397   6.156   5.252
 4437TIP3   OH213274   3.161   2.543   2.610
 4437TIP3    H113275   3.209   2.469   2.574
 4437TIP3    H213276   3.185   2.545   2.702
 4438TIP3   OH213277   7.171   3.748   1.262
 4438TIP3    H113278   7.237   3.732   1.195
 4438TIP3    H213279   7.153   3.662   1.300
 4439TIP3   OH213280   4.217   4.993   2.606
 4439TIP3    H113281   4.202   4.902   2.631
 4439TIP3    H213282   4.222   5.040   2.689
 4440TIP3   OH213283   2.655   6.474   2.481
 4440TIP3    H113284   2.731   6.428   2.446
 4440TIP3    H213285   2.580   6.426   2.445
 4441TIP3   OH213286   4.530   5.263   5.085
 4441TIP3    H113287   4.492   5.302   5.163
 4441TIP3    H213288   4.599   5.205   5.118
 4442TIP3   OH213289   6.078   5.486   2.362
 4442TIP3    H113290   6.145   5.420   2.347
 4442TIP3    H213291   6.033   5.457   2.441
 4443TIP3   OH213292   4.624   0.946   0.773
 4443TIP3    H113293   4.603   1.025   0.725
 4443TIP3    H213294   4.602   0.967   0.864
 4444TIP3   OH213295   4.080   5.350   5.494
 4444TIP3    H113296   4.050   5.371   5.405
 4444TIP3    H213297   4.009   5.298   5.531
 4445TIP3   OH213298   3.485   1.517   0.144
 4445TIP3    H113299   3.441   1.507   0.228
 4445TIP3    H213300   3.511   1.609   0.142
 4446TIP3   OH213301   3.257   3.071   0.604
 4446TIP3    H113302   3.215   3.028   0.529
 4446TIP3    H213303   3.230   3.019   0.679
 4447TIP3   OH213304   3.096   3.212   3.911
 4447TIP3    H113305   3.077   3.245   3.999
 4447TIP3    H213306   3.190   3.194   3.912
 4448TIP3   OH213307   2.989   5.599   0.402
 4448TIP3    H113308   2.925   5.584   0.332
 4448TIP3    H213309   2.942   5.572   0.482
 4449TIP3   OH213310   1.940   5.968   2.462
 4449TIP3    H113311   2.034   5.958   2.474
 4449TIP3    H213312   1.901   5.900   2.516
 4450TIP3   OH213313   4.409   1.222   4.968
 4450TIP3    H113314   4.389   1.156   5.034
 4450TIP3    H213315   4.496   1.254   4.992
 4451TIP3   OH213316   5.256   1.864   0.953
 4451TIP3    H113317   5.315   1.788   0.945
 4451TIP3    H213318   5.183   1.832   1.006
 4452TIP3   OH213319   4.402   5.393   5.764
 4452TIP3    H113320   4.338   5.339   5.718
 4452TIP3    H213321   4.476   5.399   5.704
 4453TIP3   OH213322   5.343   2.850   3.721
 4453TIP3    H113323   5.346   2.938   3.684
 4453TIP3    H213324   5.430   2.836   3.758
 4454TIP3   OH213325   1.518   1.858   5.039
 4454TIP3    H113326   1.542   1.941   4.998
 4454TIP3    H213327   1.578   1.850   5.113
 4455TIP3   OH213328   2.807   5.559   2.153
 4455TIP3    H113329   2.889   5.544   2.106
 4455TIP3    H213330   2.762   5.475   2.150
 4456TIP3   OH213331   6.784   2.661   0.356
 4456TIP3    H113332   6.716   2.597   0.376
 4456TIP3    H213333   6.855   2.641   0.417
 4457TIP3   OH213334   7.125   5.757   2.791
 4457TIP3    H113335   7.210   5.741   2.751
 4457TIP3    H213336   7.098   5.671   2.823
 4458TIP3   OH213337   5.532   2.090   2.453
 4458TIP3    H113338   5.512   2.103   2.546
 4458TIP3    H213339   5.478   2.016   2.427
 4459TIP3   OH213340   0.115   0.479   3.582
 4459TIP3    H113341   0.155   0.502   3.665
 4459TIP3    H213342   0.046   0.416   3.604
 4460TIP3   OH213343   3.473   1.234   2.831
 4460TIP3    H113344   3.466   1.144   2.862
 4460TIP3    H213345   3.462   1.227   2.736
 4461TIP3   OH213346   2.674   3.188   5.756
 4461TIP3    H113347   2.594   3.140   5.735
 4461TIP3    H213348   2.713   3.207   5.670
 4462TIP3   OH213349   5.234   4.882   0.776
 4462TIP3    H113350   5.320   4.915   0.751
 4462TIP3    H213351   5.252   4.808   0.833
 4463TIP3   OH213352   4.108   1.496   0.728
 4463TIP3    H113353   4.044   1.454   0.671
 4463TIP3    H213354   4.116   1.585   0.694
 4464TIP3   OH213355   3.791   6.439   2.635
 4464TIP3    H113356   3.758   6.484   2.558
 4464TIP3    H213357   3.723   6.374   2.656
 4465TIP3   OH213358   1.410   2.334   4.957
 4465TIP3    H113359   1.322   2.301   4.977
 4465TIP3    H213360   1.426   2.402   5.023
 4466TIP3   OH213361   5.963   0.613   5.548
 4466TIP3    H113362   5.936   0.593   5.458
 4466TIP3    H213363   6.055   0.639   5.540
 4467TIP3   OH213364   6.082   0.218   5.826
 4467TIP3    H113365   6.038   0.153   5.881
 4467TIP3    H213366   6.041   0.301   5.849
 4468TIP3   OH213367   3.622   0.432   3.636
 4468TIP3    H113368   3.664   0.387   3.709
 4468TIP3    H213369   3.659   0.391   3.558
 4469TIP3   OH213370   4.900   1.361   0.416
 4469TIP3    H113371   4.894   1.275   0.457
 4469TIP3    H213372   4.920   1.421   0.489
 4470TIP3   OH213373   2.541   6.291   0.574
 4470TIP3    H113374   2.553   6.333   0.659
 4470TIP3    H213375   2.452   6.315   0.548
 4471TIP3   OH213376   3.486   3.814   5.494
 4471TIP3    H113377   3.461   3.725   5.471
 4471TIP3    H213378   3.515   3.808   5.585
 4472TIP3   OH213379   2.629   0.883   4.413
 4472TIP3    H113380   2.553   0.936   4.388
 4472TIP3    H213381   2.596   0.793   4.416
 4473TIP3   OH213382   0.270   0.362   2.055
 4473TIP3    H113383   0.184   0.353   2.016
 4473TIP3    H213384   0.253   0.397   2.142
 4474TIP3   OH213385   7.170   4.059   3.988
 4474TIP3    H113386   7.088   4.094   4.022
 4474TIP3    H213387   7.144   3.978   3.943
 4475TIP3   OH213388   5.323   1.072   0.629
 4475TIP3    H113389   5.233   1.046   0.608
 4475TIP3    H213390   5.337   1.152   0.579
 4476TIP3   OH213391   5.581   2.533   2.112
 4476TIP3    H113392   5.670   2.553   2.141
 4476TIP3    H213393   5.540   2.490   2.188
 4477TIP3   OH213394   5.124   6.547   3.154
 4477TIP3    H113395   5.038   6.569   3.119
 4477TIP3    H213396   5.164   6.631   3.175
 4478TIP3   OH213397   2.030   3.059   4.308
 4478TIP3    H113398   2.063   2.993   4.369
 4478TIP3    H213399   1.993   3.127   4.364
 4479TIP3   OH213400   1.367   3.981   4.212
 4479TIP3    H113401   1.444   4.011   4.260
 4479TIP3    H213402   1.298   3.976   4.278
 4480TIP3   OH213403   3.828   4.222   1.547
 4480TIP3    H113404   3.843   4.234   1.454
 4480TIP3    H213405   3.747   4.172   1.553
 4481TIP3   OH213406   0.061   2.015   4.494
 4481TIP3    H113407   0.129   2.058   4.545
 4481TIP3    H213408   0.106   1.943   4.449
 4482TIP3   OH213409   5.674   5.777   5.798
 4482TIP3    H113410   5.737   5.838   5.760
 4482TIP3    H213411   5.591   5.798   5.755
 4483TIP3   OH213412   3.580   3.044   0.900
 4483TIP3    H113413   3.549   2.989   0.828
 4483TIP3    H213414   3.630   2.985   0.956
 4484TIP3   OH213415   2.157   1.641   0.498
 4484TIP3    H113416   2.110   1.697   0.436
 4484TIP3    H213417   2.250   1.656   0.479
 4485TIP3   OH213418   5.483   4.762   4.887
 4485TIP3    H113419   5.509   4.775   4.978
 4485TIP3    H213420   5.495   4.668   4.872
 4486TIP3   OH213421   1.754   1.080   0.841
 4486TIP3    H113422   1.682   1.017   0.839
 4486TIP3    H213423   1.750   1.124   0.756
 4487TIP3   OH213424   3.945   6.677   4.209
 4487TIP3    H113425   3.890   6.724   4.272
 4487TIP3    H213426   3.970   6.597   4.254
 4488TIP3   OH213427   0.294   0.302   4.945
 4488TIP3    H113428   0.337   0.337   4.866
 4488TIP3    H213429   0.284   0.378   5.002
 4489TIP3   OH213430   4.384   1.363   1.759
 4489TIP3    H113431   4.418   1.429   1.698
 4489TIP3    H213432   4.313   1.321   1.712
 4490TIP3   OH213433   4.201   1.546   2.900
 4490TIP3    H113434   4.249   1.519   2.822
 4490TIP3    H213435   4.173   1.636   2.883
 4491TIP3   OH213436   6.555   0.614   0.623
 4491TIP3    H113437   6.507   0.632   0.542
 4491TIP3    H213438   6.591   0.526   0.611
 4492TIP3   OH213439   1.171   6.243   2.033
 4492TIP3    H113440   1.083   6.209   2.016
 4492TIP3    H213441   1.163   6.288   2.117
 4493TIP3   OH213442   0.783   5.131   2.783
 4493TIP3    H113443   0.811   5.168   2.700
 4493TIP3    H213444   0.855   5.151   2.843
 4494TIP3   OH213445   5.434   6.596   0.658
 4494TIP3    H113446   5.352   6.627   0.696
 4494TIP3    H213447   5.413   6.578   0.567
 4495TIP3   OH213448   1.776   4.125   3.847
 4495TIP3    H113449   1.723   4.150   3.771
 4495TIP3    H213450   1.754   4.190   3.914
 4496TIP3   OH213451   2.729   5.780   4.176
 4496TIP3    H113452   2.711   5.814   4.088
 4496TIP3    H213453   2.695   5.847   4.235
 4497TIP3   OH213454   4.360   4.104   2.008
 4497TIP3    H113455   4.406   4.187   1.992
 4497TIP3    H213456   4.389   4.077   2.095
 4498TIP3   OH213457   2.542   1.993   3.696
 4498TIP3    H113458   2.463   2.011   3.747
 4498TIP3    H213459   2.520   1.916   3.643
 4499TIP3   OH213460   0.743   4.737   4.406
 4499TIP3    H113461   0.753   4.643   4.415
 4499TIP3    H213462   0.705   4.749   4.319
 4500TIP3   OH213463   3.267   1.226   3.462
 4500TIP3    H113464   3.214   1.276   3.524
 4500TIP3    H213465   3.251   1.268   3.377
 4501TIP3   OH213466   3.602   1.980   4.132
 4501TIP3    H113467   3.541   1.910   4.156
 4501TIP3    H213468   3.678   1.934   4.096
 4502TIP3   OH213469   2.658   5.513   5.414
 4502TIP3    H113470   2.699   5.483   5.496
 4502TIP3    H213471   2.633   5.603   5.431
 4503TIP3   OH213472   5.048   6.201   0.789
 4503TIP3    H113473   4.975   6.202   0.851
 4503TIP3    H213474   5.008   6.220   0.704
 4504TIP3   OH213475   4.423   3.553   5.746
 4504TIP3    H113476   4.359   3.575   5.679
 4504TIP3    H213477   4.507   3.576   5.708
 4505TIP3   OH213478   7.111   1.049   5.101
 4505TIP3    H113479   7.074   1.128   5.062
 4505TIP3    H213480   7.077   0.977   5.047
 4506TIP3   OH213481   4.516   5.533   2.727
 4506TIP3    H113482   4.478   5.446   2.734
 4506TIP3    H213483   4.517   5.567   2.817
 4507TIP3   OH213484   6.659   4.601   1.186
 4507TIP3    H113485   6.654   4.512   1.221
 4507TIP3    H213486   6.717   4.594   1.110
 4508TIP3   OH213487   0.592   0.137   0.819
 4508TIP3    H113488   0.580   0.052   0.860
 4508TIP3    H213489   0.631   0.117   0.734
 4509TIP3   OH213490   2.460   3.436   0.567
 4509TIP3    H113491   2.389   3.455   0.628
 4509TIP3    H213492   2.531   3.494   0.595
 4510TIP3   OH213493   1.410   4.118   1.704
 4510TIP3    H113494   1.487   4.173   1.712
 4510TIP3    H213495   1.369   4.146   1.622
 4511TIP3   OH213496   4.334   6.028   2.760
 4511TIP3    H113497   4.274   5.968   2.715
 4511TIP3    H213498   4.353   6.096   2.696
 4512TIP3   OH213499   3.268   6.086   1.755
 4512TIP3    H113500   3.358   6.106   1.727
 4512TIP3    H213501   3.274   6.077   1.850
 4513TIP3   OH213502   6.451   3.525   0.818
 4513TIP3    H113503   6.384   3.513   0.750
 4513TIP3    H213504   6.490   3.439   0.829
 4514TIP3   OH213505   2.316   3.003   4.115
 4514TIP3    H113506   2.298   2.956   4.197
 4514TIP3    H213507   2.232   3.006   4.070
 4515TIP3   OH213508   1.427   2.669   0.509
 4515TIP3    H113509   1.345   2.621   0.504
 4515TIP3    H213510   1.411   2.736   0.575
 4516TIP3   OH213511   0.943   0.781   0.278
 4516TIP3    H113512   1.008   0.714   0.259
 4516TIP3    H213513   0.930   0.826   0.195
 4517TIP3   OH213514   3.151   5.314   3.827
 4517TIP3    H113515   3.116   5.284   3.743
 4517TIP3    H213516   3.242   5.337   3.807
 4518TIP3   OH213517   5.529   1.166   1.940
 4518TIP3    H113518   5.483   1.111   1.877
 4518TIP3    H213519   5.609   1.192   1.895
 4519TIP3   OH213520   4.189   3.856   2.581
 4519TIP3    H113521   4.263   3.816   2.627
 4519TIP3    H213522   4.171   3.796   2.508
 4520TIP3   OH213523   5.579   2.791   5.035
 4520TIP3    H113524   5.541   2.710   5.069
 4520TIP3    H213525   5.526   2.811   4.957
 4521TIP3   OH213526   3.120   4.043   2.113
 4521TIP3    H113527   3.028   4.018   2.103
 4521TIP3    H213528   3.120   4.107   2.184
 4522TIP3   OH213529   2.313   4.310   2.112
 4522TIP3    H113530   2.218   4.297   2.124
 4522TIP3    H213531   2.350   4.300   2.199
 4523TIP3   OH213532   6.493   0.246   5.506
 4523TIP3    H113533   6.414   0.299   5.505
 4523TIP3    H213534   6.467   0.163   5.464
 4524TIP3   OH213535   2.859   6.748   4.049
 4524TIP3    H113536   2.864   6.823   3.991
 4524TIP3    H213537   2.777   6.759   4.097
 4525TIP3   OH213538   3.514   4.907   1.560
 4525TIP3    H113539   3.549   4.968   1.496
 4525TIP3    H213540   3.557   4.932   1.643
 4526TIP3   OH213541   4.401   0.228   4.036
 4526TIP3    H113542   4.453   0.147   4.038
 4526TIP3    H213543   4.323   0.205   3.985
 4527TIP3   OH213544   3.785   3.604   2.588
 4527TIP3    H113545   3.871   3.628   2.620
 4527TIP3    H213546   3.779   3.509   2.602
 4528TIP3   OH213547   5.602   5.379   3.631
 4528TIP3    H113548   5.693   5.383   3.604
 4528TIP3    H213549   5.598   5.431   3.712
 4529TIP3   OH213550   0.883   4.382   5.596
 4529TIP3    H113551   0.805   4.434   5.576
 4529TIP3    H213552   0.901   4.402   5.688
 4530TIP3   OH213553   3.146   5.237   4.679
 4530TIP3    H113554   3.067   5.283   4.652
 4530TIP3    H213555   3.173   5.282   4.759
 4531TIP3   OH213556   0.995   2.141   5.282
 4531TIP3    H113557   0.978   2.084   5.208
 4531TIP3    H213558   0.968   2.228   5.252
 4532TIP3   OH213559   1.867   5.371   2.607
 4532TIP3    H113560   1.860   5.426   2.528
 4532TIP3    H213561   1.847   5.283   2.576
 4533TIP3   OH213562   4.957   3.623   1.605
 4533TIP3    H113563   5.007   3.668   1.673
 4533TIP3    H213564   5.018   3.560   1.568
 4534TIP3   OH213565   0.824   4.490   1.524
 4534TIP3    H113566   0.737   4.494   1.483
 4534TIP3    H213567   0.855   4.401   1.506
 4535TIP3   OH213568   0.338   3.286   5.365
 4535TIP3    H113569   0.417   3.340   5.355
 4535TIP3    H213570   0.356   3.231   5.442
 4536TIP3   OH213571   3.818   3.852   2.176
 4536TIP3    H113572   3.788   3.939   2.149
 4536TIP3    H213573   3.906   3.866   2.210
 4537TIP3   OH213574   6.650   5.159   2.688
 4537TIP3    H113575   6.563   5.198   2.697
 4537TIP3    H213576   6.671   5.171   2.595
 4538TIP3   OH213577   3.606   5.969   2.008
 4538TIP3    H113578   3.680   6.008   2.055
 4538TIP3    H213579   3.607   5.877   2.035
 4539TIP3   OH213580   6.327   2.599   5.521
 4539TIP3    H113581   6.414   2.565   5.538
 4539TIP3    H213582   6.338   2.694   5.518
 4540TIP3   OH213583   1.612   0.119   5.755
 4540TIP3    H113584   1.581   0.206   5.730
 4540TIP3    H213585   1.546   0.087   5.817
 4541TIP3   OH213586   2.762   2.720   5.765
 4541TIP3    H113587   2.691   2.705   5.827
 4541TIP3    H213588   2.841   2.721   5.819
 4542TIP3   OH213589   6.396   5.432   1.545
 4542TIP3    H113590   6.374   5.368   1.478
 4542TIP3    H213591   6.335   5.504   1.530
 4543TIP3   OH213592   6.552   1.097   5.464
 4543TIP3    H113593   6.634   1.051   5.444
 4543TIP3    H213594   6.555   1.176   5.410
 4544TIP3   OH213595   5.851   3.565   4.364
 4544TIP3    H113596   5.781   3.612   4.318
 4544TIP3    H213597   5.818   3.476   4.375
 4545TIP3   OH213598   2.024   2.527   3.539
 4545TIP3    H113599   2.022   2.433   3.551
 4545TIP3    H213600   1.985   2.563   3.619
 4546TIP3   OH213601   6.805   1.362   4.823
 4546TIP3    H113602   6.783   1.447   4.786
 4546TIP3    H213603   6.866   1.324   4.760
 4547TIP3   OH213604   2.802   2.327   1.732
 4547TIP3    H113605   2.811   2.350   1.825
 4547TIP3    H213606   2.885   2.285   1.709
 4548TIP3   OH213607   6.142   6.483   0.592
 4548TIP3    H113608   6.153   6.450   0.681
 4548TIP3    H213609   6.071   6.546   0.597
 4549TIP3   OH213610   5.152   5.717   2.963
 4549TIP3    H113611   5.132   5.641   2.909
 4549TIP3    H213612   5.197   5.777   2.904
 4550TIP3   OH213613   6.850   2.049   1.327
 4550TIP3    H113614   6.784   2.010   1.269
 4550TIP3    H213615   6.803   2.120   1.372
 4551TIP3   OH213616   1.650   3.762   5.867
 4551TIP3    H113617   1.724   3.808   5.826
 4551TIP3    H213618   1.648   3.677   5.823
 4552TIP3   OH213619   2.592   5.945   5.856
 4552TIP3    H113620   2.578   5.850   5.859
 4552TIP3    H213621   2.674   5.956   5.808
 4553TIP3   OH213622   2.745   2.874   4.447
 4553TIP3    H113623   2.743   2.876   4.351
 4553TIP3    H213624   2.685   2.944   4.473
 4554TIP3   OH213625   5.179   3.904   1.351
 4554TIP3    H113626   5.198   3.850   1.427
 4554TIP3    H213627   5.228   3.864   1.280
 4555TIP3   OH213628   4.413   6.365   3.133
 4555TIP3    H113629   4.499   6.330   3.152
 4555TIP3    H213630   4.352   6.299   3.166
 4556TIP3   OH213631   3.847   1.208   2.012
 4556TIP3    H113632   3.918   1.252   2.060
 4556TIP3    H213633   3.883   1.192   1.925
 4557TIP3   OH213634   4.177   5.983   0.041
 4557TIP3    H113635   4.239   5.913   0.019
 4557TIP3    H213636   4.182   6.042  -0.034
 4558TIP3   OH213637   4.736   0.178   0.738
 4558TIP3    H113638   4.783   0.261   0.733
 4558TIP3    H213639   4.711   0.159   0.648
 4559TIP3   OH213640   0.742   3.127   0.441
 4559TIP3    H113641   0.764   3.210   0.400
 4559TIP3    H213642   0.797   3.063   0.396
 4560TIP3   OH213643   6.127   6.074   5.473
 4560TIP3    H113644   6.086   6.161   5.465
 4560TIP3    H213645   6.203   6.078   5.415
 4561TIP3   OH213646   6.763   3.994   3.726
 4561TIP3    H113647   6.692   3.970   3.667
 4561TIP3    H213648   6.839   3.945   3.694
 4562TIP3   OH213649   5.541   2.541   5.169
 4562TIP3    H113650   5.526   2.452   5.139
 4562TIP3    H213651   5.597   2.531   5.246
 4563TIP3   OH213652   4.219   3.109   2.499
 4563TIP3    H113653   4.235   3.028   2.548
 4563TIP3    H213654   4.206   3.176   2.567
 4564TIP3   OH213655   1.696   5.622   0.495
 4564TIP3    H113656   1.726   5.555   0.434
 4564TIP3    H213657   1.603   5.603   0.508
 4565TIP3   OH213658   0.455   0.434   1.615
 4565TIP3    H113659   0.369   0.393   1.613
 4565TIP3    H213660   0.437   0.528   1.618
 4566TIP3   OH213661   2.731   4.919   1.898
 4566TIP3    H113662   2.737   4.883   1.810
 4566TIP3    H213663   2.807   4.977   1.905
 4567TIP3   OH213664   0.446   5.676   4.248
 4567TIP3    H113665   0.401   5.611   4.194
 4567TIP3    H213666   0.526   5.697   4.199
 4568TIP3   OH213667   0.915   1.879   2.097
 4568TIP3    H113668   0.914   1.787   2.070
 4568TIP3    H213669   1.007   1.904   2.092
 4569TIP3   OH213670   6.951   4.982   4.765
 4569TIP3    H113671   6.987   4.991   4.677
 4569TIP3    H213672   6.975   4.893   4.792
 4570TIP3   OH213673   5.813   3.293   5.223
 4570TIP3    H113674   5.731   3.260   5.258
 4570TIP3    H213675   5.823   3.379   5.263
 4571TIP3   OH213676   0.587   4.483   1.368
 4571TIP3    H113677   0.625   4.452   1.286
 4571TIP3    H213678   0.493   4.466   1.360
 4572TIP3   OH213679   1.465   3.161   5.395
 4572TIP3    H113680   1.512   3.077   5.396
 4572TIP3    H213681   1.380   3.141   5.357
 4573TIP3   OH213682   3.139   6.058   3.536
 4573TIP3    H113683   3.215   6.084   3.589
 4573TIP3    H213684   3.088   6.001   3.595
 4574TIP3   OH213685   5.335   5.261   4.326
 4574TIP3    H113686   5.388   5.181   4.336
 4574TIP3    H213687   5.399   5.332   4.322
 4575TIP3   OH213688   0.514   4.155   3.382
 4575TIP3    H113689   0.467   4.094   3.326
 4575TIP3    H213690   0.448   4.220   3.408
 4576TIP3   OH213691   6.926   4.411   1.379
 4576TIP3    H113692   6.966   4.473   1.319
 4576TIP3    H213693   6.991   4.342   1.391
 4577TIP3   OH213694   5.275   1.201   2.355
 4577TIP3    H113695   5.321   1.229   2.276
 4577TIP3    H213696   5.203   1.147   2.323
 4578TIP3   OH213697   7.129   2.826   4.806
 4578TIP3    H113698   7.153   2.825   4.713
 4578TIP3    H213699   7.148   2.916   4.834
 4579TIP3   OH213700   6.334   2.831   2.502
 4579TIP3    H113701   6.339   2.770   2.576
 4579TIP3    H213702   6.266   2.794   2.446
 4580TIP3   OH213703   5.621   4.377   1.207
 4580TIP3    H113704   5.670   4.453   1.238
 4580TIP3    H213705   5.591   4.333   1.286
 4581TIP3   OH213706   6.000   2.363   2.066
 4581TIP3    H113707   6.024   2.296   2.130
 4581TIP3    H213708   5.908   2.344   2.046
 4582TIP3   OH213709   6.706   0.476   0.936
 4582TIP3    H113710   6.673   0.565   0.932
 4582TIP3    H213711   6.739   0.458   0.848
 4583TIP3   OH213712   1.316   2.557   1.285
 4583TIP3    H113713   1.287   2.475   1.325
 4583TIP3    H213714   1.252   2.574   1.216
 4584TIP3   OH213715   0.466   5.409   1.169
 4584TIP3    H113716   0.482   5.315   1.163
 4584TIP3    H213717   0.554   5.449   1.165
 4585TIP3   OH213718   1.199   4.245   0.201
 4585TIP3    H113719   1.217   4.173   0.140
 4585TIP3    H213720   1.116   4.222   0.242
 4586TIP3   OH213721   6.076   0.625   5.115
 4586TIP3    H113722   6.070   0.556   5.050
 4586TIP3    H213723   6.155   0.673   5.091
 4587TIP3   OH213724   3.764   5.219   0.133
 4587TIP3    H113725   3.725   5.196   0.049
 4587TIP3    H213726   3.854   5.189   0.127
 4588TIP3   OH213727   3.014   5.210   3.104
 4588TIP3    H113728   3.026   5.116   3.092
 4588TIP3    H213729   3.071   5.232   3.178
 4589TIP3   OH213730   6.192   1.585   1.441
 4589TIP3    H113731   6.122   1.643   1.410
 4589TIP3    H213732   6.166   1.563   1.531
 4590TIP3   OH213733   3.840   1.805   2.504
 4590TIP3    H113734   3.874   1.716   2.498
 4590TIP3    H213735   3.762   1.797   2.558
 4591TIP3   OH213736   2.459   1.102   1.466
 4591TIP3    H113737   2.429   1.054   1.544
 4591TIP3    H213738   2.417   1.057   1.393
 4592TIP3   OH213739   5.553   2.097   3.526
 4592TIP3    H113740   5.639   2.105   3.567
 4592TIP3    H213741   5.515   2.018   3.564
 4593TIP3   OH213742   4.768   5.514   3.365
 4593TIP3    H113743   4.799   5.559   3.287
 4593TIP3    H213744   4.846   5.474   3.403
 4594TIP3   OH213745   2.446   5.227   2.757
 4594TIP3    H113746   2.496   5.237   2.676
 4594TIP3    H213747   2.375   5.166   2.734
 4595TIP3   OH213748   7.106   0.912   4.516
 4595TIP3    H113749   7.144   0.824   4.514
 4595TIP3    H213750   7.082   0.930   4.425
 4596TIP3   OH213751   5.180   2.831   5.307
 4596TIP3    H113752   5.101   2.815   5.358
 4596TIP3    H213753   5.165   2.787   5.223
 4597TIP3   OH213754   3.392   3.629   0.382
 4597TIP3    H113755   3.300   3.614   0.360
 4597TIP3    H213756   3.392   3.702   0.444
 4598TIP3   OH213757   0.118   1.586   5.558
 4598TIP3    H113758   0.178   1.546   5.495
 4598TIP3    H213759   0.032   1.580   5.518
 4599TIP3   OH213760   3.735   6.416   0.002
 4599TIP3    H113761   3.681   6.380   0.072
 4599TIP3    H213762   3.791   6.480   0.046
 4600TIP3   OH213763   5.821  -0.010   4.853
 4600TIP3    H113764   5.872  -0.090   4.847
 4600TIP3    H213765   5.863   0.040   4.923
 4601TIP3   OH213766   0.378   1.018   2.942
 4601TIP3    H113767   0.297   1.069   2.932
 4601TIP3    H213768   0.447   1.084   2.943
 4602TIP3   OH213769   2.693   4.676   1.318
 4602TIP3    H113770   2.630   4.695   1.387
 4602TIP3    H213771   2.746   4.604   1.353
 4603TIP3   OH213772   6.785   3.191   5.090
 4603TIP3    H113773   6.707   3.182   5.144
 4603TIP3    H213774   6.846   3.243   5.143
 4604TIP3   OH213775   1.561   5.157   2.295
 4604TIP3    H113776   1.578   5.069   2.261
 4604TIP3    H213777   1.526   5.205   2.219
 4605TIP3   OH213778   5.068   4.133   0.409
 4605TIP3    H113779   4.981   4.150   0.443
 4605TIP3    H213780   5.058   4.137   0.313
 4606TIP3   OH213781   1.154   2.777   4.161
 4606TIP3    H113782   1.206   2.697   4.165
 4606TIP3    H213783   1.212   2.840   4.118
 4607TIP3   OH213784   2.860   5.278   3.391
 4607TIP3    H113785   2.796   5.261   3.461
 4607TIP3    H213786   2.814   5.253   3.311
 4608TIP3   OH213787   3.535   3.781   2.954
 4608TIP3    H113788   3.628   3.767   2.938
 4608TIP3    H213789   3.512   3.857   2.901
 4609TIP3   OH213790  -0.009   4.094   4.328
 4609TIP3    H113791   0.059   4.064   4.267
 4609TIP3    H213792  -0.017   4.023   4.391
 4610TIP3   OH213793   1.875   1.889   0.352
 4610TIP3    H113794   1.931   1.938   0.291
 4610TIP3    H213795   1.890   1.931   0.437
 4611TIP3   OH213796   2.705   4.790   3.376
 4611TIP3    H113797   2.800   4.797   3.366
 4611TIP3    H213798   2.672   4.774   3.288
 4612TIP3   OH213799   5.744   6.308   4.485
 4612TIP3    H113800   5.781   6.316   4.574
 4612TIP3    H213801   5.663   6.359   4.489
 4613TIP3   OH213802   0.954   1.977   4.120
 4613TIP3    H113803   0.976   2.045   4.184
 4613TIP3    H213804   1.038   1.935   4.101
 4614TIP3   OH213805   0.778   5.197   2.119
 4614TIP3    H113806   0.764   5.102   2.113
 4614TIP3    H213807   0.692   5.232   2.141
 4615TIP3   OH213808   1.450   3.265   3.418
 4615TIP3    H113809   1.380   3.321   3.451
 4615TIP3    H213810   1.435   3.180   3.461
 4616TIP3   OH213811   6.622   3.323   1.859
 4616TIP3    H113812   6.671   3.242   1.850
 4616TIP3    H213813   6.595   3.346   1.770
 4617TIP3   OH213814   6.671   4.870   2.572
 4617TIP3    H113815   6.582   4.892   2.547
 4617TIP3    H213816   6.723   4.882   2.492
 4618TIP3   OH213817   0.100   4.524   0.580
 4618TIP3    H113818   0.017   4.507   0.626
 4618TIP3    H213819   0.079   4.512   0.488
 4619TIP3   OH213820   1.195   1.501   1.263
 4619TIP3    H113821   1.237   1.484   1.179
 4619TIP3    H213822   1.238   1.442   1.324
 4620TIP3   OH213823   5.484   3.097   0.220
 4620TIP3    H113824   5.459   3.130   0.307
 4620TIP3    H213825   5.409   3.120   0.164
 4621TIP3   OH213826   2.939   2.842   2.881
 4621TIP3    H113827   2.930   2.932   2.848
 4621TIP3    H213828   3.020   2.810   2.842
 4622TIP3   OH213829   5.087   0.160   1.385
 4622TIP3    H113830   5.036   0.114   1.451
 4622TIP3    H213831   5.172   0.117   1.385
 4623TIP3   OH213832   2.470   3.354   3.122
 4623TIP3    H113833   2.497   3.441   3.093
 4623TIP3    H213834   2.414   3.369   3.198
 4624TIP3   OH213835   3.006   1.251   4.101
 4624TIP3    H113836   3.000   1.199   4.182
 4624TIP3    H213837   3.017   1.186   4.032
 4625TIP3   OH213838   2.412   6.103   2.204
 4625TIP3    H113839   2.367   6.030   2.162
 4625TIP3    H213840   2.418   6.169   2.134
 4626TIP3   OH213841   2.293   0.166   2.655
 4626TIP3    H113842   2.368   0.134   2.705
 4626TIP3    H213843   2.332   0.207   2.578
 4627TIP3   OH213844   1.577   0.286   3.409
 4627TIP3    H113845   1.652   0.228   3.421
 4627TIP3    H213846   1.615   0.373   3.396
 4628TIP3   OH213847   1.107   6.352   0.929
 4628TIP3    H113848   1.187   6.403   0.943
 4628TIP3    H213849   1.135   6.276   0.879
 4629TIP3   OH213850   5.623   4.278   2.325
 4629TIP3    H113851   5.671   4.282   2.408
 4629TIP3    H213852   5.538   4.317   2.345
 4630TIP3   OH213853   3.624   0.311   5.828
 4630TIP3    H113854   3.592   0.320   5.918
 4630TIP3    H213855   3.718   0.292   5.838
 4631TIP3   OH213856   6.333   1.057   3.720
 4631TIP3    H113857   6.397   1.118   3.683
 4631TIP3    H213858   6.340   0.978   3.667
 4632TIP3   OH213859   2.691   3.243   1.745
 4632TIP3    H113860   2.739   3.303   1.802
 4632TIP3    H213861   2.753   3.174   1.725
 4633TIP3   OH213862   0.576   6.131   3.182
 4633TIP3    H113863   0.589   6.203   3.244
 4633TIP3    H213864   0.492   6.092   3.208
 4634TIP3   OH213865   5.915   5.677   0.117
 4634TIP3    H113866   5.890   5.740   0.185
 4634TIP3    H213867   5.837   5.623   0.105
 4635TIP3   OH213868   4.373   1.886   4.258
 4635TIP3    H113869   4.335   1.806   4.296
 4635TIP3    H213870   4.404   1.936   4.333
 4636TIP3   OH213871   1.773   2.529   0.827
 4636TIP3    H113872   1.843   2.497   0.883
 4636TIP3    H213873   1.705   2.559   0.888
 4637TIP3   OH213874   1.284   2.303   0.130
 4637TIP3    H113875   1.319   2.389   0.108
 4637TIP3    H213876   1.341   2.272   0.201
 4638TIP3   OH213877   6.578   0.085   1.184
 4638TIP3    H113878   6.561   0.141   1.259
 4638TIP3    H213879   6.649   0.027   1.213
 4639TIP3   OH213880   6.094   3.451   5.532
 4639TIP3    H113881   6.160   3.516   5.507
 4639TIP3    H213882   6.129   3.368   5.502
 4640TIP3   OH213883   2.397   6.366   5.714
 4640TIP3    H113884   2.322   6.406   5.758
 4640TIP3    H213885   2.435   6.436   5.661
 4641TIP3   OH213886   2.820   2.983   3.409
 4641TIP3    H113887   2.852   3.010   3.322
 4641TIP3    H213888   2.829   3.061   3.463
 4642TIP3   OH213889   4.466   2.720   2.694
 4642TIP3    H113890   4.519   2.764   2.760
 4642TIP3    H213891   4.412   2.789   2.656
 4643TIP3   OH213892   0.655   0.418   4.610
 4643TIP3    H113893   0.712   0.364   4.555
 4643TIP3    H213894   0.691   0.408   4.699
 4644TIP3   OH213895   3.003   1.973   1.982
 4644TIP3    H113896   3.086   2.018   1.965
 4644TIP3    H213897   2.952   1.985   1.902
 4645TIP3   OH213898   3.441   5.475   0.901
 4645TIP3    H113899   3.415   5.386   0.925
 4645TIP3    H213900   3.358   5.522   0.891
 4646TIP3   OH213901   1.120   5.897   0.041
 4646TIP3    H113902   1.153   5.838  -0.027
 4646TIP3    H213903   1.129   5.985   0.004
 4647TIP3   OH213904   1.121   0.145   2.658
 4647TIP3    H113905   1.055   0.190   2.605
 4647TIP3    H213906   1.078   0.132   2.743
 4648TIP3   OH213907   7.111   0.801   2.610
 4648TIP3    H113908   7.055   0.815   2.686
 4648TIP3    H213909   7.196   0.776   2.647
 4649TIP3   OH213910   3.381   0.303   3.284
 4649TIP3    H113911   3.442   0.333   3.217
 4649TIP3    H213912   3.401   0.210   3.294
 4650TIP3   OH213913   2.838   4.841   4.019
 4650TIP3    H113914   2.861   4.845   3.926
 4650TIP3    H213915   2.769   4.906   4.029
 4651TIP3   OH213916   5.617   3.273   3.497
 4651TIP3    H113917   5.665   3.230   3.427
 4651TIP3    H213918   5.626   3.367   3.479
 4652TIP3   OH213919   5.707   0.041   5.598
 4652TIP3    H113920   5.666   0.071   5.680
 4652TIP3    H213921   5.638   0.050   5.533
 4653TIP3   OH213922   0.744   4.892   2.196
 4653TIP3    H113923   0.655   4.890   2.161
 4653TIP3    H213924   0.741   4.833   2.272
 4654TIP3   OH213925   1.449   5.949   0.643
 4654TIP3    H113926   1.437   5.988   0.557
 4654TIP3    H213927   1.366   5.902   0.659
 4655TIP3   OH213928   5.744   2.693   2.719
 4655TIP3    H113929   5.777   2.605   2.737
 4655TIP3    H213930   5.800   2.726   2.650
 4656TIP3   OH213931   5.828   6.356   1.243
 4656TIP3    H113932   5.876   6.375   1.163
 4656TIP3    H213933   5.859   6.269   1.270
 4657TIP3   OH213934   4.561   2.505   4.490
 4657TIP3    H113935   4.478   2.509   4.443
 4657TIP3    H213936   4.586   2.597   4.501
 4658TIP3   OH213937   6.095   2.673   4.669
 4658TIP3    H113938   6.156   2.614   4.625
 4658TIP3    H213939   6.085   2.747   4.608
 4659TIP3   OH213940   3.784   4.265   3.361
 4659TIP3    H113941   3.793   4.208   3.284
 4659TIP3    H213942   3.793   4.354   3.327
 4660TIP3   OH213943   6.034   3.942   2.243
 4660TIP3    H113944   5.941   3.959   2.256
 4660TIP3    H213945   6.043   3.848   2.260
 4661TIP3   OH213946   5.650   0.455   3.239
 4661TIP3    H113947   5.562   0.473   3.272
 4661TIP3    H213948   5.661   0.361   3.250
 4662TIP3   OH213949   4.098   0.627   0.470
 4662TIP3    H113950   4.143   0.577   0.402
 4662TIP3    H213951   4.006   0.600   0.463
 4663TIP3   OH213952   6.324   0.462   1.710
 4663TIP3    H113953   6.414   0.446   1.739
 4663TIP3    H213954   6.309   0.396   1.642
 4664TIP3   OH213955   4.516   4.287   2.587
 4664TIP3    H113956   4.596   4.236   2.594
 4664TIP3    H213957   4.530   4.363   2.644
 4665TIP3   OH213958   0.373   4.734   4.493
 4665TIP3    H113959   0.380   4.775   4.407
 4665TIP3    H213960   0.308   4.664   4.482
 4666TIP3   OH213961   4.148   6.693   2.963
 4666TIP3    H113962   4.204   6.770   2.963
 4666TIP3    H213963   4.186   6.635   2.897
 4667TIP3   OH213964   1.124   0.567   0.277
 4667TIP3    H113965   1.209   0.565   0.321
 4667TIP3    H213966   1.140   0.613   0.195
 4668TIP3   OH213967   1.961   5.612   1.727
 4668TIP3    H113968   1.945   5.522   1.755
 4668TIP3    H213969   1.881   5.660   1.749
 4669TIP3   OH213970   5.518   0.079   1.888
 4669TIP3    H113971   5.494   0.084   1.795
 4669TIP3    H213972   5.550  -0.011   1.899
 4670TIP3   OH213973   4.430   1.194   0.496
 4670TIP3    H113974   4.481   1.265   0.457
 4670TIP3    H213975   4.392   1.232   0.575
 4671TIP3   OH213976   4.692   0.829   5.462
 4671TIP3    H113977   4.682   0.735   5.477
 4671TIP3    H213978   4.749   0.834   5.385
 4672TIP3   OH213979   4.228   6.639   4.303
 4672TIP3    H113980   4.186   6.557   4.277
 4672TIP3    H213981   4.195   6.656   4.391
 4673TIP3   OH213982   2.198   1.591   1.625
 4673TIP3    H113983   2.108   1.613   1.601
 4673TIP3    H213984   2.211   1.632   1.711
 4674TIP3   OH213985   2.276   5.077   5.510
 4674TIP3    H113986   2.342   5.010   5.491
 4674TIP3    H213987   2.310   5.156   5.468
 4675TIP3   OH213988   0.952   2.278   1.511
 4675TIP3    H113989   1.028   2.261   1.566
 4675TIP3    H213990   0.956   2.372   1.493
 4676TIP3   OH213991   1.571   6.680   1.835
 4676TIP3    H113992   1.542   6.625   1.908
 4676TIP3    H213993   1.492   6.723   1.804
 4677TIP3   OH213994   5.361   2.084   0.714
 4677TIP3    H113995   5.368   2.002   0.764
 4677TIP3    H213996   5.401   2.065   0.630
 4678TIP3   OH213997   6.919   4.647   4.168
 4678TIP3    H113998   6.919   4.606   4.082
 4678TIP3    H213999   7.011   4.665   4.187
 4679TIP3   OH214000   1.781   0.935   0.543
 4679TIP3    H114001   1.730   0.900   0.470
 4679TIP3    H214002   1.777   1.030   0.533
 4680TIP3   OH214003   6.119   6.847   1.515
 4680TIP3    H114004   6.184   6.893   1.463
 4680TIP3    H214005   6.125   6.755   1.487
 4681TIP3   OH214006   2.337   6.626   1.226
 4681TIP3    H114007   2.378   6.578   1.298
 4681TIP3    H214008   2.258   6.665   1.264
 4682TIP3   OH214009   0.213   2.016   2.627
 4682TIP3    H114010   0.292   2.061   2.658
 4682TIP3    H214011   0.230   1.924   2.645
 4683TIP3   OH214012   4.074   5.111   4.293
 4683TIP3    H114013   4.038   5.058   4.222
 4683TIP3    H214014   4.016   5.095   4.367
 4684TIP3   OH214015   4.496   5.938   1.056
 4684TIP3    H114016   4.510   6.033   1.064
 4684TIP3    H214017   4.402   5.928   1.070
 4685TIP3   OH214018   1.029   6.088   3.604
 4685TIP3    H114019   1.016   6.110   3.512
 4685TIP3    H214020   1.013   6.170   3.651
 4686TIP3   OH214021   0.888   5.388   2.413
 4686TIP3    H114022   0.930   5.473   2.424
 4686TIP3    H214023   0.869   5.382   2.320
 4687TIP3   OH214024   0.181   6.430   1.255
 4687TIP3    H114025   0.170   6.388   1.170
 4687TIP3    H214026   0.152   6.520   1.242
 4688TIP3   OH214027   3.394   4.437   4.813
 4688TIP3    H114028   3.364   4.528   4.812
 4688TIP3    H214029   3.324   4.389   4.858
 4689TIP3   OH214030   2.831   4.372   1.086
 4689TIP3    H114031   2.832   4.341   1.176
 4689TIP3    H214032   2.850   4.294   1.033
 4690TIP3   OH214033   3.705   4.444   1.129
 4690TIP3    H114034   3.620   4.401   1.132
 4690TIP3    H214035   3.752   4.401   1.058
 4691TIP3   OH214036   2.067   4.395   2.973
 4691TIP3    H114037   2.156   4.364   2.960
 4691TIP3    H214038   2.066   4.483   2.937
 4692TIP3   OH214039   0.881   2.327   5.485
 4692TIP3    H114040   0.925   2.393   5.538
 4692TIP3    H214041   0.827   2.377   5.424
 4693TIP3   OH214042   1.622   6.220   1.440
 4693TIP3    H114043   1.686   6.149   1.432
 4693TIP3    H214044   1.674   6.299   1.455
 4694TIP3   OH214045   6.744   4.659   5.747
 4694TIP3    H114046   6.805   4.620   5.684
 4694TIP3    H214047   6.667   4.601   5.744
 4695TIP3   OH214048   2.026   3.793   3.603
 4695TIP3    H114049   2.112   3.756   3.626
 4695TIP3    H214050   1.997   3.838   3.682
 4696TIP3   OH214051   5.036   1.703   0.987
 4696TIP3    H114052   5.085   1.621   0.997
 4696TIP3    H214053   4.947   1.675   0.967
 4697TIP3   OH214054   4.294   5.654   5.624
 4697TIP3    H114055   4.215   5.677   5.674
 4697TIP3    H214056   4.333   5.582   5.674
 4698TIP3   OH214057   7.072   2.471   0.628
 4698TIP3    H114058   7.055   2.404   0.695
 4698TIP3    H214059   7.167   2.484   0.631
 4699TIP3   OH214060   1.575   0.755   1.582
 4699TIP3    H114061   1.592   0.715   1.497
 4699TIP3    H214062   1.575   0.849   1.565
 4700TIP3   OH214063   4.720   1.310   2.194
 4700TIP3    H114064   4.663   1.342   2.265
 4700TIP3    H214065   4.768   1.388   2.165
 4701TIP3   OH214066   2.617   5.345   1.636
 4701TIP3    H114067   2.674   5.369   1.710
 4701TIP3    H214068   2.588   5.429   1.600
 4702TIP3   OH214069   3.322   1.370   2.125
 4702TIP3    H114070   3.245   1.386   2.180
 4702TIP3    H214071   3.289   1.377   2.035
 4703TIP3   OH214072   5.726   1.439   2.953
 4703TIP3    H114073   5.707   1.505   3.019
 4703TIP3    H214074   5.642   1.421   2.911
 4704TIP3   OH214075   1.416   3.205   1.216
 4704TIP3    H114076   1.391   3.117   1.244
 4704TIP3    H214077   1.395   3.207   1.122
 4705TIP3   OH214078   2.496   6.764   2.712
 4705TIP3    H114079   2.536   6.687   2.751
 4705TIP3    H214080   2.465   6.736   2.627
 4706TIP3   OH214081   4.648   4.091   4.492
 4706TIP3    H114082   4.557   4.073   4.517
 4706TIP3    H214083   4.649   4.077   4.397
 4707TIP3   OH214084   6.019   0.746   2.677
 4707TIP3    H114085   6.059   0.819   2.631
 4707TIP3    H214086   5.965   0.701   2.611
 4708TIP3   OH214087   4.621   2.553   1.276
 4708TIP3    H114088   4.618   2.641   1.239
 4708TIP3    H214089   4.714   2.531   1.277
 4709TIP3   OH214090   4.273   6.305   0.792
 4709TIP3    H114091   4.345   6.338   0.738
 4709TIP3    H214092   4.205   6.372   0.784
 4710TIP3   OH214093   0.606   3.156   1.761
 4710TIP3    H114094   0.645   3.117   1.839
 4710TIP3    H214095   0.658   3.235   1.745
 4711TIP3   OH214096   4.253   3.081   1.572
 4711TIP3    H114097   4.318   3.123   1.516
 4711TIP3    H214098   4.241   3.143   1.644
 4712TIP3   OH214099   1.111   5.411   4.149
 4712TIP3    H114100   1.070   5.418   4.063
 4712TIP3    H214101   1.050   5.456   4.208
 4713TIP3   OH214102   0.362   0.775   4.356
 4713TIP3    H114103   0.418   0.845   4.390
 4713TIP3    H214104   0.417   0.729   4.293
 4714TIP3   OH214105   0.902   5.187   4.108
 4714TIP3    H114106   0.855   5.264   4.076
 4714TIP3    H214107   0.947   5.152   4.032
 4715TIP3   OH214108   7.225   4.250   1.128
 4715TIP3    H114109   7.263   4.162   1.129
 4715TIP3    H214110   7.136   4.237   1.094
 4716TIP3   OH214111   5.071   5.351   3.993
 4716TIP3    H114112   5.085   5.382   4.083
 4716TIP3    H214113   5.108   5.420   3.938
 4717TIP3   OH214114   4.393   6.717   1.225
 4717TIP3    H114115   4.332   6.644   1.212
 4717TIP3    H214116   4.458   6.705   1.155
 4718TIP3   OH214117   1.889   1.430   0.373
 4718TIP3    H114118   1.809   1.426   0.426
 4718TIP3    H214119   1.873   1.500   0.310
 4719TIP3   OH214120   6.824   3.969   0.060
 4719TIP3    H114121   6.851   4.052   0.099
 4719TIP3    H214122   6.818   3.908   0.134
 4720TIP3   OH214123   6.792   5.344   1.229
 4720TIP3    H114124   6.795   5.393   1.147
 4720TIP3    H214125   6.730   5.392   1.283
 4721TIP3   OH214126   0.497   4.744   3.870
 4721TIP3    H114127   0.537   4.746   3.957
 4721TIP3    H214128   0.403   4.738   3.887
 4722TIP3   OH214129   5.392   6.166   5.419
 4722TIP3    H114130   5.436   6.202   5.496
 4722TIP3    H214131   5.459   6.161   5.352
 4723TIP3   OH214132   4.127   1.338   1.947
 4723TIP3    H114133   4.150   1.245   1.959
 4723TIP3    H214134   4.187   1.369   1.879
 4724TIP3   OH214135   3.365   2.218   3.265
 4724TIP3    H114136   3.422   2.145   3.290
 4724TIP3    H214137   3.287   2.206   3.319
 4725TIP3   OH214138   6.730   3.612   2.742
 4725TIP3    H114139   6.665   3.643   2.805
 4725TIP3    H214140   6.677   3.578   2.669
 4726TIP3   OH214141   6.678   2.382   3.098
 4726TIP3    H114142   6.755   2.436   3.080
 4726TIP3    H214143   6.714   2.302   3.138
 4727TIP3   OH214144   0.237   4.737   1.168
 4727TIP3    H114145   0.245   4.709   1.259
 4727TIP3    H214146   0.152   4.781   1.163
 4728TIP3   OH214147   3.132   6.078   1.269
 4728TIP3    H114148   3.177   6.042   1.345
 4728TIP3    H214149   3.039   6.072   1.291
 4729TIP3   OH214150   4.230   0.690   2.249
 4729TIP3    H114151   4.217   0.597   2.267
 4729TIP3    H214152   4.150   0.717   2.203
 4730TIP3   OH214153   5.396   0.969   4.752
 4730TIP3    H114154   5.335   0.957   4.678
 4730TIP3    H214155   5.368   1.051   4.793
 4731TIP3   OH214156   0.372   0.082   5.139
 4731TIP3    H114157   0.318   0.032   5.200
 4731TIP3    H214158   0.323   0.163   5.125
 4732TIP3   OH214159   3.601   6.166   3.805
 4732TIP3    H114160   3.572   6.169   3.896
 4732TIP3    H214161   3.689   6.129   3.809
 4733TIP3   OH214162   4.132   1.860   2.512
 4733TIP3    H114163   4.043   1.858   2.477
 4733TIP3    H214164   4.153   1.953   2.517
 4734TIP3   OH214165   4.068   0.763   2.469
 4734TIP3    H114166   4.080   0.849   2.509
 4734TIP3    H214167   4.145   0.751   2.413
 4735TIP3   OH214168   1.517   5.693   0.794
 4735TIP3    H114169   1.459   5.725   0.864
 4735TIP3    H214170   1.503   5.755   0.722
 4736TIP3   OH214171   6.689   0.439   3.000
 4736TIP3    H114172   6.679   0.534   2.999
 4736TIP3    H214173   6.783   0.426   3.014
 4737TIP3   OH214174   6.004   4.157   3.715
 4737TIP3    H114175   5.994   4.108   3.796
 4737TIP3    H214176   6.045   4.239   3.741
 4738TIP3   OH214177   5.789   6.638   2.875
 4738TIP3    H114178   5.884   6.631   2.875
 4738TIP3    H214179   5.758   6.548   2.869
 4739TIP3   OH214180   2.833   1.692   5.839
 4739TIP3    H114181   2.807   1.781   5.866
 4739TIP3    H214182   2.752   1.641   5.845
 4740TIP3   OH214183   1.586   2.358   2.783
 4740TIP3    H114184   1.616   2.447   2.802
 4740TIP3    H214185   1.646   2.302   2.833
 4741TIP3   OH214186   6.896   2.173   2.006
 4741TIP3    H114187   6.812   2.173   2.052
 4741TIP3    H214188   6.951   2.113   2.058
 4742TIP3   OH214189   4.461   5.468   3.220
 4742TIP3    H114190   4.379   5.431   3.253
 4742TIP3    H214191   4.528   5.405   3.245
 4743TIP3   OH214192   5.521   3.510   2.897
 4743TIP3    H114193   5.465   3.518   2.820
 4743TIP3    H214194   5.591   3.450   2.869
 4744TIP3   OH214195   0.818   6.755   4.105
 4744TIP3    H114196   0.746   6.737   4.044
 4744TIP3    H214197   0.880   6.808   4.055
 4745TIP3   OH214198   2.194   4.191   3.116
 4745TIP3    H114199   2.169   4.126   3.050
 4745TIP3    H214200   2.148   4.271   3.089
 4746TIP3   OH214201   6.917   3.505   0.844
 4746TIP3    H114202   6.852   3.435   0.839
 4746TIP3    H214203   7.002   3.460   0.841
 4747TIP3   OH214204   5.393   0.266   0.148
 4747TIP3    H114205   5.479   0.295   0.118
 4747TIP3    H214206   5.384   0.304   0.235
 4748TIP3   OH214207   5.283   5.193   3.852
 4748TIP3    H114208   5.231   5.252   3.906
 4748TIP3    H214209   5.288   5.112   3.904
 4749TIP3   OH214210   0.067   5.199   0.270
 4749TIP3    H114211   0.097   5.283   0.236
 4749TIP3    H214212   0.104   5.194   0.358
 4750TIP3   OH214213   4.874   4.351   0.614
 4750TIP3    H114214   4.930   4.371   0.689
 4750TIP3    H214215   4.861   4.257   0.618
 4751TIP3   OH214216   2.223   5.539   0.533
 4751TIP3    H114217   2.180   5.462   0.569
 4751TIP3    H214218   2.315   5.514   0.526
 4752TIP3   OH214219   2.816   3.750   2.866
 4752TIP3    H114220   2.887   3.799   2.824
 4752TIP3    H214221   2.856   3.714   2.945
 4753TIP3   OH214222   6.714   4.725   1.457
 4753TIP3    H114223   6.738   4.682   1.376
 4753TIP3    H214224   6.708   4.655   1.521
 4754TIP3   OH214225   0.343   0.472   5.561
 4754TIP3    H114226   0.252   0.461   5.587
 4754TIP3    H214227   0.354   0.566   5.547
 4755TIP3   OH214228   4.716   3.780   4.066
 4755TIP3    H114229   4.712   3.819   4.153
 4755TIP3    H214230   4.690   3.851   4.007
 4756TIP3   OH214231   0.936   3.313   0.980
 4756TIP3    H114232   0.961   3.253   0.910
 4756TIP3    H214233   0.864   3.270   1.025
 4757TIP3   OH214234   1.445   1.653   4.165
 4757TIP3    H114235   1.538   1.656   4.143
 4757TIP3    H214236   1.401   1.630   4.083
 4758TIP3   OH214237   6.623   2.204   4.648
 4758TIP3    H114238   6.676   2.135   4.689
 4758TIP3    H214239   6.642   2.195   4.554
 4759TIP3   OH214240   6.003   5.384   3.339
 4759TIP3    H114241   6.017   5.450   3.406
 4759TIP3    H214242   6.075   5.322   3.350
 4760TIP3   OH214243   5.819   6.353   0.306
 4760TIP3    H114244   5.860   6.275   0.270
 4760TIP3    H214245   5.726   6.332   0.308
 4761TIP3   OH214246   0.011   1.350   4.973
 4761TIP3    H114247   0.034   1.357   5.065
 4761TIP3    H214248   0.084   1.304   4.933
 4762TIP3   OH214249   0.812   5.899   0.665
 4762TIP3    H114250   0.807   5.877   0.572
 4762TIP3    H214251   0.881   5.964   0.671
 4763TIP3   OH214252   6.562   5.483   2.478
 4763TIP3    H114253   6.544   5.424   2.405
 4763TIP3    H214254   6.654   5.466   2.501
 4764TIP3   OH214255   6.273   1.337   0.112
 4764TIP3    H114256   6.357   1.383   0.113
 4764TIP3    H214257   6.247   1.338   0.019
 4765TIP3   OH214258   0.906   0.410   1.612
 4765TIP3    H114259   0.877   0.428   1.522
 4765TIP3    H214260   0.918   0.315   1.614
 4766TIP3   OH214261   4.684   2.855   2.295
 4766TIP3    H114262   4.770   2.815   2.285
 4766TIP3    H214263   4.632   2.790   2.342
 4767TIP3   OH214264   0.322   1.592   1.131
 4767TIP3    H114265   0.267   1.624   1.202
 4767TIP3    H214266   0.338   1.669   1.076
 4768TIP3   OH214267   7.045   0.233   4.545
 4768TIP3    H114268   6.998   0.152   4.565
 4768TIP3    H214269   7.115   0.237   4.610
 4769TIP3   OH214270   1.500   5.952   4.912
 4769TIP3    H114271   1.420   5.900   4.904
 4769TIP3    H214272   1.472   6.037   4.945
 4770TIP3   OH214273   1.912   4.503   4.885
 4770TIP3    H114274   1.828   4.477   4.923
 4770TIP3    H214275   1.959   4.421   4.870
 4771TIP3   OH214276   3.161   1.123   5.116
 4771TIP3    H114277   3.219   1.124   5.192
 4771TIP3    H214278   3.206   1.177   5.051
 4772TIP3   OH214279   3.208   5.241   4.128
 4772TIP3    H114280   3.116   5.238   4.152
 4772TIP3    H214281   3.213   5.191   4.046
 4773TIP3   OH214282   0.510   2.494   0.589
 4773TIP3    H114283   0.425   2.451   0.581
 4773TIP3    H214284   0.499   2.552   0.665
 4774TIP3   OH214285   1.971   2.345   2.653
 4774TIP3    H114286   1.931   2.429   2.632
 4774TIP3    H214287   1.971   2.341   2.748
 4775TIP3   OH214288   0.700   5.947   5.760
 4775TIP3    H114289   0.665   6.002   5.690
 4775TIP3    H214290   0.772   5.999   5.798
 4776TIP3   OH214291   1.382   6.187   4.222
 4776TIP3    H114292   1.334   6.177   4.304
 4776TIP3    H214293   1.466   6.226   4.248
 4777TIP3   OH214294   1.308   5.483   5.419
 4777TIP3    H114295   1.395   5.484   5.458
 4777TIP3    H214296   1.289   5.390   5.406
 4778TIP3   OH214297   5.779   2.584   4.310
 4778TIP3    H114298   5.830   2.576   4.229
 4778TIP3    H214299   5.720   2.508   4.309
 4779TIP3   OH214300   1.847   0.421   3.203
 4779TIP3    H114301   1.921   0.435   3.144
 4779TIP3    H214302   1.772   0.412   3.145
 4780TIP3   OH214303   1.262   5.893   3.284
 4780TIP3    H114304   1.265   5.939   3.367
 4780TIP3    H214305   1.306   5.809   3.300
 4781TIP3   OH214306   1.002   5.770   0.504
 4781TIP3    H114307   0.935   5.811   0.450
 4781TIP3    H214308   0.988   5.676   0.493
 4782TIP3   OH214309   2.365   1.669   2.917
 4782TIP3    H114310   2.307   1.714   2.978
 4782TIP3    H214311   2.417   1.610   2.972
 4783TIP3   OH214312   6.350   3.944   0.184
 4783TIP3    H114313   6.259   3.955   0.158
 4783TIP3    H214314   6.347   3.917   0.276
 4784TIP3   OH214315   0.282   2.941   2.632
 4784TIP3    H114316   0.251   2.895   2.554
 4784TIP3    H214317   0.212   3.005   2.650
 4785TIP3   OH214318   6.554   0.150   4.361
 4785TIP3    H114319   6.541   0.073   4.416
 4785TIP3    H214320   6.647   0.170   4.369
 4786TIP3   OH214321   0.301   2.257   4.215
 4786TIP3    H114322   0.340   2.342   4.234
 4786TIP3    H214323   0.325   2.202   4.289
 4787TIP3   OH214324   7.093   2.014   2.139
 4787TIP3    H114325   7.104   1.977   2.226
 4787TIP3    H214326   7.165   1.979   2.088
 4788TIP3   OH214327   6.201   2.089   1.193
 4788TIP3    H114328   6.144   2.012   1.191
 4788TIP3    H214329   6.206   2.113   1.286
 4789TIP3   OH214330   6.365   5.215   3.835
 4789TIP3    H114331   6.303   5.231   3.764
 4789TIP3    H214332   6.321   5.251   3.913
 4790TIP3   OH214333   5.171   2.167   2.529
 4790TIP3    H114334   5.149   2.260   2.538
 4790TIP3    H214335   5.248   2.155   2.585
 4791TIP3   OH214336   2.482   2.347   4.508
 4791TIP3    H114337   2.539   2.294   4.453
 4791TIP3    H214338   2.417   2.285   4.542
 4792TIP3   OH214339   0.358   6.026   2.249
 4792TIP3    H114340   0.298   5.953   2.232
 4792TIP3    H214341   0.426   6.016   2.183
 4793TIP3   OH214342   6.998   3.867   1.038
 4793TIP3    H114343   6.916   3.819   1.048
 4793TIP3    H214344   7.054   3.835   1.108
 4794TIP3   OH214345   1.571   5.011   1.811
 4794TIP3    H114346   1.561   5.060   1.730
 4794TIP3    H214347   1.493   5.033   1.863
 4795TIP3   OH214348   6.510   5.227   4.836
 4795TIP3    H114349   6.507   5.133   4.817
 4795TIP3    H214350   6.487   5.268   4.753
 4796TIP3   OH214351   6.973   1.995   0.292
 4796TIP3    H114352   7.048   2.051   0.273
 4796TIP3    H214353   6.898   2.044   0.257
 4797TIP3   OH214354   7.040   4.620   1.252
 4797TIP3    H114355   7.039   4.716   1.245
 4797TIP3    H214356   7.105   4.592   1.187
 4798TIP3   OH214357   6.535   6.260   2.446
 4798TIP3    H114358   6.516   6.272   2.353
 4798TIP3    H214359   6.477   6.321   2.491
 4799TIP3   OH214360   1.270   2.027   3.370
 4799TIP3    H114361   1.240   1.981   3.448
 4799TIP3    H214362   1.330   2.095   3.404
 4800TIP3   OH214363   2.935   0.706   1.228
 4800TIP3    H114364   2.952   0.766   1.155
 4800TIP3    H214365   2.887   0.759   1.291
 4801TIP3   OH214366   1.014   3.386   3.732
 4801TIP3    H114367   0.974   3.424   3.810
 4801TIP3    H214368   0.941   3.371   3.672
 4802TIP3   OH214369   4.873   1.272   4.786
 4802TIP3    H114370   4.837   1.211   4.722
 4802TIP3    H214371   4.967   1.254   4.786
 4803TIP3   OH214372   2.376   5.986   0.066
 4803TIP3    H114373   2.372   5.891   0.077
 4803TIP3    H214374   2.406   5.998  -0.024
 4804TIP3   OH214375   5.148   3.132   4.093
 4804TIP3    H114376   5.076   3.090   4.046
 4804TIP3    H214377   5.152   3.085   4.177
 4805TIP3   OH214378   2.172   0.828   5.708
 4805TIP3    H114379   2.181   0.734   5.723
 4805TIP3    H214380   2.254   0.866   5.739
 4806TIP3   OH214381   4.224   6.267   5.810
 4806TIP3    H114382   4.198   6.315   5.888
 4806TIP3    H214383   4.264   6.333   5.753
 4807TIP3   OH214384   3.250   4.283   2.845
 4807TIP3    H114385   3.238   4.253   2.935
 4807TIP3    H214386   3.344   4.293   2.835
 4808TIP3   OH214387   1.021   5.485   5.183
 4808TIP3    H114388   1.091   5.422   5.196
 4808TIP3    H214389   0.966   5.478   5.261
 4809TIP3   OH214390   5.780   1.223   3.729
 4809TIP3    H114391   5.804   1.159   3.796
 4809TIP3    H214392   5.851   1.219   3.665
 4810TIP3   OH214393   6.127   0.101   2.576
 4810TIP3    H114394   6.043   0.059   2.559
 4810TIP3    H214395   6.183   0.030   2.607
 4811TIP3   OH214396   1.668   2.767   4.048
 4811TIP3    H114397   1.705   2.807   4.126
 4811TIP3    H214398   1.741   2.719   4.009
 4812TIP3   OH214399   3.714   2.648   5.544
 4812TIP3    H114400   3.777   2.579   5.564
 4812TIP3    H214401   3.739   2.677   5.456
 4813TIP3   OH214402   5.277   1.732   4.461
 4813TIP3    H114403   5.296   1.685   4.380
 4813TIP3    H214404   5.276   1.664   4.529
 4814TIP3   OH214405   2.415   4.296   5.450
 4814TIP3    H114406   2.503   4.314   5.415
 4814TIP3    H214407   2.356   4.344   5.392
 4815TIP3   OH214408   0.555   3.620   2.583
 4815TIP3    H114409   0.460   3.627   2.586
 4815TIP3    H214410   0.584   3.659   2.666
 4816TIP3   OH214411   3.113   0.001   3.148
 4816TIP3    H114412   3.188  -0.058   3.151
 4816TIP3    H214413   3.151   0.087   3.131
 4817TIP3   OH214414   2.650   2.657   0.058
 4817TIP3    H114415   2.597   2.591   0.015
 4817TIP3    H214416   2.591   2.699   0.121
 4818TIP3   OH214417   2.204   6.541   5.819
 4818TIP3    H114418   2.151   6.536   5.899
 4818TIP3    H214419   2.256   6.621   5.830
 4819TIP3   OH214420   2.129   6.344   1.233
 4819TIP3    H114421   2.150   6.352   1.140
 4819TIP3    H214422   2.051   6.288   1.236
 4820TIP3   OH214423   4.121   0.428   2.234
 4820TIP3    H114424   4.071   0.442   2.153
 4820TIP3    H214425   4.055   0.404   2.299
 4821TIP3   OH214426   4.414   2.626   4.975
 4821TIP3    H114427   4.456   2.549   4.936
 4821TIP3    H214428   4.327   2.595   5.001
 4822TIP3   OH214429   6.915   1.581   1.545
 4822TIP3    H114430   6.916   1.642   1.620
 4822TIP3    H214431   7.006   1.556   1.533
 4823TIP3   OH214432   0.836   4.162   1.899
 4823TIP3    H114433   0.912   4.221   1.895
 4823TIP3    H214434   0.839   4.125   1.987
 4824TIP3   OH214435   3.675   0.132   4.646
 4824TIP3    H114436   3.703   0.212   4.691
 4824TIP3    H214437   3.757   0.087   4.624
 4825TIP3   OH214438   1.800   1.865   5.640
 4825TIP3    H114439   1.884   1.820   5.640
 4825TIP3    H214440   1.752   1.827   5.566
 4826TIP3   OH214441   1.585   3.521   5.770
 4826TIP3    H114442   1.586   3.566   5.685
 4826TIP3    H214443   1.554   3.432   5.750
 4827TIP3   OH214444   4.954   4.103   0.840
 4827TIP3    H114445   4.997   4.022   0.813
 4827TIP3    H214446   4.885   4.075   0.900
 4828TIP3   OH214447   3.607   3.133   3.770
 4828TIP3    H114448   3.626   3.219   3.808
 4828TIP3    H214449   3.661   3.130   3.691
 4829TIP3   OH214450   3.159   5.332   1.588
 4829TIP3    H114451   3.135   5.350   1.497
 4829TIP3    H214452   3.100   5.387   1.640
 4830TIP3   OH214453   1.273   1.671   3.895
 4830TIP3    H114454   1.265   1.597   3.834
 4830TIP3    H214455   1.186   1.679   3.934
 4831TIP3   OH214456   2.811   3.243   2.177
 4831TIP3    H114457   2.892   3.293   2.171
 4831TIP3    H214458   2.818   3.177   2.108
 4832TIP3   OH214459   4.635   1.678   2.049
 4832TIP3    H114460   4.573   1.735   2.003
 4832TIP3    H214461   4.583   1.602   2.076
 4833TIP3   OH214462   4.458   0.235   5.843
 4833TIP3    H114463   4.470   0.329   5.854
 4833TIP3    H214464   4.462   0.221   5.748
 4834TIP3   OH214465   0.059   5.224   3.731
 4834TIP3    H114466   0.049   5.244   3.638
 4834TIP3    H214467   0.046   5.130   3.737
 4835TIP3   OH214468   3.451   4.532   2.293
 4835TIP3    H114469   3.477   4.487   2.373
 4835TIP3    H214470   3.487   4.620   2.302
 4836TIP3   OH214471   0.632   2.881   3.932
 4836TIP3    H114472   0.661   2.839   3.851
 4836TIP3    H214473   0.702   2.943   3.954
 4837TIP3   OH214474   6.318   4.492   2.490
 4837TIP3    H114475   6.251   4.446   2.541
 4837TIP3    H214476   6.394   4.433   2.493
 4838TIP3   OH214477   0.094   4.063   2.583
 4838TIP3    H114478   0.152   4.068   2.506
 4838TIP3    H214479   0.102   4.149   2.624
 4839TIP3   OH214480   0.865   0.503   3.905
 4839TIP3    H114481   0.860   0.580   3.848
 4839TIP3    H214482   0.863   0.428   3.845
 4840TIP3   OH214483   1.078   4.508   1.604
 4840TIP3    H114484   1.085   4.597   1.640
 4840TIP3    H214485   0.989   4.504   1.568
 4841TIP3   OH214486   4.839   0.440   0.653
 4841TIP3    H114487   4.904   0.489   0.702
 4841TIP3    H214488   4.863   0.453   0.561
 4842TIP3   OH214489   6.625   6.261   3.944
 4842TIP3    H114490   6.627   6.169   3.970
 4842TIP3    H214491   6.559   6.301   4.001
 4843TIP3   OH214492   0.269   5.968   3.205
 4843TIP3    H114493   0.200   5.904   3.186
 4843TIP3    H214494   0.337   5.918   3.250
 4844TIP3   OH214495   2.640   6.441   3.628
 4844TIP3    H114496   2.550   6.420   3.601
 4844TIP3    H214497   2.694   6.378   3.580
 4845TIP3   OH214498   3.400   5.768   4.283
 4845TIP3    H114499   3.441   5.692   4.326
 4845TIP3    H214500   3.307   5.759   4.302
 4846TIP3   OH214501   1.910   5.399   2.241
 4846TIP3    H114502   1.858   5.378   2.163
 4846TIP3    H214503   1.957   5.318   2.261
 4847TIP3   OH214504   3.027   2.249   0.937
 4847TIP3    H114505   2.989   2.167   0.904
 4847TIP3    H214506   2.956   2.313   0.929
 4848TIP3   OH214507   0.386   5.073   5.123
 4848TIP3    H114508   0.463   5.096   5.073
 4848TIP3    H214509   0.420   5.027   5.200
 4849TIP3   OH214510   6.894   4.941   2.789
 4849TIP3    H114511   6.805   4.975   2.788
 4849TIP3    H214512   6.896   4.880   2.863
 4850TIP3   OH214513   0.244   3.779   1.976
 4850TIP3    H114514   0.310   3.759   1.911
 4850TIP3    H214515   0.175   3.713   1.962
 4851TIP3   OH214516   1.308   4.693   0.574
 4851TIP3    H114517   1.258   4.753   0.629
 4851TIP3    H214518   1.398   4.699   0.607
 4852TIP3   OH214519   0.253   6.631   4.698
 4852TIP3    H114520   0.312   6.679   4.640
 4852TIP3    H214521   0.209   6.700   4.749
 4853TIP3   OH214522   6.723   5.277   5.286
 4853TIP3    H114523   6.684   5.190   5.292
 4853TIP3    H214524   6.658   5.330   5.240
 4854TIP3   OH214525   0.070   3.270   5.610
 4854TIP3    H114526   0.127   3.213   5.662
 4854TIP3    H214527   0.082   3.241   5.520
 4855TIP3   OH214528   2.458   3.880   5.545
 4855TIP3    H114529   2.503   3.826   5.480
 4855TIP3    H214530   2.481   3.842   5.629
 4856TIP3   OH214531   2.251   0.366   4.542
 4856TIP3    H114532   2.281   0.284   4.581
 4856TIP3    H214533   2.323   0.393   4.484
 4857TIP3   OH214534   4.646   3.909   1.869
 4857TIP3    H114535   4.658   3.980   1.805
 4857TIP3    H214536   4.623   3.954   1.950
 4858TIP3   OH214537   5.450   5.577   3.076
 4858TIP3    H114538   5.520   5.515   3.098
 4858TIP3    H214539   5.463   5.650   3.136
 4859TIP3   OH214540   0.851   2.828   1.879
 4859TIP3    H114541   0.830   2.753   1.935
 4859TIP3    H214542   0.945   2.818   1.861
 4860TIP3   OH214543   0.907   4.198   5.033
 4860TIP3    H114544   0.918   4.292   5.028
 4860TIP3    H214545   0.812   4.184   5.039
 4861TIP3   OH214546   4.729   3.273   2.978
 4861TIP3    H114547   4.821   3.269   2.950
 4861TIP3    H214548   4.688   3.334   2.916
 4862TIP3   OH214549   6.028   4.672   1.472
 4862TIP3    H114550   6.009   4.667   1.566
 4862TIP3    H214551   6.115   4.712   1.468
 4863TIP3   OH214552   1.133   1.564   0.245
 4863TIP3    H114553   1.038   1.577   0.257
 4863TIP3    H214554   1.170   1.576   0.332
 4864TIP3   OH214555   6.469   6.345   4.156
 4864TIP3    H114556   6.500   6.434   4.137
 4864TIP3    H214557   6.375   6.349   4.143
 4865TIP3   OH214558   7.260   4.905   1.744
 4865TIP3    H114559   7.172   4.882   1.773
 4865TIP3    H214560   7.315   4.834   1.777
 4866TIP3   OH214561   4.739   4.801   0.380
 4866TIP3    H114562   4.745   4.872   0.445
 4866TIP3    H214563   4.666   4.747   0.411
 4867TIP3   OH214564   0.604   1.144   5.701
 4867TIP3    H114565   0.662   1.211   5.739
 4867TIP3    H214566   0.530   1.194   5.665
 4868TIP3   OH214567   3.886   3.806   1.419
 4868TIP3    H114568   3.931   3.722   1.413
 4868TIP3    H214569   3.884   3.825   1.513
 4869TIP3   OH214570   4.327   2.626   3.524
 4869TIP3    H114571   4.398   2.564   3.506
 4869TIP3    H214572   4.372   2.707   3.546
 4870TIP3   OH214573   2.319   1.312   5.407
 4870TIP3    H114574   2.415   1.310   5.413
 4870TIP3    H214575   2.300   1.351   5.322
 4871TIP3   OH214576   2.348   4.387   2.414
 4871TIP3    H114577   2.443   4.391   2.431
 4871TIP3    H214578   2.325   4.476   2.388
 4872TIP3   OH214579   6.129   1.490   0.934
 4872TIP3    H114580   6.130   1.490   1.030
 4872TIP3    H214581   6.175   1.410   0.909
 4873TIP3   OH214582   4.429   5.756   3.326
 4873TIP3    H114583   4.449   5.664   3.310
 4873TIP3    H214584   4.340   5.767   3.293
 4874TIP3   OH214585   2.407   4.194   4.926
 4874TIP3    H114586   2.490   4.230   4.955
 4874TIP3    H214587   2.416   4.185   4.831
 4875TIP3   OH214588   5.492   3.657   5.192
 4875TIP3    H114589   5.509   3.639   5.099
 4875TIP3    H214590   5.396   3.658   5.199
 4876TIP3   OH214591   2.041   0.118   0.133
 4876TIP3    H114592   2.040   0.153   0.044
 4876TIP3    H214593   1.958   0.148   0.171
 4877TIP3   OH214594   1.223   1.889   4.496
 4877TIP3    H114595   1.131   1.917   4.494
 4877TIP3    H214596   1.226   1.821   4.563
 4878TIP3   OH214597   5.067   4.451   2.195
 4878TIP3    H114598   5.006   4.524   2.210
 4878TIP3    H214599   5.084   4.453   2.101
 4879TIP3   OH214600   6.945   5.414   0.520
 4879TIP3    H114601   6.935   5.342   0.458
 4879TIP3    H214602   6.958   5.492   0.466
 4880TIP3   OH214603   2.743   0.265   2.495
 4880TIP3    H114604   2.770   0.245   2.584
 4880TIP3    H214605   2.676   0.200   2.474
 4881TIP3   OH214606   0.694   3.242   4.191
 4881TIP3    H114607   0.612   3.276   4.227
 4881TIP3    H214608   0.761   3.305   4.219
 4882TIP3   OH214609   3.352   5.692   3.632
 4882TIP3    H114610   3.440   5.723   3.614
 4882TIP3    H214611   3.360   5.644   3.715
 4883TIP3   OH214612   5.943   4.198   2.837
 4883TIP3    H114613   5.864   4.229   2.881
 4883TIP3    H214614   6.015   4.227   2.894
 4884TIP3   OH214615   1.281   0.111   2.915
 4884TIP3    H114616   1.222   0.187   2.923
 4884TIP3    H214617   1.350   0.128   2.980
 4885TIP3   OH214618   2.856   6.349   5.422
 4885TIP3    H114619   2.847   6.255   5.405
 4885TIP3    H214620   2.774   6.375   5.463
 4886TIP3   OH214621   0.447   1.430   1.372
 4886TIP3    H114622   0.393   1.498   1.414
 4886TIP3    H214623   0.523   1.478   1.338
 4887TIP3   OH214624   5.842   2.377   2.498
 4887TIP3    H114625   5.752   2.400   2.522
 4887TIP3    H214626   5.832   2.329   2.415
 4888TIP3   OH214627   6.063   5.498   1.830
 4888TIP3    H114628   6.113   5.418   1.810
 4888TIP3    H214629   6.025   5.482   1.916
 4889TIP3   OH214630   6.925   5.148   3.559
 4889TIP3    H114631   6.955   5.219   3.616
 4889TIP3    H214632   6.855   5.106   3.609
 4890TIP3   OH214633   6.315   0.176   0.471
 4890TIP3    H114634   6.360   0.207   0.392
 4890TIP3    H214635   6.289   0.256   0.517
 4891TIP3   OH214636   2.219   3.716   5.355
 4891TIP3    H114637   2.140   3.684   5.313
 4891TIP3    H214638   2.187   3.775   5.423
 4892TIP3   OH214639   5.853   0.234   2.441
 4892TIP3    H114640   5.920   0.170   2.468
 4892TIP3    H214641   5.778   0.180   2.415
 4893TIP3   OH214642   2.389   2.156   3.842
 4893TIP3    H114643   2.317   2.211   3.810
 4893TIP3    H214644   2.363   2.131   3.930
 4894TIP3   OH214645   4.076   4.669   2.387
 4894TIP3    H114646   4.126   4.643   2.310
 4894TIP3    H214647   4.064   4.587   2.436
 4895TIP3   OH214648   5.082   5.678   0.723
 4895TIP3    H114649   5.103   5.662   0.631
 4895TIP3    H214650   5.042   5.765   0.724
 4896TIP3   OH214651   2.918   0.747   2.227
 4896TIP3    H114652   2.829   0.779   2.209
 4896TIP3    H214653   2.913   0.653   2.210
 4897TIP3   OH214654   4.989   3.318   1.892
 4897TIP3    H114655   5.059   3.253   1.884
 4897TIP3    H214656   5.033   3.399   1.915
 4898TIP3   OH214657   5.793   0.591   0.568
 4898TIP3    H114658   5.880   0.563   0.595
 4898TIP3    H214659   5.740   0.586   0.647
 4899TIP3   OH214660   2.706   4.685   4.249
 4899TIP3    H114661   2.756   4.740   4.188
 4899TIP3    H214662   2.696   4.602   4.203
 4900TIP3   OH214663   5.752   5.116   4.242
 4900TIP3    H114664   5.705   5.193   4.209
 4900TIP3    H214665   5.812   5.152   4.308
 4901TIP3   OH214666   3.927   5.130   1.954
 4901TIP3    H114667   3.883   5.203   1.910
 4901TIP3    H214668   3.861   5.095   2.015
 4902TIP3   OH214669   0.339   5.729   1.830
 4902TIP3    H114670   0.375   5.802   1.779
 4902TIP3    H214671   0.246   5.729   1.807
 4903TIP3   OH214672   3.007   1.287   4.600
 4903TIP3    H114673   3.041   1.374   4.622
 4903TIP3    H214674   2.984   1.248   4.684
 4904TIP3   OH214675   0.659   1.988   0.088
 4904TIP3    H114676   0.744   1.945   0.077
 4904TIP3    H214677   0.604   1.921   0.130
 4905TIP3   OH214678   3.183   5.814   3.866
 4905TIP3    H114679   3.208   5.858   3.948
 4905TIP3    H214680   3.171   5.723   3.891
 4906TIP3   OH214681   3.982   5.896   5.344
 4906TIP3    H114682   4.024   5.903   5.429
 4906TIP3    H214683   3.942   5.809   5.344
 4907TIP3   OH214684   6.916   6.257   2.206
 4907TIP3    H114685   6.885   6.286   2.292
 4907TIP3    H214686   7.010   6.242   2.219
 4908TIP3   OH214687   1.031   0.085   2.037
 4908TIP3    H114688   0.946   0.117   2.067
 4908TIP3    H214689   1.047   0.006   2.090
 4909TIP3   OH214690   1.084   4.617   0.414
 4909TIP3    H114691   1.036   4.597   0.494
 4909TIP3    H214692   1.171   4.644   0.445
 4910TIP3   OH214693   4.343   0.094   0.808
 4910TIP3    H114694   4.410   0.118   0.872
 4910TIP3    H214695   4.287   0.172   0.802
 4911TIP3   OH214696   0.412   3.290   4.046
 4911TIP3    H114697   0.320   3.263   4.050
 4911TIP3    H214698   0.457   3.213   4.009
 4912TIP3   OH214699   1.498   0.120   3.161
 4912TIP3    H114700   1.430   0.069   3.204
 4912TIP3    H214701   1.580   0.086   3.198
 4913TIP3   OH214702   5.594   1.380   0.918
 4913TIP3    H114703   5.547   1.300   0.893
 4913TIP3    H214704   5.683   1.365   0.886
 4914TIP3   OH214705   6.757   5.534   0.687
 4914TIP3    H114706   6.807   5.482   0.625
 4914TIP3    H214707   6.666   5.517   0.664
 4915TIP3   OH214708   0.170   4.684   0.797
 4915TIP3    H114709   0.136   4.634   0.723
 4915TIP3    H214710   0.149   4.632   0.874
 4916TIP3   OH214711   5.748   1.800   3.960
 4916TIP3    H114712   5.771   1.891   3.942
 4916TIP3    H214713   5.827   1.751   3.938
 4917TIP3   OH214714   2.148   2.858   3.389
 4917TIP3    H114715   2.224   2.873   3.333
 4917TIP3    H214716   2.184   2.846   3.477
 4918TIP3   OH214717   7.213   4.867   1.461
 4918TIP3    H114718   7.234   4.901   1.548
 4918TIP3    H214719   7.118   4.863   1.460
 4919TIP3   OH214720   2.776   3.379   3.066
 4919TIP3    H114721   2.688   3.357   3.095
 4919TIP3    H214722   2.767   3.397   2.973
 4920TIP3   OH214723   4.458   4.217   4.967
 4920TIP3    H114724   4.418   4.175   4.891
 4920TIP3    H214725   4.535   4.164   4.986
 4921TIP3   OH214726   1.431   0.625   1.058
 4921TIP3    H114727   1.415   0.656   1.148
 4921TIP3    H214728   1.343   0.615   1.021
 4922TIP3   OH214729   6.729   2.925   5.654
 4922TIP3    H114730   6.794   2.855   5.657
 4922TIP3    H214731   6.648   2.886   5.687
 4923TIP3   OH214732   4.937   5.476   5.869
 4923TIP3    H114733   5.025   5.454   5.898
 4923TIP3    H214734   4.892   5.392   5.862
 4924TIP3   OH214735   4.464   5.446   0.186
 4924TIP3    H114736   4.522   5.486   0.121
 4924TIP3    H214737   4.412   5.520   0.220
 4925TIP3   OH214738   3.730   0.113   0.513
 4925TIP3    H114739   3.689   0.095   0.429
 4925TIP3    H214740   3.702   0.202   0.535
 4926TIP3   OH214741   4.301   5.254   0.660
 4926TIP3    H114742   4.243   5.196   0.611
 4926TIP3    H214743   4.358   5.293   0.594
 4927TIP3   OH214744   6.467   0.366   2.486
 4927TIP3    H114745   6.382   0.357   2.529
 4927TIP3    H214746   6.526   0.395   2.556
 4928TIP3   OH214747   2.914   0.214   2.708
 4928TIP3    H114748   2.902   0.195   2.801
 4928TIP3    H214749   2.974   0.288   2.706
 4929TIP3   OH214750   1.029   3.241   1.521
 4929TIP3    H114751   1.025   3.186   1.443
 4929TIP3    H214752   1.059   3.326   1.489
 4930TIP3   OH214753   2.161   4.458   0.531
 4930TIP3    H114754   2.173   4.496   0.618
 4930TIP3    H214755   2.172   4.364   0.544
 4931TIP3   OH214756   6.873   2.993   3.398
 4931TIP3    H114757   6.778   3.007   3.392
 4931TIP3    H214758   6.882   2.898   3.408
 4932TIP3   OH214759   1.575   4.109   2.880
 4932TIP3    H114760   1.580   4.094   2.785
 4932TIP3    H214761   1.666   4.113   2.908
 4933TIP3   OH214762   5.057   0.167   4.422
 4933TIP3    H114763   5.072   0.256   4.391
 4933TIP3    H214764   5.138   0.144   4.467
 4934TIP3   OH214765   1.191   3.670   3.015
 4934TIP3    H114766   1.096   3.678   3.025
 4934TIP3    H214767   1.203   3.588   2.968
 4935TIP3   OH214768   3.606   0.574   4.415
 4935TIP3    H114769   3.585   0.551   4.505
 4935TIP3    H214770   3.600   0.669   4.412
 4936TIP3   OH214771   2.878   5.787   3.055
 4936TIP3    H114772   2.961   5.821   3.021
 4936TIP3    H214773   2.896   5.769   3.147
 4937TIP3   OH214774   3.196   4.578   2.879
 4937TIP3    H114775   3.228   4.517   2.813
 4937TIP3    H214776   3.112   4.609   2.844
 4938TIP3   OH214777   1.238   1.287   1.401
 4938TIP3    H114778   1.172   1.229   1.364
 4938TIP3    H214779   1.208   1.303   1.491
 4939TIP3   OH214780   2.603   4.795   1.004
 4939TIP3    H114781   2.592   4.864   0.939
 4939TIP3    H214782   2.580   4.714   0.957
 4940TIP3   OH214783   5.710   0.020   2.281
 4940TIP3    H114784   5.677   0.087   2.221
 4940TIP3    H214785   5.690  -0.063   2.237
 4941TIP3   OH214786   2.000   2.695   4.079
 4941TIP3    H114787   1.981   2.697   4.172
 4941TIP3    H214788   2.034   2.782   4.059
 4942TIP3   OH214789   5.684   5.993   0.456
 4942TIP3    H114790   5.667   6.037   0.539
 4942TIP3    H214791   5.614   6.021   0.398
 4943TIP3   OH214792   6.005   2.607   5.318
 4943TIP3    H114793   6.004   2.648   5.404
 4943TIP3    H214794   6.034   2.676   5.259
 4944TIP3   OH214795   1.964   6.307   4.453
 4944TIP3    H114796   2.040   6.337   4.402
 4944TIP3    H214797   1.923   6.241   4.398
 4945TIP3   OH214798   1.892   2.870   3.516
 4945TIP3    H114799   1.965   2.858   3.455
 4945TIP3    H214800   1.883   2.965   3.525
 4946TIP3   OH214801   0.186   1.807   4.381
 4946TIP3    H114802   0.160   1.783   4.292
 4946TIP3    H214803   0.279   1.829   4.374
 4947TIP3   OH214804   4.312   0.940   4.387
 4947TIP3    H114805   4.225   0.938   4.347
 4947TIP3    H214806   4.299   0.986   4.470
 4948TIP3   OH214807   2.976   1.643   1.650
 4948TIP3    H114808   2.914   1.683   1.590
 4948TIP3    H214809   3.060   1.680   1.626
 4949TIP3   OH214810   6.482   2.986   2.309
 4949TIP3    H114811   6.419   2.922   2.341
 4949TIP3    H214812   6.469   3.063   2.364
 4950TIP3   OH214813   1.824   0.509   2.279
 4950TIP3    H114814   1.842   0.424   2.237
 4950TIP3    H214815   1.911   0.545   2.295
 4951TIP3   OH214816   5.955   4.923   0.883
 4951TIP3    H114817   5.865   4.932   0.851
 4951TIP3    H214818   6.000   4.875   0.814
 4952TIP3   OH214819   1.004   6.645   0.338
 4952TIP3    H114820   1.079   6.646   0.398
 4952TIP3    H214821   0.983   6.552   0.328
 4953TIP3   OH214822   6.988   0.601   1.031
 4953TIP3    H114823   6.930   0.553   1.090
 4953TIP3    H214824   6.936   0.675   1.000
 4954TIP3   OH214825   5.997   0.620   1.370
 4954TIP3    H114826   5.965   0.703   1.405
 4954TIP3    H214827   5.981   0.626   1.276
 4955TIP3   OH214828   1.837   3.124   4.010
 4955TIP3    H114829   1.852   3.193   3.946
 4955TIP3    H214830   1.802   3.168   4.087
 4956TIP3   OH214831   3.892   1.930   3.158
 4956TIP3    H114832   3.933   1.983   3.089
 4956TIP3    H214833   3.889   1.987   3.234
 4957TIP3   OH214834   2.581   1.307   1.868
 4957TIP3    H114835   2.644   1.275   1.933
 4957TIP3    H214836   2.626   1.380   1.825
 4958TIP3   OH214837   1.138   0.312   0.012
 4958TIP3    H114838   1.209   0.372  -0.009
 4958TIP3    H214839   1.177   0.246   0.069
 4959TIP3   OH214840   2.764   0.586   5.224
 4959TIP3    H114841   2.762   0.679   5.201
 4959TIP3    H214842   2.762   0.584   5.319
 4960TIP3   OH214843   1.528   6.296   2.049
 4960TIP3    H114844   1.438   6.293   2.015
 4960TIP3    H214845   1.526   6.364   2.116
 4961TIP3   OH214846   2.789   3.787   4.189
 4961TIP3    H114847   2.741   3.798   4.271
 4961TIP3    H214848   2.754   3.706   4.151
 4962TIP3   OH214849   4.917   1.103   3.515
 4962TIP3    H114850   5.008   1.092   3.488
 4962TIP3    H214851   4.905   1.041   3.586
 4963TIP3   OH214852   2.174   3.263   4.906
 4963TIP3    H114853   2.194   3.188   4.962
 4963TIP3    H214854   2.237   3.257   4.834
 4964TIP3   OH214855   0.369   5.544   3.938
 4964TIP3    H114856   0.298   5.570   3.996
 4964TIP3    H214857   0.358   5.450   3.926
 4965TIP3   OH214858   2.566   4.786   4.442
 4965TIP3    H114859   2.480   4.765   4.405
 4965TIP3    H214860   2.629   4.744   4.384
 4966TIP3   OH214861   2.272   5.238   1.531
 4966TIP3    H114862   2.181   5.269   1.533
 4966TIP3    H214863   2.319   5.308   1.485
 4967TIP3   OH214864   4.913   1.518   0.632
 4967TIP3    H114865   4.969   1.591   0.659
 4967TIP3    H214866   4.826   1.557   0.623
 4968TIP3   OH214867   3.526   5.574   5.103
 4968TIP3    H114868   3.583   5.512   5.057
 4968TIP3    H214869   3.448   5.524   5.125
 4969TIP3   OH214870   4.255   3.887   0.028
 4969TIP3    H114871   4.196   3.850   0.094
 4969TIP3    H214872   4.323   3.932   0.078
 4970TIP3   OH214873   1.520   5.060   3.488
 4970TIP3    H114874   1.594   5.010   3.453
 4970TIP3    H214875   1.474   5.092   3.410
 4971TIP3   OH214876   0.890   1.426   3.145
 4971TIP3    H114877   0.914   1.333   3.148
 4971TIP3    H214878   0.813   1.429   3.089
 4972TIP3   OH214879   0.921   5.767   0.195
 4972TIP3    H114880   0.926   5.681   0.151
 4972TIP3    H214881   0.980   5.823   0.145
 4973TIP3   OH214882   2.852   0.645   3.435
 4973TIP3    H114883   2.808   0.673   3.355
 4973TIP3    H214884   2.886   0.557   3.415
 4974TIP3   OH214885   6.187   5.548   4.695
 4974TIP3    H114886   6.206   5.502   4.776
 4974TIP3    H214887   6.247   5.623   4.695
 4975TIP3   OH214888   3.283   2.215   5.019
 4975TIP3    H114889   3.253   2.127   5.042
 4975TIP3    H214890   3.287   2.214   4.924
 4976TIP3   OH214891   4.210   6.541   2.692
 4976TIP3    H114892   4.198   6.514   2.601
 4976TIP3    H214893   4.301   6.570   2.697
 4977TIP3   OH214894   6.217   6.606   4.613
 4977TIP3    H114895   6.273   6.593   4.536
 4977TIP3    H214896   6.216   6.700   4.627
 4978TIP3   OH214897   5.099   4.886   4.787
 4978TIP3    H114898   5.065   4.919   4.704
 4978TIP3    H214899   5.063   4.945   4.854
 4979TIP3   OH214900   4.633   0.453   3.615
 4979TIP3    H114901   4.556   0.504   3.593
 4979TIP3    H214902   4.599   0.368   3.642
 4980TIP3   OH214903   2.800   4.589   5.002
 4980TIP3    H114904   2.777   4.558   4.914
 4980TIP3    H214905   2.880   4.541   5.024
 4981TIP3   OH214906   4.487   5.480   1.988
 4981TIP3    H114907   4.453   5.419   2.054
 4981TIP3    H214908   4.545   5.538   2.037
 4982TIP3   OH214909   2.121   4.818   3.512
 4982TIP3    H114910   2.030   4.804   3.536
 4982TIP3    H214911   2.159   4.865   3.586
 4983TIP3   OH214912   2.971   6.562   0.967
 4983TIP3    H114913   2.977   6.658   0.964
 4983TIP3    H214914   3.036   6.532   0.904
 4984TIP3   OH214915   2.905   2.002   0.819
 4984TIP3    H114916   2.924   1.925   0.874
 4984TIP3    H214917   2.818   1.984   0.783
 4985TIP3   OH214918   6.431   4.805   3.474
 4985TIP3    H114919   6.422   4.749   3.397
 4985TIP3    H214920   6.357   4.865   3.470
 4986TIP3   OH214921   2.394   1.928   5.806
 4986TIP3    H114922   2.459   1.917   5.876
 4986TIP3    H214923   2.346   2.007   5.830
 4987TIP3   OH214924   4.743   0.537   2.213
 4987TIP3    H114925   4.697   0.589   2.147
 4987TIP3    H214926   4.835   0.544   2.189
 4988TIP3   OH214927   2.887   4.434   3.179
 4988TIP3    H114928   2.888   4.350   3.225
 4988TIP3    H214929   2.885   4.410   3.086
 4989TIP3   OH214930   4.183   2.396   3.828
 4989TIP3    H114931   4.170   2.487   3.855
 4989TIP3    H214932   4.162   2.395   3.735
 4990TIP3   OH214933   5.888   1.845   2.851
 4990TIP3    H114934   5.915   1.754   2.837
 4990TIP3    H214935   5.799   1.850   2.815
 4991TIP3   OH214936   3.837   6.034   2.151
 4991TIP3    H114937   3.888   6.109   2.120
 4991TIP3    H214938   3.841   6.040   2.246
 4992TIP3   OH214939   1.495   5.606   2.238
 4992TIP3    H114940   1.480   5.688   2.285
 4992TIP3    H214941   1.572   5.568   2.280
 4993TIP3   OH214942   1.715   4.643   1.242
 4993TIP3    H114943   1.663   4.715   1.278
 4993TIP3    H214944   1.742   4.593   1.320
 4994TIP3   OH214945   4.009   5.722   5.888
 4994TIP3    H114946   4.076   5.783   5.916
 4994TIP3    H214947   4.023   5.644   5.942
 4995TIP3   OH214948   0.008   1.435   3.792
 4995TIP3    H114949   0.005   1.380   3.871
 4995TIP3    H214950  -0.077   1.424   3.751
 4996TIP3   OH214951   6.096   4.080   1.112
 4996TIP3    H114952   6.119   4.089   1.205
 4996TIP3    H214953   6.079   3.986   1.101
 4997TIP3   OH214954   6.696   3.059   0.645
 4997TIP3    H114955   6.601   3.062   0.629
 4997TIP3    H214956   6.734   3.055   0.558
 4998TIP3   OH214957   3.921   2.324   4.128
 4998TIP3    H114958   3.986   2.281   4.073
 4998TIP3    H214959   3.936   2.417   4.116
 4999TIP3   OH214960   5.224   5.868   0.047
 4999TIP3    H114961   5.254   5.780   0.068
 4999TIP3    H214962   5.294   5.925   0.077
 5000TIP3   OH214963   3.372   3.954   0.311
 5000TIP3    H114964   3.465   3.935   0.298
 5000TIP3    H214965   3.328   3.902   0.243
 5001TIP3   OH214966   1.228   6.779   0.728
 5001TIP3    H114967   1.140   6.741   0.724
 5001TIP3    H214968   1.243   6.815   0.641
 5002TIP3   OH214969   4.518   3.972   0.952
 5002TIP3    H114970   4.492   3.887   0.916
 5002TIP3    H214971   4.525   3.957   1.046
 5003TIP3   OH214972   6.208   2.432   0.936
 5003TIP3    H114973   6.223   2.524   0.916
 5003TIP3    H214974   6.124   2.412   0.895
 5004TIP3   OH214975   5.002   2.131   5.676
 5004TIP3    H114976   5.002   2.192   5.749
 5004TIP3    H214977   5.094   2.113   5.659
 5005TIP3   OH214978   6.697   0.713   2.946
 5005TIP3    H114979   6.648   0.779   2.995
 5005TIP3    H214980   6.683   0.737   2.854
 5006TIP3   OH214981   3.405   6.639   1.687
 5006TIP3    H114982   3.485   6.685   1.712
 5006TIP3    H214983   3.335   6.703   1.703
 5007TIP3   OH214984   3.060   5.141   2.454
 5007TIP3    H114985   3.002   5.082   2.406
 5007TIP3    H214986   3.070   5.217   2.395
 5008TIP3   OH214987   2.607   4.278   1.250
 5008TIP3    H114988   2.551   4.240   1.317
 5008TIP3    H214989   2.695   4.279   1.289
 5009TIP3   OH214990   1.221   4.179   4.665
 5009TIP3    H114991   1.218   4.246   4.597
 5009TIP3    H214992   1.133   4.178   4.703
 5010TIP3   OH214993   6.880   0.976   3.015
 5010TIP3    H114994   6.825   0.920   3.070
 5010TIP3    H214995   6.844   0.966   2.927
 5011TIP3   OH214996   6.248   0.416   5.454
 5011TIP3    H114997   6.212   0.331   5.481
 5011TIP3    H214998   6.282   0.400   5.366
 5012TIP3   OH214999   0.646   6.213   1.207
 5012TIP3    H115000   0.554   6.234   1.225
 5012TIP3    H215001   0.666   6.262   1.127
 5013TIP3   OH215002   2.599   5.719   0.824
 5013TIP3    H115003   2.597   5.650   0.890
 5013TIP3    H215004   2.689   5.751   0.824
 5014TIP3   OH215005   2.122   4.683   0.910
 5014TIP3    H115006   2.101   4.642   0.994
 5014TIP3    H215007   2.216   4.665   0.898
 5015TIP3   OH215008   2.913   3.017   1.009
 5015TIP3    H115009   2.987   3.069   1.041
 5015TIP3    H215010   2.841   3.079   1.000
 5016TIP3   OH215011   1.087   5.228   4.778
 5016TIP3    H115012   1.123   5.311   4.746
 5016TIP3    H215013   0.997   5.226   4.745
 5017TIP3   OH215014   0.951   3.932   5.451
 5017TIP3    H115015   0.927   3.983   5.528
 5017TIP3    H215016   0.870   3.888   5.424
 5018TIP3   OH215017   6.348   2.655   5.843
 5018TIP3    H115018   6.272   2.638   5.786
 5018TIP3    H215019   6.402   2.716   5.793
 5019TIP3   OH215020   6.803   6.300   4.694
 5019TIP3    H115021   6.744   6.345   4.634
 5019TIP3    H215022   6.775   6.327   4.781
 5020TIP3   OH215023   2.956   6.850   5.232
 5020TIP3    H115024   2.981   6.771   5.279
 5020TIP3    H215025   2.860   6.846   5.226
 5021TIP3   OH215026   5.463   1.404   2.856
 5021TIP3    H115027   5.451   1.311   2.834
 5021TIP3    H215028   5.439   1.409   2.948
 5022TIP3   OH215029   4.536   5.900   5.878
 5022TIP3    H115030   4.579   5.977   5.913
 5022TIP3    H215031   4.503   5.928   5.792
 5023TIP3   OH215032   5.898   5.174   4.540
 5023TIP3    H115033   5.932   5.263   4.547
 5023TIP3    H215034   5.947   5.124   4.605
 5024TIP3   OH215035   3.666   4.023   0.683
 5024TIP3    H115036   3.746   4.040   0.733
 5024TIP3    H215037   3.634   3.940   0.717
 5025TIP3   OH215038   5.177   6.644   4.086
 5025TIP3    H115039   5.175   6.633   3.990
 5025TIP3    H215040   5.087   6.667   4.109
 5026TIP3   OH215041   4.403   0.796   0.252
 5026TIP3    H115042   4.375   0.764   0.338
 5026TIP3    H215043   4.482   0.847   0.270
 5027TIP3   OH215044   2.951   0.477   4.227
 5027TIP3    H115045   2.978   0.445   4.313
 5027TIP3    H215046   2.986   0.413   4.165
 5028TIP3   OH215047   6.612   2.640   4.660
 5028TIP3    H115048   6.626   2.633   4.566
 5028TIP3    H215049   6.651   2.561   4.697
 5029TIP3   OH215050   0.203   1.231   2.977
 5029TIP3    H115051   0.200   1.322   2.946
 5029TIP3    H215052   0.123   1.191   2.941
 5030TIP3   OH215053   1.618   4.270   3.137
 5030TIP3    H115054   1.538   4.321   3.145
 5030TIP3    H215055   1.591   4.179   3.152
 5031TIP3   OH215056   2.051   5.171   2.334
 5031TIP3    H115057   2.130   5.147   2.286
 5031TIP3    H215058   1.992   5.097   2.321
 5032TIP3   OH215059   3.443   2.425   4.825
 5032TIP3    H115060   3.363   2.479   4.828
 5032TIP3    H215061   3.514   2.488   4.811
 5033TIP3   OH215062   3.496   3.168   4.394
 5033TIP3    H115063   3.568   3.197   4.451
 5033TIP3    H215064   3.447   3.105   4.447
 5034TIP3   OH215065   4.736   4.113   1.681
 5034TIP3    H115066   4.814   4.073   1.643
 5034TIP3    H215067   4.763   4.201   1.706
 5035TIP3   OH215068   7.125   0.549   4.977
 5035TIP3    H115069   7.030   0.550   4.986
 5035TIP3    H215070   7.157   0.586   5.060
 5036TIP3   OH215071   5.179   4.421   3.677
 5036TIP3    H115072   5.108   4.365   3.708
 5036TIP3    H215073   5.248   4.410   3.742
 5037TIP3   OH215074   6.570   4.038   0.633
 5037TIP3    H115075   6.615   3.983   0.697
 5037TIP3    H215076   6.477   4.018   0.647
 5038TIP3   OH215077   4.405   2.037   1.726
 5038TIP3    H115078   4.436   2.101   1.662
 5038TIP3    H215079   4.309   2.045   1.724
 5039TIP3   OH215080   1.396   6.591   0.307
 5039TIP3    H115081   1.486   6.600   0.339
 5039TIP3    H215082   1.388   6.659   0.240
 5040TIP3   OH215083   1.264   4.862   3.289
 5040TIP3    H115084   1.328   4.806   3.334
 5040TIP3    H215085   1.315   4.939   3.262
 5041TIP3   OH215086   1.709   4.929   4.698
 5041TIP3    H115087   1.625   4.928   4.744
 5041TIP3    H215088   1.773   4.945   4.767
 5042TIP3   OH215089   6.702   1.123   1.322
 5042TIP3    H115090   6.674   1.213   1.338
 5042TIP3    H215091   6.673   1.075   1.399
 5043TIP3   OH215092   6.453   4.224   1.993
 5043TIP3    H115093   6.413   4.286   2.054
 5043TIP3    H215094   6.542   4.213   2.026
 5044TIP3   OH215095   5.573   5.622   2.531
 5044TIP3    H115096   5.505   5.623   2.599
 5044TIP3    H215097   5.567   5.708   2.490
 5045TIP3   OH215098   5.455   6.627   2.070
 5045TIP3    H115099   5.462   6.564   1.998
 5045TIP3    H215100   5.446   6.712   2.027
 5046TIP3   OH215101   4.963   3.570   3.060
 5046TIP3    H115102   4.938   3.567   3.153
 5046TIP3    H215103   4.958   3.663   3.037
 5047TIP3   OH215104   1.348   5.491   1.410
 5047TIP3    H115105   1.337   5.415   1.467
 5047TIP3    H215106   1.429   5.532   1.441
 5048TIP3   OH215107   1.735   2.923   3.188
 5048TIP3    H115108   1.816   2.974   3.179
 5048TIP3    H215109   1.696   2.954   3.270
 5049TIP3   OH215110   4.815   2.677   1.994
 5049TIP3    H115111   4.723   2.704   1.992
 5049TIP3    H215112   4.812   2.583   2.007
 5050TIP3   OH215113   3.990   6.382   2.810
 5050TIP3    H115114   4.068   6.418   2.767
 5050TIP3    H215115   3.921   6.390   2.744
 5051TIP3   OH215116   2.581   6.572  -0.026
 5051TIP3    H115117   2.677   6.578  -0.024
 5051TIP3    H215118   2.556   6.556   0.065
 5052TIP3   OH215119   0.383   2.227   5.496
 5052TIP3    H115120   0.302   2.178   5.510
 5052TIP3    H215121   0.436   2.170   5.441
 5053TIP3   OH215122   4.669   0.458   3.088
 5053TIP3    H115123   4.750   0.503   3.063
 5053TIP3    H215124   4.627   0.517   3.150
 5054TIP3   OH215125   2.987   1.807  -0.043
 5054TIP3    H115126   2.897   1.775  -0.032
 5054TIP3    H215127   3.039   1.751   0.014
 5055TIP3   OH215128   6.530   5.002   4.555
 5055TIP3    H115129   6.525   4.986   4.650
 5055TIP3    H215130   6.622   4.989   4.533
 5056TIP3   OH215131   6.515   6.730   4.232
 5056TIP3    H115132   6.508   6.819   4.199
 5056TIP3    H215133   6.566   6.684   4.165
 5057TIP3   OH215134   6.029   4.375   1.022
 5057TIP3    H115135   5.949   4.323   1.031
 5057TIP3    H215136   6.084   4.325   0.962
 5058TIP3   OH215137   5.802   0.908   1.776
 5058TIP3    H115138   5.771   0.956   1.700
 5058TIP3    H215139   5.873   0.962   1.811
 5059TIP3   OH215140   6.504   5.485   3.012
 5059TIP3    H115141   6.563   5.542   2.963
 5059TIP3    H215142   6.417   5.521   2.995
 5060TIP3   OH215143   2.588   4.480   3.982
 5060TIP3    H115144   2.508   4.456   3.935
 5060TIP3    H215145   2.576   4.572   4.005
 5061TIP3   OH215146   5.092   6.426   5.715
 5061TIP3    H115147   5.066   6.353   5.658
 5061TIP3    H215148   5.186   6.435   5.702
 5062TIP3   OH215149   1.297   6.792   0.100
 5062TIP3    H115150   1.219   6.765   0.051
 5062TIP3    H215151   1.366   6.801   0.034
 5063TIP3   OH215152   1.483   4.981   0.615
 5063TIP3    H115153   1.418   4.970   0.545
 5063TIP3    H215154   1.568   4.979   0.570
 5064TIP3   OH215155   3.327   2.052   2.987
 5064TIP3    H115156   3.336   2.108   3.064
 5064TIP3    H215157   3.320   2.112   2.914
 5065TIP3   OH215158   5.212   0.544   5.557
 5065TIP3    H115159   5.187   0.538   5.465
 5065TIP3    H215160   5.263   0.625   5.563
 5066TIP3   OH215161   3.442   3.978   3.167
 5066TIP3    H115162   3.527   3.981   3.123
 5066TIP3    H215163   3.451   3.906   3.230
 5067TIP3   OH215164   3.903   4.751   3.917
 5067TIP3    H115165   3.829   4.736   3.858
 5067TIP3    H215166   3.918   4.667   3.959
 5068TIP3   OH215167   6.156   4.373   4.253
 5068TIP3    H115168   6.073   4.412   4.280
 5068TIP3    H215169   6.131   4.304   4.192
 5069TIP3   OH215170   1.635   3.894   3.867
 5069TIP3    H115171   1.687   3.973   3.878
 5069TIP3    H215172   1.698   3.828   3.837
 5070TIP3   OH215173   0.182   2.246   1.076
 5070TIP3    H115174   0.158   2.262   0.985
 5070TIP3    H215175   0.198   2.333   1.112
 5071TIP3   OH215176   5.196   3.659   5.208
 5071TIP3    H115177   5.133   3.605   5.160
 5071TIP3    H215178   5.170   3.651   5.300
 5072TIP3   OH215179   2.516   6.076   2.931
 5072TIP3    H115180   2.603   6.040   2.920
 5072TIP3    H215181   2.495   6.114   2.846
 5073TIP3   OH215182   4.586   3.704   2.778
 5073TIP3    H115183   4.618   3.719   2.867
 5073TIP3    H215184   4.643   3.758   2.723
 5074TIP3   OH215185   2.958   4.389   5.377
 5074TIP3    H115186   2.971   4.482   5.397
 5074TIP3    H215187   3.043   4.349   5.393
 5075TIP3   OH215188   2.873   6.143   3.091
 5075TIP3    H115189   2.810   6.212   3.072
 5075TIP3    H215190   2.860   6.124   3.184
 5076TIP3   OH215191   3.565   5.617   5.776
 5076TIP3    H115192   3.653   5.606   5.738
 5076TIP3    H215193   3.581   5.657   5.861
 5077TIP3   OH215194   0.115   4.821   5.700
 5077TIP3    H115195   0.184   4.771   5.744
 5077TIP3    H215196   0.161   4.870   5.632
 5078TIP3   OH215197   2.585   4.008   2.507
 5078TIP3    H115198   2.648   3.936   2.516
 5078TIP3    H215199   2.616   4.075   2.568
 5079TIP3   OH215200   0.332   1.027   5.406
 5079TIP3    H115201   0.403   1.078   5.368
 5079TIP3    H215202   0.372   0.981   5.480
 5080TIP3   OH215203   0.798   3.104   3.980
 5080TIP3    H115204   0.772   3.172   4.042
 5080TIP3    H215205   0.787   3.144   3.894
 5081TIP3   OH215206   2.138   5.081   0.891
 5081TIP3    H115207   2.154   4.995   0.931
 5081TIP3    H215208   2.200   5.084   0.818
 5082TIP3   OH215209   0.434   5.778   1.226
 5082TIP3    H115210   0.521   5.763   1.191
 5082TIP3    H215211   0.389   5.831   1.160
 5083TIP3   OH215212   4.876   2.502   1.718
 5083TIP3    H115213   4.937   2.546   1.777
 5083TIP3    H215214   4.790   2.515   1.757
 5084TIP3   OH215215   6.350   0.387   2.018
 5084TIP3    H115216   6.442   0.362   2.021
 5084TIP3    H215217   6.343   0.446   1.943
 5085TIP3   OH215218   4.456   2.365   2.206
 5085TIP3    H115219   4.409   2.426   2.149
 5085TIP3    H215220   4.489   2.297   2.148
 5086TIP3   OH215221   4.430   2.132   3.711
 5086TIP3    H115222   4.439   2.189   3.787
 5086TIP3    H215223   4.518   2.131   3.672
 5087TIP3   OH215224   5.404   4.201   1.896
 5087TIP3    H115225   5.423   4.226   1.806
 5087TIP3    H215226   5.490   4.195   1.938
 5088TIP3   OH215227   4.966   2.271   2.276
 5088TIP3    H115228   5.030   2.201   2.283
 5088TIP3    H215229   4.946   2.295   2.367
 5089TIP3   OH215230   6.264   2.299   4.926
 5089TIP3    H115231   6.179   2.288   4.969
 5089TIP3    H215232   6.272   2.221   4.870
 5090TIP3   OH215233   5.332   4.825   2.756
 5090TIP3    H115234   5.319   4.862   2.669
 5090TIP3    H215235   5.257   4.855   2.807
 5091TIP3   OH215236   0.089   0.263   4.422
 5091TIP3    H115237   0.182   0.273   4.442
 5091TIP3    H215238   0.045   0.280   4.505
 5092TIP3   OH215239   2.830   5.945   5.690
 5092TIP3    H115240   2.904   6.002   5.668
 5092TIP3    H215241   2.863   5.856   5.678
 5093TIP3   OH215242   3.532   3.356   5.419
 5093TIP3    H115243   3.598   3.316   5.364
 5093TIP3    H215244   3.501   3.285   5.476
 5094TIP3   OH215245   1.336   4.184   3.290
 5094TIP3    H115246   1.311   4.102   3.333
 5094TIP3    H215247   1.266   4.245   3.312
 5095TIP3   OH215248   3.752   6.251   0.665
 5095TIP3    H115249   3.706   6.169   0.681
 5095TIP3    H215250   3.710   6.288   0.587
 5096TIP3   OH215251   6.824   6.807   0.618
 5096TIP3    H115252   6.743   6.791   0.570
 5096TIP3    H215253   6.876   6.728   0.604
 5097TIP3   OH215254   6.203   1.855   1.612
 5097TIP3    H115255   6.277   1.914   1.622
 5097TIP3    H215256   6.229   1.774   1.656
 5098TIP3   OH215257   7.114   1.093   0.077
 5098TIP3    H115258   7.176   1.068   0.008
 5098TIP3    H215259   7.135   1.036   0.150
 5099TIP3   OH215260   5.104   5.345   5.284
 5099TIP3    H115261   5.138   5.429   5.312
 5099TIP3    H215262   5.022   5.365   5.238
 5100TIP3   OH215263   2.855   0.044   4.252
 5100TIP3    H115264   2.865  -0.042   4.211
 5100TIP3    H215265   2.945   0.075   4.263
 5101TIP3   OH215266   3.868   1.222   5.386
 5101TIP3    H115267   3.925   1.184   5.319
 5101TIP3    H215268   3.911   1.199   5.469
 5102TIP3   OH215269   6.479   1.427   3.175
 5102TIP3    H115270   6.413   1.405   3.109
 5102TIP3    H215271   6.445   1.389   3.256
 5103TIP3   OH215272   4.489   0.008   4.222
 5103TIP3    H115273   4.445   0.060   4.289
 5103TIP3    H215274   4.418  -0.030   4.170
 5104TIP3   OH215275   4.171   5.635   4.117
 5104TIP3    H115276   4.190   5.597   4.202
 5104TIP3    H215277   4.191   5.564   4.055
 5105TIP3   OH215278   1.998   6.051   3.095
 5105TIP3    H115279   1.907   6.026   3.107
 5105TIP3    H215280   2.045   5.967   3.087
 5106TIP3   OH215281   5.638   0.986   3.618
 5106TIP3    H115282   5.654   1.072   3.658
 5106TIP3    H215283   5.574   0.945   3.676
 5107TIP3   OH215284   7.111   1.904   1.347
 5107TIP3    H115285   7.123   1.916   1.442
 5107TIP3    H215286   7.046   1.969   1.323
 5108TIP3   OH215287   2.324   4.918   2.630
 5108TIP3    H115288   2.254   4.983   2.643
 5108TIP3    H215289   2.280   4.834   2.641
 5109TIP3   OH215290   6.589   3.448   5.421
 5109TIP3    H115291   6.644   3.387   5.471
 5109TIP3    H215292   6.567   3.400   5.342
 5110TIP3   OH215293   1.123   1.149   3.182
 5110TIP3    H115294   1.183   1.215   3.215
 5110TIP3    H215295   1.128   1.156   3.087
 5111TIP3   OH215296   5.817   2.428   3.346
 5111TIP3    H115297   5.873   2.459   3.275
 5111TIP3    H215298   5.788   2.341   3.317
 5112TIP3   OH215299   0.485   4.790   0.737
 5112TIP3    H115300   0.472   4.876   0.696
 5112TIP3    H215301   0.415   4.784   0.802
 5113TIP3   OH215302   2.844   4.191   5.670
 5113TIP3    H115303   2.825   4.280   5.641
 5113TIP3    H215304   2.818   4.135   5.597
 5114TIP3   OH215305   5.633   2.714   1.359
 5114TIP3    H115306   5.538   2.703   1.367
 5114TIP3    H215307   5.666   2.624   1.353
 5115TIP3   OH215308   3.210   1.897   0.529
 5115TIP3    H115309   3.259   1.855   0.600
 5115TIP3    H215310   3.207   1.831   0.459
 5116TIP3   OH215311   0.891   5.526   0.461
 5116TIP3    H115312   0.923   5.533   0.371
 5116TIP3    H215313   0.838   5.446   0.461
 5117TIP3   OH215314   3.527   5.263   1.851
 5117TIP3    H115315   3.603   5.299   1.899
 5117TIP3    H215316   3.542   5.169   1.850
 5118TIP3   OH215317   7.023   2.136   1.057
 5118TIP3    H115318   6.941   2.133   1.105
 5118TIP3    H215319   7.081   2.190   1.111
 5119TIP3   OH215320   4.432   6.532   3.905
 5119TIP3    H115321   4.501   6.543   3.840
 5119TIP3    H215322   4.372   6.605   3.889
 5120TIP3   OH215323   0.401   1.579   2.184
 5120TIP3    H115324   0.486   1.616   2.208
 5120TIP3    H215325   0.375   1.528   2.261
 5121TIP3   OH215326   3.402   1.537   3.783
 5121TIP3    H115327   3.466   1.572   3.845
 5121TIP3    H215328   3.366   1.613   3.739
 5122TIP3   OH215329   6.720   6.367   1.716
 5122TIP3    H115330   6.644   6.393   1.767
 5122TIP3    H215331   6.787   6.348   1.782
 5123TIP3   OH215332   4.489   2.324   1.320
 5123TIP3    H115333   4.545   2.286   1.253
 5123TIP3    H215334   4.496   2.419   1.306
 5124TIP3   OH215335   6.573   2.087   0.786
 5124TIP3    H115336   6.547   2.171   0.824
 5124TIP3    H215337   6.513   2.023   0.824
 5125TIP3   OH215338   2.879   3.111   2.821
 5125TIP3    H115339   2.859   3.097   2.729
 5125TIP3    H215340   2.951   3.173   2.822
 5126TIP3   OH215341   2.641   6.103   0.046
 5126TIP3    H115342   2.558   6.085   0.090
 5126TIP3    H215343   2.651   6.030  -0.016
 5127TIP3   OH215344   2.981   5.939   1.725
 5127TIP3    H115345   2.993   5.948   1.820
 5127TIP3    H215346   3.061   5.975   1.688
 5128TIP3   OH215347   1.059   2.297   0.375
 5128TIP3    H115348   1.029   2.291   0.284
 5128TIP3    H215349   0.981   2.281   0.427
 5129TIP3   OH215350   0.285   2.883   4.496
 5129TIP3    H115351   0.307   2.973   4.472
 5129TIP3    H215352   0.318   2.873   4.585
 5130TIP3   OH215353   2.836   3.589   5.698
 5130TIP3    H115354   2.875   3.675   5.717
 5130TIP3    H215355   2.770   3.577   5.766
 5131TIP3   OH215356   3.468   1.779   1.353
 5131TIP3    H115357   3.407   1.843   1.317
 5131TIP3    H215358   3.413   1.716   1.399
 5132TIP3   OH215359   7.030   1.126   2.144
 5132TIP3    H115360   7.016   1.057   2.208
 5132TIP3    H215361   7.024   1.081   2.059
 5133TIP3   OH215362   3.546   1.068   2.497
 5133TIP3    H115363   3.512   0.980   2.480
 5133TIP3    H215364   3.633   1.053   2.536
 5134TIP3   OH215365   1.156   3.882   2.314
 5134TIP3    H115366   1.246   3.862   2.289
 5134TIP3    H215367   1.164   3.919   2.402
 5135TIP3   OH215368   3.243   0.256   2.715
 5135TIP3    H115369   3.331   0.253   2.678
 5135TIP3    H215370   3.251   0.214   2.800
 5136TIP3   OH215371   5.885   1.317   0.874
 5136TIP3    H115372   5.862   1.276   0.790
 5136TIP3    H215373   5.979   1.334   0.868
 5137TIP3   OH215374   1.001   1.641   1.505
 5137TIP3    H115375   0.971   1.559   1.467
 5137TIP3    H215376   1.027   1.694   1.430
 5138TIP3   OH215377   4.227   5.061   0.160
 5138TIP3    H115378   4.294   5.035   0.223
 5138TIP3    H215379   4.177   4.981   0.142
 5139TIP3   OH215380   6.899   3.399   4.303
 5139TIP3    H115381   6.889   3.449   4.222
 5139TIP3    H215382   6.900   3.308   4.273
 5140TIP3   OH215383   3.770   1.794   2.898
 5140TIP3    H115384   3.859   1.772   2.925
 5140TIP3    H215385   3.745   1.725   2.837
 5141TIP3   OH215386   5.860   5.793   2.908
 5141TIP3    H115387   5.809   5.866   2.873
 5141TIP3    H215388   5.950   5.825   2.912
 5142TIP3   OH215389   3.046   3.879   2.774
 5142TIP3    H115390   3.017   3.960   2.732
 5142TIP3    H215391   3.089   3.908   2.854
 5143TIP3   OH215392   0.423   4.894   2.359
 5143TIP3    H115393   0.436   4.933   2.273
 5143TIP3    H215394   0.483   4.941   2.416
 5144TIP3   OH215395   2.016   6.206   4.129
 5144TIP3    H115396   1.924   6.196   4.106
 5144TIP3    H215397   2.040   6.293   4.096
 5145TIP3   OH215398   1.781   0.253   1.584
 5145TIP3    H115399   1.783   0.232   1.491
 5145TIP3    H215400   1.693   0.230   1.612
 5146TIP3   OH215401   7.050   0.513   2.609
 5146TIP3    H115402   7.019   0.565   2.684
 5146TIP3    H215403   7.083   0.432   2.648
 5147TIP3   OH215404   5.619   0.605   2.998
 5147TIP3    H115405   5.663   0.551   3.065
 5147TIP3    H215406   5.678   0.601   2.923
 5148TIP3   OH215407   2.053   3.019   0.871
 5148TIP3    H115408   1.993   2.961   0.824
 5148TIP3    H215409   2.119   3.044   0.807
 5149TIP3   OH215410   2.862   0.561   0.982
 5149TIP3    H115411   2.929   0.628   0.971
 5149TIP3    H215412   2.788   0.592   0.929
 5150TIP3   OH215413   4.140   0.171   4.209
 5150TIP3    H115414   4.055   0.145   4.243
 5150TIP3    H215415   4.130   0.167   4.114
 5151TIP3   OH215416   2.984   1.869   1.281
 5151TIP3    H115417   2.919   1.932   1.311
 5151TIP3    H215418   2.970   1.792   1.337
 5152TIP3   OH215419   3.320   1.609   0.345
 5152TIP3    H115420   3.230   1.589   0.371
 5152TIP3    H215421   3.368   1.617   0.427
 5153TIP3   OH215422   4.105   0.619   4.245
 5153TIP3    H115423   4.024   0.656   4.210
 5153TIP3    H215424   4.168   0.625   4.173
 5154TIP3   OH215425   0.629   1.132   2.239
 5154TIP3    H115426   0.603   1.091   2.322
 5154TIP3    H215427   0.569   1.095   2.174
 5155TIP3   OH215428   2.466   0.795   3.103
 5155TIP3    H115429   2.395   0.851   3.133
 5155TIP3    H215430   2.485   0.737   3.177
 5156TIP3   OH215431   5.028   0.771   2.702
 5156TIP3    H115432   4.970   0.805   2.771
 5156TIP3    H215433   4.975   0.707   2.656
 5157TIP3   OH215434   4.467   0.732   0.752
 5157TIP3    H115435   4.532   0.802   0.756
 5157TIP3    H215436   4.518   0.652   0.738
 5158TIP3   OH215437   5.223   6.086   5.079
 5158TIP3    H115438   5.306   6.065   5.037
 5158TIP3    H215439   5.198   6.171   5.043
 5159TIP3   OH215440   4.662   4.404   3.141
 5159TIP3    H115441   4.636   4.331   3.197
 5159TIP3    H215442   4.580   4.438   3.106
 5160TIP3   OH215443   2.558   5.581   1.509
 5160TIP3    H115444   2.554   5.665   1.554
 5160TIP3    H215445   2.649   5.572   1.481
 5161TIP3   OH215446   1.840   4.937   2.415
 5161TIP3    H115447   1.748   4.925   2.391
 5161TIP3    H215448   1.885   4.861   2.378
 5162TIP3   OH215449   6.045   4.183   2.584
 5162TIP3    H115450   6.083   4.271   2.583
 5162TIP3    H215451   6.014   4.171   2.674
 5163TIP3   OH215452   4.995   1.678   3.789
 5163TIP3    H115453   5.038   1.745   3.735
 5163TIP3    H215454   4.962   1.614   3.726
 5164TIP3   OH215455   1.079   6.733   2.764
 5164TIP3    H115456   1.156   6.677   2.769
 5164TIP3    H215457   1.112   6.816   2.729
 5165TIP3   OH215458   7.048   4.653   2.356
 5165TIP3    H115459   6.988   4.671   2.284
 5165TIP3    H215460   7.110   4.725   2.354
 5166TIP3   OH215461   6.380   2.339   0.355
 5166TIP3    H115462   6.343   2.277   0.292
 5166TIP3    H215463   6.358   2.303   0.440
 5167TIP3   OH215464   0.297   0.744   1.144
 5167TIP3    H115465   0.303   0.660   1.189
 5167TIP3    H215466   0.223   0.734   1.084
 5168TIP3   OH215467   4.986   0.068   0.462
 5168TIP3    H115468   5.026  -0.009   0.502
 5168TIP3    H215469   5.007   0.140   0.521
 5169TIP3   OH215470   2.856   1.704   3.020
 5169TIP3    H115471   2.820   1.753   2.947
 5169TIP3    H215472   2.919   1.643   2.980
 5170TIP3   OH215473   2.053   4.974   4.676
 5170TIP3    H115474   2.124   5.016   4.627
 5170TIP3    H215475   2.098   4.925   4.745
 5171TIP3   OH215476   6.567   2.764   1.285
 5171TIP3    H115477   6.597   2.826   1.352
 5171TIP3    H215478   6.478   2.791   1.265
 5172TIP3   OH215479   0.064   5.365   2.293
 5172TIP3    H115480   0.031   5.280   2.323
 5172TIP3    H215481   0.146   5.376   2.341
 5173TIP3   OH215482   2.846   1.938   1.742
 5173TIP3    H115483   2.753   1.935   1.720
 5173TIP3    H215484   2.891   1.943   1.658
 5174TIP3   OH215485   5.144   0.879   3.954
 5174TIP3    H115486   5.055   0.847   3.964
 5174TIP3    H215487   5.167   0.861   3.862
 5175TIP3   OH215488   5.968   5.652   5.221
 5175TIP3    H115489   6.055   5.633   5.186
 5175TIP3    H215490   5.978   5.737   5.263
 5176TIP3   OH215491   6.573   4.809   3.951
 5176TIP3    H115492   6.487   4.831   3.914
 5176TIP3    H215493   6.584   4.870   4.024
 5177TIP3   OH215494   5.644   1.307   2.232
 5177TIP3    H115495   5.565   1.273   2.190
 5177TIP3    H215496   5.613   1.350   2.311
 5178TIP3   OH215497   4.782   0.144   2.347
 5178TIP3    H115498   4.862   0.188   2.377
 5178TIP3    H215499   4.808   0.102   2.264
 5179TIP3   OH215500   5.890   1.439   4.675
 5179TIP3    H115501   5.878   1.466   4.584
 5179TIP3    H215502   5.846   1.354   4.681
 5180TIP3   OH215503   4.938   5.703   2.254
 5180TIP3    H115504   4.946   5.767   2.183
 5180TIP3    H215505   5.026   5.665   2.262
 5181TIP3   OH215506   6.303   1.348   2.216
 5181TIP3    H115507   6.252   1.343   2.297
 5181TIP3    H215508   6.370   1.413   2.235
 5182TIP3   OH215509   5.882   3.535   3.112
 5182TIP3    H115510   5.937   3.558   3.038
 5182TIP3    H215511   5.882   3.439   3.114
 5183TIP3   OH215512   5.769   1.189   0.635
 5183TIP3    H115513   5.773   1.098   0.664
 5183TIP3    H215514   5.697   1.190   0.571
 5184TIP3   OH215515   0.950   1.349   2.475
 5184TIP3    H115516   0.951   1.360   2.570
 5184TIP3    H215517   0.861   1.371   2.449
 5185TIP3   OH215518   1.487   4.740   1.060
 5185TIP3    H115519   1.485   4.725   1.154
 5185TIP3    H215520   1.409   4.793   1.042
 5186TIP3   OH215521   3.836   0.369   2.426
 5186TIP3    H115522   3.777   0.295   2.413
 5186TIP3    H215523   3.800   0.414   2.502
 5187TIP3   OH215524   2.034   0.651   3.304
 5187TIP3    H115525   2.116   0.612   3.334
 5187TIP3    H215526   2.026   0.624   3.212
 5188TIP3   OH215527   2.965   0.262   5.798
 5188TIP3    H115528   2.975   0.329   5.866
 5188TIP3    H215529   2.942   0.183   5.845
 5189TIP3   OH215530   6.686   4.344   4.838
 5189TIP3    H115531   6.738   4.424   4.848
 5189TIP3    H215532   6.680   4.308   4.926
 5190TIP3   OH215533   6.793   1.821   4.142
 5190TIP3    H115534   6.842   1.903   4.146
 5190TIP3    H215535   6.759   1.818   4.052
 5191TIP3   OH215536   6.792   0.323   1.131
 5191TIP3    H115537   6.750   0.372   1.060
 5191TIP3    H215538   6.769   0.232   1.115
 5192TIP3   OH215539   6.428  -0.036   0.676
 5192TIP3    H115540   6.392   0.053   0.676
 5192TIP3    H215541   6.479  -0.041   0.757
 5193TIP3   OH215542   7.102   4.174   4.954
 5193TIP3    H115543   7.163   4.214   4.891
 5193TIP3    H215544   7.036   4.132   4.899
 5194TIP3   OH215545   0.848   1.098   4.501
 5194TIP3    H115546   0.798   1.156   4.558
 5194TIP3    H215547   0.932   1.085   4.547
 5195TIP3   OH215548   1.243   3.263   3.795
 5195TIP3    H115549   1.158   3.291   3.762
 5195TIP3    H215550   1.247   3.297   3.884
 5196TIP3   OH215551   6.649   6.378   0.579
 5196TIP3    H115552   6.642   6.303   0.638
 5196TIP3    H215553   6.559   6.400   0.557
 5197TIP3   OH215554   5.018   0.952   4.549
 5197TIP3    H115555   5.009   0.873   4.603
 5197TIP3    H215556   4.994   0.923   4.460
 5198TIP3   OH215557   0.872   0.636   4.566
 5198TIP3    H115558   0.788   0.665   4.601
 5198TIP3    H215559   0.918   0.717   4.542
 5199TIP3   OH215560   6.006   2.286   5.751
 5199TIP3    H115561   5.945   2.276   5.677
 5199TIP3    H215562   6.091   2.259   5.716
 5200TIP3   OH215563   4.906   2.477   4.140
 5200TIP3    H115564   4.811   2.474   4.132
 5200TIP3    H215565   4.930   2.391   4.174
 5201TIP3   OH215566  -0.024   2.190   0.259
 5201TIP3    H115567  -0.055   2.270   0.216
 5201TIP3    H215568   0.004   2.218   0.346
 5202TIP3   OH215569   2.817   1.245   0.678
 5202TIP3    H115570   2.802   1.226   0.585
 5202TIP3    H215571   2.877   1.319   0.677
 5203TIP3   OH215572   1.604   3.122   3.645
 5203TIP3    H115573   1.626   3.086   3.730
 5203TIP3    H215574   1.605   3.217   3.658
 5204TIP3   OH215575   5.855   2.135   4.482
 5204TIP3    H115576   5.774   2.101   4.443
 5204TIP3    H215577   5.834   2.148   4.574
 5205TIP3   OH215578   5.490   4.701   3.597
 5205TIP3    H115579   5.454   4.786   3.572
 5205TIP3    H215580   5.584   4.716   3.607
 5206TIP3   OH215581   5.327   0.529   1.752
 5206TIP3    H115582   5.304   0.468   1.682
 5206TIP3    H215583   5.417   0.506   1.775
 5207TIP3   OH215584   4.324   5.016   4.201
 5207TIP3    H115585   4.313   5.089   4.139
 5207TIP3    H215586   4.294   4.939   4.152
 5208TIP3   OH215587   3.382   3.603   5.350
 5208TIP3    H115588   3.382   3.532   5.414
 5208TIP3    H215589   3.422   3.565   5.272
 5209TIP3   OH215590   5.677   1.984   2.747
 5209TIP3    H115591   5.636   1.988   2.833
 5209TIP3    H215592   5.644   2.060   2.700
 5210TIP3   OH215593   3.018   4.832   4.235
 5210TIP3    H115594   3.099   4.839   4.184
 5210TIP3    H215595   2.948   4.832   4.169
 5211TIP3   OH215596   5.184   4.538   5.637
 5211TIP3    H115597   5.123   4.465   5.651
 5211TIP3    H215598   5.151   4.583   5.560
 5212TIP3   OH215599   1.602   5.724   3.612
 5212TIP3    H115600   1.537   5.744   3.679
 5212TIP3    H215601   1.677   5.689   3.659
 5213TIP3   OH215602   5.384   6.652   1.633
 5213TIP3    H115603   5.408   6.565   1.665
 5213TIP3    H215604   5.452   6.710   1.666
 5214TIP3   OH215605   1.333   0.197   3.906
 5214TIP3    H115606   1.266   0.132   3.886
 5214TIP3    H215607   1.392   0.195   3.830
 5215TIP3   OH215608   2.667   6.517   3.330
 5215TIP3    H115609   2.624   6.432   3.321
 5215TIP3    H215610   2.749   6.507   3.281
 5216TIP3   OH215611   6.016   6.315   3.181
 5216TIP3    H115612   6.002   6.287   3.090
 5216TIP3    H215613   6.101   6.360   3.178
 5217TIP3   OH215614   0.275   2.801   4.218
 5217TIP3    H115615   0.291   2.834   4.306
 5217TIP3    H215616   0.361   2.768   4.189
 5218TIP3   OH215617   1.468   1.314   2.829
 5218TIP3    H115618   1.500   1.374   2.762
 5218TIP3    H215619   1.524   1.237   2.821
 5219TIP3   OH215620   2.555   4.071   0.259
 5219TIP3    H115621   2.500   3.996   0.235
 5219TIP3    H215622   2.637   4.031   0.287
 5220TIP3   OH215623   1.399   4.967   5.340
 5220TIP3    H115624   1.423   5.012   5.421
 5220TIP3    H215625   1.449   5.012   5.272
 5221TIP3   OH215626   4.526   2.777   1.971
 5221TIP3    H115627   4.470   2.790   2.047
 5221TIP3    H215628   4.469   2.737   1.905
 5222TIP3   OH215629   4.668   0.159   4.697
 5222TIP3    H115630   4.711   0.169   4.612
 5222TIP3    H215631   4.646   0.248   4.724
 5223TIP3   OH215632   1.154   1.194   2.909
 5223TIP3    H115633   1.216   1.267   2.900
 5223TIP3    H215634   1.141   1.163   2.820
 5224TIP3   OH215635   4.928   3.328   5.490
 5224TIP3    H115636   4.853   3.335   5.430
 5224TIP3    H215637   4.907   3.254   5.546
 5225TIP3   OH215638   6.124   0.642   5.919
 5225TIP3    H115639   6.148   0.710   5.856
 5225TIP3    H215640   6.195   0.578   5.912
 5226TIP3   OH215641   2.364   3.275   5.213
 5226TIP3    H115642   2.416   3.204   5.173
 5226TIP3    H215643   2.277   3.266   5.174
 5227TIP3   OH215644   2.636   1.990   1.370
 5227TIP3    H115645   2.580   2.059   1.405
 5227TIP3    H215646   2.627   1.998   1.275
 5228TIP3   OH215647   0.769   5.117   5.340
 5228TIP3    H115648   0.796   5.208   5.336
 5228TIP3    H215649   0.850   5.068   5.353
 5229TIP3   OH215650   1.465   0.152   1.330
 5229TIP3    H115651   1.558   0.134   1.329
 5229TIP3    H215652   1.435   0.135   1.241
 5230TIP3   OH215653   4.090   2.722   4.282
 5230TIP3    H115654   4.059   2.646   4.232
 5230TIP3    H215655   4.021   2.787   4.271
 5231TIP3   OH215656   3.313   1.582   4.245
 5231TIP3    H115657   3.304   1.517   4.314
 5231TIP3    H215658   3.299   1.534   4.164
 5232TIP3   OH215659   2.306   1.709   0.967
 5232TIP3    H115660   2.252   1.755   1.032
 5232TIP3    H215661   2.262   1.625   0.955
 5233TIP3   OH215662   1.678   3.048   1.046
 5233TIP3    H115663   1.769   3.049   1.017
 5233TIP3    H215664   1.679   3.093   1.130
 5234TIP3   OH215665   3.422   5.331   1.476
 5234TIP3    H115666   3.486   5.353   1.544
 5234TIP3    H215667   3.344   5.304   1.524
 5235TIP3   OH215668   6.900   2.995   5.876
 5235TIP3    H115669   6.949   2.913   5.873
 5235TIP3    H215670   6.838   2.989   5.803
 5236TIP3   OH215671   3.851   6.328   0.910
 5236TIP3    H115672   3.854   6.349   0.816
 5236TIP3    H215673   3.883   6.238   0.915
 5237TIP3   OH215674   3.764   2.984   5.798
 5237TIP3    H115675   3.858   3.001   5.798
 5237TIP3    H215676   3.737   2.996   5.707
 5238TIP3   OH215677   6.523   5.955   1.978
 5238TIP3    H115678   6.550   6.046   1.982
 5238TIP3    H215679   6.604   5.906   1.962
 5239TIP3   OH215680   2.600   1.919   0.879
 5239TIP3    H115681   2.579   1.842   0.826
 5239TIP3    H215682   2.520   1.971   0.878
 5240TIP3   OH215683   5.807   4.562   2.400
 5240TIP3    H115684   5.812   4.588   2.492
 5240TIP3    H215685   5.852   4.477   2.397
 5241TIP3   OH215686   3.266   6.611   2.114
 5241TIP3    H115687   3.203   6.594   2.043
 5241TIP3    H215688   3.350   6.624   2.069
 5242TIP3   OH215689   5.877   3.194   1.309
 5242TIP3    H115690   5.887   3.107   1.348
 5242TIP3    H215691   5.798   3.187   1.255
 5243TIP3   OH215692   5.884   2.746   0.745
 5243TIP3    H115693   5.938   2.671   0.720
 5243TIP3    H215694   5.816   2.709   0.801
 5244TIP3   OH215695   3.166   0.130   1.226
 5244TIP3    H115696   3.208   0.215   1.243
 5244TIP3    H215697   3.073   0.152   1.214
 5245TIP3   OH215698   7.129   0.320   2.314
 5245TIP3    H115699   7.160   0.229   2.317
 5245TIP3    H215700   7.076   0.325   2.234
 5246TIP3   OH215701   5.874   0.192   5.045
 5246TIP3    H115702   5.918   0.274   5.024
 5246TIP3    H215703   5.807   0.216   5.108
 5247TIP3   OH215704   1.317   5.244   4.485
 5247TIP3    H115705   1.324   5.248   4.390
 5247TIP3    H215706   1.333   5.334   4.514
 5248TIP3   OH215707   4.693   6.251   0.713
 5248TIP3    H115708   4.687   6.346   0.723
 5248TIP3    H215709   4.723   6.221   0.799
 5249TIP3   OH215710   4.213   4.178   5.940
 5249TIP3    H115711   4.301   4.211   5.958
 5249TIP3    H215712   4.227   4.090   5.904
 5250TIP3   OH215713   2.824   6.390   5.786
 5250TIP3    H115714   2.815   6.449   5.711
 5250TIP3    H215715   2.736   6.354   5.799
 5251TIP3   OH215716   0.256   4.094   0.604
 5251TIP3    H115717   0.278   4.171   0.552
 5251TIP3    H215718   0.325   4.090   0.671
 5252TIP3   OH215719   1.225   4.890   0.073
 5252TIP3    H115720   1.284   4.821   0.104
 5252TIP3    H215721   1.280   4.948   0.022
 5253TIP3   OH215722   1.768   5.062   3.232
 5253TIP3    H115723   1.856   5.101   3.233
 5253TIP3    H215724   1.712   5.131   3.196
 5254TIP3   OH215725   2.699   6.193   4.693
 5254TIP3    H115726   2.627   6.131   4.704
 5254TIP3    H215727   2.660   6.268   4.648
 5255TIP3   OH215728   0.469   4.350   2.209
 5255TIP3    H115729   0.501   4.402   2.283
 5255TIP3    H215730   0.376   4.371   2.204
 5256TIP3   OH215731   0.381   6.415   2.887
 5256TIP3    H115732   0.378   6.370   2.972
 5256TIP3    H215733   0.435   6.360   2.832
 5257TIP3   OH215734   5.052   4.689   4.455
 5257TIP3    H115735   5.109   4.618   4.428
 5257TIP3    H215736   4.995   4.705   4.380
 5258TIP3   OH215737   1.705   1.931   5.247
 5258TIP3    H115738   1.797   1.932   5.222
 5258TIP3    H215739   1.686   1.840   5.269
 5259TIP3   OH215740   4.424   6.693   0.570
 5259TIP3    H115741   4.395   6.605   0.546
 5259TIP3    H215742   4.343   6.740   0.589
 5260TIP3   OH215743   4.675   6.514   1.694
 5260TIP3    H115744   4.581   6.529   1.696
 5260TIP3    H215745   4.701   6.507   1.785
 5261TIP3   OH215746   4.619   0.777   4.256
 5261TIP3    H115747   4.662   0.859   4.231
 5261TIP3    H215748   4.652   0.713   4.193
 5262TIP3   OH215749   3.749   2.695   0.177
 5262TIP3    H115750   3.690   2.650   0.238
 5262TIP3    H215751   3.778   2.626   0.117
 5263TIP3   OH215752   7.130   0.824   0.922
 5263TIP3    H115753   7.042   0.787   0.921
 5263TIP3    H215754   7.118   0.915   0.894
 5264TIP3   OH215755   0.382   3.556   4.991
 5264TIP3    H115756   0.390   3.491   5.061
 5264TIP3    H215757   0.429   3.633   5.024
 5265TIP3   OH215758   4.893   4.187   2.091
 5265TIP3    H115759   4.939   4.139   2.022
 5265TIP3    H215760   4.830   4.124   2.126
 5266TIP3   OH215761   1.375   4.428   4.823
 5266TIP3    H115762   1.295   4.410   4.773
 5266TIP3    H215763   1.420   4.496   4.773
 5267TIP3   OH215764   1.238   2.928   5.218
 5267TIP3    H115765   1.258   2.998   5.155
 5267TIP3    H215766   1.243   2.971   5.303
 5268TIP3   OH215767   6.670   6.536   4.117
 5268TIP3    H115768   6.722   6.584   4.052
 5268TIP3    H215769   6.731   6.520   4.189
 5269TIP3   OH215770   6.013   2.252   3.674
 5269TIP3    H115771   5.971   2.267   3.759
 5269TIP3    H215772   6.012   2.338   3.632
 5270TIP3   OH215773   5.759   3.596   5.909
 5270TIP3    H115774   5.796   3.541   5.840
 5270TIP3    H215775   5.735   3.534   5.978
 5271TIP3   OH215776   4.899   0.031   1.540
 5271TIP3    H115777   4.837   0.055   1.609
 5271TIP3    H215778   4.890  -0.064   1.531
 5272TIP3   OH215779   2.857   4.516   3.880
 5272TIP3    H115780   2.938   4.566   3.886
 5272TIP3    H215781   2.789   4.582   3.868
 5273TIP3   OH215782   6.372   0.761   2.775
 5273TIP3    H115783   6.340   0.807   2.697
 5273TIP3    H215784   6.292   0.734   2.821
 5274TIP3   OH215785   1.456   2.319   3.930
 5274TIP3    H115786   1.515   2.390   3.907
 5274TIP3    H215787   1.392   2.318   3.858
 5275TIP3   OH215788   2.704   3.912   2.229
 5275TIP3    H115789   2.668   3.961   2.302
 5275TIP3    H215790   2.657   3.829   2.230
 5276TIP3   OH215791   4.572   4.471   2.797
 5276TIP3    H115792   4.528   4.496   2.878
 5276TIP3    H215793   4.663   4.455   2.823
 5277TIP3   OH215794   6.932   4.016   0.825
 5277TIP3    H115795   6.982   3.983   0.899
 5277TIP3    H215796   6.998   4.039   0.760
 5278TIP3   OH215797   3.210   4.777   2.322
 5278TIP3    H115798   3.217   4.739   2.235
 5278TIP3    H215799   3.147   4.721   2.368
 5279TIP3   OH215800   6.020   6.577   5.066
 5279TIP3    H115801   6.031   6.642   4.997
 5279TIP3    H215802   6.073   6.503   5.038
 5280TIP3   OH215803   1.326   3.508   1.780
 5280TIP3    H115804   1.315   3.578   1.845
 5280TIP3    H215805   1.251   3.450   1.793
 5281TIP3   OH215806   5.722   3.313   0.753
 5281TIP3    H115807   5.736   3.228   0.795
 5281TIP3    H215808   5.791   3.369   0.788
 5282TIP3   OH215809   2.747   5.129   4.875
 5282TIP3    H115810   2.806   5.053   4.876
 5282TIP3    H215811   2.662   5.093   4.851
 5283TIP3   OH215812   2.152   6.222   2.325
 5283TIP3    H115813   2.084   6.248   2.263
 5283TIP3    H215814   2.206   6.160   2.277
 5284TIP3   OH215815   0.616   0.240   1.165
 5284TIP3    H115816   0.615   0.144   1.168
 5284TIP3    H215817   0.525   0.265   1.179
 5285TIP3   OH215818   1.256   3.042   4.782
 5285TIP3    H115819   1.323   3.107   4.761
 5285TIP3    H215820   1.298   2.958   4.769
 5286TIP3   OH215821   3.022   5.474   3.306
 5286TIP3    H115822   2.976   5.391   3.321
 5286TIP3    H215823   3.095   5.472   3.369
 5287TIP3   OH215824   2.877   1.686   4.565
 5287TIP3    H115825   2.923   1.645   4.492
 5287TIP3    H215826   2.790   1.705   4.532
 5288TIP3   OH215827   1.425   3.181   1.649
 5288TIP3    H115828   1.506   3.155   1.605
 5288TIP3    H215829   1.384   3.244   1.590
 5289TIP3   OH215830   1.793   6.438   2.367
 5289TIP3    H115831   1.780   6.356   2.413
 5289TIP3    H215832   1.886   6.457   2.377
 5290TIP3   OH215833   4.230   4.963   4.529
 5290TIP3    H115834   4.293   4.892   4.525
 5290TIP3    H215835   4.210   4.982   4.438
 5291TIP3   OH215836   2.060   0.104   2.016
 5291TIP3    H115837   2.048   0.012   2.042
 5291TIP3    H215838   1.979   0.147   2.042
 5292TIP3   OH215839   2.869   3.027   5.907
 5292TIP3    H115840   2.903   3.047   5.820
 5292TIP3    H215841   2.777   3.054   5.904
 5293TIP3   OH215842   0.055   5.732   4.129
 5293TIP3    H115843   0.060   5.723   4.034
 5293TIP3    H215844   0.012   5.651   4.157
 5294TIP3   OH215845   6.469   5.872   5.540
 5294TIP3    H115846   6.388   5.822   5.529
 5294TIP3    H215847   6.513   5.866   5.455
 5295TIP3   OH215848   5.587   2.955   2.475
 5295TIP3    H115849   5.526   2.993   2.412
 5295TIP3    H215850   5.579   2.860   2.461
 5296TIP3   OH215851   3.984   5.054   4.557
 5296TIP3    H115852   3.969   5.089   4.645
 5296TIP3    H215853   4.074   5.023   4.559
 5297TIP3   OH215854   1.512   3.094   0.610
 5297TIP3    H115855   1.590   3.040   0.597
 5297TIP3    H215856   1.540   3.183   0.590
 5298TIP3   OH215857   2.769   2.986   4.186
 5298TIP3    H115858   2.855   3.027   4.181
 5298TIP3    H215859   2.720   3.025   4.113
 5299TIP3   OH215860   2.481   0.633   0.564
 5299TIP3    H115861   2.388   0.615   0.549
 5299TIP3    H215862   2.503   0.700   0.500
 5300TIP3   OH215863   5.611   6.022   3.382
 5300TIP3    H115864   5.681   6.043   3.320
 5300TIP3    H215865   5.531   6.056   3.342
 5301TIP3   OH215866   4.386  -0.022   2.274
 5301TIP3    H115867   4.313   0.037   2.287
 5301TIP3    H215868   4.448   0.001   2.343
 5302TIP3   OH215869   4.502   3.587   5.402
 5302TIP3    H115870   4.595   3.598   5.380
 5302TIP3    H215871   4.492   3.633   5.485
 5303TIP3   OH215872   3.012   1.241   4.862
 5303TIP3    H115873   3.098   1.277   4.885
 5303TIP3    H215874   2.949   1.301   4.903
 5304TIP3   OH215875   5.493   3.071   2.732
 5304TIP3    H115876   5.414   3.095   2.684
 5304TIP3    H215877   5.558   3.051   2.665
 5305TIP3   OH215878   3.202   1.455   4.021
 5305TIP3    H115879   3.168   1.367   4.032
 5305TIP3    H215880   3.134   1.501   3.973
 5306TIP3   OH215881   3.954   1.846   5.236
 5306TIP3    H115882   4.008   1.767   5.235
 5306TIP3    H215883   3.865   1.814   5.249
 5307TIP3   OH215884   4.246   6.508   1.144
 5307TIP3    H115885   4.192   6.550   1.077
 5307TIP3    H215886   4.272   6.425   1.104
 5308TIP3   OH215887   5.551   4.317   1.683
 5308TIP3    H115888   5.526   4.396   1.731
 5308TIP3    H215889   5.647   4.315   1.688
 5309TIP3   OH215890   5.131   2.938   5.926
 5309TIP3    H115891   5.217   2.980   5.932
 5309TIP3    H215892   5.099   2.961   5.839
 5310TIP3   OH215893   4.690   0.494   1.600
 5310TIP3    H115894   4.698   0.512   1.506
 5310TIP3    H215895   4.627   0.560   1.631
 5311TIP3   OH215896   3.824   5.768   0.525
 5311TIP3    H115897   3.878   5.837   0.487
 5311TIP3    H215898   3.816   5.702   0.456
 5312TIP3   OH215899   0.843   3.570   2.519
 5312TIP3    H115900   0.929   3.532   2.537
 5312TIP3    H215901   0.844   3.654   2.564
 5313TIP3   OH215902   2.508   0.137   2.130
 5313TIP3    H115903   2.528   0.090   2.049
 5313TIP3    H215904   2.584   0.194   2.144
 5314TIP3   OH215905   0.870   2.341   1.941
 5314TIP3    H115906   0.958   2.341   1.980
 5314TIP3    H215907   0.838   2.430   1.954
 5315TIP3   OH215908   2.659   5.373   4.894
 5315TIP3    H115909   2.695   5.285   4.904
 5315TIP3    H215910   2.566   5.359   4.875
 5316TIP3   OH215911   2.790   3.330   5.531
 5316TIP3    H115912   2.796   3.409   5.584
 5316TIP3    H215913   2.879   3.316   5.498
 5317TIP3   OH215914   5.484   6.810   3.336
 5317TIP3    H115915   5.567   6.775   3.370
 5317TIP3    H215916   5.416   6.764   3.386
 5318TIP3   OH215917   4.234   5.314   5.098
 5318TIP3    H115918   4.269   5.383   5.154
 5318TIP3    H215919   4.311   5.270   5.062
 5319TIP3   OH215920   2.825   1.734   3.512
 5319TIP3    H115921   2.857   1.682   3.438
 5319TIP3    H215922   2.884   1.809   3.516
 5320TIP3   OH215923   1.602   6.233   3.297
 5320TIP3    H115924   1.600   6.325   3.323
 5320TIP3    H215925   1.529   6.193   3.344
 5321TIP3   OH215926   1.994   4.653   2.129
 5321TIP3    H115927   2.053   4.722   2.099
 5321TIP3    H215928   1.912   4.670   2.082
 5322TIP3   OH215929   5.379   6.504   3.700
 5322TIP3    H115930   5.471   6.533   3.702
 5322TIP3    H215931   5.332   6.570   3.751
 5323TIP3   OH215932   6.967   3.954   1.365
 5323TIP3    H115933   7.013   3.873   1.343
 5323TIP3    H215934   7.035   4.011   1.400
 5324TIP3   OH215935   2.675   5.259   5.553
 5324TIP3    H115936   2.761   5.227   5.524
 5324TIP3    H215937   2.688   5.286   5.644
 5325TIP3   OH215938   4.823   3.744   3.302
 5325TIP3    H115939   4.913   3.753   3.334
 5325TIP3    H215940   4.803   3.830   3.264
 5326TIP3   OH215941   2.886   6.161   3.435
 5326TIP3    H115942   2.937   6.242   3.426
 5326TIP3    H215943   2.924   6.117   3.510
 5327TIP3   OH215944   4.390   5.069   3.389
 5327TIP3    H115945   4.323   5.003   3.373
 5327TIP3    H215946   4.421   5.052   3.478
 5328TIP3   OH215947   2.184   3.242   0.118
 5328TIP3    H115948   2.260   3.186   0.132
 5328TIP3    H215949   2.154   3.264   0.207
 5329TIP3   OH215950   2.914   6.586   1.697
 5329TIP3    H115951   2.917   6.539   1.613
 5329TIP3    H215952   2.838   6.548   1.742
 5330TIP3   OH215953   3.216   0.448   2.957
 5330TIP3    H115954   3.259   0.451   2.872
 5330TIP3    H215955   3.219   0.357   2.983
 5331TIP3   OH215956   2.344   1.183   1.954
 5331TIP3    H115957   2.419   1.232   1.919
 5331TIP3    H215958   2.380   1.096   1.974
 5332TIP3   OH215959   4.289   0.987   3.155
 5332TIP3    H115960   4.217   0.939   3.114
 5332TIP3    H215961   4.356   0.920   3.171
 5333TIP3   OH215962   3.780   5.068   4.300
 5333TIP3    H115963   3.697   5.025   4.277
 5333TIP3    H215964   3.838   5.046   4.228
 5334TIP3   OH215965   4.675   6.145   4.643
 5334TIP3    H115966   4.717   6.068   4.681
 5334TIP3    H215967   4.723   6.161   4.562
 5335TIP3   OH215968   5.035   1.942   3.645
 5335TIP3    H115969   5.129   1.959   3.634
 5335TIP3    H215970   5.001   2.020   3.688
 5336TIP3   OH215971   4.578   2.205   1.969
 5336TIP3    H115972   4.484   2.218   1.960
 5336TIP3    H215973   4.615   2.245   1.890
 5337TIP3   OH215974   5.421   3.846   3.224
 5337TIP3    H115975   5.474   3.770   3.199
 5337TIP3    H215976   5.334   3.827   3.190
 5338TIP3   OH215977   3.093   0.707   3.931
 5338TIP3    H115978   3.179   0.721   3.891
 5338TIP3    H215979   3.106   0.734   4.022
 5339TIP3   OH215980   4.279   6.513   3.477
 5339TIP3    H115981   4.374   6.516   3.466
 5339TIP3    H215982   4.245   6.576   3.413
 5340TIP3   OH215983   3.542   5.262   5.848
 5340TIP3    H115984   3.469   5.324   5.842
 5340TIP3    H215985   3.565   5.261   5.940
 5341TIP3   OH215986   0.277   4.474   3.926
 5341TIP3    H115987   0.364   4.439   3.910
 5341TIP3    H215988   0.224   4.440   3.854
 5342TIP3   OH215989   4.427   3.948   0.218
 5342TIP3    H115990   4.514   3.958   0.180
 5342TIP3    H215991   4.436   3.878   0.282
 5343TIP3   OH215992   5.834   3.678   1.874
 5343TIP3    H115993   5.871   3.763   1.898
 5343TIP3    H215994   5.808   3.639   1.957
 5344TIP3   OH215995   4.751   2.950   4.429
 5344TIP3    H115996   4.812   2.897   4.481
 5344TIP3    H215997   4.727   2.892   4.356
 5345TIP3   OH215998   0.791   3.126   2.946
 5345TIP3    H115999   0.859   3.081   2.996
 5345TIP3    H216000   0.839   3.183   2.886
 5346TIP3   OH216001   1.143   5.364   3.313
 5346TIP3    H116002   1.178   5.297   3.255
 5346TIP3    H216003   1.092   5.422   3.256
 5347TIP3   OH216004   4.853   2.052   1.125
 5347TIP3    H116005   4.847   2.137   1.082
 5347TIP3    H216006   4.825   2.069   1.216
 5348TIP3   OH216007   7.107   4.097   0.115
 5348TIP3    H116008   7.026   4.147   0.100
 5348TIP3    H216009   7.145   4.137   0.193
 5349TIP3   OH216010   5.133   6.771   1.677
 5349TIP3    H116011   5.163   6.836   1.741
 5349TIP3    H216012   5.213   6.727   1.648
 5350TIP3   OH216013   0.017   6.747   2.283
 5350TIP3    H116014   0.058   6.663   2.261
 5350TIP3    H216015   0.060   6.810   2.226
 5351TIP3   OH216016   0.154   0.443   4.222
 5351TIP3    H116017   0.248   0.453   4.236
 5351TIP3    H216018   0.129   0.367   4.273
 5352TIP3   OH216019   2.096   3.544   3.996
 5352TIP3    H116020   2.002   3.523   3.995
 5352TIP3    H216021   2.125   3.527   3.906
 5353TIP3   OH216022   4.164   1.215   2.953
 5353TIP3    H116023   4.158   1.309   2.972
 5353TIP3    H216024   4.154   1.173   3.038
 5354TIP3   OH216025   0.750   1.472   2.699
 5354TIP3    H116026   0.796   1.402   2.746
 5354TIP3    H216027   0.739   1.541   2.764
 5355TIP3   OH216028   1.586   4.242   2.468
 5355TIP3    H116029   1.575   4.147   2.478
 5355TIP3    H216030   1.636   4.268   2.546
 5356TIP3   OH216031   2.789   6.563   2.105
 5356TIP3    H116032   2.864   6.623   2.114
 5356TIP3    H216033   2.713   6.620   2.114
 5357TIP3   OH216034   4.392   3.346   5.323
 5357TIP3    H116035   4.358   3.336   5.412
 5357TIP3    H216036   4.431   3.433   5.323
 5358TIP3   OH216037   2.329   4.961   1.475
 5358TIP3    H116038   2.285   5.045   1.477
 5358TIP3    H216039   2.421   4.983   1.461
 5359TIP3   OH216040   3.035   3.356   4.145
 5359TIP3    H116041   3.005   3.434   4.098
 5359TIP3    H216042   3.114   3.385   4.190
 5360TIP3   OH216043   3.969   0.018   3.012
 5360TIP3    H116044   3.919  -0.049   3.059
 5360TIP3    H216045   4.057   0.012   3.047
 5361TIP3   OH216046   5.702   0.353   5.150
 5361TIP3    H116047   5.613   0.357   5.185
 5361TIP3    H216048   5.702   0.415   5.078
 5362TIP3   OH216049   0.002   0.500   5.666
 5362TIP3    H116050   0.079   0.555   5.677
 5362TIP3    H216051   0.003   0.475   5.574
 5363TIP3   OH216052   0.545   6.027   2.029
 5363TIP3    H116053   0.556   6.030   1.934
 5363TIP3    H216054   0.620   5.978   2.061
 5364TIP3   OH216055   6.258   4.284   0.391
 5364TIP3    H116056   6.305   4.296   0.473
 5364TIP3    H216057   6.314   4.324   0.325
 5365TIP3   OH216058   0.251   5.298   5.679
 5365TIP3    H116059   0.167   5.280   5.638
 5365TIP3    H216060   0.261   5.394   5.674
 5366TIP3   OH216061   5.476   2.421   4.537
 5366TIP3    H116062   5.387   2.395   4.562
 5366TIP3    H216063   5.471   2.515   4.521
 5367TIP3   OH216064   5.531   2.110   5.491
 5367TIP3    H116065   5.438   2.116   5.469
 5367TIP3    H216066   5.572   2.080   5.410
 5368TIP3   OH216067   6.878   4.241   0.449
 5368TIP3    H116068   6.795   4.195   0.436
 5368TIP3    H216069   6.936   4.176   0.487
 5369TIP3   OH216070   4.555   3.926   5.219
 5369TIP3    H116071   4.560   4.000   5.279
 5369TIP3    H216072   4.646   3.902   5.201
 5370TIP3   OH216073   1.413   1.441   0.701
 5370TIP3    H116074   1.438   1.528   0.731
 5370TIP3    H216075   1.319   1.436   0.718
 5371TIP3   OH216076   0.655   4.999   4.885
 5371TIP3    H116077   0.642   5.087   4.848
 5371TIP3    H216078   0.597   4.943   4.834
 5372TIP3   OH216079   2.335   5.640   3.528
 5372TIP3    H116080   2.316   5.661   3.436
 5372TIP3    H216081   2.416   5.687   3.547
 5373TIP3   OH216082   6.899   1.221   3.746
 5373TIP3    H116083   6.804   1.228   3.733
 5373TIP3    H216084   6.933   1.306   3.717
 5374TIP3   OH216085   6.655   3.706   5.480
 5374TIP3    H116086   6.686   3.721   5.569
 5374TIP3    H216087   6.631   3.613   5.478
 5375TIP3   OH216088   0.894   5.187   0.673
 5375TIP3    H116089   0.924   5.186   0.764
 5375TIP3    H216090   0.916   5.100   0.639
 5376TIP3   OH216091   0.857   2.840   2.740
 5376TIP3    H116092   0.896   2.777   2.800
 5376TIP3    H216093   0.906   2.830   2.659
 5377TIP3   OH216094   5.782   3.197   4.957
 5377TIP3    H116095   5.804   3.240   5.040
 5377TIP3    H216096   5.790   3.103   4.976
 5378TIP3   OH216097   1.265   5.293   3.534
 5378TIP3    H116098   1.214   5.214   3.553
 5378TIP3    H216099   1.234   5.322   3.448
 5379TIP3   OH216100   6.722   3.402   3.904
 5379TIP3    H116101   6.657   3.335   3.925
 5379TIP3    H216102   6.711   3.418   3.810
 5380TIP3   OH216103   7.010   6.052   1.835
 5380TIP3    H116104   6.966   5.978   1.792
 5380TIP3    H216105   7.077   6.012   1.890
 5381TIP3   OH216106   4.669   0.553   5.229
 5381TIP3    H116107   4.687   0.467   5.266
 5381TIP3    H216108   4.755   0.587   5.203
 5382TIP3   OH216109   2.700   5.059   3.787
 5382TIP3    H116110   2.659   5.077   3.702
 5382TIP3    H216111   2.778   5.115   3.788
 5383TIP3   OH216112   1.084   5.048   3.592
 5383TIP3    H116113   1.042   4.963   3.579
 5383TIP3    H216114   1.159   5.030   3.648
 5384TIP3   OH216115   3.369   6.076   2.319
 5384TIP3    H116116   3.410   6.144   2.373
 5384TIP3    H216117   3.442   6.027   2.282
 5385TIP3   OH216118   4.907   2.916   2.055
 5385TIP3    H116119   4.876   2.830   2.027
 5385TIP3    H216120   4.866   2.977   1.994
 5386TIP3   OH216121   2.888   0.146   2.972
 5386TIP3    H116122   2.807   0.192   2.991
 5386TIP3    H216123   2.911   0.101   3.053
 5387TIP3   OH216124   3.977   3.485   3.960
 5387TIP3    H116125   4.033   3.539   4.015
 5387TIP3    H216126   3.917   3.546   3.918
 5388TIP3   OH216127   5.146   6.306   5.341
 5388TIP3    H116128   5.214   6.364   5.376
 5388TIP3    H216129   5.193   6.227   5.316
 5389TIP3   OH216130   5.878   2.842   1.975
 5389TIP3    H116131   5.826   2.776   1.930
 5389TIP3    H216132   5.813   2.892   2.025
 5390TIP3   OH216133   3.047   6.253   4.440
 5390TIP3    H116134   3.093   6.181   4.395
 5390TIP3    H216135   3.015   6.308   4.369
 5391TIP3   OH216136   6.525   5.074   3.266
 5391TIP3    H116137   6.447   5.060   3.212
 5391TIP3    H216138   6.579   4.996   3.250
 5392TIP3   OH216139   0.939   6.623   3.154
 5392TIP3    H116140   0.981   6.578   3.227
 5392TIP3    H216141   1.003   6.688   3.125
 5393TIP3   OH216142   2.366   1.065   2.597
 5393TIP3    H116143   2.459   1.081   2.579
 5393TIP3    H216144   2.365   1.028   2.685
 5394TIP3   OH216145   0.814   2.617   2.061
 5394TIP3    H116146   0.879   2.575   2.116
 5394TIP3    H216147   0.782   2.690   2.113
 5395TIP3   OH216148   0.352   3.872   2.448
 5395TIP3    H116149   0.297   3.912   2.380
 5395TIP3    H216150   0.322   3.781   2.452
 5396TIP3   OH216151   6.552   6.709   0.473
 5396TIP3    H116152   6.499   6.632   0.495
 5396TIP3    H216153   6.604   6.682   0.397
 5397TIP3   OH216154   5.089   2.272   1.149
 5397TIP3    H116155   5.098   2.297   1.241
 5397TIP3    H216156   5.031   2.196   1.150
 5398TIP3   OH216157   2.875   3.779   3.908
 5398TIP3    H116158   2.942   3.846   3.895
 5398TIP3    H216159   2.832   3.804   3.990
 5399TIP3   OH216160   4.063   4.122   3.203
 5399TIP3    H116161   4.108   4.130   3.119
 5399TIP3    H216162   4.022   4.207   3.217
 5400TIP3   OH216163   2.418   1.340   0.497
 5400TIP3    H116164   2.338   1.289   0.488
 5400TIP3    H216165   2.473   1.311   0.424
 5401TIP3   OH216166   0.464   6.026   3.533
 5401TIP3    H116167   0.527   5.983   3.591
 5401TIP3    H216168   0.475   5.981   3.449
 5402TIP3   OH216169   5.638   1.239   0.214
 5402TIP3    H116170   5.574   1.173   0.240
 5402TIP3    H216171   5.723   1.193   0.220
 5403TIP3   OH216172   4.913   0.228   2.079
 5403TIP3    H116173   4.951   0.315   2.087
 5403TIP3    H216174   4.857   0.232   2.001
 5404TIP3   OH216175   1.114   5.615   1.839
 5404TIP3    H116176   1.037   5.606   1.782
 5404TIP3    H216177   1.175   5.548   1.807
 5405TIP3   OH216178   3.081   0.917   2.426
 5405TIP3    H116179   3.176   0.922   2.414
 5405TIP3    H216180   3.051   0.863   2.354
 5406TIP3   OH216181   5.777   3.732   4.869
 5406TIP3    H116182   5.787   3.747   4.775
 5406TIP3    H216183   5.863   3.752   4.906
 5407TIP3   OH216184   1.573   6.228   4.449
 5407TIP3    H116185   1.569   6.137   4.478
 5407TIP3    H216186   1.567   6.279   4.530
 5408TIP3   OH216187   1.017   0.252   1.212
 5408TIP3    H116188   0.976   0.336   1.236
 5408TIP3    H216189   1.106   0.276   1.185
 5409TIP3   OH216190   5.379   3.162   1.432
 5409TIP3    H116191   5.458   3.214   1.442
 5409TIP3    H216192   5.307   3.225   1.439
 5410TIP3   OH216193   3.508   0.780   1.831
 5410TIP3    H116194   3.480   0.727   1.905
 5410TIP3    H216195   3.553   0.855   1.871
 5411TIP3   OH216196   2.324   5.637   5.234
 5411TIP3    H116197   2.355   5.719   5.273
 5411TIP3    H216198   2.398   5.604   5.183
 5412TIP3   OH216199   2.178   1.899   2.391
 5412TIP3    H116200   2.084   1.913   2.403
 5412TIP3    H216201   2.211   1.879   2.479
 5413TIP3   OH216202   4.273   3.360   1.621
 5413TIP3    H116203   4.296   3.400   1.705
 5413TIP3    H216204   4.353   3.363   1.569
 5414TIP3   OH216205   1.387   2.661   4.047
 5414TIP3    H116206   1.466   2.715   4.052
 5414TIP3    H216207   1.374   2.628   4.136
 5415TIP3   OH216208   6.787   0.946   2.594
 5415TIP3    H116209   6.790   0.996   2.677
 5415TIP3    H216210   6.753   0.860   2.619
 5416TIP3   OH216211   7.165   3.573   3.997
 5416TIP3    H116212   7.258   3.594   3.989
 5416TIP3    H216213   7.163   3.478   4.012
 5417TIP3   OH216214   1.803   5.589   5.367
 5417TIP3    H116215   1.815   5.526   5.296
 5417TIP3    H216216   1.881   5.645   5.363
 5418TIP3   OH216217   4.856   6.469   1.464
 5418TIP3    H116218   4.807   6.495   1.542
 5418TIP3    H216219   4.796   6.487   1.391
 5419TIP3   OH216220   4.871   4.823   0.703
 5419TIP3    H116221   4.920   4.894   0.744
 5419TIP3    H216222   4.939   4.765   0.667
 5420TIP3   OH216223   6.165   3.949   2.629
 5420TIP3    H116224   6.137   4.027   2.581
 5420TIP3    H216225   6.093   3.932   2.690
 5421TIP3   OH216226   3.649   5.970   0.658
 5421TIP3    H116227   3.696   5.903   0.609
 5421TIP3    H216228   3.615   5.924   0.735
 5422TIP3   OH216229   0.222   1.087   3.829
 5422TIP3    H116230   0.214   1.010   3.772
 5422TIP3    H216231   0.162   1.151   3.791
 5423TIP3   OH216232   4.353   5.848   4.298
 5423TIP3    H116233   4.392   5.800   4.371
 5423TIP3    H216234   4.382   5.801   4.220
 5424TIP3   OH216235   3.254   4.041   2.604
 5424TIP3    H116236   3.303   3.978   2.657
 5424TIP3    H216237   3.218   4.102   2.668
 5425TIP3   OH216238   0.229   3.128   3.335
 5425TIP3    H116239   0.236   3.085   3.249
 5425TIP3    H216240   0.135   3.138   3.349
 5426TIP3   OH216241   6.088   4.018   0.099
 5426TIP3    H116242   6.047   4.066   0.171
 5426TIP3    H216243   6.064   4.067   0.021
 5427TIP3   OH216244   4.448   2.331   3.012
 5427TIP3    H116245   4.401   2.394   3.066
 5427TIP3    H216246   4.388   2.255   3.006
 5428TIP3   OH216247   3.175   2.541   1.827
 5428TIP3    H116248   3.144   2.539   1.737
 5428TIP3    H216249   3.126   2.613   1.868
 5429TIP3   OH216250   3.482   6.094   4.949
 5429TIP3    H116251   3.493   6.105   5.044
 5429TIP3    H216252   3.540   6.021   4.927
 5430TIP3   OH216253   7.053   4.561   5.042
 5430TIP3    H116254   7.138   4.582   5.004
 5430TIP3    H216255   7.073   4.508   5.119
 5431TIP3   OH216256   6.777   0.040   1.563
 5431TIP3    H116257   6.768   0.012   1.654
 5431TIP3    H216258   6.733   0.124   1.559
 5432TIP3   OH216259   4.557   3.703   3.714
 5432TIP3    H116260   4.472   3.706   3.757
 5432TIP3    H216261   4.551   3.631   3.652
 5433TIP3   OH216262   7.212   6.091   1.373
 5433TIP3    H116263   7.138   6.062   1.426
 5433TIP3    H216264   7.220   6.184   1.391
 5434TIP3   OH216265   0.236   5.028   2.610
 5434TIP3    H116266   0.294   4.960   2.576
 5434TIP3    H216267   0.289   5.073   2.676
 5435TIP3   OH216268   5.558   2.445   2.641
 5435TIP3    H116269   5.518   2.359   2.653
 5435TIP3    H216270   5.547   2.489   2.726
 5436TIP3   OH216271   1.244   2.003   1.831
 5436TIP3    H116272   1.319   1.994   1.890
 5436TIP3    H216273   1.206   1.915   1.828
 5437TIP3   OH216274   2.233   5.623   1.763
 5437TIP3    H116275   2.251   5.650   1.673
 5437TIP3    H216276   2.141   5.594   1.760
 5438TIP3   OH216277   1.029   4.885   2.214
 5438TIP3    H116278   1.069   4.969   2.237
 5438TIP3    H216279   0.939   4.907   2.192
 5439TIP3   OH216280   6.256   6.409   3.396
 5439TIP3    H116281   6.319   6.390   3.326
 5439TIP3    H216282   6.253   6.329   3.448
 5440TIP3   OH216283   6.228   0.886   4.373
 5440TIP3    H116284   6.299   0.853   4.428
 5440TIP3    H216285   6.226   0.980   4.390
 5441TIP3   OH216286   5.831   6.548   1.469
 5441TIP3    H116287   5.831   6.492   1.391
 5441TIP3    H216288   5.792   6.631   1.439
 5442TIP3   OH216289   1.861   6.768   3.727
 5442TIP3    H116290   1.942   6.813   3.701
 5442TIP3    H216291   1.805   6.774   3.649
 5443TIP3   OH216292   2.617   0.373   4.924
 5443TIP3    H116293   2.653   0.306   4.982
 5443TIP3    H216294   2.688   0.436   4.913
 5444TIP3   OH216295   2.252   2.723   0.069
 5444TIP3    H116296   2.279   2.754  -0.017
 5444TIP3    H216297   2.334   2.710   0.117
 5445TIP3   OH216298   2.146   6.526   3.795
 5445TIP3    H116299   2.092   6.490   3.865
 5445TIP3    H216300   2.211   6.458   3.777
 5446TIP3   OH216301   4.547   5.893   2.053
 5446TIP3    H116302   4.477   5.835   2.022
 5446TIP3    H216303   4.572   5.944   1.975
 5447TIP3   OH216304   4.933   3.973   3.772
 5447TIP3    H116305   4.997   4.045   3.771
 5447TIP3    H216306   4.967   3.912   3.838
 5448TIP3   OH216307   2.935   1.782   0.242
 5448TIP3    H116308   2.906   1.807   0.329
 5448TIP3    H216309   2.985   1.858   0.210
 5449TIP3   OH216310   4.627   4.784   5.572
 5449TIP3    H116311   4.602   4.863   5.524
 5449TIP3    H216312   4.723   4.786   5.573
 5450TIP3   OH216313   6.336   0.861   4.130
 5450TIP3    H116314   6.266   0.861   4.195
 5450TIP3    H216315   6.414   0.833   4.178
 5451TIP3   OH216316   1.616   0.327   3.781
 5451TIP3    H116317   1.663   0.245   3.801
 5451TIP3    H216318   1.645   0.388   3.848
 5452TIP3   OH216319   5.631   5.566   5.163
 5452TIP3    H116320   5.697   5.499   5.177
 5452TIP3    H216321   5.607   5.558   5.070
 5453TIP3   OH216322   0.849   5.850   1.379
 5453TIP3    H116323   0.775   5.907   1.402
 5453TIP3    H216324   0.926   5.905   1.390
 5454TIP3   OH216325   2.227   2.402   4.305
 5454TIP3    H116326   2.287   2.338   4.344
 5454TIP3    H216327   2.248   2.484   4.348
 5455TIP3   OH216328   1.297   5.284   3.067
 5455TIP3    H116329   1.337   5.340   3.001
 5455TIP3    H216330   1.215   5.254   3.027
 5456TIP3   OH216331   1.339   4.112   0.797
 5456TIP3    H116332   1.414   4.092   0.741
 5456TIP3    H216333   1.354   4.202   0.826
 5457TIP3   OH216334   3.346   4.234   0.322
 5457TIP3    H116335   3.367   4.146   0.291
 5457TIP3    H216336   3.421   4.287   0.295
 5458TIP3   OH216337   2.369   2.622   2.155
 5458TIP3    H116338   2.330   2.545   2.197
 5458TIP3    H216339   2.457   2.628   2.193
 5459TIP3   OH216340   1.510   6.785   4.673
 5459TIP3    H116341   1.568   6.717   4.708
 5459TIP3    H216342   1.569   6.845   4.626
 5460TIP3   OH216343   6.825   2.789   0.096
 5460TIP3    H116344   6.794   2.758   0.181
 5460TIP3    H216345   6.907   2.743   0.081
 5461TIP3   OH216346   5.957   1.756   1.494
 5461TIP3    H116347   5.887   1.698   1.525
 5461TIP3    H216348   6.002   1.784   1.574
 5462TIP3   OH216349   3.201   2.867   3.671
 5462TIP3    H116350   3.239   2.939   3.721
 5462TIP3    H216351   3.108   2.867   3.696
 5463TIP3   OH216352   1.787   2.222   4.474
 5463TIP3    H116353   1.715   2.172   4.437
 5463TIP3    H216354   1.806   2.178   4.557
 5464TIP3   OH216355   1.424   1.843   0.492
 5464TIP3    H116356   1.465   1.871   0.573
 5464TIP3    H216357   1.432   1.919   0.434
 5465TIP3   OH216358   0.196   1.930   3.474
 5465TIP3    H116359   0.262   1.870   3.507
 5465TIP3    H216360   0.139   1.876   3.419
 5466TIP3   OH216361   2.286   5.536   0.910
 5466TIP3    H116362   2.215   5.568   0.855
 5466TIP3    H216363   2.296   5.444   0.886
 5467TIP3   OH216364   4.099   5.572   2.611
 5467TIP3    H116365   4.171   5.525   2.568
 5467TIP3    H216366   4.060   5.507   2.669
 5468TIP3   OH216367   4.574   1.640   3.890
 5468TIP3    H116368   4.626   1.676   3.819
 5468TIP3    H216369   4.617   1.670   3.970
 5469TIP3   OH216370   5.120   2.223   0.666
 5469TIP3    H116371   5.188   2.160   0.690
 5469TIP3    H216372   5.060   2.173   0.610
 5470TIP3   OH216373   6.155   1.910   5.651
 5470TIP3    H116374   6.101   1.853   5.704
 5470TIP3    H216375   6.227   1.855   5.621
 5471TIP3   OH216376   4.216   4.526   0.108
 5471TIP3    H116377   4.256   4.450   0.066
 5471TIP3    H216378   4.157   4.562   0.041
 5472TIP3   OH216379   4.514   0.357   5.059
 5472TIP3    H116380   4.508   0.390   4.970
 5472TIP3    H216381   4.579   0.413   5.102
 5473TIP3   OH216382   4.920   5.895   0.760
 5473TIP3    H116383   4.937   5.978   0.715
 5473TIP3    H216384   4.830   5.873   0.738
 5474TIP3   OH216385   0.750   2.694   3.416
 5474TIP3    H116386   0.770   2.627   3.350
 5474TIP3    H216387   0.774   2.653   3.499
 5475TIP3   OH216388   1.118   1.471   2.302
 5475TIP3    H116389   1.077   1.417   2.370
 5475TIP3    H216390   1.076   1.442   2.221
 5476TIP3   OH216391   5.464   4.997   4.351
 5476TIP3    H116392   5.498   5.037   4.431
 5476TIP3    H216393   5.384   4.953   4.377
 5477TIP3   OH216394   2.262   0.259   0.200
 5477TIP3    H116395   2.318   0.225   0.270
 5477TIP3    H216396   2.174   0.226   0.222
 5478TIP3   OH216397   0.356   0.031   4.841
 5478TIP3    H116398   0.350  -0.039   4.905
 5478TIP3    H216399   0.355   0.111   4.893
 5479TIP3   OH216400   3.520   0.686   4.026
 5479TIP3    H116401   3.557   0.738   4.097
 5479TIP3    H216402   3.489   0.606   4.067
 5480TIP3   OH216403   5.470   6.024   1.029
 5480TIP3    H116404   5.419   6.032   1.110
 5480TIP3    H216405   5.555   5.992   1.058
 5481TIP3   OH216406   5.070   2.612   0.996
 5481TIP3    H116407   5.109   2.656   0.921
 5481TIP3    H216408   5.131   2.541   1.018
 5482TIP3   OH216409   3.889   6.645   2.309
 5482TIP3    H116410   3.814   6.587   2.295
 5482TIP3    H216411   3.857   6.732   2.286
 5483TIP3   OH216412   1.423   6.200   5.228
 5483TIP3    H116413   1.336   6.165   5.244
 5483TIP3    H216414   1.408   6.277   5.172
 5484TIP3   OH216415   6.131   2.549   5.693
 5484TIP3    H116416   6.080   2.472   5.668
 5484TIP3    H216417   6.195   2.559   5.622
 5485TIP3   OH216418   5.057   3.192   1.571
 5485TIP3    H116419   4.986   3.252   1.548
 5485TIP3    H216420   5.014   3.109   1.588
 5486TIP3   OH216421   4.892   4.518   5.205
 5486TIP3    H116422   4.975   4.506   5.251
 5486TIP3    H216423   4.917   4.538   5.115
 5487TIP3   OH216424   4.576   4.986   3.609
 5487TIP3    H116425   4.649   4.996   3.548
 5487TIP3    H216426   4.564   4.891   3.616
 5488TIP3   OH216427   4.172   1.852   4.547
 5488TIP3    H116428   4.140   1.762   4.543
 5488TIP3    H216429   4.123   1.897   4.477
 5489TIP3   OH216430   3.242   6.007   5.397
 5489TIP3    H116431   3.249   5.933   5.335
 5489TIP3    H216432   3.273   5.971   5.480
 5490TIP3   OH216433   3.671   2.377   1.226
 5490TIP3    H116434   3.665   2.330   1.309
 5490TIP3    H216435   3.625   2.460   1.242
 5491TIP3   OH216436   1.482   5.782   3.859
 5491TIP3    H116437   1.388   5.762   3.861
 5491TIP3    H216438   1.491   5.856   3.919
 5492TIP3   OH216439   2.051   6.453   5.012
 5492TIP3    H116440   2.045   6.434   4.918
 5492TIP3    H216441   2.014   6.541   5.021
 5493TIP3   OH216442   3.351   2.398   2.440
 5493TIP3    H116443   3.396   2.328   2.488
 5493TIP3    H216444   3.321   2.355   2.360
 5494TIP3   OH216445   2.376   6.509   4.677
 5494TIP3    H116446   2.336   6.573   4.617
 5494TIP3    H216447   2.359   6.424   4.637
 5495TIP3   OH216448   6.748   3.365   4.886
 5495TIP3    H116449   6.790   3.292   4.932
 5495TIP3    H216450   6.659   3.335   4.868
 5496TIP3   OH216451   2.987   6.438   3.418
 5496TIP3    H116452   2.942   6.447   3.334
 5496TIP3    H216453   3.079   6.432   3.395
 5497TIP3   OH216454   4.992   4.877   1.135
 5497TIP3    H116455   5.055   4.940   1.171
 5497TIP3    H216456   5.022   4.861   1.046
 5498TIP3   OH216457   0.848   1.588   1.780
 5498TIP3    H116458   0.856   1.639   1.699
 5498TIP3    H216459   0.757   1.600   1.807
 5499TIP3   OH216460   3.201   6.245   4.883
 5499TIP3    H116461   3.129   6.251   4.820
 5499TIP3    H216462   3.158   6.219   4.965
 5500TIP3   OH216463   1.154   6.166   5.300
 5500TIP3    H116464   1.149   6.242   5.357
 5500TIP3    H216465   1.125   6.198   5.214
 5501TIP3   OH216466   0.557   0.042   3.855
 5501TIP3    H116467   0.464   0.039   3.879
 5501TIP3    H216468   0.602  -0.005   3.925
 5502TIP3   OH216469   4.402   0.293   4.606
 5502TIP3    H116470   4.404   0.314   4.513
 5502TIP3    H216471   4.434   0.202   4.611
 5503TIP3   OH216472   4.384   5.198   4.612
 5503TIP3    H116473   4.425   5.155   4.537
 5503TIP3    H216474   4.295   5.163   4.614
 5504TIP3   OH216475   4.286   4.443   2.414
 5504TIP3    H116476   4.366   4.396   2.437
 5504TIP3    H216477   4.288   4.521   2.469
 5505TIP3   OH216478   7.065   1.199   4.504
 5505TIP3    H116479   7.143   1.151   4.530
 5505TIP3    H216480   7.013   1.136   4.453
 5506TIP3   OH216481   1.728   4.827   0.968
 5506TIP3    H116482   1.790   4.807   1.039
 5506TIP3    H216483   1.646   4.788   0.996
 5507TIP3   OH216484   5.754   5.623   4.710
 5507TIP3    H116485   5.760   5.713   4.679
 5507TIP3    H216486   5.732   5.631   4.803
 5508TIP3   OH216487   1.655   4.432   4.965
 5508TIP3    H116488   1.636   4.489   5.040
 5508TIP3    H216489   1.569   4.403   4.934
 5509TIP3   OH216490   2.315   3.878   0.464
 5509TIP3    H116491   2.277   3.829   0.391
 5509TIP3    H216492   2.288   3.968   0.449
 5510TIP3   OH216493   4.931   0.557   3.013
 5510TIP3    H116494   4.974   0.586   3.094
 5510TIP3    H216495   4.990   0.493   2.976
 5511TIP3   OH216496   6.236   3.229   5.116
 5511TIP3    H116497   6.252   3.297   5.051
 5511TIP3    H216498   6.185   3.163   5.070
 5512TIP3   OH216499   2.364   4.187   3.543
 5512TIP3    H116500   2.328   4.273   3.566
 5512TIP3    H216501   2.459   4.200   3.545
 5513TIP3   OH216502   1.416   1.379   3.526
 5513TIP3    H116503   1.488   1.327   3.490
 5513TIP3    H216504   1.458   1.461   3.552
 5514TIP3   OH216505   5.715   6.535   0.657
 5514TIP3    H116506   5.630   6.576   0.639
 5514TIP3    H216507   5.698   6.476   0.730
 5515TIP3   OH216508   3.905   2.830   2.948
 5515TIP3    H116509   3.902   2.921   2.979
 5515TIP3    H216510   3.849   2.783   3.008
 5516TIP3   OH216511   0.431   1.472   4.326
 5516TIP3    H116512   0.491   1.437   4.261
 5516TIP3    H216513   0.397   1.552   4.286
 5517TIP3   OH216514   0.157   2.866   3.869
 5517TIP3    H116515   0.109   2.883   3.788
 5517TIP3    H216516   0.190   2.776   3.860
 5518TIP3   OH216517   2.337   1.927   0.239
 5518TIP3    H116518   2.411   1.988   0.246
 5518TIP3    H216519   2.260   1.982   0.254
 5519TIP3   OH216520   4.843   6.735   0.184
 5519TIP3    H116521   4.821   6.814   0.233
 5519TIP3    H216522   4.848   6.666   0.249
 5520TIP3   OH216523   2.210   2.337   2.876
 5520TIP3    H116524   2.289   2.344   2.930
 5520TIP3    H216525   2.138   2.363   2.935
 5521TIP3   OH216526   2.917   4.090   2.725
 5521TIP3    H116527   2.945   4.171   2.681
 5521TIP3    H216528   2.823   4.101   2.737
 5522TIP3   OH216529   0.498   1.827   0.232
 5522TIP3    H116530   0.485   1.822   0.327
 5522TIP3    H216531   0.459   1.747   0.198
 5523TIP3   OH216532   4.436   2.293   0.703
 5523TIP3    H116533   4.408   2.223   0.644
 5523TIP3    H216534   4.454   2.367   0.645
 5524TIP3   OH216535   0.361   2.065   4.399
 5524TIP3    H116536   0.356   2.073   4.494
 5524TIP3    H216537   0.448   2.029   4.382
 5525TIP3   OH216538   4.376   4.108   4.500
 5525TIP3    H116539   4.339   4.181   4.450
 5525TIP3    H216540   4.361   4.132   4.592
 5526TIP3   OH216541   7.000   0.801   0.180
 5526TIP3    H116542   7.003   0.834   0.270
 5526TIP3    H216543   6.924   0.743   0.177
 5527TIP3   OH216544   5.514   5.010   0.519
 5527TIP3    H116545   5.456   4.989   0.447
 5527TIP3    H216546   5.476   5.087   0.560
 5528TIP3   OH216547   1.059   1.223   3.879
 5528TIP3    H116548   1.059   1.311   3.916
 5528TIP3    H216549   1.151   1.200   3.870
 5529TIP3   OH216550   6.464   0.267   0.820
 5529TIP3    H116551   6.521   0.259   0.743
 5529TIP3    H216552   6.478   0.357   0.850
 5530TIP3   OH216553   2.630   3.115   3.687
 5530TIP3    H116554   2.725   3.125   3.675
 5530TIP3    H216555   2.592   3.185   3.633
 5531TIP3   OH216556   3.840   5.129   3.445
 5531TIP3    H116557   3.890   5.185   3.504
 5531TIP3    H216558   3.842   5.043   3.487
 5532TIP3   OH216559   1.103   3.130   3.147
 5532TIP3    H116560   1.137   3.069   3.213
 5532TIP3    H216561   1.092   3.078   3.068
 5533TIP3   OH216562   1.472   3.172   4.684
 5533TIP3    H116563   1.477   3.234   4.757
 5533TIP3    H216564   1.562   3.161   4.655
 5534TIP3   OH216565   2.940   6.074   3.927
 5534TIP3    H116566   2.869   6.011   3.910
 5534TIP3    H216567   3.006   6.023   3.974
 5535TIP3   OH216568   4.908   2.899   4.660
 5535TIP3    H116569   4.927   2.990   4.681
 5535TIP3    H216570   4.972   2.876   4.593
 5536TIP3   OH216571   1.812   3.983   3.223
 5536TIP3    H116572   1.729   4.028   3.239
 5536TIP3    H216573   1.815   3.973   3.128
 5537TIP3   OH216574   5.559   4.330   0.869
 5537TIP3    H116575   5.609   4.314   0.949
 5537TIP3    H216576   5.623   4.322   0.799
 5538TIP3   OH216577   6.187   4.697   2.028
 5538TIP3    H116578   6.191   4.669   2.119
 5538TIP3    H216579   6.094   4.709   2.010
 5539TIP3   OH216580   4.259   6.402   1.425
 5539TIP3    H116581   4.351   6.399   1.450
 5539TIP3    H216582   4.261   6.411   1.329
 5540TIP3   OH216583   6.295   3.731   4.810
 5540TIP3    H116584   6.213   3.708   4.767
 5540TIP3    H216585   6.361   3.721   4.742
 5541TIP3   OH216586   0.382   6.423   5.485
 5541TIP3    H116587   0.333   6.381   5.414
 5541TIP3    H216588   0.327   6.410   5.562
 5542TIP3   OH216589   6.699   0.775   5.920
 5542TIP3    H116590   6.622   0.820   5.956
 5542TIP3    H216591   6.717   0.820   5.838
 5543TIP3   OH216592   4.076   0.140   5.220
 5543TIP3    H116593   4.112   0.054   5.238
 5543TIP3    H216594   4.152   0.194   5.199
 5544TIP3   OH216595   0.226   3.168   3.696
 5544TIP3    H116596   0.156   3.103   3.699
 5544TIP3    H216597   0.300   3.122   3.657
 5545TIP3   OH216598   2.213   2.840   1.899
 5545TIP3    H116599   2.181   2.775   1.962
 5545TIP3    H216600   2.265   2.901   1.952
 5546TIP3   OH216601   4.695   1.351   5.010
 5546TIP3    H116602   4.633   1.399   5.065
 5546TIP3    H216603   4.774   1.344   5.064
 5547TIP3   OH216604   3.140   4.596   3.853
 5547TIP3    H116605   3.176   4.684   3.843
 5547TIP3    H216606   3.151   4.556   3.766
 5548TIP3   OH216607   0.859   3.368   5.575
 5548TIP3    H116608   0.950   3.342   5.564
 5548TIP3    H216609   0.859   3.462   5.559
 5549TIP3   OH216610   0.544   4.082   2.543
 5549TIP3    H116611   0.569   4.019   2.610
 5549TIP3    H216612   0.490   4.032   2.482
 5550TIP3   OH216613   5.357   2.483   2.990
 5550TIP3    H116614   5.413   2.552   2.956
 5550TIP3    H216615   5.296   2.528   3.049
 5551TIP3   OH216616   4.429   6.536   4.641
 5551TIP3    H116617   4.418   6.452   4.685
 5551TIP3    H216618   4.375   6.596   4.691
 5552TIP3   OH216619   2.479   2.998   5.171
 5552TIP3    H116620   2.538   2.931   5.138
 5552TIP3    H216621   2.443   2.961   5.251
 5553TIP3   OH216622   0.591   0.482   2.174
 5553TIP3    H116623   0.519   0.442   2.223
 5553TIP3    H216624   0.575   0.457   2.083
 5554TIP3   OH216625   1.358   3.386   1.422
 5554TIP3    H116626   1.379   3.316   1.361
 5554TIP3    H216627   1.286   3.434   1.380
 5555TIP3   OH216628   6.006   6.597   5.406
 5555TIP3    H116629   6.012   6.603   5.501
 5555TIP3    H216630   6.086   6.639   5.373
 5556TIP3   OH216631   1.403   2.807   4.767
 5556TIP3    H116632   1.471   2.846   4.712
 5556TIP3    H216633   1.447   2.791   4.851
 5557TIP3   OH216634   2.305   4.896   4.212
 5557TIP3    H116635   2.331   4.827   4.274
 5557TIP3    H216636   2.309   4.977   4.263
 5558TIP3   OH216637   3.745   4.080   2.059
 5558TIP3    H116638   3.679   4.137   2.099
 5558TIP3    H216639   3.783   4.133   1.989
 5559TIP3   OH216640   0.544   5.735   1.602
 5559TIP3    H116641   0.523   5.682   1.679
 5559TIP3    H216642   0.557   5.672   1.532
 5560TIP3   OH216643   1.459   3.589   0.680
 5560TIP3    H116644   1.439   3.603   0.773
 5560TIP3    H216645   1.548   3.622   0.669
 5561TIP3   OH216646   6.433   6.298   3.177
 5561TIP3    H116647   6.519   6.259   3.193
 5561TIP3    H216648   6.377   6.224   3.152
 5562TIP3   OH216649   3.754   3.376   1.797
 5562TIP3    H116650   3.781   3.347   1.884
 5562TIP3    H216651   3.826   3.430   1.765
 5563TIP3   OH216652   5.255   5.864   5.365
 5563TIP3    H116653   5.242   5.884   5.272
 5563TIP3    H216654   5.316   5.931   5.396
 5564TIP3   OH216655   6.545   3.762   0.103
 5564TIP3    H116656   6.584   3.826   0.043
 5564TIP3    H216657   6.474   3.810   0.146
 5565TIP3   OH216658   5.195   4.716   1.901
 5565TIP3    H116659   5.116   4.662   1.902
 5565TIP3    H216660   5.258   4.667   1.955
 5566TIP3   OH216661   5.717   5.485   0.179
 5566TIP3    H116662   5.704   5.425   0.253
 5566TIP3    H216663   5.642   5.470   0.123
 5567TIP3   OH216664   5.186   0.319   3.229
 5567TIP3    H116665   5.223   0.376   3.162
 5567TIP3    H216666   5.173   0.235   3.185
 5568TIP3   OH216667   0.484   5.121   1.101
 5568TIP3    H116668   0.404   5.070   1.092
 5568TIP3    H216669   0.502   5.153   1.012
 5569TIP3   OH216670   2.318   6.724   0.910
 5569TIP3    H116671   2.307   6.770   0.827
 5569TIP3    H216672   2.407   6.689   0.907
 5570TIP3   OH216673   2.846   3.369   5.042
 5570TIP3    H116674   2.884   3.426   5.108
 5570TIP3    H216675   2.839   3.283   5.085
 5571TIP3   OH216676   2.602   1.298   2.723
 5571TIP3    H116677   2.586   1.211   2.685
 5571TIP3    H216678   2.560   1.295   2.808
 5572TIP3   OH216679   2.937   1.894   5.300
 5572TIP3    H116680   2.864   1.843   5.334
 5572TIP3    H216681   2.925   1.894   5.205
 5573TIP3   OH216682   2.331   4.542   0.757
 5573TIP3    H116683   2.426   4.542   0.767
 5573TIP3    H216684   2.308   4.449   0.749
 5574TIP3   OH216685   5.773   4.598   4.808
 5574TIP3    H116686   5.701   4.656   4.784
 5574TIP3    H216687   5.757   4.575   4.899
 5575TIP3   OH216688   2.263   6.046   4.165
 5575TIP3    H116689   2.291   6.002   4.085
 5575TIP3    H216690   2.180   6.087   4.142
 5576TIP3   OH216691   3.438   0.231   5.042
 5576TIP3    H116692   3.362   0.286   5.025
 5576TIP3    H216693   3.442   0.224   5.137
 5577TIP3   OH216694   3.941   5.945   0.365
 5577TIP3    H116695   3.946   5.881   0.293
 5577TIP3    H216696   3.962   6.029   0.324
 5578TIP3   OH216697   5.747   6.159   0.094
 5578TIP3    H116698   5.837   6.184   0.073
 5578TIP3    H216699   5.735   6.074   0.052
 5579TIP3   OH216700   3.626   2.290   2.582
 5579TIP3    H116701   3.697   2.228   2.596
 5579TIP3    H216702   3.655   2.342   2.507
 5580TIP3   OH216703   2.995   1.672   0.611
 5580TIP3    H116704   2.981   1.747   0.553
 5580TIP3    H216705   2.918   1.617   0.599
 5581TIP3   OH216706   5.205   0.087   0.085
 5581TIP3    H116707   5.276   0.150   0.100
 5581TIP3    H216708   5.137   0.113   0.148
 5582TIP3   OH216709   4.113   3.829   4.604
 5582TIP3    H116710   4.199   3.821   4.564
 5582TIP3    H216711   4.098   3.745   4.646
 5583TIP3   OH216712   2.090   5.035   5.022
 5583TIP3    H116713   2.095   4.959   4.963
 5583TIP3    H216714   2.092   4.997   5.109
 5584TIP3   OH216715   1.339   0.597   2.997
 5584TIP3    H116716   1.395   0.525   3.027
 5584TIP3    H216717   1.355   0.603   2.903
 5585TIP3   OH216718   2.442   5.581   1.916
 5585TIP3    H116719   2.407   5.517   1.978
 5585TIP3    H216720   2.372   5.593   1.851
 5586TIP3   OH216721   1.583   6.080   3.593
 5586TIP3    H116722   1.493   6.048   3.582
 5586TIP3    H216723   1.575   6.175   3.585
 5587TIP3   OH216724   2.717   2.697   2.927
 5587TIP3    H116725   2.711   2.644   2.848
 5587TIP3    H216726   2.786   2.760   2.908
 5588TIP3   OH216727   5.996   2.231   2.974
 5588TIP3    H116728   5.934   2.176   3.023
 5588TIP3    H216729   6.065   2.251   3.037
 5589TIP3   OH216730   1.657   3.803   0.577
 5589TIP3    H116731   1.640   3.889   0.615
 5589TIP3    H216732   1.618   3.807   0.489
 5590TIP3   OH216733   4.320   1.876   5.457
 5590TIP3    H116734   4.262   1.800   5.454
 5590TIP3    H216735   4.324   1.899   5.549
 5591TIP3   OH216736   1.706   4.830   4.436
 5591TIP3    H116737   1.741   4.835   4.524
 5591TIP3    H216738   1.616   4.863   4.443
 5592TIP3   OH216739   0.350   1.081   4.062
 5592TIP3    H116740   0.297   1.009   4.096
 5592TIP3    H216741   0.322   1.091   3.971
 5593TIP3   OH216742   1.386   4.783   0.291
 5593TIP3    H116743   1.380   4.859   0.349
 5593TIP3    H216744   1.362   4.708   0.346
 5594TIP3   OH216745   6.133   3.012   2.544
 5594TIP3    H116746   6.137   3.036   2.637
 5594TIP3    H216747   6.213   2.960   2.530
 5595TIP3   OH216748   4.423   3.951   5.716
 5595TIP3    H116749   4.484   3.921   5.783
 5595TIP3    H216750   4.425   3.883   5.649
 5596TIP3   OH216751   4.891   4.388   4.899
 5596TIP3    H116752   4.827   4.450   4.932
 5596TIP3    H216753   4.877   4.386   4.804
 5597TIP3   OH216754   6.946   5.293   5.151
 5597TIP3    H116755   6.865   5.274   5.198
 5597TIP3    H216756   6.958   5.387   5.160
 5598TIP3   OH216757   1.041   4.345   0.666
 5598TIP3    H116758   1.065   4.435   0.688
 5598TIP3    H216759   1.123   4.296   0.669
 5599TIP3   OH216760   6.042   0.406   4.940
 5599TIP3    H116761   5.977   0.410   4.870
 5599TIP3    H216762   6.122   0.440   4.900
 5600TIP3   OH216763   1.979   4.861   4.320
 5600TIP3    H116764   2.013   4.950   4.313
 5600TIP3    H216765   1.884   4.872   4.329
 5601TIP3   OH216766   5.700   0.645   3.550
 5601TIP3    H116767   5.720   0.665   3.641
 5601TIP3    H216768   5.606   0.624   3.549
 5602TIP3   OH216769   2.382   4.929   3.927
 5602TIP3    H116770   2.329   4.892   3.997
 5602TIP3    H216771   2.324   4.934   3.852
 5603TIP3   OH216772   2.971   5.656   4.909
 5603TIP3    H116773   2.881   5.688   4.912
 5603TIP3    H216774   2.965   5.565   4.937
 5604TIP3   OH216775   1.488   5.508   2.597
 5604TIP3    H116776   1.472   5.414   2.597
 5604TIP3    H216777   1.561   5.520   2.536
 5605TIP3   OH216778   6.896   1.045   4.341
 5605TIP3    H116779   6.885   1.018   4.250
 5605TIP3    H216780   6.838   0.987   4.390
 5606TIP3   OH216781   3.474   1.047   5.187
 5606TIP3    H116782   3.420   1.038   5.265
 5606TIP3    H216783   3.478   0.958   5.150
 5607TIP3   OH216784   2.664   0.859   1.834
 5607TIP3    H116785   2.655   0.809   1.753
 5607TIP3    H216786   2.728   0.927   1.813
 5608TIP3   OH216787   2.485   2.215   1.436
 5608TIP3    H116788   2.436   2.241   1.358
 5608TIP3    H216789   2.421   2.219   1.507
 5609TIP3   OH216790   4.960   2.745   4.073
 5609TIP3    H116791   4.934   2.656   4.096
 5609TIP3    H216792   5.041   2.734   4.024
 5610TIP3   OH216793   0.986   0.000   3.089
 5610TIP3    H116794   0.972  -0.036   3.002
 5610TIP3    H216795   1.077   0.028   3.090
 5611TIP3   OH216796   7.116   2.344   5.050
 5611TIP3    H116797   7.157   2.258   5.039
 5611TIP3    H216798   7.190   2.404   5.066
 5612TIP3   OH216799   3.963   5.431   3.086
 5612TIP3    H116800   3.923   5.508   3.046
 5612TIP3    H216801   4.013   5.391   3.015
 5613TIP3   OH216802   6.525   4.492   3.059
 5613TIP3    H116803   6.515   4.477   3.152
 5613TIP3    H216804   6.506   4.585   3.047
 5614TIP3   OH216805   6.851   5.966   0.448
 5614TIP3    H116806   6.876   6.053   0.478
 5614TIP3    H216807   6.865   5.909   0.524
 5615TIP3   OH216808   3.475   5.856   1.190
 5615TIP3    H116809   3.471   5.783   1.251
 5615TIP3    H216810   3.498   5.931   1.244
 5616TIP3   OH216811   3.419   1.196   5.641
 5616TIP3    H116812   3.363   1.253   5.694
 5616TIP3    H216813   3.506   1.235   5.648
 5617TIP3   OH216814   5.633   2.945   2.126
 5617TIP3    H116815   5.539   2.931   2.140
 5617TIP3    H216816   5.640   3.039   2.106
 5618TIP3   OH216817   3.225   0.554   0.425
 5618TIP3    H116818   3.303   0.556   0.480
 5618TIP3    H216819   3.156   0.521   0.482
 5619TIP3   OH216820   2.895   3.758   4.935
 5619TIP3    H116821   2.853   3.844   4.931
 5619TIP3    H216822   2.873   3.717   4.851
 5620TIP3   OH216823   5.422   0.605   3.483
 5620TIP3    H116824   5.336   0.588   3.523
 5620TIP3    H216825   5.417   0.696   3.455
 5621TIP3   OH216826   3.506   3.229   0.383
 5621TIP3    H116827   3.552   3.299   0.430
 5621TIP3    H216828   3.534   3.149   0.426
 5622TIP3   OH216829   6.207   5.265   1.753
 5622TIP3    H116830   6.170   5.181   1.779
 5622TIP3    H216831   6.302   5.254   1.764
 5623TIP3   OH216832   2.202   5.990   5.814
 5623TIP3    H116833   2.269   6.051   5.844
 5623TIP3    H216834   2.216   5.982   5.720
 5624TIP3   OH216835   0.593   3.554   1.131
 5624TIP3    H116836   0.600   3.527   1.039
 5624TIP3    H216837   0.582   3.472   1.180
 5625TIP3   OH216838   7.156   6.186   2.333
 5625TIP3    H116839   7.117   6.185   2.420
 5625TIP3    H216840   7.250   6.193   2.348
 5626TIP3   OH216841   2.941   4.383   5.091
 5626TIP3    H116842   2.948   4.289   5.077
 5626TIP3    H216843   2.935   4.393   5.186
 5627TIP3   OH216844   6.565   0.854   0.080
 5627TIP3    H116845   6.508   0.898   0.018
 5627TIP3    H216846   6.617   0.924   0.120
 5628TIP3   OH216847   2.952   2.380   5.688
 5628TIP3    H116848   2.869   2.351   5.725
 5628TIP3    H216849   2.941   2.474   5.673
 5629TIP3   OH216850   1.907   1.903   4.924
 5629TIP3    H116851   1.821   1.877   4.958
 5629TIP3    H216852   1.962   1.911   5.002
 5630TIP3   OH216853   7.003   1.627   2.637
 5630TIP3    H116854   7.009   1.613   2.731
 5630TIP3    H216855   7.036   1.545   2.599
 5631TIP3   OH216856   3.617   2.058   3.340
 5631TIP3    H116857   3.707   2.076   3.368
 5631TIP3    H216858   3.620   2.064   3.244
 5632TIP3   OH216859   5.558   6.375   1.317
 5632TIP3    H116860   5.498   6.395   1.244
 5632TIP3    H216861   5.644   6.366   1.276
 5633TIP3   OH216862   5.536   3.195   1.757
 5633TIP3    H116863   5.608   3.174   1.697
 5633TIP3    H216864   5.562   3.277   1.797
 5634TIP3   OH216865   1.956   3.650   1.590
 5634TIP3    H116866   1.957   3.695   1.506
 5634TIP3    H216867   2.046   3.657   1.622
 5635TIP3   OH216868   2.032   0.984   3.380
 5635TIP3    H116869   2.116   1.018   3.413
 5635TIP3    H216870   2.012   0.911   3.438
 5636TIP3   OH216871   4.318   4.320   0.311
 5636TIP3    H116872   4.261   4.243   0.300
 5636TIP3    H216873   4.346   4.341   0.222
 5637TIP3   OH216874   4.029   3.199   0.410
 5637TIP3    H116875   4.026   3.129   0.475
 5637TIP3    H216876   3.979   3.270   0.450
 5638TIP3   OH216877   2.495   0.976   0.447
 5638TIP3    H116878   2.413   0.983   0.496
 5638TIP3    H216879   2.479   1.026   0.367
 5639TIP3   OH216880   5.902   3.575   5.353
 5639TIP3    H116881   5.939   3.606   5.271
 5639TIP3    H216882   5.965   3.510   5.385
 5640TIP3   OH216883   4.284   4.379   1.101
 5640TIP3    H116884   4.305   4.331   1.021
 5640TIP3    H216885   4.208   4.433   1.078
 5641TIP3   OH216886   4.432   5.767   2.532
 5641TIP3    H116887   4.483   5.740   2.608
 5641TIP3    H216888   4.347   5.793   2.568
 5642TIP3   OH216889   6.831   5.513   5.784
 5642TIP3    H116890   6.803   5.473   5.866
 5642TIP3    H216891   6.924   5.490   5.777
 5643TIP3   OH216892   6.856   6.156   4.342
 5643TIP3    H116893   6.923   6.178   4.406
 5643TIP3    H216894   6.819   6.073   4.374
 5644TIP3   OH216895   1.700   2.180   0.465
 5644TIP3    H116896   1.792   2.154   0.459
 5644TIP3    H216897   1.702   2.261   0.515
 5645TIP3   OH216898   6.917   4.945   1.385
 5645TIP3    H116899   6.835   4.917   1.425
 5645TIP3    H216900   6.895   4.962   1.294
 5646TIP3   OH216901   5.840   4.356   3.398
 5646TIP3    H116902   5.795   4.382   3.317
 5646TIP3    H216903   5.864   4.265   3.384
 5647TIP3   OH216904   1.198   2.526   1.999
 5647TIP3    H116905   1.271   2.567   2.045
 5647TIP3    H216906   1.199   2.564   1.912
 5648TIP3   OH216907   6.632   4.151   1.589
 5648TIP3    H116908   6.658   4.062   1.564
 5648TIP3    H216909   6.714   4.201   1.585
 5649TIP3   OH216910   4.034   3.516   3.394
 5649TIP3    H116911   4.008   3.539   3.484
 5649TIP3    H216912   4.069   3.598   3.358
 5650TIP3   OH216913   6.812   4.342   1.899
 5650TIP3    H116914   6.894   4.321   1.943
 5650TIP3    H216915   6.830   4.327   1.806
 5651TIP3   OH216916   0.138   6.774   2.666
 5651TIP3    H116917   0.110   6.683   2.655
 5651TIP3    H216918   0.208   6.769   2.732
 5652TIP3   OH216919   4.978   4.354   1.051
 5652TIP3    H116920   4.939   4.363   1.138
 5652TIP3    H216921   5.056   4.301   1.065
 5653TIP3   OH216922   6.494   0.505   3.824
 5653TIP3    H116923   6.420   0.444   3.813
 5653TIP3    H216924   6.453   0.588   3.848
 5654TIP3   OH216925   0.848   1.811   0.984
 5654TIP3    H116926   0.767   1.849   0.951
 5654TIP3    H216927   0.884   1.878   1.041
 5655TIP3   OH216928   2.233   6.176   1.828
 5655TIP3    H116929   2.162   6.216   1.777
 5655TIP3    H216930   2.313   6.204   1.784
 5656TIP3   OH216931   0.912   4.253   4.480
 5656TIP3    H116932   0.828   4.210   4.495
 5656TIP3    H216933   0.948   4.210   4.403
 5657TIP3   OH216934   1.747   4.140   4.970
 5657TIP3    H116935   1.683   4.210   4.959
 5657TIP3    H216936   1.831   4.183   4.959
 5658TIP3   OH216937   3.853   5.434   3.355
 5658TIP3    H116938   3.763   5.418   3.326
 5658TIP3    H216939   3.907   5.404   3.282
 5659TIP3   OH216940   3.841   5.838   1.573
 5659TIP3    H116941   3.909   5.793   1.524
 5659TIP3    H216942   3.885   5.913   1.613
 5660TIP3   OH216943   6.265   4.873   0.944
 5660TIP3    H116944   6.185   4.855   0.993
 5660TIP3    H216945   6.335   4.863   1.008
 5661TIP3   OH216946   2.436   3.193   0.694
 5661TIP3    H116947   2.513   3.191   0.750
 5661TIP3    H216948   2.460   3.254   0.624
 5662TIP3   OH216949   5.238   4.958   4.010
 5662TIP3    H116950   5.173   4.973   4.078
 5662TIP3    H216951   5.198   4.895   3.950
 5663TIP3   OH216952   0.323   3.465   3.090
 5663TIP3    H116953   0.228   3.471   3.092
 5663TIP3    H216954   0.344   3.447   2.998
 5664TIP3   OH216955   0.025   2.826   4.526
 5664TIP3    H116956  -0.009   2.740   4.500
 5664TIP3    H216957   0.120   2.816   4.525
 5665TIP3   OH216958   2.552   3.607   4.608
 5665TIP3    H116959   2.567   3.635   4.698
 5665TIP3    H216960   2.525   3.516   4.615
 5666TIP3   OH216961   2.280   0.928   4.882
 5666TIP3    H116962   2.370   0.907   4.908
 5666TIP3    H216963   2.230   0.848   4.903
 5667TIP3   OH216964   3.775   5.933   3.719
 5667TIP3    H116965   3.854   5.898   3.759
 5667TIP3    H216966   3.804   6.010   3.670
 5668TIP3   OH216967   1.833   1.732   4.528
 5668TIP3    H116968   1.858   1.772   4.444
 5668TIP3    H216969   1.741   1.757   4.539
 5669TIP3   OH216970   1.021   4.993   5.644
 5669TIP3    H116971   1.017   4.975   5.738
 5669TIP3    H216972   0.947   4.946   5.607
 5670TIP3   OH216973   0.656   5.191   1.628
 5670TIP3    H116974   0.582   5.131   1.619
 5670TIP3    H216975   0.641   5.258   1.561
 5671TIP3   OH216976   4.046   0.541   2.819
 5671TIP3    H116977   4.039   0.457   2.864
 5671TIP3    H216978   4.137   0.546   2.790
 5672TIP3   OH216979   5.147   2.545   4.387
 5672TIP3    H116980   5.214   2.538   4.454
 5672TIP3    H216981   5.143   2.458   4.348
 5673TIP3   OH216982   5.877   6.314   2.558
 5673TIP3    H116983   5.931   6.235   2.549
 5673TIP3    H216984   5.817   6.310   2.484
 5674TIP3   OH216985   3.156   3.995   3.327
 5674TIP3    H116986   3.137   4.078   3.370
 5674TIP3    H216987   3.177   4.018   3.236
 5675TIP3   OH216988   1.265   6.323   4.663
 5675TIP3    H116989   1.360   6.308   4.666
 5675TIP3    H216990   1.257   6.419   4.667
 5676TIP3   OH216991   1.241   5.488   2.398
 5676TIP3    H116992   1.188   5.505   2.320
 5676TIP3    H216993   1.328   5.520   2.375
 5677TIP3   OH216994   4.231   1.194   5.530
 5677TIP3    H116995   4.192   1.130   5.471
 5677TIP3    H216996   4.319   1.160   5.547
 5678TIP3   OH216997   1.169   6.389   2.259
 5678TIP3    H116998   1.114   6.398   2.337
 5678TIP3    H216999   1.257   6.414   2.288
 5679TIP3   OH217000   5.750   2.501   5.356
 5679TIP3    H117001   5.707   2.543   5.431
 5679TIP3    H217002   5.828   2.554   5.341
 5680TIP3   OH217003   0.960   1.351   1.802
 5680TIP3    H117004   0.920   1.436   1.784
 5680TIP3    H217005   0.999   1.324   1.719
 5681TIP3   OH217006   6.909   5.964   1.329
 5681TIP3    H117007   6.936   6.027   1.262
 5681TIP3    H217008   6.962   5.887   1.313
 5682TIP3   OH217009   1.335   3.232   0.872
 5682TIP3    H117010   1.414   3.178   0.867
 5682TIP3    H217011   1.263   3.172   0.851
 5683TIP3   OH217012   4.212   0.855   3.534
 5683TIP3    H117013   4.172   0.918   3.474
 5683TIP3    H217014   4.156   0.777   3.527
 5684TIP3   OH217015   4.666   3.811   3.022
 5684TIP3    H117016   4.636   3.791   3.111
 5684TIP3    H217017   4.711   3.895   3.031
 5685TIP3   OH217018   6.171   3.437   2.300
 5685TIP3    H117019   6.130   3.372   2.358
 5685TIP3    H217020   6.251   3.395   2.270
 5686TIP3   OH217021   6.566   1.304   3.722
 5686TIP3    H117022   6.609   1.377   3.676
 5686TIP3    H217023   6.595   1.313   3.813
 5687TIP3   OH217024   4.188   1.989   5.228
 5687TIP3    H117025   4.241   1.952   5.298
 5687TIP3    H217026   4.100   1.954   5.243
 5688TIP3   OH217027   2.615   0.455   5.768
 5688TIP3    H117028   2.536   0.487   5.813
 5688TIP3    H217029   2.660   0.403   5.835
 5689TIP3   OH217030   3.309   6.268   5.430
 5689TIP3    H117031   3.382   6.282   5.370
 5689TIP3    H217032   3.291   6.174   5.425
 5690TIP3   OH217033   5.284   5.166   1.583
 5690TIP3    H117034   5.367   5.117   1.580
 5690TIP3    H217035   5.275   5.202   1.494
 5691TIP3   OH217036   0.338   4.188   3.675
 5691TIP3    H117037   0.243   4.202   3.677
 5691TIP3    H217038   0.349   4.111   3.620
 5692TIP3   OH217039   6.672   1.038   3.653
 5692TIP3    H117040   6.706   1.022   3.565
 5692TIP3    H217041   6.641   1.128   3.651
 5693TIP3   OH217042   1.850   4.186   2.699
 5693TIP3    H117043   1.867   4.092   2.701
 5693TIP3    H217044   1.824   4.208   2.789
 5694TIP3   OH217045   6.230   5.541   3.829
 5694TIP3    H117046   6.225   5.576   3.918
 5694TIP3    H217047   6.324   5.531   3.812
 5695TIP3   OH217048   1.903   0.757   5.594
 5695TIP3    H117049   1.950   0.674   5.603
 5695TIP3    H217050   1.970   0.824   5.605
 5696TIP3   OH217051   6.233   1.610   5.797
 5696TIP3    H117052   6.200   1.528   5.759
 5696TIP3    H217053   6.285   1.650   5.727
 5697TIP3   OH217054   6.300   4.664   5.525
 5697TIP3    H117055   6.281   4.758   5.526
 5697TIP3    H217056   6.305   4.639   5.618
 5698TIP3   OH217057   1.816   4.696   2.763
 5698TIP3    H117058   1.770   4.780   2.771
 5698TIP3    H217059   1.758   4.633   2.805
 5699TIP3   OH217060   5.062   4.655   0.615
 5699TIP3    H117061   5.023   4.615   0.537
 5699TIP3    H217062   5.084   4.582   0.672
 5700TIP3   OH217063   4.824   5.423   4.800
 5700TIP3    H117064   4.898   5.365   4.816
 5700TIP3    H217065   4.747   5.365   4.803
 5701TIP3   OH217066   1.082   0.892   3.070
 5701TIP3    H117067   1.098   0.982   3.101
 5701TIP3    H217068   1.095   0.838   3.148
 5702TIP3   OH217069   1.852   6.287   3.802
 5702TIP3    H117070   1.864   6.305   3.708
 5702TIP3    H217071   1.932   6.241   3.828
 5703TIP3   OH217072  -0.001   1.273   0.400
 5703TIP3    H117073  -0.048   1.325   0.465
 5703TIP3    H217074   0.066   1.226   0.451
 5704TIP3   OH217075   5.692   0.564   1.646
 5704TIP3    H117076   5.668   0.619   1.571
 5704TIP3    H217077   5.691   0.475   1.611
 5705TIP3   OH217078   7.016   5.041   3.084
 5705TIP3    H117079   6.930   5.074   3.058
 5705TIP3    H217080   7.013   5.036   3.179
 5706TIP3   OH217081   3.782   0.076   5.229
 5706TIP3    H117082   3.774   0.060   5.135
 5706TIP3    H217083   3.870   0.113   5.239
 5707TIP3   OH217084   0.587   4.461   1.081
 5707TIP3    H117085   0.503   4.454   1.037
 5707TIP3    H217086   0.599   4.555   1.097
 5708TIP3   OH217087   2.052   2.823   4.492
 5708TIP3    H117088   2.097   2.841   4.575
 5708TIP3    H217089   1.989   2.754   4.513
 5709TIP3   OH217090   3.879   3.843   4.261
 5709TIP3    H117091   3.924   3.902   4.201
 5709TIP3    H217092   3.873   3.892   4.343
 5710TIP3   OH217093   1.259   3.413   2.365
 5710TIP3    H117094   1.223   3.485   2.313
 5710TIP3    H217095   1.300   3.355   2.301
 5711TIP3   OH217096   4.609   5.256   4.811
 5711TIP3    H117097   4.570   5.224   4.892
 5711TIP3    H217098   4.566   5.205   4.742
 5712TIP3   OH217099   5.095   6.137   4.426
 5712TIP3    H117100   5.003   6.135   4.454
 5712TIP3    H217101   5.134   6.205   4.481
 5713TIP3   OH217102   3.314   1.163   3.962
 5713TIP3    H117103   3.298   1.101   4.033
 5713TIP3    H217104   3.271   1.124   3.886
 5714TIP3   OH217105   1.713   3.861   1.181
 5714TIP3    H117106   1.690   3.954   1.175
 5714TIP3    H217107   1.690   3.826   1.095
 5715TIP3   OH217108   5.076   4.679   5.860
 5715TIP3    H117109   5.087   4.772   5.840
 5715TIP3    H217110   5.116   4.634   5.786
 5716TIP3   OH217111   5.764   2.164   0.078
 5716TIP3    H117112   5.843   2.217   0.063
 5716TIP3    H217113   5.797   2.076   0.092
 5717TIP3   OH217114   0.671   4.023   4.315
 5717TIP3    H117115   0.757   3.983   4.328
 5717TIP3    H217116   0.617   3.985   4.384
 5718TIP3   OH217117   0.543   2.997   2.603
 5718TIP3    H117118   0.580   2.964   2.685
 5718TIP3    H217119   0.448   2.985   2.614
 5719TIP3   OH217120   2.048   5.107   3.849
 5719TIP3    H117121   2.048   5.203   3.840
 5719TIP3    H217122   2.084   5.092   3.936
 5720TIP3   OH217123   4.621   1.127   1.443
 5720TIP3    H117124   4.525   1.130   1.439
 5720TIP3    H217125   4.641   1.041   1.478
 5721TIP3   OH217126   6.607   6.026   1.681
 5721TIP3    H117127   6.696   6.056   1.695
 5721TIP3    H217128   6.589   6.046   1.589
 5722TIP3   OH217129   3.499   4.602   4.559
 5722TIP3    H117130   3.530   4.671   4.501
 5722TIP3    H217131   3.541   4.621   4.643
 5723TIP3   OH217132   2.207   4.383   4.014
 5723TIP3    H117133   2.266   4.330   4.069
 5723TIP3    H217134   2.133   4.402   4.071
 5724TIP3   OH217135   4.882   6.088   5.290
 5724TIP3    H117136   4.833   6.058   5.214
 5724TIP3    H217137   4.946   6.150   5.255
 5725TIP3   OH217138   1.182   0.573   0.985
 5725TIP3    H117139   1.171   0.530   0.901
 5725TIP3    H217140   1.093   0.580   1.021
 5726TIP3   OH217141   5.524   5.448   5.774
 5726TIP3    H117142   5.618   5.432   5.764
 5726TIP3    H217143   5.486   5.362   5.790
 5727TIP3   OH217144   6.897   1.518   5.224
 5727TIP3    H117145   6.887   1.510   5.130
 5727TIP3    H217146   6.891   1.428   5.257
 5728TIP3   OH217147   6.642   0.428   5.265
 5728TIP3    H117148   6.698   0.497   5.300
 5728TIP3    H217149   6.625   0.454   5.175
 5729TIP3   OH217150   2.427   1.622   5.043
 5729TIP3    H117151   2.463   1.583   4.963
 5729TIP3    H217152   2.346   1.664   5.014
 5730TIP3   OH217153   6.940   1.124   1.166
 5730TIP3    H117154   6.968   1.190   1.102
 5730TIP3    H217155   6.850   1.150   1.188
 5731TIP3   OH217156   0.172   5.238   2.870
 5731TIP3    H117157   0.209   5.170   2.926
 5731TIP3    H217158   0.080   5.213   2.859
 5732TIP3   OH217159   6.603   1.378   1.360
 5732TIP3    H117160   6.587   1.452   1.419
 5732TIP3    H217161   6.602   1.417   1.273
 5733TIP3   OH217162   4.745   1.121   4.577
 5733TIP3    H117163   4.775   1.031   4.592
 5733TIP3    H217164   4.662   1.110   4.531
 5734TIP3   OH217165   6.311   3.160   1.176
 5734TIP3    H117166   6.340   3.142   1.265
 5734TIP3    H217167   6.332   3.252   1.162
 5735TIP3   OH217168   1.888   2.126   1.801
 5735TIP3    H117169   1.822   2.078   1.852
 5735TIP3    H217170   1.886   2.085   1.715
 5736TIP3   OH217171   6.428   2.113   5.429
 5736TIP3    H117172   6.427   2.209   5.434
 5736TIP3    H217173   6.400   2.094   5.340
 5737TIP3   OH217174   6.993   3.534   2.189
 5737TIP3    H117175   7.027   3.453   2.227
 5737TIP3    H217176   6.958   3.507   2.104
 5738TIP3   OH217177   4.953   4.886   3.511
 5738TIP3    H117178   4.978   4.927   3.594
 5738TIP3    H217179   4.956   4.792   3.530
 5739TIP3   OH217180   3.900   3.332   4.209
 5739TIP3    H117181   3.980   3.295   4.173
 5739TIP3    H217182   3.927   3.416   4.246
 5740TIP3   OH217183   6.730   0.821   3.234
 5740TIP3    H117184   6.648   0.780   3.261
 5740TIP3    H217185   6.742   0.894   3.295
 5741TIP3   OH217186   1.571   4.394   3.399
 5741TIP3    H117187   1.666   4.384   3.413
 5741TIP3    H217188   1.543   4.308   3.369
 5742TIP3   OH217189   5.695   4.953   1.030
 5742TIP3    H117190   5.717   4.860   1.027
 5742TIP3    H217191   5.621   4.959   1.091
 5743TIP3   OH217192   5.571   1.972   3.008
 5743TIP3    H117193   5.545   1.882   3.023
 5743TIP3    H217194   5.493   2.014   2.972
 5744TIP3   OH217195   1.636   0.162   0.477
 5744TIP3    H117196   1.681   0.078   0.486
 5744TIP3    H217197   1.547   0.138   0.452
 5745TIP3   OH217198   4.287   4.051   5.379
 5745TIP3    H117199   4.268   4.113   5.451
 5745TIP3    H217200   4.380   4.063   5.362
 5746TIP3   OH217201   4.373   0.625   1.607
 5746TIP3    H117202   4.447   0.683   1.620
 5746TIP3    H217203   4.365   0.577   1.689
 5747TIP3   OH217204   5.211   1.173   4.264
 5747TIP3    H117205   5.138   1.232   4.246
 5747TIP3    H217206   5.238   1.141   4.178
 5748TIP3   OH217207   4.642   0.938   3.643
 5748TIP3    H117208   4.639   1.031   3.620
 5748TIP3    H217209   4.552   0.917   3.670
 5749TIP3   OH217210   0.131   5.028   0.674
 5749TIP3    H117211   0.152   5.076   0.754
 5749TIP3    H217212   0.133   5.093   0.605
 5750TIP3   OH217213   5.922   4.442   4.348
 5750TIP3    H117214   5.907   4.475   4.436
 5750TIP3    H217215   5.866   4.496   4.292
 5751TIP3   OH217216   4.639   6.090   1.499
 5751TIP3    H117217   4.651   5.995   1.507
 5751TIP3    H217218   4.554   6.100   1.457
 5752TIP3   OH217219   3.662   2.121   1.116
 5752TIP3    H117220   3.630   2.117   1.206
 5752TIP3    H217221   3.709   2.205   1.112
 5753TIP3   OH217222   0.704   3.631   3.604
 5753TIP3    H117223   0.789   3.647   3.562
 5753TIP3    H217224   0.707   3.681   3.685
 5754TIP3   OH217225   3.335   4.836   4.043
 5754TIP3    H117226   3.381   4.761   4.007
 5754TIP3    H217227   3.374   4.911   3.998
 5755TIP3   OH217228   6.173   2.287   3.172
 5755TIP3    H117229   6.151   2.340   3.249
 5755TIP3    H217230   6.268   2.276   3.176
 5756TIP3   OH217231   3.257   2.155   1.073
 5756TIP3    H117232   3.340   2.198   1.053
 5756TIP3    H217233   3.195   2.192   1.010
 5757TIP3   OH217234   4.919   6.597   4.436
 5757TIP3    H117235   4.859   6.656   4.391
 5757TIP3    H217236   4.869   6.517   4.449
 5758TIP3   OH217237   3.890   2.250   2.458
 5758TIP3    H117238   3.934   2.297   2.529
 5758TIP3    H217239   3.951   2.180   2.434
 5759TIP3   OH217240   2.259   2.385   2.583
 5759TIP3    H117241   2.331   2.347   2.633
 5759TIP3    H217242   2.191   2.402   2.647
 5760TIP3   OH217243   2.840   4.759   3.708
 5760TIP3    H117244   2.759   4.798   3.741
 5760TIP3    H217245   2.813   4.672   3.677
 5761TIP3   OH217246   2.234   3.954   5.826
 5761TIP3    H117247   2.198   4.035   5.789
 5761TIP3    H217248   2.327   3.971   5.836
 5762TIP3   OH217249   6.795  -0.052   0.235
 5762TIP3    H117250   6.770  -0.034   0.326
 5762TIP3    H217251   6.807   0.035   0.196
 5763TIP3   OH217252   6.308   0.255   1.182
 5763TIP3    H117253   6.357   0.203   1.118
 5763TIP3    H217254   6.354   0.339   1.183
 5764TIP3   OH217255   2.222   1.011   0.541
 5764TIP3    H117256   2.198   1.062   0.619
 5764TIP3    H217257   2.165   1.045   0.472
 5765TIP3   OH217258   4.722   1.292   3.688
 5765TIP3    H117259   4.783   1.242   3.634
 5765TIP3    H217260   4.760   1.291   3.776
 5766TIP3   OH217261   5.244   3.970   1.960
 5766TIP3    H117262   5.232   3.991   2.053
 5766TIP3    H217263   5.311   4.032   1.930
 5767TIP3   OH217264   6.814   6.618   3.601
 5767TIP3    H117265   6.776   6.607   3.514
 5767TIP3    H217266   6.771   6.551   3.655
 5768TIP3   OH217267   0.659   0.164   5.889
 5768TIP3    H117268   0.589   0.228   5.881
 5768TIP3    H217269   0.636   0.094   5.827
 5769TIP3   OH217270   1.798   6.013   1.419
 5769TIP3    H117271   1.845   5.989   1.499
 5769TIP3    H217272   1.775   5.929   1.378
 5770TIP3   OH217273   3.061   2.782   1.919
 5770TIP3    H117274   3.082   2.847   1.852
 5770TIP3    H217275   3.127   2.795   1.987
 5771TIP3   OH217276   5.910   0.668   1.073
 5771TIP3    H117277   5.820   0.659   1.105
 5771TIP3    H217278   5.906   0.738   1.009
 5772TIP3   OH217279   4.023   2.506   5.273
 5772TIP3    H117280   4.064   2.423   5.296
 5772TIP3    H217281   4.011   2.502   5.178
 5773TIP3   OH217282   6.735   4.713   3.503
 5773TIP3    H117283   6.803   4.764   3.546
 5773TIP3    H217284   6.689   4.776   3.447
 5774TIP3   OH217285   0.874   3.286   3.233
 5774TIP3    H117286   0.960   3.254   3.205
 5774TIP3    H217287   0.831   3.315   3.153
 5775TIP3   OH217288   6.523   4.490   2.761
 5775TIP3    H117289   6.527   4.488   2.856
 5775TIP3    H217290   6.430   4.492   2.740
 5776TIP3   OH217291   5.617   5.202   2.780
 5776TIP3    H117292   5.629   5.291   2.745
 5776TIP3    H217293   5.676   5.199   2.856
 5777TIP3   OH217294   4.340   6.162   1.734
 5777TIP3    H117295   4.297   6.157   1.649
 5777TIP3    H217296   4.292   6.230   1.781
 5778TIP3   OH217297   1.996   0.188   4.674
 5778TIP3    H117298   2.002   0.280   4.701
 5778TIP3    H217299   1.960   0.192   4.585
 5779TIP3   OH217300   3.569   1.841   1.705
 5779TIP3    H117301   3.563   1.745   1.706
 5779TIP3    H217302   3.611   1.863   1.788
 5780TIP3   OH217303   6.632   5.781   1.180
 5780TIP3    H117304   6.597   5.737   1.103
 5780TIP3    H217305   6.556   5.797   1.235
 5781TIP3   OH217306   5.218   3.398   1.632
 5781TIP3    H117307   5.156   3.331   1.601
 5781TIP3    H217308   5.239   3.448   1.553
 5782TIP3   OH217309   1.870   3.280   2.536
 5782TIP3    H117310   1.954   3.259   2.494
 5782TIP3    H217311   1.894   3.302   2.626
 5783TIP3   OH217312   2.899   5.274   1.392
 5783TIP3    H117313   2.829   5.250   1.331
 5783TIP3    H217314   2.874   5.359   1.426
 5784TIP3   OH217315   3.285   4.384   3.366
 5784TIP3    H117316   3.215   4.328   3.333
 5784TIP3    H217317   3.308   4.346   3.451
 5785TIP3   OH217318   0.264   3.952   0.306
 5785TIP3    H117319   0.295   4.033   0.346
 5785TIP3    H217320   0.344   3.903   0.285
 5786TIP3   OH217321   5.872   1.396   4.420
 5786TIP3    H117322   5.801   1.361   4.366
 5786TIP3    H217323   5.948   1.342   4.399
 5787TIP3   OH217324   1.733   2.966   0.166
 5787TIP3    H117325   1.706   3.058   0.160
 5787TIP3    H217326   1.816   2.968   0.214
 5788TIP3   OH217327   0.106   4.626   4.994
 5788TIP3    H117328   0.145   4.709   5.023
 5788TIP3    H217329   0.124   4.622   4.900
 5789TIP3   OH217330   1.527   4.012   3.231
 5789TIP3    H117331   1.469   4.007   3.307
 5789TIP3    H217332   1.504   3.935   3.179
 5790TIP3   OH217333   0.406   4.683   2.014
 5790TIP3    H117334   0.446   4.605   1.976
 5790TIP3    H217335   0.389   4.659   2.106
 5791TIP3   OH217336   5.144   0.882   5.335
 5791TIP3    H117337   5.059   0.840   5.321
 5791TIP3    H217338   5.128   0.949   5.401
 5792TIP3   OH217339   1.676   3.886   5.354
 5792TIP3    H117340   1.767   3.891   5.383
 5792TIP3    H217341   1.681   3.848   5.266
 5793TIP3   OH217342   0.235   4.939   5.489
 5793TIP3    H117343   0.204   4.881   5.419
 5793TIP3    H217344   0.282   5.009   5.443
 5794TIP3   OH217345   2.986   2.519   4.242
 5794TIP3    H117346   2.991   2.587   4.309
 5794TIP3    H217347   3.065   2.531   4.189
 5795TIP3   OH217348   1.855   0.233   2.161
 5795TIP3    H117349   1.766   0.251   2.130
 5795TIP3    H217350   1.844   0.166   2.228
 5796TIP3   OH217351   1.250   1.795   5.433
 5796TIP3    H117352   1.295   1.785   5.349
 5796TIP3    H217353   1.320   1.792   5.498
 5797TIP3   OH217354   4.629   0.645   3.284
 5797TIP3    H117355   4.713   0.674   3.319
 5797TIP3    H217356   4.571   0.640   3.360
 5798TIP3   OH217357   2.359   4.788   0.584
 5798TIP3    H117358   2.270   4.818   0.603
 5798TIP3    H217359   2.349   4.700   0.548
 5799TIP3   OH217360   1.794   1.524   3.382
 5799TIP3    H117361   1.779   1.453   3.445
 5799TIP3    H217362   1.775   1.484   3.297
 5800TIP3   OH217363   6.131   1.532   1.727
 5800TIP3    H117364   6.072   1.591   1.773
 5800TIP3    H217365   6.165   1.474   1.795
 5801TIP3   OH217366   4.104   1.263   4.573
 5801TIP3    H117367   4.093   1.198   4.643
 5801TIP3    H217368   4.197   1.285   4.575
 5802TIP3   OH217369   4.060   5.782   4.434
 5802TIP3    H117370   4.144   5.777   4.388
 5802TIP3    H217371   4.060   5.705   4.491
 5803TIP3   OH217372   3.142   5.125   2.741
 5803TIP3    H117373   3.123   5.048   2.794
 5803TIP3    H217374   3.092   5.112   2.661
 5804TIP3   OH217375   0.487   1.880   1.771
 5804TIP3    H117376   0.542   1.920   1.704
 5804TIP3    H217377   0.539   1.884   1.851
 5805TIP3   OH217378   2.759   6.598   2.716
 5805TIP3    H117379   2.694   6.570   2.780
 5805TIP3    H217380   2.717   6.586   2.631
 5806TIP3   OH217381   1.709   6.457   1.133
 5806TIP3    H117382   1.772   6.526   1.110
 5806TIP3    H217383   1.690   6.414   1.049
 5807TIP3   OH217384   3.200   4.582   1.335
 5807TIP3    H117385   3.291   4.611   1.332
 5807TIP3    H217386   3.206   4.486   1.337
 5808TIP3   OH217387   3.190   1.958   5.109
 5808TIP3    H117388   3.236   1.874   5.121
 5808TIP3    H217389   3.099   1.933   5.097
 5809TIP3   OH217390   4.686   4.117   0.165
 5809TIP3    H117391   4.687   4.192   0.106
 5809TIP3    H217392   4.670   4.154   0.252
 5810TIP3   OH217393   0.941   1.093   4.235
 5810TIP3    H117394   0.871   1.142   4.193
 5810TIP3    H217395   0.915   1.088   4.327
 5811TIP3   OH217396   6.012   3.487   1.816
 5811TIP3    H117397   5.965   3.404   1.825
 5811TIP3    H217398   5.943   3.553   1.810
 5812TIP3   OH217399   3.553   6.279   3.567
 5812TIP3    H117400   3.566   6.374   3.570
 5812TIP3    H217401   3.567   6.250   3.657
 5813TIP3   OH217402   2.244   0.717   1.918
 5813TIP3    H117403   2.192   0.691   1.994
 5813TIP3    H217404   2.186   0.775   1.868
 5814TIP3   OH217405   6.998   6.128   0.845
 5814TIP3    H117406   7.042   6.073   0.780
 5814TIP3    H217407   7.022   6.090   0.929
 5815TIP3   OH217408   6.574   0.638   5.553
 5815TIP3    H117409   6.572   0.578   5.627
 5815TIP3    H217410   6.593   0.723   5.591
 5816TIP3   OH217411   6.882   1.338   3.413
 5816TIP3    H117412   6.909   1.268   3.354
 5816TIP3    H217413   6.821   1.391   3.361
 5817TIP3   OH217414   6.632   3.637   4.278
 5817TIP3    H117415   6.648   3.694   4.203
 5817TIP3    H217416   6.662   3.550   4.250
 5818TIP3   OH217417   3.771   2.259   4.495
 5818TIP3    H117418   3.686   2.233   4.531
 5818TIP3    H217419   3.810   2.178   4.462
 5819TIP3   OH217420   5.337   0.519   3.127
 5819TIP3    H117421   5.425   0.555   3.115
 5819TIP3    H217422   5.295   0.528   3.042
 5820TIP3   OH217423   2.302   2.544   3.576
 5820TIP3    H117424   2.244   2.531   3.501
 5820TIP3    H217425   2.252   2.516   3.652
 5821TIP3   OH217426   2.921   5.924   0.469
 5821TIP3    H117427   2.848   5.881   0.426
 5821TIP3    H217428   2.882   5.997   0.516
 5822TIP3   OH217429   1.346   2.580   1.627
 5822TIP3    H117430   1.314   2.506   1.575
 5822TIP3    H217431   1.267   2.623   1.659
 5823TIP3   OH217432   5.654   2.264   2.956
 5823TIP3    H117433   5.590   2.220   2.901
 5823TIP3    H217434   5.662   2.352   2.919
 5824TIP3   OH217435   3.484   0.879   1.489
 5824TIP3    H117436   3.537   0.911   1.562
 5824TIP3    H217437   3.399   0.921   1.501
 5825TIP3   OH217438   2.626   2.618   2.280
 5825TIP3    H117439   2.631   2.539   2.334
 5825TIP3    H217440   2.663   2.591   2.195
 5826TIP3   OH217441   3.351   4.109   1.777
 5826TIP3    H117442   3.435   4.112   1.823
 5826TIP3    H217443   3.314   4.024   1.799
 5827TIP3   OH217444   5.769   0.742   3.794
 5827TIP3    H117445   5.824   0.816   3.768
 5827TIP3    H217446   5.723   0.772   3.873
 5828TIP3   OH217447   3.016   3.258   1.927
 5828TIP3    H117448   2.956   3.328   1.903
 5828TIP3    H217449   3.082   3.258   1.858
 5829TIP3   OH217450   6.714   3.882   1.458
 5829TIP3    H117451   6.798   3.914   1.426
 5829TIP3    H217452   6.712   3.790   1.431
 5830TIP3   OH217453   6.193   1.023   2.835
 5830TIP3    H117454   6.273   1.075   2.832
 5830TIP3    H217455   6.186   0.983   2.748
 5831TIP3   OH217456   7.133   6.629   4.917
 5831TIP3    H117457   7.039   6.616   4.905
 5831TIP3    H217458   7.173   6.576   4.848
 5832TIP3   OH217459   5.928   1.567   5.440
 5832TIP3    H117460   5.840   1.577   5.475
 5832TIP3    H217461   5.940   1.472   5.430
 5833TIP3   OH217462   5.402   1.349   2.110
 5833TIP3    H117463   5.337   1.419   2.100
 5833TIP3    H217464   5.420   1.320   2.020
 5834TIP3   OH217465   7.138   4.879   3.834
 5834TIP3    H117466   7.130   4.918   3.921
 5834TIP3    H217467   7.142   4.784   3.850
 5835TIP3   OH217468   0.776   1.285   3.590
 5835TIP3    H117469   0.859   1.331   3.576
 5835TIP3    H217470   0.710   1.354   3.590
 5836TIP3   OH217471   6.805   3.725   0.731
 5836TIP3    H117472   6.844   3.646   0.770
 5836TIP3    H217473   6.748   3.759   0.799
 5837TIP3   OH217474   3.830   5.350   4.193
 5837TIP3    H117475   3.744   5.381   4.163
 5837TIP3    H217476   3.810   5.275   4.249
 5838TIP3   OH217477   4.554   6.187   0.477
 5838TIP3    H117478   4.586   6.273   0.505
 5838TIP3    H217479   4.611   6.124   0.523
 5839TIP3   OH217480   3.604   0.364   0.565
 5839TIP3    H117481   3.602   0.335   0.656
 5839TIP3    H217482   3.547   0.441   0.564
 5840TIP3   OH217483   2.940   4.940   4.751
 5840TIP3    H117484   3.023   4.976   4.782
 5840TIP3    H217485   2.944   4.947   4.656
 5841TIP3   OH217486   6.683   1.842   4.391
 5841TIP3    H117487   6.630   1.920   4.373
 5841TIP3    H217488   6.726   1.822   4.308
 5842TIP3   OH217489   4.999   3.087   3.046
 5842TIP3    H117490   5.053   3.029   2.993
 5842TIP3    H217491   5.023   3.175   3.019
 5843TIP3   OH217492   4.608   5.224   3.721
 5843TIP3    H117493   4.621   5.134   3.691
 5843TIP3    H217494   4.693   5.266   3.710
 5844TIP3   OH217495   6.394   5.659   2.590
 5844TIP3    H117496   6.470   5.609   2.561
 5844TIP3    H217497   6.432   5.733   2.639
 5845TIP3   OH217498   1.034   3.217   4.261
 5845TIP3    H117499   1.012   3.307   4.239
 5845TIP3    H217500   1.099   3.224   4.330
 5846TIP3   OH217501   3.553   4.792   2.743
 5846TIP3    H117502   3.500   4.730   2.692
 5846TIP3    H217503   3.550   4.873   2.692
 5847TIP3   OH217504   1.767   1.475   4.635
 5847TIP3    H117505   1.678   1.505   4.656
 5847TIP3    H217506   1.815   1.554   4.613
 5848TIP3   OH217507   0.118   1.225   3.497
 5848TIP3    H117508   0.042   1.195   3.548
 5848TIP3    H217509   0.103   1.191   3.409
 5849TIP3   OH217510   0.295   6.158   1.380
 5849TIP3    H117511   0.312   6.099   1.452
 5849TIP3    H217512   0.200   6.155   1.368
 5850TIP3   OH217513   5.296   4.387   0.955
 5850TIP3    H117514   5.388   4.383   0.930
 5850TIP3    H217515   5.281   4.307   1.005
 5851TIP3   OH217516   3.942   3.072   1.085
 5851TIP3    H117517   4.013   3.097   1.144
 5851TIP3    H217518   3.913   2.986   1.117
 5852TIP3   OH217519   2.786   1.580   0.987
 5852TIP3    H117520   2.765   1.538   1.070
 5852TIP3    H217521   2.705   1.573   0.936
 5853TIP3   OH217522   2.260   5.955   1.982
 5853TIP3    H117523   2.245   6.031   1.925
 5853TIP3    H217524   2.182   5.901   1.970
 5854TIP3   OH217525   3.364   0.848   2.463
 5854TIP3    H117526   3.319   0.769   2.433
 5854TIP3    H217527   3.356   0.845   2.558
 5855TIP3   OH217528   3.211   1.653   4.968
 5855TIP3    H117529   3.167   1.617   5.045
 5855TIP3    H217530   3.141   1.692   4.917
 5856TIP3   OH217531   0.288   0.317   3.402
 5856TIP3    H117532   0.292   0.252   3.472
 5856TIP3    H217533   0.236   0.389   3.439
 5857TIP3   OH217534   3.134   1.839   2.638
 5857TIP3    H117535   3.224   1.848   2.607
 5857TIP3    H217536   3.080   1.874   2.568
 5858TIP3   OH217537   4.353   2.627   1.787
 5858TIP3    H117538   4.308   2.547   1.813
 5858TIP3    H217539   4.285   2.679   1.743
 5859TIP3   OH217540   2.809   1.177   0.396
 5859TIP3    H117541   2.746   1.109   0.420
 5859TIP3    H217542   2.836   1.154   0.307
 5860TIP3   OH217543   2.540   2.455   5.500
 5860TIP3    H117544   2.572   2.453   5.590
 5860TIP3    H217545   2.445   2.456   5.509
 5861TIP3   OH217546   4.202   6.223   0.358
 5861TIP3    H117547   4.136   6.174   0.309
 5861TIP3    H217548   4.248   6.274   0.291
 5862TIP3   OH217549   6.127   0.626   1.969
 5862TIP3    H117550   6.056   0.595   1.912
 5862TIP3    H217551   6.116   0.721   1.971
 5863TIP3   OH217552   2.302   3.922   4.274
 5863TIP3    H117553   2.387   3.884   4.295
 5863TIP3    H217554   2.254   3.851   4.231
 5864TIP3   OH217555   1.156   5.914   0.693
 5864TIP3    H117556   1.110   5.884   0.772
 5864TIP3    H217557   1.127   5.853   0.625
 5865TIP3   OH217558   6.548   1.289   0.791
 5865TIP3    H117559   6.461   1.327   0.803
 5865TIP3    H217560   6.582   1.331   0.711
 5866TIP3   OH217561   4.620   4.370   4.585
 5866TIP3    H117562   4.626   4.283   4.544
 5866TIP3    H217563   4.654   4.357   4.673
 5867TIP3   OH217564   7.016   2.008   4.238
 5867TIP3    H117565   6.959   2.048   4.304
 5867TIP3    H217566   7.095   2.061   4.238
 5868TIP3   OH217567   1.029   3.596   0.625
 5868TIP3    H117568   0.969   3.653   0.672
 5868TIP3    H217569   1.104   3.652   0.604
 5869TIP3   OH217570   4.823   3.639   0.678
 5869TIP3    H117571   4.759   3.666   0.612
 5869TIP3    H217572   4.832   3.715   0.735
 5870TIP3   OH217573   4.613   3.378   2.461
 5870TIP3    H117574   4.632   3.290   2.495
 5870TIP3    H217575   4.565   3.363   2.380
 5871TIP3   OH217576   1.561   0.725   2.150
 5871TIP3    H117577   1.607   0.720   2.234
 5871TIP3    H217578   1.619   0.680   2.088
 5872TIP3   OH217579   1.962   1.141   4.497
 5872TIP3    H117580   1.926   1.089   4.425
 5872TIP3    H217581   1.915   1.111   4.575
 5873TIP3   OH217582   0.304   3.143   4.452
 5873TIP3    H117583   0.375   3.206   4.441
 5873TIP3    H217584   0.259   3.172   4.532
 5874TIP3   OH217585   5.120   5.657   4.634
 5874TIP3    H117586   5.169   5.723   4.682
 5874TIP3    H217587   5.165   5.575   4.653
 5875TIP3   OH217588   2.683   4.567   1.700
 5875TIP3    H117589   2.732   4.645   1.676
 5875TIP3    H217590   2.641   4.589   1.783
 5876TIP3   OH217591   4.376   5.394   1.321
 5876TIP3    H117592   4.427   5.338   1.262
 5876TIP3    H217593   4.437   5.418   1.390
 5877TIP3   OH217594   4.550   4.160   5.359
 5877TIP3    H117595   4.567   4.250   5.329
 5877TIP3    H217596   4.546   4.168   5.454
 5878TIP3   OH217597   0.865   6.741   1.411
 5878TIP3    H117598   0.825   6.806   1.352
 5878TIP3    H217599   0.834   6.657   1.378
 5879TIP3   OH217600   6.829   2.319   2.656
 5879TIP3    H117601   6.835   2.312   2.561
 5879TIP3    H217602   6.897   2.383   2.679
 5880TIP3   OH217603   6.556   3.690   3.318
 5880TIP3    H117604   6.534   3.761   3.257
 5880TIP3    H217605   6.600   3.624   3.264
 5881TIP3   OH217606   0.540   2.276   1.142
 5881TIP3    H117607   0.517   2.342   1.077
 5881TIP3    H217608   0.541   2.323   1.225
 5882TIP3   OH217609   5.108   0.556   2.395
 5882TIP3    H117610   5.033   0.566   2.454
 5882TIP3    H217611   5.156   0.481   2.431
 5883TIP3   OH217612   3.645   5.674   2.734
 5883TIP3    H117613   3.699   5.597   2.716
 5883TIP3    H217614   3.562   5.655   2.691
 5884TIP3   OH217615   3.664   5.288   1.014
 5884TIP3    H117616   3.603   5.345   1.060
 5884TIP3    H217617   3.726   5.260   1.082
 5885TIP3   OH217618   2.141   0.959   2.463
 5885TIP3    H117619   2.216   0.993   2.511
 5885TIP3    H217620   2.078   0.934   2.531
 5886TIP3   OH217621   2.470   6.815   0.043
 5886TIP3    H117622   2.381   6.780   0.041
 5886TIP3    H217623   2.520   6.754  -0.011
 5887TIP3   OH217624   1.465   3.595   3.826
 5887TIP3    H117625   1.502   3.681   3.849
 5887TIP3    H217626   1.381   3.616   3.786
 5888TIP3   OH217627   2.501   2.328   1.915
 5888TIP3    H117628   2.540   2.339   1.829
 5888TIP3    H217629   2.409   2.353   1.904
 5889TIP3   OH217630   1.027   4.361   3.984
 5889TIP3    H117631   0.963   4.427   3.957
 5889TIP3    H217632   1.036   4.374   4.078
 5890TIP3   OH217633   6.581   0.138   3.693
 5890TIP3    H117634   6.559   0.215   3.641
 5890TIP3    H217635   6.505   0.125   3.750
 5891TIP3   OH217636   3.869   6.386   3.828
 5891TIP3    H117637   3.808   6.381   3.902
 5891TIP3    H217638   3.844   6.313   3.772
 5892TIP3   OH217639   7.070   2.749   0.597
 5892TIP3    H117640   7.128   2.758   0.521
 5892TIP3    H217641   7.063   2.655   0.611
 5893TIP3   OH217642   0.511   2.114   0.317
 5893TIP3    H117643   0.544   2.025   0.304
 5893TIP3    H217644   0.552   2.166   0.248
 5894TIP3   OH217645   6.914   5.213   0.328
 5894TIP3    H117646   6.949   5.198   0.240
 5894TIP3    H217647   6.820   5.195   0.320
 5895TIP3   OH217648   0.167   5.261   0.497
 5895TIP3    H117649   0.242   5.318   0.478
 5895TIP3    H217650   0.105   5.319   0.542
 5896TIP3   OH217651   3.499   2.579   3.615
 5896TIP3    H117652   3.585   2.615   3.638
 5896TIP3    H217653   3.512   2.537   3.530
 5897TIP3   OH217654   1.949   6.355   3.552
 5897TIP3    H117655   2.015   6.411   3.510
 5897TIP3    H217656   1.871   6.365   3.497
 5898TIP3   OH217657   0.630   0.067   1.941
 5898TIP3    H117658   0.681   0.144   1.968
 5898TIP3    H217659   0.621   0.077   1.846
 5899TIP3   OH217660   3.066   1.369   0.656
 5899TIP3    H117661   3.079   1.418   0.575
 5899TIP3    H217662   3.129   1.298   0.652
 5900TIP3   OH217663   2.291   0.666   2.348
 5900TIP3    H117664   2.360   0.603   2.328
 5900TIP3    H217665   2.338   0.748   2.363
 5901TIP3   OH217666   0.257   4.662   1.446
 5901TIP3    H117667   0.170   4.703   1.445
 5901TIP3    H217668   0.241   4.572   1.476
 5902TIP3   OH217669   6.203   6.319   1.988
 5902TIP3    H117670   6.140   6.291   1.921
 5902TIP3    H217671   6.182   6.266   2.065
 5903TIP3   OH217672   2.134   6.781   4.859
 5903TIP3    H117673   2.190   6.719   4.907
 5903TIP3    H217674   2.188   6.811   4.786
 5904TIP3   OH217675   4.181   1.863   1.381
 5904TIP3    H117676   4.183   1.880   1.287
 5904TIP3    H217677   4.088   1.861   1.403
 5905TIP3   OH217678   0.108   5.655   0.139
 5905TIP3    H117679   0.014   5.656   0.153
 5905TIP3    H217680   0.134   5.564   0.148
 5906TIP3   OH217681   0.475   4.548   3.495
 5906TIP3    H117682   0.546   4.599   3.455
 5906TIP3    H217683   0.515   4.509   3.573
 5907TIP3   OH217684   5.389   0.047   0.959
 5907TIP3    H117685   5.431   0.090   0.884
 5907TIP3    H217686   5.395   0.110   1.030
 5908TIP3   OH217687   6.614   0.449   3.297
 5908TIP3    H117688   6.535   0.399   3.278
 5908TIP3    H217689   6.667   0.442   3.218
 5909TIP3   OH217690   3.978   4.508   5.360
 5909TIP3    H117691   3.939   4.595   5.354
 5909TIP3    H217692   4.072   4.523   5.355
 5910TIP3   OH217693   3.565   6.670   4.067
 5910TIP3    H117694   3.609   6.585   4.062
 5910TIP3    H217695   3.565   6.691   4.161
 5911TIP3   OH217696   6.079   6.009   1.670
 5911TIP3    H117697   6.077   6.015   1.766
 5911TIP3    H217698   5.990   5.986   1.646
 5912TIP3   OH217699   6.171   4.594   1.736
 5912TIP3    H117700   6.079   4.573   1.718
 5912TIP3    H217701   6.171   4.628   1.825
 5913TIP3   OH217702   6.085   0.272   3.521
 5913TIP3    H117703   5.994   0.256   3.549
 5913TIP3    H217704   6.120   0.185   3.503
 5914TIP3   OH217705   5.690   2.809   5.336
 5914TIP3    H117706   5.647   2.746   5.393
 5914TIP3    H217707   5.693   2.766   5.250
 5915TIP3   OH217708   2.208   0.668   4.873
 5915TIP3    H117709   2.167   0.695   4.790
 5915TIP3    H217710   2.265   0.595   4.849
 5916TIP3   OH217711   2.119   3.517   3.726
 5916TIP3    H117712   2.099   3.431   3.689
 5916TIP3    H217713   2.189   3.552   3.671
 5917TIP3   OH217714   0.038   0.385   5.396
 5917TIP3    H117715   0.034   0.315   5.331
 5917TIP3    H217716  -0.011   0.457   5.357
 5918TIP3   OH217717   4.861   2.862   0.849
 5918TIP3    H117718   4.913   2.861   0.769
 5918TIP3    H217719   4.921   2.895   0.916
 5919TIP3   OH217720   4.010   2.906   2.053
 5919TIP3    H117721   4.077   2.967   2.087
 5919TIP3    H217722   3.979   2.859   2.130
 5920TIP3   OH217723   3.886   1.014   3.799
 5920TIP3    H117724   3.864   1.071   3.873
 5920TIP3    H217725   3.841   0.932   3.818
 5921TIP3   OH217726   5.984   0.228   5.362
 5921TIP3    H117727   5.906   0.240   5.415
 5921TIP3    H217728   5.986   0.303   5.304
 5922TIP3   OH217729   0.134   3.613   0.122
 5922TIP3    H117730   0.229   3.602   0.129
 5922TIP3    H217731   0.111   3.672   0.193
 5923TIP3   OH217732   4.955   4.097   4.633
 5923TIP3    H117733   5.026   4.106   4.696
 5923TIP3    H217734   4.932   4.187   4.609
 5924TIP3   OH217735   1.860   0.475   4.764
 5924TIP3    H117736   1.899   0.544   4.711
 5924TIP3    H217737   1.771   0.506   4.782
 5925TIP3   OH217738   4.381   0.979   5.162
 5925TIP3    H117739   4.366   0.886   5.141
 5925TIP3    H217740   4.423   0.977   5.249
 5926TIP3   OH217741   6.120   3.665   3.466
 5926TIP3    H117742   6.142   3.642   3.376
 5926TIP3    H217743   6.056   3.736   3.457
 5927TIP3   OH217744   6.173   5.259   3.631
 5927TIP3    H117745   6.099   5.228   3.580
 5927TIP3    H217746   6.164   5.354   3.633
 5928TIP3   OH217747   4.952   5.677   4.943
 5928TIP3    H117748   4.929   5.621   4.869
 5928TIP3    H217749   5.047   5.681   4.942
 5929TIP3   OH217750   7.065   3.704   0.219
 5929TIP3    H117751   6.996   3.693   0.284
 5929TIP3    H217752   7.140   3.737   0.268
 5930TIP3   OH217753   4.507   4.551   4.153
 5930TIP3    H117754   4.503   4.456   4.150
 5930TIP3    H217755   4.439   4.576   4.217
 5931TIP3   OH217756   5.011   3.814   2.929
 5931TIP3    H117757   5.100   3.785   2.907
 5931TIP3    H217758   5.019   3.854   3.015
 5932TIP3   OH217759   6.291   4.504   5.773
 5932TIP3    H117760   6.272   4.531   5.863
 5932TIP3    H217761   6.386   4.507   5.767
 5933TIP3   OH217762   3.713   4.413   5.722
 5933TIP3    H117763   3.807   4.409   5.705
 5933TIP3    H217764   3.677   4.338   5.674
 5934TIP3   OH217765   3.161   0.172   3.611
 5934TIP3    H117766   3.139   0.225   3.534
 5934TIP3    H217767   3.077   0.155   3.653
 5935TIP3   OH217768   5.028   2.264   5.323
 5935TIP3    H117769   5.099   2.253   5.260
 5935TIP3    H217770   5.070   2.303   5.400
 5936TIP3   OH217771   6.590   1.606   4.491
 5936TIP3    H117772   6.608   1.586   4.583
 5936TIP3    H217773   6.612   1.699   4.483
 5937TIP3   OH217774   3.272   2.062   1.915
 5937TIP3    H117775   3.259   1.971   1.889
 5937TIP3    H217776   3.300   2.106   1.835
 5938TIP3   OH217777   1.587   2.532   4.318
 5938TIP3    H117778   1.581   2.444   4.280
 5938TIP3    H217779   1.680   2.554   4.316
 5939TIP3   OH217780   1.202   1.479   3.713
 5939TIP3    H117781   1.146   1.412   3.674
 5939TIP3    H217782   1.267   1.499   3.646
 5940TIP3   OH217783   2.784   6.761   4.793
 5940TIP3    H117784   2.713   6.804   4.841
 5940TIP3    H217785   2.754   6.671   4.781
 5941TIP3   OH217786   0.796   4.791   5.823
 5941TIP3    H117787   0.797   4.722   5.890
 5941TIP3    H217788   0.781   4.872   5.872
 5942TIP3   OH217789   6.895   0.501   1.847
 5942TIP3    H117790   6.858   0.508   1.759
 5942TIP3    H217791   6.987   0.528   1.837
 5943TIP3   OH217792   2.359   1.676   4.165
 5943TIP3    H117793   2.340   1.695   4.256
 5943TIP3    H217794   2.314   1.744   4.116
 5944TIP3   OH217795   1.686   6.529   3.190
 5944TIP3    H117796   1.750   6.458   3.197
 5944TIP3    H217797   1.730   6.595   3.136
 5945TIP3   OH217798   5.924   0.075   1.844
 5945TIP3    H117799   5.968   0.108   1.765
 5945TIP3    H217800   5.914   0.153   1.899
 5946TIP3   OH217801   3.691   4.210   5.523
 5946TIP3    H117802   3.720   4.146   5.588
 5946TIP3    H217803   3.767   4.221   5.466
 5947TIP3   OH217804   3.646   3.711   4.118
 5947TIP3    H117805   3.683   3.759   4.192
 5947TIP3    H217806   3.652   3.619   4.143
 5948TIP3   OH217807   3.588   3.400   3.909
 5948TIP3    H117808   3.494   3.415   3.903
 5948TIP3    H217809   3.607   3.405   4.003
 5949TIP3   OH217810   3.199   6.334   3.233
 5949TIP3    H117811   3.275   6.353   3.288
 5949TIP3    H217812   3.203   6.399   3.163
 5950TIP3   OH217813   5.565   4.190   3.982
 5950TIP3    H117814   5.607   4.107   4.007
 5950TIP3    H217815   5.638   4.251   3.972
 5951TIP3   OH217816   4.839   5.390   5.218
 5951TIP3    H117817   4.799   5.312   5.180
 5951TIP3    H217818   4.824   5.381   5.312
 5952TIP3   OH217819   6.481   1.448   4.028
 5952TIP3    H117820   6.392   1.455   3.992
 5952TIP3    H217821   6.478   1.501   4.108
 5953TIP3   OH217822   4.711   2.875   0.028
 5953TIP3    H117823   4.759   2.829   0.097
 5953TIP3    H217824   4.680   2.955   0.071
 5954TIP3   OH217825   4.624   3.199   5.218
 5954TIP3    H117826   4.540   3.221   5.257
 5954TIP3    H217827   4.649   3.116   5.260
 5955TIP3   OH217828   1.190   5.685   0.291
 5955TIP3    H117829   1.145   5.643   0.218
 5955TIP3    H217830   1.282   5.687   0.265
 5956TIP3   OH217831   0.375   1.871   5.267
 5956TIP3    H117832   0.374   1.958   5.227
 5956TIP3    H217833   0.467   1.844   5.263
 5957TIP3   OH217834   6.598   2.914   4.676
 5957TIP3    H117835   6.662   2.925   4.747
 5957TIP3    H217836   6.588   2.819   4.667
 5958TIP3   OH217837   0.917   1.495   0.648
 5958TIP3    H117838   0.952   1.579   0.618
 5958TIP3    H217839   0.822   1.504   0.639
 5959TIP3   OH217840   0.264   0.277   0.125
 5959TIP3    H117841   0.348   0.294   0.168
 5959TIP3    H217842   0.247   0.184   0.140
 5960TIP3   OH217843   4.655   4.996   5.389
 5960TIP3    H117844   4.636   5.003   5.295
 5960TIP3    H217845   4.751   4.993   5.394
 5961TIP3   OH217846   6.634   0.051   0.476
 5961TIP3    H117847   6.677   0.136   0.481
 5961TIP3    H217848   6.585   0.044   0.558
 5962TIP3   OH217849   3.411   2.745   0.516
 5962TIP3    H117850   3.423   2.812   0.449
 5962TIP3    H217851   3.319   2.752   0.541
 5963TIP3   OH217852   1.653   3.969   1.977
 5963TIP3    H117853   1.564   4.005   1.979
 5963TIP3    H217854   1.672   3.959   1.884
 5964TIP3   OH217855   6.601   0.981   1.518
 5964TIP3    H117856   6.507   0.984   1.535
 5964TIP3    H217857   6.625   0.889   1.534
 5965TIP3   OH217858   3.596   6.451   0.489
 5965TIP3    H117859   3.642   6.505   0.553
 5965TIP3    H217860   3.539   6.512   0.443
 5966TIP3   OH217861   3.109   1.264   5.523
 5966TIP3    H117862   3.185   1.322   5.522
 5966TIP3    H217863   3.035   1.321   5.500
 5967TIP3   OH217864   4.960   3.171   4.734
 5967TIP3    H117865   5.005   3.242   4.689
 5967TIP3    H217866   4.894   3.215   4.788
 5968TIP3   OH217867   0.198   6.197   2.432
 5968TIP3    H117868   0.272   6.162   2.383
 5968TIP3    H217869   0.199   6.150   2.515
 5969TIP3   OH217870   0.838   0.099   3.625
 5969TIP3    H117871   0.923   0.133   3.596
 5969TIP3    H217872   0.775   0.141   3.566
 5970TIP3   OH217873   3.667   1.514   3.583
 5970TIP3    H117874   3.761   1.516   3.562
 5970TIP3    H217875   3.662   1.546   3.673
 5971TIP3   OH217876   3.127   5.398   5.588
 5971TIP3    H117877   3.142   5.359   5.502
 5971TIP3    H217878   3.056   5.345   5.626
 5972TIP3   OH217879   7.056   6.536   1.443
 5972TIP3    H117880   7.079   6.621   1.406
 5972TIP3    H217881   6.996   6.557   1.515
 5973TIP3   OH217882   0.324   1.295   5.075
 5973TIP3    H117883   0.280   1.258   4.999
 5973TIP3    H217884   0.393   1.350   5.039
 5974TIP3   OH217885   6.376   5.483   5.255
 5974TIP3    H117886   6.458   5.447   5.221
 5974TIP3    H217887   6.340   5.414   5.310
 5975TIP3   OH217888   2.125   2.283   5.380
 5975TIP3    H117889   2.203   2.302   5.431
 5975TIP3    H217890   2.114   2.188   5.387
 5976TIP3   OH217891   4.661   3.737   4.880
 5976TIP3    H117892   4.570   3.741   4.851
 5976TIP3    H217893   4.703   3.811   4.836
 5977TIP3   OH217894   1.587   0.359   5.584
 5977TIP3    H117895   1.631   0.433   5.626
 5977TIP3    H217896   1.641   0.341   5.507
 5978TIP3   OH217897   2.435   2.017   0.559
 5978TIP3    H117898   2.421   2.110   0.573
 5978TIP3    H217899   2.450   2.009   0.465
 5979TIP3   OH217900   4.000   6.731   3.449
 5979TIP3    H117901   3.912   6.767   3.457
 5979TIP3    H217902   4.008   6.671   3.523
 5980TIP3   OH217903   0.004   3.718   4.760
 5980TIP3    H117904   0.017   3.686   4.849
 5980TIP3    H217905   0.039   3.807   4.760
 5981TIP3   OH217906   5.019   0.404   5.246
 5981TIP3    H117907   4.945   0.369   5.296
 5981TIP3    H217908   5.076   0.328   5.230
 5982TIP3   OH217909   0.484   0.138   4.416
 5982TIP3    H117910   0.499   0.135   4.511
 5982TIP3    H217911   0.453   0.050   4.395
 5983TIP3   OH217912   4.982   2.523   3.365
 5983TIP3    H117913   4.969   2.430   3.347
 5983TIP3    H217914   5.069   2.526   3.407
 5984TIP3   OH217915   4.331   3.642   2.680
 5984TIP3    H117916   4.423   3.664   2.696
 5984TIP3    H217917   4.333   3.551   2.648
 5985TIP3   OH217918   4.473   4.160   1.266
 5985TIP3    H117919   4.500   4.166   1.358
 5985TIP3    H217920   4.384   4.194   1.265
 5986TIP3   OH217921   5.842   6.286   4.742
 5986TIP3    H117922   5.795   6.327   4.815
 5986TIP3    H217923   5.846   6.194   4.765
 5987TIP3   OH217924   3.667   2.520   5.920
 5987TIP3    H117925   3.637   2.440   5.962
 5987TIP3    H217926   3.754   2.498   5.887
 5988TIP3   OH217927   3.949   5.509   3.609
 5988TIP3    H117928   3.926   5.465   3.527
 5988TIP3    H217929   3.936   5.602   3.591
 5989TIP3   OH217930   5.635   0.283   0.451
 5989TIP3    H117931   5.706   0.276   0.515
 5989TIP3    H217932   5.656   0.362   0.401
 5990TIP3   OH217933   1.206   2.638   3.487
 5990TIP3    H117934   1.170   2.636   3.576
 5990TIP3    H217935   1.289   2.685   3.496
 5991TIP3   OH217936   0.887   0.445   0.341
 5991TIP3    H117937   0.916   0.378   0.402
 5991TIP3    H217938   0.967   0.490   0.315
 5992TIP3   OH217939   0.674   3.160   3.372
 5992TIP3    H117940   0.726   3.215   3.313
 5992TIP3    H217941   0.585   3.193   3.364
 5993TIP3   OH217942   6.796   1.515   2.013
 5993TIP3    H117943   6.889   1.537   2.018
 5993TIP3    H217944   6.785   1.478   1.926
 5994TIP3   OH217945   1.297   0.614   2.319
 5994TIP3    H117946   1.370   0.554   2.333
 5994TIP3    H217947   1.300   0.634   2.225
 5995TIP3   OH217948   7.024   3.653   5.670
 5995TIP3    H117949   7.013   3.628   5.578
 5995TIP3    H217950   7.105   3.610   5.697
 5996TIP3   OH217951   1.578   0.913   1.901
 5996TIP3    H117952   1.561   0.822   1.878
 5996TIP3    H217953   1.512   0.934   1.967
 5997TIP3   OH217954   4.421   4.247   0.919
 5997TIP3    H117955   4.487   4.303   0.877
 5997TIP3    H217956   4.460   4.160   0.919
 5998TIP3   OH217957   6.610   6.211   2.004
 5998TIP3    H117958   6.697   6.227   1.967
 5998TIP3    H217959   6.550   6.237   1.934
 5999TIP3   OH217960   5.245   6.317   3.016
 5999TIP3    H117961   5.193   6.393   3.043
 5999TIP3    H217962   5.285   6.344   2.933
 6000TIP3   OH217963   0.115   4.038   5.694
 6000TIP3    H117964   0.106   4.060   5.787
 6000TIP3    H217965   0.028   4.005   5.669
 6001TIP3   OH217966   6.573   4.285   3.820
 6001TIP3    H117967   6.492   4.308   3.774
 6001TIP3    H217968   6.642   4.330   3.772
 6002TIP3   OH217969   1.224   5.945   1.254
 6002TIP3    H117970   1.281   5.868   1.248
 6002TIP3    H217971   1.222   5.981   1.165
 6003TIP3   OH217972   3.350   2.149   4.039
 6003TIP3    H117973   3.414   2.198   4.091
 6003TIP3    H217974   3.272   2.204   4.037
 6004TIP3   OH217975   2.166   2.066   2.800
 6004TIP3    H117976   2.246   2.030   2.837
 6004TIP3    H217977   2.178   2.161   2.805
 6005TIP3   OH217978   7.166   2.783   2.117
 6005TIP3    H117979   7.085   2.756   2.159
 6005TIP3    H217980   7.207   2.843   2.179
 6006TIP3   OH217981   6.828   3.878   3.183
 6006TIP3    H117982   6.824   3.847   3.274
 6006TIP3    H217983   6.816   3.973   3.190
 6007TIP3   OH217984   3.843   1.615   1.786
 6007TIP3    H117985   3.780   1.676   1.826
 6007TIP3    H217986   3.899   1.589   1.859
 6008TIP3   OH217987   5.726   3.704   5.520
 6008TIP3    H117988   5.798   3.758   5.552
 6008TIP3    H217989   5.768   3.636   5.467
 6009TIP3   OH217990   0.022   5.054   0.050
 6009TIP3    H117991   0.017   5.097   0.135
 6009TIP3    H217992   0.053   4.965   0.069
 6010TIP3   OH217993   2.247   1.999   1.055
 6010TIP3    H117994   2.193   1.933   1.099
 6010TIP3    H217995   2.247   1.972   0.963
 6011TIP3   OH217996   0.881   4.741   4.061
 6011TIP3    H117997   0.942   4.794   4.008
 6011TIP3    H217998   0.937   4.697   4.125
 6012TIP3   OH217999   5.961   1.953   0.133
 6012TIP3    H118000   6.015   1.911   0.199
 6012TIP3    H218001   5.977   2.047   0.144
 6013TIP3   OH218002   3.673   6.475   1.620
 6013TIP3    H118003   3.745   6.530   1.651
 6013TIP3    H218004   3.643   6.518   1.540
 6014TIP3   OH218005   0.832   1.929   4.818
 6014TIP3    H118006   0.743   1.895   4.826
 6014TIP3    H218007   0.846   1.939   4.724
 6015TIP3   OH218008   3.135   3.630   5.533
 6015TIP3    H118009   3.183   3.636   5.451
 6015TIP3    H218010   3.137   3.719   5.569
 6016TIP3   OH218011   6.800   2.937   0.410
 6016TIP3    H118012   6.847   2.965   0.331
 6016TIP3    H218013   6.776   2.846   0.393
 6017TIP3   OH218014   6.079   4.152   4.088
 6017TIP3    H118015   6.096   4.093   4.161
 6017TIP3    H218016   6.011   4.109   4.037
 6018TIP3   OH218017   0.166   5.946   4.217
 6018TIP3    H118018   0.119   5.869   4.186
 6018TIP3    H218019   0.257   5.918   4.225
 6019TIP3   OH218020   3.019   6.743   0.340
 6019TIP3    H118021   2.944   6.693   0.372
 6019TIP3    H218022   3.053   6.691   0.268
 6020TIP3   OH218023   6.475   3.403   5.168
 6020TIP3    H118024   6.424   3.478   5.137
 6020TIP3    H218025   6.550   3.400   5.110
 6021TIP3   OH218026   4.259   0.476   4.934
 6021TIP3    H118027   4.249   0.389   4.895
 6021TIP3    H218028   4.304   0.461   5.017
 6022TIP3   OH218029   4.585   2.626   2.466
 6022TIP3    H118030   4.546   2.540   2.454
 6022TIP3    H218031   4.548   2.657   2.549
 6023TIP3   OH218032   1.838   1.082   1.390
 6023TIP3    H118033   1.903   1.121   1.332
 6023TIP3    H218034   1.767   1.147   1.393
 6024TIP3   OH218035   3.091   0.316   2.017
 6024TIP3    H118036   3.147   0.260   2.071
 6024TIP3    H218037   3.145   0.337   1.940
 6025TIP3   OH218038   4.966   2.060   0.486
 6025TIP3    H118039   4.884   2.014   0.467
 6025TIP3    H218040   4.997   2.091   0.401
 6026TIP3   OH218041   6.700   4.717   0.311
 6026TIP3    H118042   6.738   4.795   0.351
 6026TIP3    H218043   6.606   4.736   0.307
 6027TIP3   OH218044   4.655   3.227   4.434
 6027TIP3    H118045   4.744   3.259   4.425
 6027TIP3    H218046   4.662   3.132   4.425
 6028TIP3   OH218047   3.205   2.181   4.750
 6028TIP3    H118048   3.229   2.233   4.673
 6028TIP3    H218049   3.158   2.105   4.713
 6029TIP3   OH218050   0.732   1.752   4.091
 6029TIP3    H118051   0.667   1.823   4.092
 6029TIP3    H218052   0.761   1.745   4.182
 6030TIP3   OH218053   3.640   1.029   1.663
 6030TIP3    H118054   3.728   1.042   1.697
 6030TIP3    H218055   3.582   1.043   1.738
 6031TIP3   OH218056   3.877   2.491   4.387
 6031TIP3    H118057   3.805   2.539   4.346
 6031TIP3    H218058   3.853   2.399   4.376
 6032TIP3   OH218059   5.691   1.949   0.499
 6032TIP3    H118060   5.693   1.876   0.562
 6032TIP3    H218061   5.777   1.991   0.510
 6033TIP3   OH218062   6.125   4.434   2.680
 6033TIP3    H118063   6.164   4.417   2.766
 6033TIP3    H218064   6.083   4.519   2.689
 6034TIP3   OH218065   5.411   0.953   1.428
 6034TIP3    H118066   5.348   0.993   1.368
 6034TIP3    H218067   5.397   0.999   1.511
 6035TIP3   OH218068   5.836   5.621   1.693
 6035TIP3    H118069   5.811   5.652   1.780
 6035TIP3    H218070   5.920   5.578   1.706
 6036TIP3   OH218071   0.543   5.254   4.804
 6036TIP3    H118072   0.453   5.227   4.789
 6036TIP3    H218073   0.541   5.350   4.797
 6037TIP3   OH218074   2.998   0.536   5.095
 6037TIP3    H118075   2.966   0.528   5.005
 6037TIP3    H218076   2.919   0.539   5.149
 6038TIP3   OH218077   4.029   0.317   0.589
 6038TIP3    H118078   4.118   0.339   0.617
 6038TIP3    H218079   4.021   0.223   0.603
 6039TIP3   OH218080   4.905   1.033   0.085
 6039TIP3    H118081   4.910   1.049  -0.009
 6039TIP3    H218082   4.997   1.030   0.114
 6040TIP3   OH218083   1.174   5.138   1.476
 6040TIP3    H118084   1.174   5.055   1.430
 6040TIP3    H218085   1.205   5.117   1.564
 6041TIP3   OH218086   0.524   3.671   4.394
 6041TIP3    H118087   0.486   3.656   4.307
 6041TIP3    H218088   0.454   3.649   4.455
 6042TIP3   OH218089   6.788   4.935   4.465
 6042TIP3    H118090   6.882   4.932   4.481
 6042TIP3    H218091   6.779   4.978   4.380
 6043TIP3   OH218092   6.688   5.566   5.396
 6043TIP3    H118093   6.761   5.522   5.352
 6043TIP3    H218094   6.654   5.501   5.457
 6044TIP3   OH218095   4.400   0.803   1.006
 6044TIP3    H118096   4.440   0.890   1.016
 6044TIP3    H218097   4.421   0.778   0.916
 6045TIP3   OH218098   6.861   1.560   4.130
 6045TIP3    H118099   6.807   1.638   4.142
 6045TIP3    H218100   6.935   1.572   4.189
 6046TIP3   OH218101   5.070   1.585   1.629
 6046TIP3    H118102   5.125   1.573   1.706
 6046TIP3    H218103   5.084   1.676   1.603
 6047TIP3   OH218104   3.507   4.495   0.244
 6047TIP3    H118105   3.446   4.567   0.227
 6047TIP3    H218106   3.532   4.506   0.335
 6048TIP3   OH218107   2.010   3.437   5.021
 6048TIP3    H118108   1.959   3.461   4.943
 6048TIP3    H218109   2.064   3.363   4.992
 6049TIP3   OH218110   2.031   4.393   1.887
 6049TIP3    H118111   2.044   4.339   1.809
 6049TIP3    H218112   2.092   4.466   1.875
 6050TIP3   OH218113   2.342   5.075   0.714
 6050TIP3    H118114   2.353   5.102   0.623
 6050TIP3    H218115   2.415   5.015   0.731
 6051TIP3   OH218116   2.472   0.304   1.631
 6051TIP3    H118117   2.401   0.321   1.693
 6051TIP3    H218118   2.548   0.346   1.670
 6052TIP3   OH218119   0.841   2.097   0.481
 6052TIP3    H118120   0.787   2.051   0.545
 6052TIP3    H218121   0.866   2.179   0.524
 6053TIP3   OH218122   6.310   6.214   3.595
 6053TIP3    H118123   6.398   6.250   3.584
 6053TIP3    H218124   6.286   6.237   3.685
 6054TIP3   OH218125   6.466   1.671   0.686
 6054TIP3    H118126   6.416   1.682   0.605
 6054TIP3    H218127   6.555   1.700   0.664
 6055TIP3   OH218128   4.600   1.579   1.159
 6055TIP3    H118129   4.631   1.662   1.194
 6055TIP3    H218130   4.675   1.521   1.163
 6056TIP3   OH218131   1.460   4.481   1.689
 6056TIP3    H118132   1.530   4.418   1.706
 6056TIP3    H218133   1.504   4.566   1.688
 6057TIP3   OH218134   1.975   2.665   2.863
 6057TIP3    H118135   2.070   2.667   2.865
 6057TIP3    H218136   1.949   2.756   2.850
 6058TIP3   OH218137   7.051   5.481   4.811
 6058TIP3    H118138   6.998   5.405   4.835
 6058TIP3    H218139   7.116   5.488   4.881
 6059TIP3   OH218140   3.935   2.237   5.088
 6059TIP3    H118141   3.991   2.224   5.164
 6059TIP3    H218142   3.855   2.189   5.108
 6060TIP3   OH218143   4.955   2.349   3.710
 6060TIP3    H118144   5.025   2.336   3.645
 6060TIP3    H218145   4.882   2.383   3.659
 6061TIP3   OH218146   4.088   0.767   1.304
 6061TIP3    H118147   4.067   0.721   1.386
 6061TIP3    H218148   4.182   0.753   1.293
 6062TIP3   OH218149   4.006   3.905   5.403
 6062TIP3    H118150   4.086   3.939   5.361
 6062TIP3    H218151   4.012   3.935   5.493
 6063TIP3   OH218152   7.102   5.914   0.715
 6063TIP3    H118153   7.166   5.900   0.784
 6063TIP3    H218154   7.151   5.955   0.644
 6064TIP3   OH218155   3.606   2.870   1.663
 6064TIP3    H118156   3.664   2.905   1.595
 6064TIP3    H218157   3.658   2.877   1.744
 6065TIP3   OH218158   4.213   1.859   1.044
 6065TIP3    H118159   4.181   1.876   0.955
 6065TIP3    H218160   4.239   1.945   1.076
 6066TIP3   OH218161   3.515   3.476   1.836
 6066TIP3    H118162   3.504   3.555   1.784
 6066TIP3    H218163   3.597   3.438   1.805
 6067TIP3   OH218164   2.475   0.229   0.595
 6067TIP3    H118165   2.458   0.226   0.689
 6067TIP3    H218166   2.524   0.148   0.578
 6068TIP3   OH218167   1.282   6.640   1.498
 6068TIP3    H118168   1.233   6.683   1.568
 6068TIP3    H218169   1.342   6.581   1.544
 6069TIP3   OH218170   5.246   2.138   1.906
 6069TIP3    H118171   5.277   2.179   1.987
 6069TIP3    H218172   5.154   2.164   1.901
 6070TIP3   OH218173   1.410   5.442   0.552
 6070TIP3    H118174   1.370   5.358   0.531
 6070TIP3    H218175   1.470   5.422   0.624
 6071TIP3   OH218176   3.140  -0.005   0.573
 6071TIP3    H118177   3.170   0.056   0.506
 6071TIP3    H218178   3.182   0.024   0.653
 6072TIP3   OH218179   3.465   6.578   3.743
 6072TIP3    H118180   3.432   6.598   3.831
 6072TIP3    H218181   3.548   6.626   3.738
 6073TIP3   OH218182   1.479   6.058   1.670
 6073TIP3    H118183   1.433   6.130   1.627
 6073TIP3    H218184   1.562   6.096   1.699
 6074TIP3   OH218185   2.984   2.051   0.231
 6074TIP3    H118186   2.918   2.109   0.270
 6074TIP3    H218187   3.053   2.110   0.202
 6075TIP3   OH218188   1.397   6.577   2.004
 6075TIP3    H118189   1.360   6.654   2.046
 6075TIP3    H218190   1.332   6.551   1.938
 6076TIP3   OH218191   4.823   5.432   0.353
 6076TIP3    H118192   4.825   5.353   0.300
 6076TIP3    H218193   4.886   5.491   0.311
 6077TIP3   OH218194   1.848   5.686   3.793
 6077TIP3    H118195   1.793   5.669   3.869
 6077TIP3    H218196   1.842   5.781   3.780
 6078TIP3   OH218197   5.263   4.465   0.497
 6078TIP3    H118198   5.344   4.512   0.516
 6078TIP3    H218199   5.256   4.399   0.566
 6079TIP3   OH218200   1.055   3.334   0.631
 6079TIP3    H118201   1.130   3.309   0.578
 6079TIP3    H218202   1.062   3.429   0.640
 6080TIP3   OH218203   6.747   2.145   2.845
 6080TIP3    H118204   6.756   2.207   2.773
 6080TIP3    H218205   6.657   2.157   2.876
 6081TIP3   OH218206   5.769   6.468   5.579
 6081TIP3    H118207   5.682   6.484   5.542
 6081TIP3    H218208   5.825   6.533   5.537
 6082TIP3   OH218209   4.431   6.027   0.295
 6082TIP3    H118210   4.356   6.016   0.354
 6082TIP3    H218211   4.490   6.087   0.342
 6083TIP3   OH218212   0.485   4.390   5.773
 6083TIP3    H118213   0.459   4.469   5.820
 6083TIP3    H218214   0.424   4.323   5.804
 6084TIP3   OH218215   6.642   3.881   4.398
 6084TIP3    H118216   6.707   3.934   4.351
 6084TIP3    H218217   6.655   3.792   4.364
 6085TIP3   OH218218   4.040   3.537   4.660
 6085TIP3    H118219   4.110   3.503   4.604
 6085TIP3    H218220   4.057   3.498   4.745
 6086TIP3   OH218221   1.837   6.008   2.228
 6086TIP3    H118222   1.856   6.101   2.217
 6086TIP3    H218223   1.879   5.984   2.310
 6087TIP3   OH218224   5.943   6.621   0.754
 6087TIP3    H118225   5.951   6.712   0.728
 6087TIP3    H218226   5.865   6.589   0.708
 6088TIP3   OH218227   5.324   5.997   2.282
 6088TIP3    H118228   5.275   5.968   2.359
 6088TIP3    H218229   5.306   6.090   2.275
 6089TIP3   OH218230   0.283   1.187   0.493
 6089TIP3    H118231   0.295   1.092   0.493
 6089TIP3    H218232   0.262   1.208   0.585
 6090TIP3   OH218233   7.120   6.525   3.238
 6090TIP3    H118234   7.181   6.578   3.291
 6090TIP3    H218235   7.160   6.521   3.152
 6091TIP3   OH218236   0.651   4.985   0.387
 6091TIP3    H118237   0.708   4.911   0.369
 6091TIP3    H218238   0.568   4.964   0.343
 6092TIP3   OH218239   4.935   1.548   1.377
 6092TIP3    H118240   4.967   1.550   1.467
 6092TIP3    H218241   4.951   1.636   1.344
 6093TIP3   OH218242   1.060   2.475   4.745
 6093TIP3    H118243   0.993   2.541   4.726
 6093TIP3    H218244   1.047   2.408   4.677
 6094TIP3   OH218245   2.615   3.972   3.084
 6094TIP3    H118246   2.694   3.920   3.096
 6094TIP3    H218247   2.576   3.976   3.172
 6095TIP3   OH218248   5.976   0.925   0.030
 6095TIP3    H118249   6.043   0.863   0.000
 6095TIP3    H218250   5.986   0.927   0.125
 6096TIP3   OH218251   2.159   4.842   5.227
 6096TIP3    H118252   2.130   4.768   5.175
 6096TIP3    H218253   2.130   4.822   5.316
 6097TIP3   OH218254   0.788   6.061   4.762
 6097TIP3    H118255   0.758   5.993   4.824
 6097TIP3    H218256   0.773   6.143   4.809
 6098TIP3   OH218257   3.259   5.812   3.404
 6098TIP3    H118258   3.272   5.907   3.403
 6098TIP3    H218259   3.273   5.787   3.495
 6099TIP3   OH218260   3.917   2.435   2.039
 6099TIP3    H118261   3.845   2.467   2.093
 6099TIP3    H218262   3.951   2.359   2.086
 6100TIP3   OH218263   2.947   4.080   3.064
 6100TIP3    H118264   2.894   4.078   2.985
 6100TIP3    H218265   3.006   4.004   3.056
 6101TIP3   OH218266   3.461   2.693   5.088
 6101TIP3    H118267   3.382   2.747   5.093
 6101TIP3    H218268   3.531   2.752   5.116
 6102TIP3   OH218269   6.913   4.182   4.477
 6102TIP3    H118270   6.975   4.112   4.498
 6102TIP3    H218271   6.838   4.165   4.534
 6103TIP3   OH218272   3.594   4.623   4.096
 6103TIP3    H118273   3.585   4.528   4.111
 6103TIP3    H218274   3.568   4.635   4.005
 6104TIP3   OH218275   6.430   1.741   1.390
 6104TIP3    H118276   6.497   1.681   1.423
 6104TIP3    H218277   6.347   1.693   1.400
 6105TIP3   OH218278   3.454   2.191   1.434
 6105TIP3    H118279   3.484   2.100   1.435
 6105TIP3    H218280   3.531   2.242   1.457
 6106TIP3   OH218281   6.872   6.284   1.945
 6106TIP3    H118282   6.888   6.285   2.040
 6106TIP3    H218283   6.929   6.215   1.911
 6107TIP3   OH218284   5.430   5.898   4.310
 6107TIP3    H118285   5.369   5.957   4.266
 6107TIP3    H218286   5.504   5.953   4.334
 6108TIP3   OH218287   2.482   0.485   1.383
 6108TIP3    H118288   2.551   0.440   1.334
 6108TIP3    H218289   2.464   0.427   1.457
 6109TIP3   OH218290   5.956   5.434   3.057
 6109TIP3    H118291   6.044   5.457   3.028
 6109TIP3    H218292   5.966   5.415   3.150
 6110TIP3   OH218293   5.453   1.387   4.085
 6110TIP3    H118294   5.451   1.324   4.013
 6110TIP3    H218295   5.427   1.470   4.045
 6111TIP3   OH218296   1.208   4.917   0.702
 6111TIP3    H118297   1.285   4.974   0.711
 6111TIP3    H218298   1.135   4.976   0.690
 6112TIP3   OH218299   2.337   5.703   2.772
 6112TIP3    H118300   2.393   5.739   2.704
 6112TIP3    H218301   2.397   5.654   2.829
 6113TIP3   OH218302   2.167   1.858   5.659
 6113TIP3    H118303   2.235   1.906   5.706
 6113TIP3    H218304   2.102   1.835   5.726
 6114TIP3   OH218305   3.462   4.707   3.830
 6114TIP3    H118306   3.488   4.678   3.742
 6114TIP3    H218307   3.411   4.786   3.815
 6115TIP3   OH218308   2.992   5.285   1.086
 6115TIP3    H118309   2.923   5.231   1.049
 6115TIP3    H218310   3.033   5.230   1.153
 6116TIP3   OH218311   5.429   6.738   4.092
 6116TIP3    H118312   5.460   6.675   4.157
 6116TIP3    H218313   5.335   6.721   4.085
 6117TIP3   OH218314   6.011   3.902   3.392
 6117TIP3    H118315   5.975   3.907   3.303
 6117TIP3    H218316   5.953   3.958   3.444
 6118TIP3   OH218317   6.052   5.047   0.309
 6118TIP3    H118318   6.057   5.115   0.242
 6118TIP3    H218319   6.079   5.091   0.390
 6119TIP3   OH218320   1.589   5.438   1.233
 6119TIP3    H118321   1.521   5.440   1.300
 6119TIP3    H218322   1.594   5.529   1.202
 6120TIP3   OH218323   2.481   0.205   1.233
 6120TIP3    H118324   2.387   0.208   1.215
 6120TIP3    H218325   2.522   0.231   1.150
 6121TIP3   OH218326   4.292   3.689   2.254
 6121TIP3    H118327   4.262   3.600   2.235
 6121TIP3    H218328   4.346   3.713   2.178
 6122TIP3   OH218329   2.639   0.262   2.941
 6122TIP3    H118330   2.611   0.305   2.860
 6122TIP3    H218331   2.568   0.202   2.962
 6123TIP3   OH218332   4.332   2.785   5.220
 6123TIP3    H118333   4.248   2.746   5.243
 6123TIP3    H218334   4.323   2.805   5.126
 6124TIP3   OH218335   5.417   3.799   0.174
 6124TIP3    H118336   5.507   3.815   0.204
 6124TIP3    H218337   5.389   3.882   0.137
 6125TIP3   OH218338   0.562   2.449   0.933
 6125TIP3    H118339   0.644   2.486   0.965
 6125TIP3    H218340   0.506   2.526   0.918
 6126TIP3   OH218341   5.974   1.270   1.401
 6126TIP3    H118342   5.911   1.200   1.383
 6126TIP3    H218343   5.920   1.349   1.406
 6127TIP3   OH218344   1.287   0.280   4.687
 6127TIP3    H118345   1.197   0.249   4.697
 6127TIP3    H218346   1.325   0.272   4.774
 6128TIP3   OH218347   3.280   3.267   2.985
 6128TIP3    H118348   3.306   3.183   2.946
 6128TIP3    H218349   3.296   3.256   3.079
 6129TIP3   OH218350   1.274   0.319   3.195
 6129TIP3    H118351   1.276   0.403   3.240
 6129TIP3    H218352   1.337   0.265   3.242
 6130TIP3   OH218353   3.220   0.199   4.752
 6130TIP3    H118354   3.240   0.148   4.831
 6130TIP3    H218355   3.275   0.159   4.684
 6131TIP3   OH218356   4.349   1.165   3.920
 6131TIP3    H118357   4.436   1.205   3.916
 6131TIP3    H218358   4.308   1.204   3.998
 6132TIP3   OH218359   0.589   0.127   4.700
 6132TIP3    H118360   0.661   0.096   4.755
 6132TIP3    H218361   0.511   0.083   4.736
 6133TIP3   OH218362   0.629   6.033   0.825
 6133TIP3    H118363   0.618   6.123   0.793
 6133TIP3    H218364   0.712   6.004   0.786
 6134TIP3   OH218365   2.834   0.228   1.959
 6134TIP3    H118366   2.789   0.260   2.037
 6134TIP3    H218367   2.927   0.247   1.974
 6135TIP3   OH218368   3.669   5.363   5.568
 6135TIP3    H118369   3.645   5.455   5.558
 6135TIP3    H218370   3.635   5.338   5.654
 6136TIP3   OH218371   5.580   5.072   3.739
 6136TIP3    H118372   5.526   5.106   3.810
 6136TIP3    H218373   5.524   5.076   3.662
 6137TIP3   OH218374   6.377   5.273   2.687
 6137TIP3    H118375   6.365   5.279   2.593
 6137TIP3    H218376   6.334   5.351   2.722
 6138TIP3   OH218377   7.029   2.849   1.872
 6138TIP3    H118378   7.079   2.815   1.946
 6138TIP3    H218379   6.939   2.857   1.905
 6139TIP3   OH218380   4.190   1.717   3.488
 6139TIP3    H118381   4.106   1.761   3.499
 6139TIP3    H218382   4.185   1.641   3.546
 6140TIP3   OH218383   6.343   0.900   1.616
 6140TIP3    H118384   6.351   0.877   1.709
 6140TIP3    H218385   6.280   0.837   1.581
 6141TIP3   OH218386   3.201   5.577   0.797
 6141TIP3    H118387   3.125   5.520   0.795
 6141TIP3    H218388   3.168   5.661   0.765
 6142TIP3   OH218389   3.007   3.076   3.216
 6142TIP3    H118390   2.982   3.165   3.242
 6142TIP3    H218391   3.102   3.079   3.207
 6143TIP3   OH218392   0.928   3.132   5.349
 6143TIP3    H118393   0.891   3.148   5.262
 6143TIP3    H218394   0.853   3.137   5.408
 6144TIP3   OH218395   0.376   5.687   2.424
 6144TIP3    H118396   0.345   5.597   2.420
 6144TIP3    H218397   0.298   5.739   2.446
 6145TIP3   OH218398   0.722   5.314   0.505
 6145TIP3    H118399   0.731   5.265   0.423
 6145TIP3    H218400   0.778   5.267   0.567
 6146TIP3   OH218401   5.277   0.752   4.907
 6146TIP3    H118402   5.357   0.782   4.864
 6146TIP3    H218403   5.276   0.799   4.991
 6147TIP3   OH218404   0.860   2.279   4.500
 6147TIP3    H118405   0.902   2.276   4.586
 6147TIP3    H218406   0.881   2.366   4.466
 6148TIP3   OH218407   5.409   4.691   3.191
 6148TIP3    H118408   5.334   4.710   3.248
 6148TIP3    H218409   5.484   4.733   3.235
 6149TIP3   OH218410   1.397   2.715   4.367
 6149TIP3    H118411   1.465   2.649   4.376
 6149TIP3    H218412   1.329   2.688   4.429
 6150TIP3   OH218413   3.410   6.454   2.674
 6150TIP3    H118414   3.448   6.488   2.755
 6150TIP3    H218415   3.355   6.381   2.703
 6151TIP3   OH218416   7.056   4.997   4.506
 6151TIP3    H118417   7.138   4.947   4.503
 6151TIP3    H218418   7.080   5.085   4.478
 6152TIP3   OH218419   6.619   3.357   2.328
 6152TIP3    H118420   6.572   3.427   2.282
 6152TIP3    H218421   6.647   3.298   2.258
 6153TIP3   OH218422   6.717   0.796   4.986
 6153TIP3    H118423   6.796   0.788   5.040
 6153TIP3    H218424   6.750   0.801   4.896
 6154TIP3   OH218425   1.440   2.669   2.054
 6154TIP3    H118426   1.490   2.613   1.994
 6154TIP3    H218427   1.430   2.752   2.007
 6155TIP3   OH218428   3.352   6.073   3.747
 6155TIP3    H118429   3.316   5.998   3.795
 6155TIP3    H218430   3.446   6.070   3.766
 6156TIP3   OH218431   3.037   2.500   0.150
 6156TIP3    H118432   3.020   2.555   0.073
 6156TIP3    H218433   3.129   2.517   0.172
 6157TIP3   OH218434   4.877   3.844   1.957
 6157TIP3    H118435   4.801   3.878   1.908
 6157TIP3    H218436   4.853   3.857   2.049
 6158TIP3   OH218437   0.878   4.788   1.417
 6158TIP3    H118438   0.873   4.706   1.366
 6158TIP3    H218439   0.882   4.759   1.508
 6159TIP3   OH218440   2.137   1.507   0.156
 6159TIP3    H118441   2.063   1.560   0.185
 6159TIP3    H218442   2.154   1.448   0.229
 6160TIP3   OH218443   4.596   2.124   0.414
 6160TIP3    H118444   4.638   2.100   0.496
 6160TIP3    H218445   4.508   2.152   0.439
 6161TIP3   OH218446   0.126   6.229   3.364
 6161TIP3    H118447   0.131   6.320   3.392
 6161TIP3    H218448   0.078   6.185   3.433
 6162TIP3   OH218449   4.674   0.455   5.840
 6162TIP3    H118450   4.666   0.522   5.908
 6162TIP3    H218451   4.677   0.372   5.888
 6163TIP3   OH218452   4.584   4.188   5.638
 6163TIP3    H118453   4.515   4.125   5.657
 6163TIP3    H218454   4.551   4.271   5.670
 6164TIP3   OH218455   6.235   1.662   2.137
 6164TIP3    H118456   6.309   1.654   2.198
 6164TIP3    H218457   6.170   1.600   2.170
 6165TIP3   OH218458   3.267   2.070   5.646
 6165TIP3    H118459   3.237   2.081   5.556
 6165TIP3    H218460   3.232   2.146   5.693
 6166TIP3   OH218461   6.262   2.834   4.835
 6166TIP3    H118462   6.228   2.783   4.762
 6166TIP3    H218463   6.186   2.855   4.888
 6167TIP3   OH218464   3.357   3.642   3.117
 6167TIP3    H118465   3.422   3.690   3.066
 6167TIP3    H218466   3.381   3.659   3.208
 6168TIP3   OH218467   2.404   4.743   5.091
 6168TIP3    H118468   2.331   4.697   5.133
 6168TIP3    H218469   2.469   4.674   5.075
 6169TIP3   OH218470   0.880   1.289   2.840
 6169TIP3    H118471   0.872   1.219   2.904
 6169TIP3    H218472   0.974   1.292   2.820
 6170TIP3   OH218473   6.907   4.982   5.613
 6170TIP3    H118474   6.958   5.027   5.545
 6170TIP3    H218475   6.833   5.040   5.631
 6171TIP3   OH218476   5.935   5.699   2.282
 6171TIP3    H118477   6.004   5.634   2.294
 6171TIP3    H218478   5.854   5.648   2.284
 6172TIP3   OH218479   0.082   3.098   5.392
 6172TIP3    H118480   0.142   3.084   5.319
 6172TIP3    H218481  -0.005   3.105   5.352
 6173TIP3   OH218482   3.291   5.874   4.799
 6173TIP3    H118483   3.363   5.924   4.836
 6173TIP3    H218484   3.316   5.859   4.708
 6174TIP3   OH218485   7.039   0.126   1.534
 6174TIP3    H118486   7.026   0.202   1.477
 6174TIP3    H218487   6.952   0.087   1.543
 6175TIP3   OH218488   1.898   6.281   2.148
 6175TIP3    H118489   1.934   6.334   2.077
 6175TIP3    H218490   1.847   6.342   2.201
 6176TIP3   OH218491   1.697   6.583   4.730
 6176TIP3    H118492   1.750   6.621   4.800
 6176TIP3    H218493   1.756   6.576   4.656
 6177TIP3   OH218494   4.835   2.409   2.052
 6177TIP3    H118495   4.764   2.378   2.108
 6177TIP3    H218496   4.915   2.383   2.098
 6178TIP3   OH218497   3.826   4.251   4.674
 6178TIP3    H118498   3.745   4.302   4.670
 6178TIP3    H218499   3.879   4.285   4.602
 6179TIP3   OH218500   6.179   0.864   2.228
 6179TIP3    H118501   6.109   0.851   2.164
 6179TIP3    H218502   6.239   0.792   2.212
 6180TIP3   OH218503   6.445   0.762   4.868
 6180TIP3    H118504   6.435   0.856   4.885
 6180TIP3    H218505   6.532   0.741   4.900
 6181TIP3   OH218506   5.192   6.693   4.386
 6181TIP3    H118507   5.202   6.676   4.293
 6181TIP3    H218508   5.121   6.636   4.414
 6182TIP3   OH218509   3.743   5.265   1.289
 6182TIP3    H118510   3.786   5.270   1.374
 6182TIP3    H218511   3.674   5.332   1.293
 6183TIP3   OH218512   4.135   6.569   5.623
 6183TIP3    H118513   4.166   6.478   5.617
 6183TIP3    H218514   4.046   6.561   5.658
 6184TIP3   OH218515   1.153   3.750   5.472
 6184TIP3    H118516   1.097   3.679   5.502
 6184TIP3    H218517   1.095   3.826   5.469
 6185TIP3   OH218518   2.245   1.056   2.254
 6185TIP3    H118519   2.183   1.021   2.318
 6185TIP3    H218520   2.323   1.001   2.264
 6186TIP3   OH218521   0.904   2.211   4.768
 6186TIP3    H118522   0.910   2.125   4.811
 6186TIP3    H218523   0.864   2.268   4.834
 6187TIP3   OH218524   3.389   2.160   2.619
 6187TIP3    H118525   3.474   2.202   2.627
 6187TIP3    H218526   3.338   2.194   2.692
 6188TIP3   OH218527   6.182   5.610   2.989
 6188TIP3    H118528   6.168   5.596   2.895
 6188TIP3    H218529   6.232   5.691   2.995
 6189TIP3   OH218530   3.170   4.570   5.105
 6189TIP3    H118531   3.215   4.553   5.187
 6189TIP3    H218532   3.169   4.485   5.060
 6190TIP3   OH218533   0.009   0.296   4.920
 6190TIP3    H118534  -0.025   0.386   4.920
 6190TIP3    H218535   0.102   0.306   4.939
 6191TIP3   OH218536   1.575   2.223   2.367
 6191TIP3    H118537   1.580   2.311   2.331
 6191TIP3    H218538   1.482   2.202   2.367
 6192TIP3   OH218539   7.087   2.524   1.812
 6192TIP3    H118540   7.034   2.595   1.776
 6192TIP3    H218541   7.173   2.536   1.773
 6193TIP3   OH218542   7.034   4.072   2.666
 6193TIP3    H118543   6.998   3.984   2.680
 6193TIP3    H218544   7.122   4.057   2.633
 6194TIP3   OH218545   3.104   1.470   5.176
 6194TIP3    H118546   3.142   1.449   5.261
 6194TIP3    H218547   3.009   1.468   5.191
 6195TIP3   OH218548   1.599   4.300   4.639
 6195TIP3    H118549   1.647   4.223   4.669
 6195TIP3    H218550   1.510   4.289   4.674
 6196TIP3   OH218551   3.129   1.209   3.002
 6196TIP3    H118552   3.155   1.292   2.964
 6196TIP3    H218553   3.060   1.177   2.943
 6197TIP3   OH218554   2.950   0.271   4.785
 6197TIP3    H118555   3.042   0.245   4.777
 6197TIP3    H218556   2.913   0.254   4.698
 6198TIP3   OH218557   5.062   4.243   2.443
 6198TIP3    H118558   5.024   4.306   2.503
 6198TIP3    H218559   5.086   4.295   2.366
 6199TIP3   OH218560   7.077   3.138   1.565
 6199TIP3    H118561   7.071   3.186   1.647
 6199TIP3    H218562   7.102   3.204   1.500
 6200TIP3   OH218563   1.300   5.037   0.396
 6200TIP3    H118564   1.213   5.000   0.380
 6200TIP3    H218565   1.284   5.124   0.432
 6201TIP3   OH218566   1.854   0.127   5.264
 6201TIP3    H118567   1.854   0.151   5.172
 6201TIP3    H218568   1.931   0.071   5.274
 6202TIP3   OH218569   0.044   5.175   1.768
 6202TIP3    H118570  -0.001   5.209   1.691
 6202TIP3    H218571   0.065   5.084   1.745
 6203TIP3   OH218572   5.695   6.110   2.509
 6203TIP3    H118573   5.739   6.136   2.428
 6203TIP3    H218574   5.616   6.164   2.513
 6204TIP3   OH218575   6.346   4.714   2.874
 6204TIP3    H118576   6.427   4.765   2.877
 6204TIP3    H218577   6.326   4.707   2.781
 6205TIP3   OH218578   4.397   6.003   4.643
 6205TIP3    H118579   4.440   6.032   4.723
 6205TIP3    H218580   4.423   6.067   4.577
 6206TIP3   OH218581   5.156   3.966   2.267
 6206TIP3    H118582   5.179   4.052   2.231
 6206TIP3    H218583   5.078   3.983   2.321
 6207TIP3   OH218584   3.262   5.668   0.392
 6207TIP3    H118585   3.292   5.756   0.416
 6207TIP3    H218586   3.166   5.675   0.392
 6208TIP3   OH218587   6.631   4.102   3.471
 6208TIP3    H118588   6.683   4.159   3.414
 6208TIP3    H218589   6.546   4.144   3.475
 6209TIP3   OH218590   0.316   5.351   2.430
 6209TIP3    H118591   0.389   5.316   2.379
 6209TIP3    H218592   0.342   5.340   2.521
 6210TIP3   OH218593   6.971   4.716   2.042
 6210TIP3    H118594   6.979   4.721   1.947
 6210TIP3    H218595   6.929   4.798   2.067
 6211TIP3   OH218596   4.556   6.429   3.620
 6211TIP3    H118597   4.629   6.378   3.584
 6211TIP3    H218598   4.590   6.519   3.624
 6212TIP3   OH218599   5.398   3.366   4.375
 6212TIP3    H118600   5.385   3.349   4.469
 6212TIP3    H218601   5.394   3.461   4.367
 6213TIP3   OH218602   5.024   1.486   5.056
 6213TIP3    H118603   5.090   1.421   5.081
 6213TIP3    H218604   5.059   1.525   4.976
 6214TIP3   OH218605   5.452   6.330   4.082
 6214TIP3    H118606   5.539   6.311   4.117
 6214TIP3    H218607   5.392   6.298   4.150
 6215TIP3   OH218608   0.177   3.212   4.700
 6215TIP3    H118609   0.127   3.287   4.669
 6215TIP3    H218610   0.126   3.178   4.774
 6216TIP3   OH218611   2.692   2.095   4.902
 6216TIP3    H118612   2.715   2.138   4.820
 6216TIP3    H218613   2.616   2.041   4.881
 6217TIP3   OH218614   1.033   5.602   3.740
 6217TIP3    H118615   0.949   5.641   3.717
 6217TIP3    H218616   1.083   5.603   3.658
 6218TIP3   OH218617   0.874   2.155   1.277
 6218TIP3    H118618   0.895   2.193   1.362
 6218TIP3    H218619   0.851   2.064   1.298
 6219TIP3   OH218620   4.358   6.250   1.049
 6219TIP3    H118621   4.418   6.304   0.999
 6219TIP3    H218622   4.292   6.222   0.985
 6220TIP3   OH218623   4.961   4.836   2.244
 6220TIP3    H118624   4.882   4.837   2.190
 6220TIP3    H218625   4.952   4.758   2.298
 6221TIP3   OH218626   2.650   2.686   4.625
 6221TIP3    H118627   2.724   2.722   4.575
 6221TIP3    H218628   2.577   2.743   4.603
 6222TIP3   OH218629   4.390   3.047   5.302
 6222TIP3    H118630   4.378   2.961   5.263
 6222TIP3    H218631   4.301   3.079   5.320
 6223TIP3   OH218632   5.493   1.590   5.343
 6223TIP3    H118633   5.536   1.510   5.315
 6223TIP3    H218634   5.525   1.658   5.284
 6224TIP3   OH218635   6.622   6.776   5.626
 6224TIP3    H118636   6.626   6.693   5.673
 6224TIP3    H218637   6.555   6.827   5.671
 6225TIP3   OH218638   2.545   6.699   5.177
 6225TIP3    H118639   2.609   6.638   5.215
 6225TIP3    H218640   2.592   6.782   5.173
 6226TIP3   OH218641   1.574   1.600   2.190
 6226TIP3    H118642   1.586   1.680   2.240
 6226TIP3    H218643   1.481   1.578   2.202
 6227TIP3   OH218644   0.018   0.751   5.483
 6227TIP3    H118645  -0.005   0.844   5.473
 6227TIP3    H218646  -0.050   0.704   5.434
 6228TIP3   OH218647   0.571   3.367   0.234
 6228TIP3    H118648   0.532   3.280   0.228
 6228TIP3    H218649   0.569   3.388   0.328
 6229TIP3   OH218650   4.732   4.987   1.193
 6229TIP3    H118651   4.750   5.024   1.106
 6229TIP3    H218652   4.817   4.954   1.223
 6230TIP3   OH218653   4.244   1.557   5.039
 6230TIP3    H118654   4.214   1.645   5.018
 6230TIP3    H218655   4.188   1.498   4.988
 6231TIP3   OH218656   4.328   3.751   4.455
 6231TIP3    H118657   4.422   3.755   4.443
 6231TIP3    H218658   4.307   3.658   4.459
 6232TIP3   OH218659   4.242   4.578   5.404
 6232TIP3    H118660   4.291   4.513   5.456
 6232TIP3    H218661   4.310   4.635   5.368
 6233TIP3   OH218662   2.435   4.009   5.187
 6233TIP3    H118663   2.365   4.006   5.253
 6233TIP3    H218664   2.410   3.942   5.123
 6234TIP3   OH218665   7.260   2.966   3.636
 6234TIP3    H118666   7.164   2.970   3.631
 6234TIP3    H218667   7.282   2.880   3.601
 6235TIP3   OH218668   6.181   6.615   1.102
 6235TIP3    H118669   6.091   6.626   1.071
 6235TIP3    H218670   6.171   6.595   1.195
 6236TIP3   OH218671   4.790   5.901   2.444
 6236TIP3    H118672   4.826   5.923   2.530
 6236TIP3    H218673   4.847   5.831   2.411
 6237TIP3   OH218674   4.446   0.696   3.505
 6237TIP3    H118675   4.421   0.641   3.579
 6237TIP3    H218676   4.376   0.761   3.498
 6238TIP3   OH218677   3.081   5.064   1.669
 6238TIP3    H118678   3.144   4.992   1.666
 6238TIP3    H218679   3.129   5.140   1.636
 6239TIP3   OH218680   2.575   6.638   0.918
 6239TIP3    H118681   2.598   6.633   1.011
 6239TIP3    H218682   2.640   6.698   0.880
 6240TIP3   OH218683   1.724   0.597   0.390
 6240TIP3    H118684   1.816   0.580   0.406
 6240TIP3    H218685   1.677   0.530   0.439
 6241TIP3   OH218686   1.307   5.982   3.017
 6241TIP3    H118687   1.275   5.948   3.100
 6241TIP3    H218688   1.350   6.064   3.039
 6242TIP3   OH218689   4.072   5.583   0.239
 6242TIP3    H118690   4.078   5.491   0.214
 6242TIP3    H218691   3.984   5.593   0.276
 6243TIP3   OH218692   2.505   1.610   1.526
 6243TIP3    H118693   2.480   1.523   1.556
 6243TIP3    H218694   2.441   1.633   1.459
 6244TIP3   OH218695   5.162   6.473   0.507
 6244TIP3    H118696   5.096   6.405   0.490
 6244TIP3    H218697   5.118   6.536   0.563
 6245TIP3   OH218698   6.658   6.572   0.225
 6245TIP3    H118699   6.693   6.557   0.137
 6245TIP3    H218700   6.641   6.485   0.260
 6246TIP3   OH218701   4.843   1.529   3.110
 6246TIP3    H118702   4.889   1.502   3.030
 6246TIP3    H218703   4.786   1.455   3.131
 6247TIP3   OH218704   3.084   0.717   4.429
 6247TIP3    H118705   3.076   0.641   4.486
 6247TIP3    H218706   3.027   0.783   4.468
 6248TIP3   OH218707   3.265   4.893   0.400
 6248TIP3    H118708   3.341   4.909   0.457
 6248TIP3    H218709   3.289   4.933   0.316
 6249TIP3   OH218710   1.042   1.021   2.027
 6249TIP3    H118711   1.103   1.031   1.953
 6249TIP3    H218712   0.956   1.040   1.990
 6250TIP3   OH218713   5.238   2.044   5.502
 6250TIP3    H118714   5.208   1.982   5.568
 6250TIP3    H218715   5.213   2.004   5.418
 6251TIP3   OH218716   0.701   3.617   0.550
 6251TIP3    H118717   0.777   3.578   0.593
 6251TIP3    H218718   0.729   3.631   0.460
 6252TIP3   OH218719   1.086   4.667   4.245
 6252TIP3    H118720   1.061   4.671   4.337
 6252TIP3    H218721   1.076   4.756   4.212
 6253TIP3   OH218722   5.337   6.777   3.098
 6253TIP3    H118723   5.288   6.823   3.166
 6253TIP3    H218724   5.429   6.784   3.126
 6254TIP3   OH218725   1.128   2.760   2.276
 6254TIP3    H118726   1.210   2.807   2.265
 6254TIP3    H218727   1.060   2.826   2.260
 6255TIP3   OH218728   2.005   1.119   1.146
 6255TIP3    H118729   2.080   1.060   1.163
 6255TIP3    H218730   2.045   1.200   1.116
 6256TIP3   OH218731   6.316   5.744   0.295
 6256TIP3    H118732   6.334   5.775   0.384
 6256TIP3    H218733   6.397   5.759   0.247
 6257TIP3   OH218734   5.271   0.922   2.711
 6257TIP3    H118735   5.209   0.987   2.678
 6257TIP3    H218736   5.217   0.845   2.730
 6258TIP3   OH218737   4.248   0.350   1.171
 6258TIP3    H118738   4.208   0.398   1.099
 6258TIP3    H218739   4.203   0.265   1.171
 6259TIP3   OH218740   0.096   1.844   0.881
 6259TIP3    H118741   0.108   1.769   0.821
 6259TIP3    H218742   0.184   1.861   0.916
 6260TIP3   OH218743   5.198   4.894   0.492
 6260TIP3    H118744   5.187   4.851   0.577
 6260TIP3    H218745   5.163   4.831   0.429
 6261TIP3   OH218746   1.070   5.831   2.797
 6261TIP3    H118747   1.126   5.757   2.776
 6261TIP3    H218748   1.115   5.875   2.869
 6262TIP3   OH218749   6.815   3.676   1.143
 6262TIP3    H118750   6.830   3.587   1.110
 6262TIP3    H218751   6.743   3.666   1.205
 6263TIP3   OH218752   0.833   5.750   2.906
 6263TIP3    H118753   0.902   5.683   2.903
 6263TIP3    H218754   0.879   5.832   2.891
 6264TIP3   OH218755   5.513   4.496   3.006
 6264TIP3    H118756   5.467   4.561   3.060
 6264TIP3    H218757   5.497   4.413   3.050
 6265TIP3   OH218758   2.440   4.889   1.818
 6265TIP3    H118759   2.534   4.908   1.826
 6265TIP3    H218760   2.403   4.968   1.777
 6266TIP3   OH218761   0.964   5.577   3.224
 6266TIP3    H118762   0.978   5.670   3.204
 6266TIP3    H218763   0.924   5.577   3.311
 6267TIP3   OH218764   6.162   1.789   0.712
 6267TIP3    H118765   6.229   1.741   0.760
 6267TIP3    H218766   6.161   1.749   0.625
 6268TIP3   OH218767   2.679   1.069   2.588
 6268TIP3    H118768   2.707   1.085   2.497
 6268TIP3    H218769   2.729   0.991   2.614
 6269TIP3   OH218770   1.062   3.512   0.097
 6269TIP3    H118771   0.974   3.549   0.102
 6269TIP3    H218772   1.049   3.424   0.062
 6270TIP3   OH218773   2.673   4.525   5.824
 6270TIP3    H118774   2.726   4.466   5.878
 6270TIP3    H218775   2.602   4.471   5.791
 6271TIP3   OH218776   2.724   6.583   5.597
 6271TIP3    H118777   2.759   6.630   5.521
 6271TIP3    H218778   2.677   6.650   5.647
 6272TIP3   OH218779   1.139   5.638   0.773
 6272TIP3    H118780   1.151   5.545   0.789
 6272TIP3    H218781   1.181   5.653   0.688
 6273TIP3   OH218782   5.486   2.013   5.827
 6273TIP3    H118783   5.501   2.024   5.921
 6273TIP3    H218784   5.572   1.989   5.792
 6274TIP3   OH218785   0.315   3.869   2.726
 6274TIP3    H118786   0.351   3.877   2.638
 6274TIP3    H218787   0.220   3.865   2.714
 6275TIP3   OH218788   0.092   0.828   2.935
 6275TIP3    H118789   0.046   0.912   2.939
 6275TIP3    H218790   0.143   0.832   2.854
 6276TIP3   OH218791   3.022   3.853   0.277
 6276TIP3    H118792   3.058   3.776   0.233
 6276TIP3    H218793   3.057   3.927   0.227
 6277TIP3   OH218794   0.694   2.788   3.678
 6277TIP3    H118795   0.715   2.833   3.596
 6277TIP3    H218796   0.772   2.734   3.696
 6278TIP3   OH218797   2.896   6.270   4.144
 6278TIP3    H118798   2.933   6.350   4.107
 6278TIP3    H218799   2.878   6.214   4.069
 6279TIP3   OH218800   5.316   4.992   2.278
 6279TIP3    H118801   5.365   5.059   2.326
 6279TIP3    H218802   5.382   4.928   2.253
 6280TIP3   OH218803   2.969   3.420   4.697
 6280TIP3    H118804   2.934   3.503   4.731
 6280TIP3    H218805   3.058   3.441   4.670
 6281TIP3   OH218806   2.419   2.782   5.650
 6281TIP3    H118807   2.372   2.699   5.646
 6281TIP3    H218808   2.458   2.783   5.738
 6282TIP3   OH218809   2.680   3.170   5.196
 6282TIP3    H118810   2.607   3.108   5.193
 6282TIP3    H218811   2.749   3.125   5.243
 6283TIP3   OH218812   0.667   3.270   1.471
 6283TIP3    H118813   0.755   3.274   1.510
 6283TIP3    H218814   0.614   3.328   1.527
 6284TIP3   OH218815   7.235   4.368   0.111
 6284TIP3    H118816   7.232   4.282   0.069
 6284TIP3    H218817   7.195   4.428   0.048
 6285TIP3   OH218818   6.752   5.163   5.759
 6285TIP3    H118819   6.685   5.231   5.768
 6285TIP3    H218820   6.833   5.206   5.786
 6286TIP3   OH218821   5.333   2.201   3.013
 6286TIP3    H118822   5.346   2.294   3.030
 6286TIP3    H218823   5.356   2.190   2.921
 6287TIP3   OH218824   6.985   5.217   5.466
 6287TIP3    H118825   6.900   5.220   5.423
 6287TIP3    H218826   7.048   5.231   5.395
 6288TIP3   OH218827   4.042   2.961   5.829
 6288TIP3    H118828   4.024   2.867   5.822
 6288TIP3    H218829   4.097   2.980   5.752
 6289TIP3   OH218830   6.328   3.778   2.495
 6289TIP3    H118831   6.257   3.789   2.432
 6289TIP3    H218832   6.290   3.801   2.579
 6290TIP3   OH218833   1.288   5.023   5.656
 6290TIP3    H118834   1.196   5.001   5.638
 6290TIP3    H218835   1.290   5.043   5.750
 6291TIP3   OH218836   7.034   2.990   4.469
 6291TIP3    H118837   7.096   2.930   4.511
 6291TIP3    H218838   7.084   3.033   4.401
 6292TIP3   OH218839   4.054   3.811   0.284
 6292TIP3    H118840   3.969   3.825   0.327
 6292TIP3    H218841   4.064   3.716   0.282
 6293TIP3   OH218842   4.073   5.329   2.835
 6293TIP3    H118843   4.142   5.265   2.821
 6293TIP3    H218844   3.996   5.277   2.858
 6294TIP3   OH218845   1.998   1.301   2.919
 6294TIP3    H118846   2.067   1.361   2.888
 6294TIP3    H218847   1.983   1.327   3.009
 6295TIP3   OH218848   1.583   4.184   1.423
 6295TIP3    H118849   1.582   4.091   1.444
 6295TIP3    H218850   1.606   4.227   1.505
 6296TIP3   OH218851   1.532   5.255   0.729
 6296TIP3    H118852   1.465   5.211   0.781
 6296TIP3    H218853   1.555   5.191   0.661
 6297TIP3   OH218854   5.481   0.857   3.424
 6297TIP3    H118855   5.535   0.902   3.489
 6297TIP3    H218856   5.509   0.893   3.340
 6298TIP3   OH218857   0.200   3.633   2.891
 6298TIP3    H118858   0.273   3.576   2.868
 6298TIP3    H218859   0.128   3.574   2.909
 6299TIP3   OH218860   5.267   1.283   2.644
 6299TIP3    H118861   5.315   1.286   2.561
 6299TIP3    H218862   5.331   1.252   2.708
 6300TIP3   OH218863   5.771   2.381   4.929
 6300TIP3    H118864   5.836   2.349   4.992
 6300TIP3    H218865   5.822   2.423   4.860
 6301TIP3   OH218866   6.993   4.453   0.919
 6301TIP3    H118867   7.064   4.496   0.965
 6301TIP3    H218868   6.925   4.520   0.911
 6302TIP3   OH218869   4.129   6.483   4.916
 6302TIP3    H118870   4.128   6.470   4.821
 6302TIP3    H218871   4.096   6.572   4.928
 6303TIP3   OH218872   4.949   1.710   2.657
 6303TIP3    H118873   4.995   1.779   2.610
 6303TIP3    H218874   4.902   1.756   2.727
 6304TIP3   OH218875   1.209   2.425   3.312
 6304TIP3    H118876   1.203   2.508   3.360
 6304TIP3    H218877   1.283   2.437   3.253
 6305TIP3   OH218878   3.282   5.223   5.408
 6305TIP3    H118879   3.205   5.174   5.378
 6305TIP3    H218880   3.355   5.163   5.394
 6306TIP3   OH218881   7.191   6.147   3.620
 6306TIP3    H118882   7.212   6.205   3.693
 6306TIP3    H218883   7.207   6.059   3.653
 6307TIP3   OH218884   3.020   6.230   5.104
 6307TIP3    H118885   3.056   6.293   5.167
 6307TIP3    H218886   2.991   6.156   5.157
 6308TIP3   OH218887   3.645   4.836   3.460
 6308TIP3    H118888   3.570   4.778   3.471
 6308TIP3    H218889   3.715   4.779   3.429
 6309TIP3   OH218890   3.740   4.595   2.908
 6309TIP3    H118891   3.675   4.613   2.976
 6309TIP3    H218892   3.701   4.631   2.828
 6310TIP3   OH218893   0.418   3.800   5.115
 6310TIP3    H118894   0.403   3.826   5.206
 6310TIP3    H218895   0.383   3.872   5.063
 6311TIP3   OH218896   4.929   4.359   4.273
 6311TIP3    H118897   4.894   4.439   4.312
 6311TIP3    H218898   4.985   4.389   4.202
 6312TIP3   OH218899   3.694   2.631   4.234
 6312TIP3    H118900   3.631   2.623   4.162
 6312TIP3    H218901   3.692   2.724   4.257
 6313TIP3   OH218902   3.623   5.947   5.819
 6313TIP3    H118903   3.601   5.854   5.816
 6313TIP3    H218904   3.679   5.955   5.896
 6314TIP3   OH218905   1.247   3.634   2.665
 6314TIP3    H118906   1.230   3.723   2.697
 6314TIP3    H218907   1.307   3.646   2.592
 6315TIP3   OH218908   6.337   3.430   1.411
 6315TIP3    H118909   6.294   3.515   1.414
 6315TIP3    H218910   6.278   3.372   1.459
 6316TIP3   OH218911   1.388   4.792   5.734
 6316TIP3    H118912   1.330   4.867   5.722
 6316TIP3    H218913   1.424   4.775   5.647
 6317TIP3   OH218914   6.360   2.824   3.685
 6317TIP3    H118915   6.359   2.742   3.637
 6317TIP3    H218916   6.298   2.880   3.638
 6318TIP3   OH218917   5.307   6.778   5.416
 6318TIP3    H118918   5.225   6.826   5.422
 6318TIP3    H218919   5.309   6.745   5.326
 6319TIP3   OH218920   3.518   0.590   2.496
 6319TIP3    H118921   3.556   0.677   2.481
 6319TIP3    H218922   3.464   0.574   2.419
 6320TIP3   OH218923   0.579   5.056   5.535
 6320TIP3    H118924   0.590   5.122   5.604
 6320TIP3    H218925   0.654   5.069   5.477
 6321TIP3   OH218926   4.955   2.486   2.900
 6321TIP3    H118927   4.971   2.531   2.983
 6321TIP3    H218928   4.859   2.476   2.896
 6322TIP3   OH218929   1.711   1.218   5.169
 6322TIP3    H118930   1.747   1.131   5.183
 6322TIP3    H218931   1.758   1.252   5.093
 6323TIP3   OH218932   5.826   6.381   1.704
 6323TIP3    H118933   5.845   6.435   1.780
 6323TIP3    H218934   5.855   6.433   1.629
 6324TIP3   OH218935   3.865   3.253   3.903
 6324TIP3    H118936   3.836   3.308   3.831
 6324TIP3    H218937   3.937   3.301   3.943
 6325TIP3   OH218938   4.256   6.082   1.471
 6325TIP3    H118939   4.256   5.996   1.428
 6325TIP3    H218940   4.323   6.132   1.424
 6326TIP3   OH218941   3.011   5.704   1.012
 6326TIP3    H118942   3.077   5.637   0.992
 6326TIP3    H218943   3.059   5.774   1.055
 6327TIP3   OH218944   6.502   6.465   3.437
 6327TIP3    H118945   6.537   6.553   3.427
 6327TIP3    H218946   6.408   6.478   3.449
 6328TIP3   OH218947   6.366   2.467   1.482
 6328TIP3    H118948   6.343   2.376   1.503
 6328TIP3    H218949   6.374   2.468   1.387
 6329TIP3   OH218950   5.853   0.607   5.296
 6329TIP3    H118951   5.773   0.637   5.252
 6329TIP3    H218952   5.920   0.608   5.228
 6330TIP3   OH218953   7.139   5.862   0.311
 6330TIP3    H118954   7.139   5.950   0.349
 6330TIP3    H218955   7.220   5.823   0.343
 6331TIP3   OH218956   1.876   4.005   1.449
 6331TIP3    H118957   1.909   3.917   1.432
 6331TIP3    H218958   1.884   4.051   1.365
 6332TIP3   OH218959   1.182   0.927   1.076
 6332TIP3    H118960   1.176   0.842   1.120
 6332TIP3    H218961   1.153   0.909   0.987
 6333TIP3   OH218962   4.040   0.373   0.947
 6333TIP3    H118963   4.032   0.282   0.917
 6333TIP3    H218964   3.972   0.382   1.014
 6334TIP3   OH218965   4.560   4.771   1.478
 6334TIP3    H118966   4.543   4.746   1.387
 6334TIP3    H218967   4.552   4.867   1.478
 6335TIP3   OH218968   0.688   2.036   0.973
 6335TIP3    H118969   0.650   2.093   1.041
 6335TIP3    H218970   0.697   2.092   0.896
 6336TIP3   OH218971   0.486   1.718   0.731
 6336TIP3    H118972   0.437   1.800   0.730
 6336TIP3    H218973   0.422   1.653   0.758
 6337TIP3   OH218974   2.103   5.564   2.610
 6337TIP3    H118975   2.063   5.489   2.655
 6337TIP3    H218976   2.167   5.598   2.672
 6338TIP3   OH218977   4.179   5.820   2.601
 6338TIP3    H118978   4.119   5.869   2.545
 6338TIP3    H218979   4.143   5.731   2.602
 6339TIP3   OH218980   5.535   3.495   0.607
 6339TIP3    H118981   5.486   3.420   0.641
 6339TIP3    H218982   5.627   3.473   0.623
 6340TIP3   OH218983   3.410   1.768   0.726
 6340TIP3    H118984   3.343   1.721   0.776
 6340TIP3    H218985   3.438   1.839   0.783
 6341TIP3   OH218986  -0.013   1.950   2.974
 6341TIP3    H118987  -0.015   1.907   2.888
 6341TIP3    H218988  -0.073   2.024   2.965
 6342TIP3   OH218989   5.574   5.728   2.077
 6342TIP3    H118990   5.601   5.640   2.102
 6342TIP3    H218991   5.590   5.781   2.155
 6343TIP3   OH218992   0.340   6.252   1.975
 6343TIP3    H118993   0.415   6.196   1.954
 6343TIP3    H218994   0.310   6.285   1.891
 6344TIP3   OH218995   3.661   5.809   3.143
 6344TIP3    H118996   3.576   5.777   3.171
 6344TIP3    H218997   3.696   5.741   3.086
 6345TIP3   OH218998   3.191   0.594   3.584
 6345TIP3    H118999   3.134   0.666   3.610
 6345TIP3    H219000   3.229   0.562   3.666
 6346TIP3   OH219001   6.566   2.021   2.616
 6346TIP3    H119002   6.497   1.984   2.670
 6346TIP3    H219003   6.646   1.978   2.647
 6347TIP3   OH219004   1.197   1.118   4.178
 6347TIP3    H119005   1.109   1.126   4.213
 6347TIP3    H219006   1.201   1.030   4.140
 6348TIP3   OH219007   0.840   4.034   2.422
 6348TIP3    H119008   0.873   4.109   2.473
 6348TIP3    H219009   0.763   4.068   2.377
 6349TIP3   OH219010   2.124   1.105   1.508
 6349TIP3    H119011   2.147   1.198   1.507
 6349TIP3    H219012   2.060   1.096   1.579
 6350TIP3   OH219013   6.241   1.337   1.902
 6350TIP3    H119014   6.293   1.274   1.851
 6350TIP3    H219015   6.283   1.340   1.987
 6351TIP3   OH219016   0.853   5.644   1.671
 6351TIP3    H119017   0.763   5.623   1.696
 6351TIP3    H219018   0.863   5.604   1.584
 6352TIP3   OH219019   0.951   2.167   2.669
 6352TIP3    H119020   1.007   2.165   2.747
 6352TIP3    H219021   0.887   2.235   2.687
 6353TIP3   OH219022   5.505   2.030   1.549
 6353TIP3    H119023   5.551   1.993   1.625
 6353TIP3    H219024   5.501   1.958   1.486
 6354TIP3   OH219025   4.712   6.829   0.614
 6354TIP3    H119026   4.781   6.845   0.678
 6354TIP3    H219027   4.633   6.819   0.666
 6355TIP3   OH219028   4.383   5.295   2.677
 6355TIP3    H119029   4.333   5.245   2.741
 6355TIP3    H219030   4.468   5.251   2.672
 6356TIP3   OH219031   4.714   2.478   3.627
 6356TIP3    H119032   4.665   2.499   3.707
 6356TIP3    H219033   4.702   2.554   3.571
 6357TIP3   OH219034   5.175   2.738   3.908
 6357TIP3    H119035   5.227   2.791   3.847
 6357TIP3    H219036   5.195   2.648   3.884
 6358TIP3   OH219037   1.209   3.323   4.444
 6358TIP3    H119038   1.233   3.336   4.535
 6358TIP3    H219039   1.284   3.277   4.406
 6359TIP3   OH219040   4.598   5.676   4.901
 6359TIP3    H119041   4.631   5.743   4.841
 6359TIP3    H219042   4.670   5.613   4.908
 6360TIP3   OH219043   0.407   4.328   2.559
 6360TIP3    H119044   0.472   4.397   2.563
 6360TIP3    H219045   0.457   4.248   2.540
 6361TIP3   OH219046   0.340   4.209   0.350
 6361TIP3    H119047   0.363   4.296   0.383
 6361TIP3    H219048   0.417   4.180   0.301
 6362TIP3   OH219049   0.203   0.102   3.862
 6362TIP3    H119050   0.114   0.117   3.893
 6362TIP3    H219051   0.257   0.109   3.940
 6363TIP3   OH219052   5.391   4.440   2.739
 6363TIP3    H119053   5.401   4.475   2.827
 6363TIP3    H219054   5.301   4.462   2.715
 6364TIP3   OH219055   5.736   0.370   5.427
 6364TIP3    H119056   5.690   0.286   5.425
 6364TIP3    H219057   5.726   0.404   5.338
 6365TIP3   OH219058   2.113   0.569   5.737
 6365TIP3    H119059   2.097   0.476   5.753
 6365TIP3    H219060   2.146   0.572   5.647
 6366TIP3   OH219061   4.265   6.663   1.781
 6366TIP3    H119062   4.320   6.721   1.834
 6366TIP3    H219063   4.294   6.575   1.803
 6367TIP3   OH219064   5.570   4.942   2.537
 6367TIP3    H119065   5.625   4.919   2.462
 6367TIP3    H219066   5.631   4.956   2.609
 6368TIP3   OH219067   1.814   2.325   3.912
 6368TIP3    H119068   1.719   2.321   3.918
 6368TIP3    H219069   1.846   2.296   3.997
 6369TIP3   OH219070   1.789   6.650   5.256
 6369TIP3    H119071   1.747   6.675   5.339
 6369TIP3    H219072   1.729   6.586   5.218
 6370TIP3   OH219073   1.233   5.566   2.765
 6370TIP3    H119074   1.250   5.525   2.680
 6370TIP3    H219075   1.320   5.577   2.804
 6371TIP3   OH219076   6.622   2.131   2.064
 6371TIP3    H119077   6.527   2.143   2.069
 6371TIP3    H219078   6.641   2.063   2.129
 6372TIP3   OH219079   6.971   5.438   4.468
 6372TIP3    H119080   6.923   5.478   4.540
 6372TIP3    H219081   6.910   5.375   4.430
 6373TIP3   OH219082   5.361   6.008   1.988
 6373TIP3    H119083   5.364   5.988   2.081
 6373TIP3    H219084   5.331   6.099   1.984
 6374TIP3   OH219085   1.112   6.295   5.581
 6374TIP3    H119086   1.126   6.216   5.633
 6374TIP3    H219087   1.164   6.362   5.625
 6375TIP3   OH219088   3.765   0.730   1.693
 6375TIP3    H119089   3.730   0.806   1.741
 6375TIP3    H219090   3.754   0.752   1.601
 6376TIP3   OH219091   6.001   2.908   3.081
 6376TIP3    H119092   6.025   2.830   3.131
 6376TIP3    H219093   6.011   2.882   2.990
 6377TIP3   OH219094   0.775   4.412   4.794
 6377TIP3    H119095   0.796   4.432   4.886
 6377TIP3    H219096   0.692   4.364   4.799
 6378TIP3   OH219097   4.038   0.781   2.074
 6378TIP3    H119098   4.081   0.817   1.996
 6378TIP3    H219099   3.954   0.826   2.078
 6379TIP3   OH219100   3.275   2.998   4.261
 6379TIP3    H119101   3.311   3.048   4.187
 6379TIP3    H219102   3.332   3.021   4.334
 6380TIP3   OH219103   2.431   6.632   0.567
 6380TIP3    H119104   2.526   6.640   0.564
 6380TIP3    H219105   2.398   6.720   0.545
 6381TIP3   OH219106   0.249   0.130   2.250
 6381TIP3    H119107   0.186   0.082   2.197
 6381TIP3    H219108   0.263   0.212   2.203
 6382TIP3   OH219109   4.334   3.019   1.820
 6382TIP3    H119110   4.402   3.081   1.845
 6382TIP3    H219111   4.337   3.015   1.725
 6383TIP3   OH219112   1.564   4.496   2.651
 6383TIP3    H119113   1.608   4.494   2.735
 6383TIP3    H219114   1.633   4.474   2.587
 6384TIP3   OH219115   3.513   0.476   1.356
 6384TIP3    H119116   3.600   0.455   1.391
 6384TIP3    H219117   3.459   0.492   1.433
 6385TIP3   OH219118   3.742   1.372   2.535
 6385TIP3    H119119   3.807   1.306   2.510
 6385TIP3    H219120   3.755   1.386   2.629
 6386TIP3   OH219121   4.351   3.118   5.827
 6386TIP3    H119122   4.279   3.158   5.778
 6386TIP3    H219123   4.405   3.076   5.760
 6387TIP3   OH219124   5.911   3.374   3.437
 6387TIP3    H119125   5.914   3.360   3.342
 6387TIP3    H219126   5.877   3.463   3.446
 6388TIP3   OH219127   1.988   4.800   0.120
 6388TIP3    H119128   2.043   4.828   0.047
 6388TIP3    H219129   2.048   4.792   0.194
 6389TIP3   OH219130   7.058   4.174   5.421
 6389TIP3    H119131   7.000   4.173   5.497
 6389TIP3    H219132   7.015   4.115   5.358
 6390TIP3   OH219133   5.416   2.812   0.132
 6390TIP3    H119134   5.405   2.892   0.184
 6390TIP3    H219135   5.480   2.761   0.181
 6391TIP3   OH219136   1.957   4.208   4.500
 6391TIP3    H119137   1.871   4.206   4.541
 6391TIP3    H219138   2.014   4.163   4.562
 6392TIP3   OH219139   3.908   1.523   5.273
 6392TIP3    H119140   3.842   1.593   5.273
 6392TIP3    H219141   3.907   1.488   5.362
 6393TIP3   OH219142   6.898   6.738   1.205
 6393TIP3    H119143   6.874   6.716   1.115
 6393TIP3    H219144   6.840   6.686   1.260
 6394TIP3   OH219145   1.848   6.662   4.114
 6394TIP3    H119146   1.802   6.641   4.195
 6394TIP3    H219147   1.781   6.655   4.045
 6395TIP3   OH219148   6.398   6.105   4.626
 6395TIP3    H119149   6.438   6.156   4.556
 6395TIP3    H219150   6.382   6.019   4.588
 6396TIP3   OH219151   4.581   5.146   0.721
 6396TIP3    H119152   4.617   5.122   0.807
 6396TIP3    H219153   4.577   5.241   0.722
 6397TIP3   OH219154   1.549   2.812   4.987
 6397TIP3    H119155   1.576   2.746   5.051
 6397TIP3    H219156   1.559   2.895   5.034
 6398TIP3   OH219157   5.304   3.563   1.411
 6398TIP3    H119158   5.383   3.537   1.364
 6398TIP3    H219159   5.334   3.629   1.473
 6399TIP3   OH219160   3.792   3.789   5.561
 6399TIP3    H119161   3.778   3.696   5.545
 6399TIP3    H219162   3.887   3.800   5.554
 6400TIP3   OH219163   1.880   3.508   1.969
 6400TIP3    H119164   1.823   3.573   1.928
 6400TIP3    H219165   1.823   3.431   1.980
 6401TIP3   OH219166   4.193   4.404   5.761
 6401TIP3    H119167   4.212   4.489   5.802
 6401TIP3    H219168   4.167   4.348   5.834
 6402TIP3   OH219169   1.673   0.238   0.966
 6402TIP3    H119170   1.612   0.247   0.892
 6402TIP3    H219171   1.697   0.145   0.965
 6403TIP3   OH219172   6.879   5.368   1.595
 6403TIP3    H119173   6.816   5.433   1.563
 6403TIP3    H219174   6.844   5.341   1.680
 6404TIP3   OH219175   6.245   1.249   1.458
 6404TIP3    H119176   6.265   1.186   1.389
 6404TIP3    H219177   6.151   1.264   1.451
 6405TIP3   OH219178   2.701   2.838   1.089
 6405TIP3    H119179   2.795   2.825   1.078
 6405TIP3    H219180   2.686   2.928   1.059
 6406TIP3   OH219181   0.688   4.159   4.602
 6406TIP3    H119182   0.627   4.099   4.559
 6406TIP3    H219183   0.648   4.177   4.687
 6407TIP3   OH219184   4.901   3.669   3.568
 6407TIP3    H119185   4.950   3.600   3.523
 6407TIP3    H219186   4.953   3.748   3.556
 6408TIP3   OH219187   0.747   2.452   0.455
 6408TIP3    H119188   0.812   2.398   0.501
 6408TIP3    H219189   0.674   2.459   0.517
 6409TIP3   OH219190   6.866   4.355   3.902
 6409TIP3    H119191   6.958   4.378   3.919
 6409TIP3    H219192   6.826   4.436   3.874
 6410TIP3   OH219193   6.088   0.604   3.244
 6410TIP3    H119194   5.996   0.630   3.251
 6410TIP3    H219195   6.128   0.669   3.187
 6411TIP3   OH219196   6.102   6.015   3.908
 6411TIP3    H119197   6.159   5.967   3.849
 6411TIP3    H219198   6.161   6.072   3.958
 6412TIP3   OH219199   2.415   0.913   1.994
 6412TIP3    H119200   2.504   0.889   1.966
 6412TIP3    H219201   2.380   0.833   2.032
 6413TIP3   OH219202   0.613   1.652   4.675
 6413TIP3    H119203   0.693   1.621   4.717
 6413TIP3    H219204   0.613   1.611   4.589
 6414TIP3   OH219205   1.850   5.178   4.741
 6414TIP3    H119206   1.918   5.122   4.702
 6414TIP3    H219207   1.792   5.200   4.668
 6415TIP3   OH219208   5.543   1.618   0.069
 6415TIP3    H119209   5.462   1.586   0.107
 6415TIP3    H219210   5.565   1.695   0.121
 6416TIP3   OH219211   3.050   0.462   5.394
 6416TIP3    H119212   3.066   0.546   5.438
 6416TIP3    H219213   3.112   0.461   5.321
 6417TIP3   OH219214   3.573   4.296   2.103
 6417TIP3    H119215   3.553   4.322   2.193
 6417TIP3    H219216   3.504   4.337   2.051
 6418TIP3   OH219217   5.990   1.562   2.771
 6418TIP3    H119218   5.952   1.495   2.827
 6418TIP3    H219219   6.069   1.522   2.734
 6419TIP3   OH219220   0.445   5.660   0.859
 6419TIP3    H119221   0.540   5.658   0.858
 6419TIP3    H219222   0.423   5.753   0.868
 6420TIP3   OH219223   5.740   1.187   4.657
 6420TIP3    H119224   5.773   1.159   4.743
 6420TIP3    H219225   5.736   1.107   4.605
 6421TIP3   OH219226   2.189   1.374   1.449
 6421TIP3    H119227   2.241   1.410   1.522
 6421TIP3    H219228   2.226   1.415   1.371
 6422TIP3   OH219229   0.784   5.774   5.549
 6422TIP3    H119230   0.834   5.695   5.566
 6422TIP3    H219231   0.755   5.804   5.635
 6423TIP3   OH219232   3.468   5.993   0.225
 6423TIP3    H119233   3.420   6.053   0.168
 6423TIP3    H219234   3.416   5.912   0.223
 6424TIP3   OH219235   6.097   2.279   2.621
 6424TIP3    H119236   6.038   2.347   2.589
 6424TIP3    H219237   6.044   2.199   2.622
 6425TIP3   OH219238   4.803   1.007   4.200
 6425TIP3    H119239   4.747   1.056   4.261
 6425TIP3    H219240   4.890   1.009   4.241
 6426TIP3   OH219241   2.597   5.033   5.207
 6426TIP3    H119242   2.642   5.117   5.217
 6426TIP3    H219243   2.524   5.051   5.148
 6427TIP3   OH219244   6.941   5.195   4.231
 6427TIP3    H119245   6.877   5.220   4.298
 6427TIP3    H219246   6.896   5.211   4.148
 6428TIP3   OH219247   3.903   5.757   3.320
 6428TIP3    H119248   3.878   5.676   3.364
 6428TIP3    H219249   3.829   5.777   3.263
 6429TIP3   OH219250   2.238   0.817   3.778
 6429TIP3    H119251   2.322   0.772   3.779
 6429TIP3    H219252   2.186   0.773   3.845
 6430TIP3   OH219253   1.787   5.938   3.733
 6430TIP3    H119254   1.726   5.985   3.677
 6430TIP3    H219255   1.871   5.942   3.687
 6431TIP3   OH219256   3.017   1.155   1.433
 6431TIP3    H119257   2.974   1.213   1.369
 6431TIP3    H219258   3.008   1.202   1.516
 6432TIP3   OH219259   4.778   4.957   0.137
 6432TIP3    H119260   4.730   5.035   0.165
 6432TIP3    H219261   4.745   4.887   0.194
 6433TIP3   OH219262   0.150   2.326   0.817
 6433TIP3    H119263   0.084   2.269   0.776
 6433TIP3    H219264   0.225   2.320   0.758
 6434TIP3   OH219265   5.151   3.923   0.197
 6434TIP3    H119266   5.101   3.840   0.196
 6434TIP3    H219267   5.094   3.985   0.152
 6435TIP3   OH219268   6.454   1.033   4.911
 6435TIP3    H119269   6.539   1.034   4.867
 6435TIP3    H219270   6.456   1.109   4.968
 6436TIP3   OH219271   0.187   3.175   1.995
 6436TIP3    H119272   0.104   3.215   1.970
 6436TIP3    H219273   0.238   3.174   1.914
 6437TIP3   OH219274   6.686   1.587   2.308
 6437TIP3    H119275   6.776   1.562   2.286
 6437TIP3    H219276   6.693   1.623   2.396
 6438TIP3   OH219277   3.332   2.652   2.350
 6438TIP3    H119278   3.334   2.556   2.341
 6438TIP3    H219279   3.326   2.666   2.445
 6439TIP3   OH219280   5.351   3.563   0.292
 6439TIP3    H119281   5.411   3.570   0.366
 6439TIP3    H219282   5.368   3.641   0.239
 6440TIP3   OH219283   3.008   0.875   1.711
 6440TIP3    H119284   3.001   0.851   1.803
 6440TIP3    H219285   2.948   0.950   1.701
 6441TIP3   OH219286   6.170   3.944   4.264
 6441TIP3    H119287   6.211   3.867   4.224
 6441TIP3    H219288   6.100   3.909   4.318
 6442TIP3   OH219289   1.740   6.044   4.068
 6442TIP3    H119290   1.806   6.016   4.005
 6442TIP3    H219291   1.686   5.966   4.083
 6443TIP3   OH219292   0.647   3.671   1.662
 6443TIP3    H119293   0.687   3.758   1.657
 6443TIP3    H219294   0.683   3.624   1.587
 6444TIP3   OH219295   6.199   0.187   0.875
 6444TIP3    H119296   6.290   0.217   0.867
 6444TIP3    H219297   6.203   0.116   0.939
 6445TIP3   OH219298   4.531   3.440   4.307
 6445TIP3    H119299   4.515   3.397   4.222
 6445TIP3    H219300   4.554   3.368   4.365
 6446TIP3   OH219301   7.125   3.424   1.345
 6446TIP3    H119302   7.205   3.377   1.365
 6446TIP3    H219303   7.091   3.380   1.267
 6447TIP3   OH219304   3.205   4.135   1.528
 6447TIP3    H119305   3.278   4.120   1.588
 6447TIP3    H219306   3.149   4.058   1.539
 6448TIP3   OH219307   6.044   3.622   0.553
 6448TIP3    H119308   5.999   3.547   0.514
 6448TIP3    H219309   6.025   3.695   0.493
 6449TIP3   OH219310   1.346   5.098   0.864
 6449TIP3    H119311   1.419   5.055   0.909
 6449TIP3    H219312   1.290   5.130   0.934
 6450TIP3   OH219313   1.401   3.518   4.936
 6450TIP3    H119314   1.472   3.493   4.995
 6450TIP3    H219315   1.352   3.586   4.984
 6451TIP3   OH219316   6.717   6.315   1.458
 6451TIP3    H119317   6.731   6.322   1.552
 6451TIP3    H219318   6.635   6.268   1.449
 6452TIP3   OH219319   4.555   6.582   5.272
 6452TIP3    H119320   4.495   6.559   5.202
 6452TIP3    H219321   4.510   6.555   5.352
 6453TIP3   OH219322   4.914   6.503   3.769
 6453TIP3    H119323   4.831   6.538   3.737
 6453TIP3    H219324   4.892   6.468   3.856
 6454TIP3   OH219325   3.882   2.783   1.234
 6454TIP3    H119326   3.964   2.811   1.274
 6454TIP3    H219327   3.893   2.689   1.221
 6455TIP3   OH219328   5.758   4.056   0.714
 6455TIP3    H119329   5.762   4.002   0.792
 6455TIP3    H219330   5.666   4.055   0.688
 6456TIP3   OH219331   2.251   0.232   2.162
 6456TIP3    H119332   2.335   0.187   2.155
 6456TIP3    H219333   2.191   0.180   2.109
 6457TIP3   OH219334   1.287   0.150   0.156
 6457TIP3    H119335   1.319   0.071   0.113
 6457TIP3    H219336   1.237   0.118   0.230
 6458TIP3   OH219337   4.501   1.303   1.142
 6458TIP3    H119338   4.454   1.374   1.099
 6458TIP3    H219339   4.550   1.345   1.213
 6459TIP3   OH219340   0.818   6.517   3.643
 6459TIP3    H119341   0.846   6.427   3.624
 6459TIP3    H219342   0.722   6.513   3.639
 6460TIP3   OH219343   4.151   6.105   3.128
 6460TIP3    H119344   4.117   6.191   3.105
 6460TIP3    H219345   4.122   6.091   3.218
 6461TIP3   OH219346   6.669   0.520   2.040
 6461TIP3    H119347   6.759   0.510   2.008
 6461TIP3    H219348   6.672   0.486   2.129
 6462TIP3   OH219349   1.052   3.619   2.309
 6462TIP3    H119350   1.072   3.712   2.300
 6462TIP3    H219351   0.958   3.616   2.329
 6463TIP3   OH219352   5.238   5.681   4.904
 6463TIP3    H119353   5.273   5.744   4.968
 6463TIP3    H219354   5.315   5.639   4.867
 6464TIP3   OH219355   4.118   3.467   0.714
 6464TIP3    H119356   4.122   3.457   0.809
 6464TIP3    H219357   4.047   3.530   0.699
 6465TIP3   OH219358   0.737   6.413   1.760
 6465TIP3    H119359   0.821   6.422   1.806
 6465TIP3    H219360   0.746   6.471   1.684
 6466TIP3   OH219361   2.691   3.976   1.376
 6466TIP3    H119362   2.626   3.972   1.305
 6466TIP3    H219363   2.724   4.066   1.374
 6467TIP3   OH219364   3.544   5.837   3.849
 6467TIP3    H119365   3.617   5.884   3.809
 6467TIP3    H219366   3.584   5.763   3.894
 6468TIP3   OH219367   1.376   3.685   5.299
 6468TIP3    H119368   1.450   3.691   5.359
 6468TIP3    H219369   1.306   3.733   5.342
 6469TIP3   OH219370   2.841   5.268   2.722
 6469TIP3    H119371   2.843   5.302   2.633
 6469TIP3    H219372   2.913   5.312   2.767
 6470TIP3   OH219373   7.228   2.290   3.033
 6470TIP3    H119374   7.163   2.220   3.037
 6470TIP3    H219375   7.225   2.320   2.942
 6471TIP3   OH219376   1.223   1.632   5.758
 6471TIP3    H119377   1.251   1.547   5.790
 6471TIP3    H219378   1.301   1.671   5.718
 6472TIP3   OH219379   5.312   1.479   5.625
 6472TIP3    H119380   5.233   1.507   5.580
 6472TIP3    H219381   5.369   1.556   5.627
 6473TIP3   OH219382   7.087   4.769   0.297
 6473TIP3    H119383   7.082   4.801   0.387
 6473TIP3    H219384   6.996   4.761   0.270
 6474TIP3   OH219385   5.774   3.776   1.214
 6474TIP3    H119386   5.791   3.836   1.286
 6474TIP3    H219387   5.760   3.691   1.255
 6475TIP3   OH219388   1.506   4.743   0.763
 6475TIP3    H119389   1.513   4.829   0.721
 6475TIP3    H219390   1.495   4.763   0.856
 6476TIP3   OH219391   4.289   4.540   3.952
 6476TIP3    H119392   4.376   4.501   3.940
 6476TIP3    H219393   4.288   4.571   4.042
 6477TIP3   OH219394   3.068   6.619   5.673
 6477TIP3    H119395   3.032   6.568   5.746
 6477TIP3    H219396   3.085   6.705   5.711
 6478TIP3   OH219397   2.723   6.500   5.225
 6478TIP3    H119398   2.783   6.439   5.269
 6478TIP3    H219399   2.703   6.457   5.141
 6479TIP3   OH219400   6.114   1.986   5.388
 6479TIP3    H119401   6.127   1.987   5.483
 6479TIP3    H219402   6.124   1.894   5.363
 6480TIP3   OH219403   0.654   0.989   0.212
 6480TIP3    H119404   0.637   0.994   0.306
 6480TIP3    H219405   0.654   1.080   0.183
 6481TIP3   OH219406   1.299   2.126   4.334
 6481TIP3    H119407   1.288   2.106   4.427
 6481TIP3    H219408   1.273   2.045   4.290
 6482TIP3   OH219409   3.205   4.294   0.567
 6482TIP3    H119410   3.235   4.300   0.476
 6482TIP3    H219411   3.203   4.201   0.585
 6483TIP3   OH219412   0.804   1.378   4.931
 6483TIP3    H119413   0.870   1.432   4.887
 6483TIP3    H219414   0.837   1.368   5.020
 6484TIP3   OH219415   1.281   3.930   3.428
 6484TIP3    H119416   1.253   3.839   3.415
 6484TIP3    H219417   1.312   3.933   3.518
 6485TIP3   OH219418   5.537   4.618   2.297
 6485TIP3    H119419   5.625   4.587   2.314
 6485TIP3    H219420   5.488   4.599   2.377
 6486TIP3   OH219421   6.953   6.821   3.329
 6486TIP3    H119422   6.862   6.817   3.357
 6486TIP3    H219423   6.979   6.729   3.316
 6487TIP3   OH219424   1.655   2.962   5.318
 6487TIP3    H119425   1.714   3.016   5.370
 6487TIP3    H219426   1.639   3.013   5.238
 6488TIP3   OH219427   6.679   3.936   0.890
 6488TIP3    H119428   6.657   4.017   0.936
 6488TIP3    H219429   6.764   3.954   0.849
 6489TIP3   OH219430   2.933   5.960   2.004
 6489TIP3    H119431   2.840   5.984   2.002
 6489TIP3    H219432   2.973   6.029   2.057
 6490TIP3   OH219433   0.883   1.404   4.305
 6490TIP3    H119434   0.824   1.329   4.321
 6490TIP3    H219435   0.867   1.427   4.214
 6491TIP3   OH219436   2.030   2.386   4.863
 6491TIP3    H119437   1.940   2.417   4.850
 6491TIP3    H219438   2.034   2.364   4.956
 6492TIP3   OH219439   2.699   2.395   3.124
 6492TIP3    H119440   2.689   2.372   3.217
 6492TIP3    H219441   2.744   2.479   3.125
 6493TIP3   OH219442   0.850   5.476   3.528
 6493TIP3    H119443   0.918   5.464   3.593
 6493TIP3    H219444   0.831   5.388   3.496
 6494TIP3   OH219445   2.327   0.062   0.390
 6494TIP3    H119446   2.290  -0.025   0.383
 6494TIP3    H219447   2.417   0.048   0.421
 6495TIP3   OH219448   5.373   5.618   5.587
 6495TIP3    H119449   5.424   5.698   5.601
 6495TIP3    H219450   5.419   5.551   5.636
 6496TIP3   OH219451   0.224   4.456   4.170
 6496TIP3    H119452   0.242   4.462   4.076
 6496TIP3    H219453   0.245   4.365   4.193
 6497TIP3   OH219454   6.469   3.981   4.883
 6497TIP3    H119455   6.393   3.922   4.881
 6497TIP3    H219456   6.506   3.976   4.796
 6498TIP3   OH219457   2.834   3.695   3.665
 6498TIP3    H119458   2.919   3.657   3.643
 6498TIP3    H219459   2.847   3.731   3.753
 6499TIP3   OH219460   0.679   5.595   5.028
 6499TIP3    H119461   0.681   5.641   5.112
 6499TIP3    H219462   0.727   5.514   5.044
 6500TIP3   OH219463   0.019   5.871   3.661
 6500TIP3    H119464  -0.070   5.848   3.633
 6500TIP3    H219465   0.073   5.860   3.583
 6501TIP3   OH219466   0.102   1.589   4.786
 6501TIP3    H119467   0.179   1.563   4.838
 6501TIP3    H219468   0.028   1.573   4.843
 6502TIP3   OH219469   5.071   0.302   3.674
 6502TIP3    H119470   5.029   0.216   3.665
 6502TIP3    H219471   5.000   0.365   3.661
 6503TIP3   OH219472   6.585   1.378   2.128
 6503TIP3    H119473   6.624   1.297   2.095
 6503TIP3    H219474   6.649   1.445   2.107
 6504TIP3   OH219475   2.386   0.457   2.090
 6504TIP3    H119476   2.453   0.461   2.158
 6504TIP3    H219477   2.334   0.379   2.112
 6505TIP3   OH219478   2.046   1.829   3.832
 6505TIP3    H119479   2.016   1.917   3.808
 6505TIP3    H219480   2.026   1.775   3.755
 6506TIP3   OH219481   0.779   4.446   3.395
 6506TIP3    H119482   0.753   4.368   3.345
 6506TIP3    H219483   0.822   4.502   3.330
 6507TIP3   OH219484   2.003   3.918   5.399
 6507TIP3    H119485   2.002   4.012   5.420
 6507TIP3    H219486   1.992   3.915   5.304
 6508TIP3   OH219487   4.986   3.489   4.798
 6508TIP3    H119488   5.018   3.463   4.885
 6508TIP3    H219489   5.056   3.546   4.764
 6509TIP3   OH219490   5.481   4.016   1.617
 6509TIP3    H119491   5.490   4.110   1.602
 6509TIP3    H219492   5.496   4.006   1.711
 6510TIP3   OH219493   6.776   0.837   5.660
 6510TIP3    H119494   6.863   0.798   5.668
 6510TIP3    H219495   6.787   0.905   5.593
 6511TIP3   OH219496   2.284   3.491   1.609
 6511TIP3    H119497   2.348   3.429   1.574
 6511TIP3    H219498   2.260   3.456   1.694
 6512TIP3   OH219499   3.535   3.679   3.693
 6512TIP3    H119500   3.454   3.697   3.740
 6512TIP3    H219501   3.517   3.708   3.603
 6513TIP3   OH219502   4.919   6.274   3.220
 6513TIP3    H119503   4.857   6.298   3.151
 6513TIP3    H219504   4.985   6.343   3.217
 6514TIP3   OH219505   4.769   1.975   0.212
 6514TIP3    H119506   4.790   1.910   0.279
 6514TIP3    H219507   4.735   2.050   0.261
 6515TIP3   OH219508   5.032   4.518   1.412
 6515TIP3    H119509   5.014   4.432   1.450
 6515TIP3    H219510   5.102   4.554   1.466
 6516TIP3   OH219511   5.410   6.779   5.678
 6516TIP3    H119512   5.500   6.749   5.675
 6516TIP3    H219513   5.384   6.788   5.587
 6517TIP3   OH219514   5.602   1.084   4.057
 6517TIP3    H119515   5.509   1.065   4.044
 6517TIP3    H219516   5.604   1.138   4.136
 6518TIP3   OH219517   0.434   1.802   5.839
 6518TIP3    H119518   0.478   1.848   5.768
 6518TIP3    H219519   0.498   1.740   5.871
 6519TIP3   OH219520   2.913   3.315   1.002
 6519TIP3    H119521   2.879   3.327   0.913
 6519TIP3    H219522   3.001   3.353   1.000
 6520TIP3   OH219523   2.255   0.474   3.405
 6520TIP3    H119524   2.188   0.445   3.467
 6520TIP3    H219525   2.290   0.393   3.368
 6521TIP3   OH219526   5.032   5.106   3.692
 6521TIP3    H119527   5.125   5.113   3.668
 6521TIP3    H219528   4.989   5.177   3.644
 6522TIP3   OH219529   5.159   1.666   0.410
 6522TIP3    H119530   5.194   1.634   0.493
 6522TIP3    H219531   5.182   1.759   0.409
 6523TIP3   OH219532   5.061   0.332   4.104
 6523TIP3    H119533   5.080   0.239   4.096
 6523TIP3    H219534   5.125   0.365   4.166
 6524TIP3   OH219535   1.212   0.710   3.258
 6524TIP3    H119536   1.273   0.657   3.308
 6524TIP3    H219537   1.238   0.699   3.167
 6525TIP3   OH219538   1.660   4.421   1.067
 6525TIP3    H119539   1.667   4.509   1.105
 6525TIP3    H219540   1.704   4.364   1.130
 6526TIP3   OH219541   0.599   5.275   2.413
 6526TIP3    H119542   0.586   5.328   2.335
 6526TIP3    H219543   0.631   5.337   2.479
 6527TIP3   OH219544   6.248   5.710   5.451
 6527TIP3    H119545   6.189   5.653   5.499
 6527TIP3    H219546   6.259   5.668   5.366
 6528TIP3   OH219547   2.778   5.321   0.257
 6528TIP3    H119548   2.844   5.253   0.254
 6528TIP3    H219549   2.728   5.310   0.175
 6529TIP3   OH219550   1.445   3.960   5.828
 6529TIP3    H119551   1.503   3.953   5.752
 6529TIP3    H219552   1.416   3.870   5.844
 6530TIP3   OH219553   0.992   1.700   3.948
 6530TIP3    H119554   0.936   1.755   4.004
 6530TIP3    H219555   0.940   1.687   3.868
 6531TIP3   OH219556   6.085   5.281   1.341
 6531TIP3    H119557   6.172   5.306   1.375
 6531TIP3    H219558   6.024   5.315   1.406
 6532TIP3   OH219559   0.212   3.329   2.615
 6532TIP3    H119560   0.190   3.267   2.685
 6532TIP3    H219561   0.196   3.280   2.534
 6533TIP3   OH219562   6.542   1.430   0.145
 6533TIP3    H119563   6.558   1.491   0.072
 6533TIP3    H219564   6.607   1.361   0.133
 6534TIP3   OH219565   2.356   3.987   4.569
 6534TIP3    H119566   2.433   3.931   4.574
 6534TIP3    H219567   2.337   3.996   4.476
 6535TIP3   OH219568   5.073   1.977   2.273
 6535TIP3    H119569   5.145   1.938   2.224
 6535TIP3    H219570   5.082   1.940   2.361
 6536TIP3   OH219571   0.568   5.411   0.701
 6536TIP3    H119572   0.627   5.463   0.755
 6536TIP3    H219573   0.624   5.374   0.633
 6537TIP3   OH219574   1.996   2.640   3.270
 6537TIP3    H119575   2.036   2.723   3.294
 6537TIP3    H219576   1.993   2.590   3.352
 6538TIP3   OH219577   5.697   0.571   5.928
 6538TIP3    H119578   5.789   0.547   5.919
 6538TIP3    H219579   5.659   0.555   5.842
 6539TIP3   OH219580   2.287   6.392   0.612
 6539TIP3    H119581   2.318   6.482   0.604
 6539TIP3    H219582   2.224   6.382   0.541
 6540TIP3   OH219583   0.140   0.771   1.747
 6540TIP3    H119584   0.177   0.728   1.824
 6540TIP3    H219585   0.152   0.865   1.764
 6541TIP3   OH219586   0.838   1.697   5.404
 6541TIP3    H119587   0.887   1.647   5.469
 6541TIP3    H219588   0.775   1.748   5.456
 6542TIP3   OH219589   6.429   4.511   1.004
 6542TIP3    H119590   6.454   4.432   1.052
 6542TIP3    H219591   6.490   4.578   1.033
 6543TIP3   OH219592   1.526   2.430   0.696
 6543TIP3    H119593   1.588   2.430   0.769
 6543TIP3    H219594   1.525   2.521   0.665
 6544TIP3   OH219595   5.592   3.543   3.464
 6544TIP3    H119596   5.507   3.551   3.421
 6544TIP3    H219597   5.637   3.625   3.445
 6545TIP3   OH219598   1.785   0.044   3.674
 6545TIP3    H119599   1.869   0.090   3.686
 6545TIP3    H219600   1.766   0.054   3.581
 6546TIP3   OH219601  -0.002   6.684   3.835
 6546TIP3    H119602   0.053   6.608   3.852
 6546TIP3    H219603   0.059   6.757   3.829
 6547TIP3   OH219604   5.036   6.715   1.972
 6547TIP3    H119605   5.067   6.795   1.929
 6547TIP3    H219606   4.943   6.730   1.989
 6548TIP3   OH219607   1.563   0.942   3.489
 6548TIP3    H119608   1.576   1.029   3.452
 6548TIP3    H219609   1.469   0.925   3.478
 6549TIP3   OH219610   4.274   6.329   3.740
 6549TIP3    H119611   4.361   6.365   3.756
 6549TIP3    H219612   4.247   6.366   3.656
 6550TIP3   OH219613   1.861   2.620   2.567
 6550TIP3    H119614   1.841   2.712   2.550
 6550TIP3    H219615   1.862   2.613   2.662
 6551TIP3   OH219616   5.720   5.906  -0.012
 6551TIP3    H119617   5.798   5.866  -0.051
 6551TIP3    H219618   5.732   5.894   0.083
 6552TIP3   OH219619   4.524   5.761   3.853
 6552TIP3    H119620   4.569   5.734   3.774
 6552TIP3    H219621   4.439   5.793   3.823
 6553TIP3   OH219622   6.230   6.307   1.101
 6553TIP3    H119623   6.209   6.235   1.160
 6553TIP3    H219624   6.229   6.268   1.014
 6554TIP3   OH219625   5.032   3.391   2.661
 6554TIP3    H119626   4.947   3.435   2.665
 6554TIP3    H219627   5.010   3.298   2.651
 6555TIP3   OH219628   5.780   3.152   2.390
 6555TIP3    H119629   5.740   3.068   2.410
 6555TIP3    H219630   5.763   3.166   2.297
 6556TIP3   OH219631   6.368   5.535   3.556
 6556TIP3    H119632   6.421   5.455   3.566
 6556TIP3    H219633   6.361   5.569   3.645
 6557TIP3   OH219634   2.366   2.887   5.390
 6557TIP3    H119635   2.429   2.816   5.380
 6557TIP3    H219636   2.340   2.884   5.482
 6558TIP3   OH219637   2.970   0.320   4.011
 6558TIP3    H119638   2.945   0.388   3.948
 6558TIP3    H219639   3.065   0.327   4.017
 6559TIP3   OH219640   4.617   1.629   4.251
 6559TIP3    H119641   4.578   1.620   4.338
 6559TIP3    H219642   4.669   1.709   4.256
 6560TIP3   OH219643   3.553   4.976   3.070
 6560TIP3    H119644   3.501   5.032   3.128
 6560TIP3    H219645   3.540   5.013   2.982
 6561TIP3   OH219646   0.195   6.722   4.089
 6561TIP3    H119647   0.153   6.721   4.176
 6561TIP3    H219648   0.266   6.785   4.098
 6562TIP3   OH219649   5.220   5.969   2.528
 6562TIP3    H119650   5.161   6.000   2.597
 6562TIP3    H219651   5.259   5.890   2.564
 6563TIP3   OH219652   0.502   2.008   5.668
 6563TIP3    H119653   0.412   2.011   5.634
 6563TIP3    H219654   0.505   2.076   5.735
 6564TIP3   OH219655   5.823   5.065   5.287
 6564TIP3    H119656   5.741   5.034   5.325
 6564TIP3    H219657   5.808   5.063   5.192
 6565TIP3   OH219658   4.593   2.887   1.709
 6565TIP3    H119659   4.643   2.809   1.685
 6565TIP3    H219660   4.566   2.872   1.799
 6566TIP3   OH219661   3.005   2.400   4.580
 6566TIP3    H119662   2.919   2.429   4.550
 6566TIP3    H219663   3.059   2.401   4.501
 6567TIP3   OH219664   1.610   4.000   2.639
 6567TIP3    H119665   1.554   3.933   2.598
 6567TIP3    H219666   1.694   3.989   2.596
 6568TIP3   OH219667   6.233   0.152   1.972
 6568TIP3    H119668   6.254   0.243   1.993
 6568TIP3    H219669   6.150   0.136   2.017
 6569TIP3   OH219670   5.752   6.045   2.057
 6569TIP3    H119671   5.659   6.061   2.070
 6569TIP3    H219672   5.785   6.027   2.145
 6570TIP3   OH219673   7.225   0.270   1.078
 6570TIP3    H119674   7.150   0.292   1.022
 6570TIP3    H219675   7.298   0.261   1.017
 6571TIP3   OH219676   4.825   4.930   4.922
 6571TIP3    H119677   4.878   4.855   4.948
 6571TIP3    H219678   4.781   4.901   4.841
 6572TIP3   OH219679   3.291   4.724   4.808
 6572TIP3    H119680   3.317   4.812   4.779
 6572TIP3    H219681   3.229   4.740   4.879
 6573TIP3   OH219682   5.733   1.458   2.661
 6573TIP3    H119683   5.728   1.363   2.668
 6573TIP3    H219684   5.810   1.482   2.713
 6574TIP3   OH219685   6.699   2.881   1.791
 6574TIP3    H119686   6.722   2.973   1.777
 6574TIP3    H219687   6.621   2.883   1.845
 6575TIP3   OH219688   1.441   5.507   4.498
 6575TIP3    H119689   1.367   5.558   4.463
 6575TIP3    H219690   1.503   5.573   4.529
 6576TIP3   OH219691   6.599   3.688   0.483
 6576TIP3    H119692   6.605   3.593   0.469
 6576TIP3    H219693   6.624   3.700   0.575
 6577TIP3   OH219694   3.519   2.271   4.600
 6577TIP3    H119695   3.459   2.300   4.669
 6577TIP3    H219696   3.484   2.308   4.520
 6578TIP3   OH219697   4.525   1.630   3.397
 6578TIP3    H119698   4.466   1.642   3.471
 6578TIP3    H219699   4.611   1.652   3.431
 6579TIP3   OH219700   1.649   0.909   5.818
 6579TIP3    H119701   1.677   0.925   5.727
 6579TIP3    H219702   1.694   0.828   5.842
 6580TIP3   OH219703   1.426   2.194   2.052
 6580TIP3    H119704   1.414   2.172   2.145
 6580TIP3    H219705   1.521   2.190   2.039
 6581TIP3   OH219706   3.456   6.591   2.916
 6581TIP3    H119707   3.439   6.671   2.967
 6581TIP3    H219708   3.551   6.580   2.920
 6582TIP3   OH219709   4.409   1.488   3.163
 6582TIP3    H119710   4.423   1.394   3.154
 6582TIP3    H219711   4.453   1.511   3.245
 6583TIP3   OH219712   2.684   4.344   5.384
 6583TIP3    H119713   2.696   4.256   5.419
 6583TIP3    H219714   2.773   4.380   5.379
 6584TIP3   OH219715   6.602   1.873   5.397
 6584TIP3    H119716   6.594   1.942   5.462
 6584TIP3    H219717   6.569   1.912   5.316
 6585TIP3   OH219718   3.814   4.584   0.885
 6585TIP3    H119719   3.826   4.652   0.819
 6585TIP3    H219720   3.733   4.540   0.860
 6586TIP3   OH219721   1.835   5.309   0.704
 6586TIP3    H119722   1.743   5.292   0.725
 6586TIP3    H219723   1.839   5.404   0.689
 6587TIP3   OH219724   2.979   3.335   3.246
 6587TIP3    H119725   2.914   3.363   3.182
 6587TIP3    H219726   3.056   3.389   3.229
 6588TIP3   OH219727   2.140   6.819   3.851
 6588TIP3    H119728   2.162   6.729   3.827
 6588TIP3    H219729   2.205   6.843   3.917
 6589TIP3   OH219730   1.526   3.299   2.927
 6589TIP3    H119731   1.524   3.249   3.009
 6589TIP3    H219732   1.618   3.296   2.901
 6590TIP3   OH219733   6.261   5.863   2.458
 6590TIP3    H119734   6.343   5.823   2.485
 6590TIP3    H219735   6.287   5.933   2.398
 6591TIP3   OH219736   6.085   5.979   3.031
 6591TIP3    H119737   6.136   5.960   2.952
 6591TIP3    H219738   6.139   6.042   3.079
 6592TIP3   OH219739   6.614   1.302   2.414
 6592TIP3    H119740   6.671   1.230   2.386
 6592TIP3    H219741   6.606   1.358   2.337
 6593TIP3   OH219742   2.452   3.064   4.809
 6593TIP3    H119743   2.532   3.011   4.815
 6593TIP3    H219744   2.477   3.149   4.845
 6594TIP3   OH219745   4.809   5.442   0.850
 6594TIP3    H119746   4.806   5.378   0.778
 6594TIP3    H219747   4.883   5.498   0.830
 6595TIP3   OH219748   6.359   0.185   3.866
 6595TIP3    H119749   6.272   0.145   3.867
 6595TIP3    H219750   6.381   0.197   3.958
 6596TIP3   OH219751   2.429   4.019   1.241
 6596TIP3    H119752   2.455   4.062   1.323
 6596TIP3    H219753   2.335   4.037   1.235
 6597TIP3   OH219754   2.626   2.710   0.660
 6597TIP3    H119755   2.531   2.706   0.656
 6597TIP3    H219756   2.652   2.727   0.569
 6598TIP3   OH219757   5.741   1.580   2.128
 6598TIP3    H119758   5.676   1.514   2.153
 6598TIP3    H219759   5.718   1.657   2.181
 6599TIP3   OH219760   3.541   3.878   4.990
 6599TIP3    H119761   3.471   3.942   4.998
 6599TIP3    H219762   3.584   3.877   5.075
 6600TIP3   OH219763   1.371   2.580   0.172
 6600TIP3    H119764   1.325   2.586   0.255
 6600TIP3    H219765   1.450   2.633   0.184
 6601TIP3   OH219766   2.677   6.443   1.612
 6601TIP3    H119767   2.657   6.530   1.577
 6601TIP3    H219768   2.635   6.441   1.697
 6602TIP3   OH219769   6.839   5.221   3.291
 6602TIP3    H119770   6.754   5.259   3.315
 6602TIP3    H219771   6.888   5.217   3.373
 6603TIP3   OH219772   5.794   2.999   4.451
 6603TIP3    H119773   5.759   3.070   4.504
 6603TIP3    H219774   5.722   2.975   4.392
 6604TIP3   OH219775   1.267   2.659   5.152
 6604TIP3    H119776   1.273   2.753   5.168
 6604TIP3    H219777   1.262   2.651   5.056
 6605TIP3   OH219778   2.233   0.488   0.033
 6605TIP3    H119779   2.314   0.491  -0.017
 6605TIP3    H219780   2.251   0.429   0.106
 6606TIP3   OH219781   4.457   2.308   5.738
 6606TIP3    H119782   4.553   2.300   5.743
 6606TIP3    H219783   4.440   2.399   5.762
 6607TIP3   OH219784   1.239   3.942   5.031
 6607TIP3    H119785   1.301   4.013   5.018
 6607TIP3    H219786   1.183   3.972   5.103
 6608TIP3   OH219787   2.730   2.341   0.194
 6608TIP3    H119788   2.803   2.384   0.239
 6608TIP3    H219789   2.753   2.344   0.102
 6609TIP3   OH219790   3.131   0.204   1.622
 6609TIP3    H119791   3.095   0.116   1.633
 6609TIP3    H219792   3.061   0.253   1.581
 6610TIP3   OH219793   2.677   5.160   1.221
 6610TIP3    H119794   2.711   5.147   1.133
 6610TIP3    H219795   2.591   5.117   1.220
 6611TIP3   OH219796   1.995   0.537   0.424
 6611TIP3    H119797   2.012   0.458   0.475
 6611TIP3    H219798   2.013   0.609   0.484
 6612TIP3   OH219799   4.288   2.448   3.248
 6612TIP3    H119800   4.281   2.511   3.320
 6612TIP3    H219801   4.198   2.435   3.218
 6613TIP3   OH219802   1.815   4.910   0.705
 6613TIP3    H119803   1.805   4.905   0.800
 6613TIP3    H219804   1.818   4.819   0.677
 6614TIP3   OH219805   5.143   4.462   5.225
 6614TIP3    H119806   5.205   4.527   5.191
 6614TIP3    H219807   5.143   4.393   5.159
 6615TIP3   OH219808   2.876   4.118   4.398
 6615TIP3    H119809   2.885   4.102   4.304
 6615TIP3    H219810   2.930   4.195   4.414
 6616TIP3   OH219811   3.649   2.241   4.099
 6616TIP3    H119812   3.735   2.256   4.137
 6616TIP3    H219813   3.626   2.151   4.126
 6617TIP3   OH219814   0.964   5.197   2.589
 6617TIP3    H119815   0.928   5.268   2.535
 6617TIP3    H219816   1.049   5.231   2.619
 6618TIP3   OH219817   5.100   4.212   4.030
 6618TIP3    H119818   5.140   4.186   3.947
 6618TIP3    H219819   5.138   4.297   4.049
 6619TIP3   OH219820   6.535   0.960   2.954
 6619TIP3    H119821   6.545   1.050   2.923
 6619TIP3    H219822   6.463   0.924   2.902
 6620TIP3   OH219823   1.764   3.508   0.835
 6620TIP3    H119824   1.859   3.493   0.828
 6620TIP3    H219825   1.742   3.481   0.924
 6621TIP3   OH219826   5.709   4.319   2.881
 6621TIP3    H119827   5.621   4.290   2.908
 6621TIP3    H219828   5.713   4.411   2.908
 6622TIP3   OH219829   3.402   5.175   1.238
 6622TIP3    H119830   3.454   5.230   1.296
 6622TIP3    H219831   3.450   5.093   1.233
 6623TIP3   OH219832   1.915   3.395   3.563
 6623TIP3    H119833   1.887   3.486   3.571
 6623TIP3    H219834   1.839   3.350   3.525
 6624TIP3   OH219835   2.638   0.644   5.492
 6624TIP3    H119836   2.667   0.725   5.534
 6624TIP3    H219837   2.559   0.669   5.443
 6625TIP3   OH219838   0.129   1.752   1.237
 6625TIP3    H119839   0.054   1.809   1.222
 6625TIP3    H219840   0.187   1.801   1.294
 6626TIP3   OH219841   4.934   1.841   4.886
 6626TIP3    H119842   4.893   1.927   4.893
 6626TIP3    H219843   4.922   1.801   4.972
 6627TIP3   OH219844   6.275   2.148   5.747
 6627TIP3    H119845   6.255   2.058   5.723
 6627TIP3    H219846   6.370   2.148   5.763
 6628TIP3   OH219847   2.898   3.719   1.686
 6628TIP3    H119848   2.807   3.731   1.714
 6628TIP3    H219849   2.950   3.733   1.765
 6629TIP3   OH219850   0.190   3.854   0.909
 6629TIP3    H119851   0.275   3.814   0.925
 6629TIP3    H219852   0.174   3.910   0.986
 6630TIP3   OH219853   6.930   1.418   4.560
 6630TIP3    H119854   6.978   1.341   4.532
 6630TIP3    H219855   6.840   1.402   4.530
 6631TIP3   OH219856   6.945   1.522   5.733
 6631TIP3    H119857   6.917   1.600   5.684
 6631TIP3    H219858   6.941   1.451   5.669
 6632TIP3   OH219859   4.571   0.021   2.946
 6632TIP3    H119860   4.610   0.090   3.001
 6632TIP3    H219861   4.592   0.047   2.857
 6633TIP3   OH219862   2.015   2.542   5.539
 6633TIP3    H119863   1.969   2.458   5.543
 6633TIP3    H219864   2.062   2.540   5.455
 6634TIP3   OH219865   1.544   5.077   2.750
 6634TIP3    H119866   1.634   5.084   2.718
 6634TIP3    H219867   1.550   5.019   2.826
 6635TIP3   OH219868   3.357   0.609   5.253
 6635TIP3    H119869   3.327   0.549   5.184
 6635TIP3    H219870   3.298   0.684   5.246
 6636TIP3   OH219871   4.606   4.624   0.531
 6636TIP3    H119872   4.551   4.555   0.566
 6636TIP3    H219873   4.638   4.672   0.608
 6637TIP3   OH219874   2.589   3.712   3.269
 6637TIP3    H119875   2.540   3.791   3.290
 6637TIP3    H219876   2.572   3.652   3.341
 6638TIP3   OH219877   2.449   1.116   3.329
 6638TIP3    H119878   2.392   1.052   3.286
 6638TIP3    H219879   2.526   1.066   3.354
 6639TIP3   OH219880   0.244   0.089   3.601
 6639TIP3    H119881   0.163   0.072   3.552
 6639TIP3    H219882   0.216   0.099   3.692
 6640TIP3   OH219883   5.001   1.613   4.557
 6640TIP3    H119884   4.924   1.556   4.555
 6640TIP3    H219885   5.061   1.575   4.492
 6641TIP3   OH219886   6.162   0.801   5.464
 6641TIP3    H119887   6.106   0.837   5.395
 6641TIP3    H219888   6.240   0.769   5.419
 6642TIP3   OH219889   6.124   4.672   4.381
 6642TIP3    H119890   6.054   4.628   4.427
 6642TIP3    H219891   6.081   4.746   4.336
 6643TIP3   OH219892   0.402   4.652   2.278
 6643TIP3    H119893   0.413   4.739   2.316
 6643TIP3    H219894   0.373   4.597   2.351
 6644TIP3   OH219895   0.585   6.563   2.305
 6644TIP3    H119896   0.605   6.474   2.334
 6644TIP3    H219897   0.539   6.602   2.380
 6645TIP3   OH219898   2.048   6.675   1.615
 6645TIP3    H119899   2.046   6.668   1.519
 6645TIP3    H219900   1.962   6.712   1.638
 6646TIP3   OH219901   6.416   5.833   3.977
 6646TIP3    H119902   6.496   5.783   3.994
 6646TIP3    H219903   6.350   5.792   4.033
 6647TIP3   OH219904   4.363   1.738   2.595
 6647TIP3    H119905   4.274   1.762   2.572
 6647TIP3    H219906   4.411   1.737   2.512
 6648TIP3   OH219907   5.833   2.173   5.278
 6648TIP3    H119908   5.738   2.169   5.264
 6648TIP3    H219909   5.848   2.110   5.349
 6649TIP3   OH219910   4.055   6.522   0.927
 6649TIP3    H119911   4.049   6.502   0.834
 6649TIP3    H219912   3.971   6.495   0.964
 6650TIP3   OH219913   3.589   4.643   2.049
 6650TIP3    H119914   3.507   4.600   2.072
 6650TIP3    H219915   3.647   4.572   2.023
 6651TIP3   OH219916   6.698   5.612   2.856
 6651TIP3    H119917   6.678   5.675   2.786
 6651TIP3    H219918   6.747   5.542   2.813
 6652TIP3   OH219919   6.662   0.450   2.689
 6652TIP3    H119920   6.695   0.362   2.671
 6652TIP3    H219921   6.667   0.459   2.784
 6653TIP3   OH219922   0.526   2.036   3.792
 6653TIP3    H119923   0.618   2.026   3.768
 6653TIP3    H219924   0.506   2.128   3.778
 6654TIP3   OH219925   1.725   6.045   5.710
 6654TIP3    H119926   1.674   6.126   5.722
 6654TIP3    H219927   1.716   6.000   5.794
 6655TIP3   OH219928   1.991   4.757   1.224
 6655TIP3    H119929   1.946   4.841   1.230
 6655TIP3    H219930   1.921   4.693   1.212
 6656TIP3   OH219931   3.219   1.790   4.611
 6656TIP3    H119932   3.250   1.783   4.522
 6656TIP3    H219933   3.296   1.811   4.663
 6657TIP3   OH219934   6.992   2.282   1.623
 6657TIP3    H119935   7.018   2.297   1.714
 6657TIP3    H219936   6.943   2.200   1.626
 6658TIP3   OH219937   5.123   0.080   3.113
 6658TIP3    H119938   5.071   0.102   3.036
 6658TIP3    H219939   5.165  -0.003   3.091
 6659TIP3   OH219940   5.183   1.468   0.983
 6659TIP3    H119941   5.259   1.523   0.967
 6659TIP3    H219942   5.206   1.417   1.061
 6660TIP3   OH219943   2.448   6.299   2.425
 6660TIP3    H119944   2.449   6.249   2.506
 6660TIP3    H219945   2.467   6.234   2.357
 6661TIP3   OH219946   6.962   2.603   4.134
 6661TIP3    H119947   6.897   2.580   4.201
 6661TIP3    H219948   7.046   2.593   4.177
 6662TIP3   OH219949   5.618   5.979   5.470
 6662TIP3    H119950   5.691   6.030   5.505
 6662TIP3    H219951   5.652   5.941   5.389
 6663TIP3   OH219952   4.956   1.061   2.784
 6663TIP3    H119953   5.000   1.131   2.831
 6663TIP3    H219954   4.963   0.985   2.842
 6664TIP3   OH219955   1.967   0.267   0.799
 6664TIP3    H119956   1.951   0.313   0.882
 6664TIP3    H219957   2.062   0.265   0.790
 6665TIP3   OH219958   0.253   4.717   2.859
 6665TIP3    H119959   0.176   4.742   2.808
 6665TIP3    H219960   0.324   4.712   2.796
 6666TIP3   OH219961   1.037   3.141   1.260
 6666TIP3    H119962   0.962   3.123   1.203
 6666TIP3    H219963   1.069   3.226   1.231
 6667TIP3   OH219964   6.244   6.235   1.688
 6667TIP3    H119965   6.321   6.190   1.723
 6667TIP3    H219966   6.173   6.172   1.696
 6668TIP3   OH219967   6.866   6.549   2.511
 6668TIP3    H119968   6.896   6.630   2.471
 6668TIP3    H219969   6.822   6.576   2.591
 6669TIP3   OH219970   2.464   2.375   0.114
 6669TIP3    H119971   2.552   2.337   0.115
 6669TIP3    H219972   2.469   2.446   0.050
 6670TIP3   OH219973   0.966   2.153   0.846
 6670TIP3    H119974   0.933   2.222   0.903
 6670TIP3    H219975   0.974   2.076   0.902
 6671TIP3   OH219976   6.907   2.389   0.409
 6671TIP3    H119977   6.973   2.372   0.476
 6671TIP3    H219978   6.824   2.383   0.457
 6672TIP3   OH219979   0.805   3.825   4.681
 6672TIP3    H119980   0.738   3.840   4.748
 6672TIP3    H219981   0.887   3.853   4.722
 6673TIP3   OH219982   1.768   2.437   1.247
 6673TIP3    H119983   1.820   2.446   1.168
 6673TIP3    H219984   1.806   2.499   1.309
 6674TIP3   OH219985   5.029   3.323   2.960
 6674TIP3    H119986   4.985   3.399   2.997
 6674TIP3    H219987   5.019   3.334   2.865
 6675TIP3   OH219988   4.957   0.501   2.033
 6675TIP3    H119989   5.053   0.492   2.035
 6675TIP3    H219990   4.939   0.541   1.948
 6676TIP3   OH219991   3.161   1.699   0.829
 6676TIP3    H119992   3.111   1.764   0.879
 6676TIP3    H219993   3.101   1.669   0.762
 6677TIP3   OH219994   3.253   3.755   5.882
 6677TIP3    H119995   3.255   3.695   5.808
 6677TIP3    H219996   3.330   3.732   5.934
 6678TIP3   OH219997   2.651   0.522   0.183
 6678TIP3    H119998   2.736   0.481   0.198
 6678TIP3    H219999   2.590   0.469   0.235
 6679TIP3   OH220000   0.498   3.860   2.150
 6679TIP3    H120001   0.497   3.848   2.055
 6679TIP3    H220002   0.410   3.834   2.178
 6680TIP3   OH220003   5.936   3.971   3.960
 6680TIP3    H120004   5.845   3.956   3.934
 6680TIP3    H220005   5.981   3.888   3.941
 6681TIP3   OH220006   3.206   1.794   5.664
 6681TIP3    H120007   3.228   1.886   5.680
 6681TIP3    H220008   3.282   1.759   5.618
 6682TIP3   OH220009   3.965   5.835   1.944
 6682TIP3    H120010   4.042   5.880   1.980
 6682TIP3    H220011   3.901   5.905   1.929
 6683TIP3   OH220012   6.036   6.719   4.073
 6683TIP3    H120013   6.096   6.711   4.147
 6683TIP3    H220014   5.964   6.772   4.106
 6684TIP3   OH220015   4.809   5.658   5.181
 6684TIP3    H120016   4.794   5.571   5.217
 6684TIP3    H220017   4.867   5.644   5.107
 6685TIP3   OH220018   2.988   4.290   1.571
 6685TIP3    H120019   3.028   4.353   1.631
 6685TIP3    H220020   3.059   4.230   1.548
 6686TIP3   OH220021   1.629   3.078   5.716
 6686TIP3    H120022   1.571   3.004   5.731
 6686TIP3    H220023   1.572   3.155   5.721
 6687TIP3   OH220024   4.902   5.727   1.211
 6687TIP3    H120025   4.833   5.716   1.276
 6687TIP3    H220026   4.855   5.747   1.130
 6688TIP3   OH220027   0.989   5.055   3.310
 6688TIP3    H120028   1.023   5.087   3.393
 6688TIP3    H220029   1.010   4.962   3.310
 6689TIP3   OH220030   0.347   5.426   4.350
 6689TIP3    H120031   0.301   5.467   4.277
 6689TIP3    H220032   0.382   5.499   4.400
 6690TIP3   OH220033   4.436   0.701   4.860
 6690TIP3    H120034   4.468   0.614   4.836
 6690TIP3    H220035   4.418   0.695   4.954
 6691TIP3   OH220036   2.480   1.462   3.568
 6691TIP3    H120037   2.529   1.541   3.588
 6691TIP3    H220038   2.388   1.490   3.565
 6692TIP3   OH220039   2.860   0.519   3.138
 6692TIP3    H120040   2.866   0.489   3.048
 6692TIP3    H220041   2.838   0.440   3.188
 6693TIP3   OH220042   7.020   1.661   1.273
 6693TIP3    H120043   7.052   1.738   1.320
 6693TIP3    H220044   6.967   1.614   1.338
 6694TIP3   OH220045   1.782   1.394   5.442
 6694TIP3    H120046   1.732   1.353   5.371
 6694TIP3    H220047   1.873   1.368   5.426
 6695TIP3   OH220048   3.532   1.554   2.402
 6695TIP3    H120049   3.553   1.590   2.488
 6695TIP3    H220050   3.613   1.513   2.373
 6696TIP3   OH220051   1.263   6.045   2.456
 6696TIP3    H120052   1.344   6.043   2.506
 6696TIP3    H220053   1.200   6.087   2.515
 6697TIP3   OH220054   6.579   3.153   3.966
 6697TIP3    H120055   6.575   3.171   4.060
 6697TIP3    H220056   6.568   3.059   3.958
 6698TIP3   OH220057   5.135   6.044   1.625
 6698TIP3    H120058   5.052   6.084   1.598
 6698TIP3    H220059   5.180   6.114   1.672
 6699TIP3   OH220060   6.335   2.897   5.277
 6699TIP3    H120061   6.253   2.877   5.231
 6699TIP3    H220062   6.317   2.874   5.368
 6700TIP3   OH220063   3.644   1.004   1.974
 6700TIP3    H120064   3.580   0.973   2.039
 6700TIP3    H220065   3.642   1.100   1.984
 6701TIP3   OH220066   5.660   2.394   3.651
 6701TIP3    H120067   5.684   2.311   3.609
 6701TIP3    H220068   5.587   2.372   3.709
 6702TIP3   OH220069   1.266   4.381   1.905
 6702TIP3    H120070   1.277   4.415   1.816
 6702TIP3    H220071   1.299   4.451   1.961
 6703TIP3   OH220072   5.127   5.656   3.412
 6703TIP3    H120073   5.104   5.674   3.503
 6703TIP3    H220074   5.106   5.737   3.366
 6704TIP3   OH220075   2.291   3.341   3.531
 6704TIP3    H120076   2.373   3.360   3.485
 6704TIP3    H220077   2.277   3.248   3.516
 6705TIP3   OH220078   0.377   2.109   1.502
 6705TIP3    H120079   0.424   2.097   1.419
 6705TIP3    H220080   0.436   2.161   1.556
 6706TIP3   OH220081   5.289   0.906   4.505
 6706TIP3    H120082   5.321   0.816   4.518
 6706TIP3    H220083   5.194   0.899   4.516
 6707TIP3   OH220084   5.199   6.233   1.993
 6707TIP3    H120085   5.119   6.272   2.028
 6707TIP3    H220086   5.190   6.242   1.898
 6708TIP3   OH220087   4.619   0.747   1.693
 6708TIP3    H120088   4.676   0.803   1.641
 6708TIP3    H220089   4.652   0.755   1.782
 6709TIP3   OH220090   1.709   4.421   4.402
 6709TIP3    H120091   1.797   4.388   4.419
 6709TIP3    H220092   1.659   4.399   4.481
 6710TIP3   OH220093   7.135   4.214   3.424
 6710TIP3    H120094   7.095   4.135   3.387
 6710TIP3    H220095   7.165   4.263   3.348
 6711TIP3   OH220096   6.581   1.361   2.675
 6711TIP3    H120097   6.611   1.350   2.585
 6711TIP3    H220098   6.578   1.456   2.687
 6712TIP3   OH220099   5.426   3.014   5.251
 6712TIP3    H120100   5.487   2.945   5.278
 6712TIP3    H220101   5.340   2.972   5.251
 6713TIP3   OH220102   1.422   5.898   1.909
 6713TIP3    H120103   1.435   5.949   1.829
 6713TIP3    H220104   1.487   5.932   1.970
 6714TIP3   OH220105   3.721   6.035   0.111
 6714TIP3    H120106   3.726   5.994   0.025
 6714TIP3    H220107   3.645   5.993   0.153
 6715TIP3   OH220108   0.477   5.853   5.494
 6715TIP3    H120109   0.458   5.929   5.549
 6715TIP3    H220110   0.542   5.885   5.431
 6716TIP3   OH220111   3.738   3.868   2.630
 6716TIP3    H120112   3.764   3.777   2.643
 6716TIP3    H220113   3.707   3.872   2.539
 6717TIP3   OH220114   0.396   2.537   2.235
 6717TIP3    H120115   0.457   2.611   2.229
 6717TIP3    H220116   0.425   2.487   2.311
 6718TIP3   OH220117   4.241   2.518   2.087
 6718TIP3    H120118   4.180   2.548   2.019
 6718TIP3    H220119   4.277   2.599   2.124
 6719TIP3   OH220120   4.143   4.463   1.783
 6719TIP3    H120121   4.233   4.489   1.805
 6719TIP3    H220122   4.154   4.396   1.715
 6720TIP3   OH220123   2.599   1.604   5.872
 6720TIP3    H120124   2.526   1.596   5.933
 6720TIP3    H220125   2.590   1.529   5.814
 6721TIP3   OH220126   0.641   4.853   3.669
 6721TIP3    H120127   0.721   4.803   3.684
 6721TIP3    H220128   0.580   4.821   3.736
 6722TIP3   OH220129   3.963   6.721   5.118
 6722TIP3    H120130   3.883   6.773   5.125
 6722TIP3    H220131   4.005   6.731   5.204
 6723TIP3   OH220132   1.018   4.187   1.252
 6723TIP3    H120133   1.103   4.219   1.221
 6723TIP3    H220134   0.958   4.205   1.180
 6724TIP3   OH220135   5.965   6.040   5.080
 6724TIP3    H120136   5.937   5.949   5.076
 6724TIP3    H220137   5.963   6.070   4.988
 6725TIP3   OH220138   1.473   0.287   0.020
 6725TIP3    H120139   1.392   0.275   0.070
 6725TIP3    H220140   1.501   0.376   0.043
 6726TIP3   OH220141   4.374   1.624   1.315
 6726TIP3    H120142   4.423   1.616   1.233
 6726TIP3    H220143   4.364   1.718   1.327
 6727TIP3   OH220144   1.479   5.343   2.878
 6727TIP3    H120145   1.560   5.392   2.866
 6727TIP3    H220146   1.485   5.270   2.816
 6728TIP3   OH220147   0.313   1.542   5.328
 6728TIP3    H120148   0.386   1.486   5.356
 6728TIP3    H220149   0.347   1.588   5.251
 6729TIP3   OH220150   0.371   3.500   1.411
 6729TIP3    H120151   0.319   3.480   1.333
 6729TIP3    H220152   0.461   3.506   1.378
 6730TIP3   OH220153   3.881   6.176   5.052
 6730TIP3    H120154   3.911   6.114   4.985
 6730TIP3    H220155   3.821   6.126   5.106
 6731TIP3   OH220156   5.453   0.839   2.982
 6731TIP3    H120157   5.516   0.769   2.966
 6731TIP3    H220158   5.502   0.904   3.034
 6732TIP3   OH220159   1.270   2.800   5.585
 6732TIP3    H120160   1.291   2.876   5.531
 6732TIP3    H220161   1.233   2.737   5.524
 6733TIP3   OH220162   2.657   3.715   2.646
 6733TIP3    H120163   2.729   3.740   2.587
 6733TIP3    H220164   2.690   3.736   2.734
 6734TIP3   OH220165   2.871   4.502   1.408
 6734TIP3    H120166   2.885   4.428   1.467
 6734TIP3    H220167   2.952   4.552   1.411
 6735TIP3   OH220168   2.674   2.337   2.334
 6735TIP3    H120169   2.768   2.325   2.347
 6735TIP3    H220170   2.634   2.264   2.380
 6736TIP3   OH220171   6.162   6.271   2.941
 6736TIP3    H120172   6.108   6.229   2.874
 6736TIP3    H220173   6.243   6.221   2.942
 6737TIP3   OH220174   6.484   1.393   4.812
 6737TIP3    H120175   6.459   1.485   4.799
 6737TIP3    H220176   6.519   1.390   4.902
 6738TIP3   OH220177   2.443   0.640   3.311
 6738TIP3    H120178   2.468   0.584   3.238
 6738TIP3    H220179   2.386   0.586   3.365
 6739TIP3   OH220180   1.933   6.372   0.731
 6739TIP3    H120181   1.967   6.461   0.732
 6739TIP3    H220182   1.971   6.334   0.651
 6740TIP3   OH220183   0.295   2.272   0.238
 6740TIP3    H120184   0.361   2.217   0.280
 6740TIP3    H220185   0.346   2.340   0.194
 6741TIP3   OH220186   2.846   5.572   3.626
 6741TIP3    H120187   2.769   5.573   3.569
 6741TIP3    H220188   2.819   5.522   3.702
 6742TIP3   OH220189   4.149   6.198   4.781
 6742TIP3    H120190   4.142   6.133   4.711
 6742TIP3    H220191   4.060   6.233   4.791
 6743TIP3   OH220192   6.115   0.749   3.758
 6743TIP3    H120193   6.082   0.678   3.814
 6743TIP3    H220194   6.129   0.708   3.673
 6744TIP3   OH220195   1.950   1.550   4.167
 6744TIP3    H120196   1.867   1.580   4.129
 6744TIP3    H220197   1.924   1.483   4.231
 6745TIP3   OH220198   5.249   3.157   2.641
 6745TIP3    H120199   5.241   3.078   2.587
 6745TIP3    H220200   5.177   3.213   2.613
 6746TIP3   OH220201   6.598   0.119   5.802
 6746TIP3    H120202   6.520   0.100   5.750
 6746TIP3    H220203   6.668   0.132   5.738
 6747TIP3   OH220204   2.371   0.452   4.834
 6747TIP3    H120205   2.309   0.381   4.847
 6747TIP3    H220206   2.456   0.417   4.861
 6748TIP3   OH220207   4.448   5.020   3.089
 6748TIP3    H120208   4.434   5.068   3.170
 6748TIP3    H220209   4.543   5.005   3.087
 6749TIP3   OH220210   1.195   2.148   4.679
 6749TIP3    H120211   1.204   2.136   4.774
 6749TIP3    H220212   1.124   2.089   4.654
 6750TIP3   OH220213   3.381   0.893   0.863
 6750TIP3    H120214   3.465   0.848   0.872
 6750TIP3    H220215   3.393   0.977   0.908
 6751TIP3   OH220216   4.468   3.540   0.129
 6751TIP3    H120217   4.549   3.490   0.123
 6751TIP3    H220218   4.400   3.475   0.146
 6752TIP3   OH220219   0.862   6.485   5.337
 6752TIP3    H120220   0.915   6.466   5.414
 6752TIP3    H220221   0.788   6.537   5.371
 6753TIP3   OH220222   4.739   4.143   4.961
 6753TIP3    H120223   4.762   4.235   4.950
 6753TIP3    H220224   4.784   4.116   5.041
 6754TIP3   OH220225   5.028   0.701   4.671
 6754TIP3    H120226   4.998   0.743   4.751
 6754TIP3    H220227   5.120   0.682   4.688
 6755TIP3   OH220228   4.929   3.119   2.723
 6755TIP3    H120229   4.847   3.102   2.676
 6755TIP3    H220230   4.906   3.106   2.815
 6756TIP3   OH220231   5.015   5.526   5.603
 6756TIP3    H120232   5.038   5.606   5.555
 6756TIP3    H220233   4.979   5.557   5.686
 6757TIP3   OH220234   2.006   1.959   0.768
 6757TIP3    H120235   1.979   1.966   0.859
 6757TIP3    H220236   2.000   1.865   0.748
 6758TIP3   OH220237   1.184   0.980   0.599
 6758TIP3    H120238   1.133   1.040   0.544
 6758TIP3    H220239   1.236   1.038   0.655
 6759TIP3   OH220240   1.575   4.648   3.988
 6759TIP3    H120241   1.652   4.640   4.045
 6759TIP3    H220242   1.607   4.623   3.901
 6760TIP3   OH220243   0.116   5.913   1.188
 6760TIP3    H120244   0.153   5.856   1.256
 6760TIP3    H220245   0.077   5.986   1.236
 6761TIP3   OH220246   2.494   1.921   4.826
 6761TIP3    H120247   2.529   1.881   4.747
 6761TIP3    H220248   2.443   1.852   4.868
 6762TIP3   OH220249   5.451   6.083   4.616
 6762TIP3    H120250   5.476   6.171   4.644
 6762TIP3    H220251   5.453   6.086   4.521
 6763TIP3   OH220252   2.743   2.446   4.508
 6763TIP3    H120253   2.707   2.534   4.515
 6763TIP3    H220254   2.676   2.390   4.548
 6764TIP3   OH220255   3.705   2.752   3.593
 6764TIP3    H120256   3.792   2.790   3.583
 6764TIP3    H220257   3.668   2.798   3.668
 6765TIP3   OH220258   4.819   1.038   2.186
 6765TIP3    H120259   4.776   1.122   2.207
 6765TIP3    H220260   4.866   1.055   2.105
 6766TIP3   OH220261   6.753   3.885   2.867
 6766TIP3    H120262   6.726   3.888   2.959
 6766TIP3    H220263   6.749   3.976   2.837
 6767TIP3   OH220264   3.955   3.595   1.235
 6767TIP3    H120265   4.049   3.614   1.241
 6767TIP3    H220266   3.925   3.647   1.160
 6768TIP3   OH220267   0.925   3.799   0.753
 6768TIP3    H120268   0.982   3.866   0.716
 6768TIP3    H220269   0.837   3.837   0.748
 6769TIP3   OH220270   6.689   0.416   2.304
 6769TIP3    H120271   6.616   0.415   2.365
 6769TIP3    H220272   6.748   0.484   2.338
 6770TIP3   OH220273   0.439   0.717   1.577
 6770TIP3    H120274   0.467   0.734   1.667
 6770TIP3    H220275   0.352   0.756   1.571
 6771TIP3   OH220276   3.851   4.234   3.955
 6771TIP3    H120277   3.916   4.258   3.889
 6771TIP3    H220278   3.840   4.139   3.944
 6772TIP3   OH220279   5.184   4.144   1.635
 6772TIP3    H120280   5.249   4.076   1.620
 6772TIP3    H220281   5.162   4.175   1.547
 6773TIP3   OH220282   1.969   6.815   4.636
 6773TIP3    H120283   2.018   6.813   4.718
 6773TIP3    H220284   1.966   6.723   4.608
 6774TIP3   OH220285   4.294   6.774   5.094
 6774TIP3    H120286   4.339   6.796   5.176
 6774TIP3    H220287   4.298   6.678   5.089
 6775TIP3   OH220288   6.525   2.899   3.909
 6775TIP3    H120289   6.502   2.827   3.967
 6775TIP3    H220290   6.461   2.895   3.838
 6776TIP3   OH220291   3.105   0.714   5.479
 6776TIP3    H120292   3.184   0.733   5.528
 6776TIP3    H220293   3.038   0.770   5.519
 6777TIP3   OH220294   5.380   2.821   4.838
 6777TIP3    H120295   5.369   2.728   4.858
 6777TIP3    H220296   5.292   2.858   4.842
 6778TIP3   OH220297   0.139   2.147   2.083
 6778TIP3    H120298   0.147   2.080   2.015
 6778TIP3    H220299   0.075   2.209   2.047
 6779TIP3   OH220300   0.802   4.610   3.637
 6779TIP3    H120301   0.788   4.545   3.568
 6779TIP3    H220302   0.897   4.609   3.651
 6780TIP3   OH220303   2.187   2.737   2.559
 6780TIP3    H120304   2.239   2.657   2.561
 6780TIP3    H220305   2.206   2.780   2.643
 6781TIP3   OH220306   2.195   3.533   0.609
 6781TIP3    H120307   2.178   3.616   0.564
 6781TIP3    H220308   2.152   3.467   0.555
 6782TIP3   OH220309   4.507   4.329   1.952
 6782TIP3    H120310   4.598   4.346   1.976
 6782TIP3    H220311   4.456   4.390   2.005
 6783TIP3   OH220312   5.106   1.298   5.388
 6783TIP3    H120313   5.035   1.337   5.440
 6783TIP3    H220314   5.119   1.212   5.427
 6784TIP3   OH220315   6.321   2.055   0.452
 6784TIP3    H120316   6.396   1.995   0.458
 6784TIP3    H220317   6.287   2.058   0.542
 6785TIP3   OH220318   1.894   2.806   0.798
 6785TIP3    H120319   1.948   2.743   0.751
 6785TIP3    H220320   1.819   2.756   0.829
 6786TIP3   OH220321   5.440   0.431   1.495
 6786TIP3    H120322   5.359   0.442   1.445
 6786TIP3    H220323   5.495   0.375   1.441
 6787TIP3   OH220324   7.061   0.826   1.555
 6787TIP3    H120325   7.057   0.851   1.463
 6787TIP3    H220326   7.132   0.879   1.591
 6788TIP3   OH220327   7.044   0.038   1.149
 6788TIP3    H120328   6.974   0.088   1.190
 6788TIP3    H220329   7.091   0.102   1.095
 6789TIP3   OH220330   3.807   5.616   2.446
 6789TIP3    H120331   3.746   5.543   2.438
 6789TIP3    H220332   3.864   5.591   2.519
 6790TIP3   OH220333   0.034   6.320   3.830
 6790TIP3    H120334   0.099   6.380   3.866
 6790TIP3    H220335   0.032   6.247   3.891
 6791TIP3   OH220336   2.143   1.138   0.776
 6791TIP3    H120337   2.047   1.140   0.771
 6791TIP3    H220338   2.164   1.196   0.849
 6792TIP3   OH220339   1.607   6.336   3.677
 6792TIP3    H120340   1.545   6.335   3.750
 6792TIP3    H220341   1.693   6.339   3.719
 6793TIP3   OH220342   1.287   0.988   1.615
 6793TIP3    H120343   1.224   0.998   1.544
 6793TIP3    H220344   1.241   0.937   1.682
 6794TIP3   OH220345   3.120   5.552   3.976
 6794TIP3    H120346   3.146   5.465   3.945
 6794TIP3    H220347   3.052   5.534   4.041
 6795TIP3   OH220348   6.752   1.078   2.343
 6795TIP3    H120349   6.769   1.015   2.413
 6795TIP3    H220350   6.728   1.024   2.267
 6796TIP3   OH220351   1.191   5.948   1.669
 6796TIP3    H120352   1.265   6.000   1.702
 6796TIP3    H220353   1.136   5.933   1.745
 6797TIP3   OH220354   1.208   1.838   0.247
 6797TIP3    H120355   1.220   1.921   0.292
 6797TIP3    H220356   1.212   1.772   0.316
 6798TIP3   OH220357   2.329   1.128   5.097
 6798TIP3    H120358   2.308   1.092   5.011
 6798TIP3    H220359   2.245   1.130   5.143
 6799TIP3   OH220360   4.103   4.986   3.411
 6799TIP3    H120361   4.053   4.941   3.479
 6799TIP3    H220362   4.058   5.070   3.399
 6800TIP3   OH220363   2.222   1.148   3.486
 6800TIP3    H120364   2.309   1.115   3.465
 6800TIP3    H220365   2.225   1.166   3.580
 6801TIP3   OH220366   0.427   1.984   0.732
 6801TIP3    H120367   0.486   2.059   0.745
 6801TIP3    H220368   0.355   2.018   0.679
 6802TIP3   OH220369   2.559   4.646   1.924
 6802TIP3    H120370   2.558   4.739   1.948
 6802TIP3    H220371   2.574   4.600   2.007
 6803TIP3   OH220372   3.397   2.814   1.026
 6803TIP3    H120373   3.364   2.726   1.045
 6803TIP3    H220374   3.472   2.799   0.968
 6804TIP3   OH220375   2.254   3.795   0.211
 6804TIP3    H120376   2.327   3.819   0.155
 6804TIP3    H220377   2.179   3.843   0.175
 6805TIP3   OH220378   1.926   0.736   0.670
 6805TIP3    H120379   1.861   0.675   0.706
 6805TIP3    H220380   1.875   0.796   0.616
 6806TIP3   OH220381   5.456   5.577   4.791
 6806TIP3    H120382   5.502   5.660   4.783
 6806TIP3    H220383   5.485   5.526   4.715
 6807TIP3   OH220384   1.224   2.734   3.148
 6807TIP3    H120385   1.231   2.743   3.243
 6807TIP3    H220386   1.314   2.725   3.117
 6808TIP3   OH220387   3.313   0.077   0.246
 6808TIP3    H120388   3.332   0.142   0.315
 6808TIP3    H220389   3.359  -0.002   0.275
 6809TIP3   OH220390   4.749   5.819   1.012
 6809TIP3    H120391   4.803   5.889   0.977
 6809TIP3    H220392   4.669   5.863   1.043
 6810TIP3   OH220393   1.303   4.176   2.588
 6810TIP3    H120394   1.310   4.249   2.649
 6810TIP3    H220395   1.362   4.199   2.517
 6811TIP3   OH220396   4.984   0.864   1.981
 6811TIP3    H120397   5.028   0.879   1.898
 6811TIP3    H220398   4.907   0.812   1.959
 6812TIP3   OH220399   1.383   1.407   4.877
 6812TIP3    H120400   1.410   1.381   4.789
 6812TIP3    H220401   1.363   1.325   4.922
 6813TIP3   OH220402   3.875   3.393   0.540
 6813TIP3    H120403   3.797   3.448   0.545
 6813TIP3    H220404   3.883   3.354   0.628
 6814TIP3   OH220405   2.011   3.904   0.809
 6814TIP3    H120406   1.985   3.981   0.759
 6814TIP3    H220407   1.946   3.897   0.879
 6815TIP3   OH220408   3.938   0.366   0.171
 6815TIP3    H120409   3.924   0.424   0.246
 6815TIP3    H220410   3.860   0.311   0.169
 6816TIP3   OH220411   4.065   6.318   3.522
 6816TIP3    H120412   4.004   6.341   3.451
 6816TIP3    H220413   4.129   6.389   3.522
 6817TIP3   OH220414   4.552   0.464   1.200
 6817TIP3    H120415   4.515   0.385   1.238
 6817TIP3    H220416   4.556   0.446   1.106
 6818TIP3   OH220417   3.595   1.268   4.357
 6818TIP3    H120418   3.556   1.303   4.437
 6818TIP3    H220419   3.622   1.345   4.307
 6819TIP3   OH220420   7.141   6.114   3.200
 6819TIP3    H120421   7.218   6.147   3.245
 6819TIP3    H220422   7.172   6.039   3.150
 6820TIP3   OH220423   7.205   1.223   4.002
 6820TIP3    H120424   7.171   1.135   3.986
 6820TIP3    H220425   7.167   1.249   4.085
 6821TIP3   OH220426   5.913   0.895   2.899
 6821TIP3    H120427   5.924   0.802   2.879
 6821TIP3    H220428   5.988   0.937   2.856
 6822TIP3   OH220429   6.890   2.420   3.660
 6822TIP3    H120430   6.859   2.363   3.730
 6822TIP3    H220431   6.862   2.377   3.580
 6823TIP3   OH220432   5.066   4.503   4.087
 6823TIP3    H120433   4.986   4.541   4.049
 6823TIP3    H220434   5.128   4.577   4.088
 6824TIP3   OH220435   0.597   1.166   0.431
 6824TIP3    H120436   0.504   1.171   0.455
 6824TIP3    H220437   0.632   1.095   0.484
 6825TIP3   OH220438   1.917   4.266   3.267
 6825TIP3    H120439   1.886   4.178   3.286
 6825TIP3    H220440   1.958   4.259   3.181
 6826TIP3   OH220441   1.025   2.816   2.546
 6826TIP3    H120442   1.094   2.759   2.512
 6826TIP3    H220443   1.000   2.871   2.472
 6827TIP3   OH220444   5.605   3.943   2.831
 6827TIP3    H120445   5.561   4.010   2.779
 6827TIP3    H220446   5.689   3.930   2.787
 6828TIP3   OH220447   2.402   6.087   0.948
 6828TIP3    H120448   2.495   6.103   0.966
 6828TIP3    H220449   2.358   6.107   1.031
 6829TIP3   OH220450   4.617   5.890   3.156
 6829TIP3    H120451   4.556   5.838   3.209
 6829TIP3    H220452   4.562   5.927   3.087
 6830TIP3   OH220453   0.540   3.200   2.381
 6830TIP3    H120454   0.563   3.126   2.438
 6830TIP3    H220455   0.445   3.203   2.383
 6831TIP3   OH220456   6.182   4.051   1.992
 6831TIP3    H120457   6.198   3.974   2.046
 6831TIP3    H220458   6.269   4.090   1.980
 6832TIP3   OH220459   5.019   5.252   0.974
 6832TIP3    H120460   5.057   5.237   1.061
 6832TIP3    H220461   5.052   5.338   0.947
 6833TIP3   OH220462   4.084   4.476   1.329
 6833TIP3    H120463   4.008   4.445   1.280
 6833TIP3    H220464   4.148   4.501   1.262
 6834TIP3   OH220465   1.306   4.080   1.979
 6834TIP3    H120466   1.285   4.003   1.926
 6834TIP3    H220467   1.306   4.153   1.917
 6835TIP3   OH220468   3.617   1.302   5.330
 6835TIP3    H120469   3.710   1.283   5.345
 6835TIP3    H220470   3.574   1.216   5.333
 6836TIP3   OH220471   2.596   2.160   5.235
 6836TIP3    H120472   2.595   2.074   5.276
 6836TIP3    H220473   2.540   2.151   5.158
 6837TIP3   OH220474   0.538   3.854   0.531
 6837TIP3    H120475   0.536   3.877   0.438
 6837TIP3    H220476   0.580   3.769   0.534
 6838TIP3   OH220477   6.514   0.129   2.201
 6838TIP3    H120478   6.505   0.037   2.176
 6838TIP3    H220479   6.426   0.154   2.231
 6839TIP3   OH220480   5.697   0.400   4.010
 6839TIP3    H120481   5.708   0.305   4.021
 6839TIP3    H220482   5.731   0.417   3.922
 6840TIP3   OH220483   2.820   0.605   0.536
 6840TIP3    H120484   2.771   0.539   0.489
 6840TIP3    H220485   2.839   0.673   0.471
 6841TIP3   OH220486   2.070   4.543   1.592
 6841TIP3    H120487   2.089   4.634   1.567
 6841TIP3    H220488   2.138   4.521   1.655
 6842TIP3   OH220489   0.192   3.570   3.626
 6842TIP3    H120490   0.145   3.491   3.598
 6842TIP3    H220491   0.227   3.549   3.712
 6843TIP3   OH220492   0.054   3.448   1.024
 6843TIP3    H120493   0.057   3.398   0.942
 6843TIP3    H220494   0.014   3.387   1.087
 6844TIP3   OH220495   0.693   6.195   2.927
 6844TIP3    H120496   0.647   6.150   2.857
 6844TIP3    H220497   0.642   6.176   3.006
 6845TIP3   OH220498   6.886   5.835   0.141
 6845TIP3    H120499   6.928   5.869   0.062
 6845TIP3    H220500   6.940   5.869   0.213
 6846TIP3   OH220501   5.827   6.772   5.570
 6846TIP3    H120502   5.867   6.857   5.550
 6846TIP3    H220503   5.777   6.787   5.650
 6847TIP3   OH220504   5.773   4.690   3.898
 6847TIP3    H120505   5.735   4.750   3.962
 6847TIP3    H220506   5.864   4.717   3.890
 6848TIP3   OH220507   3.439   6.437   4.519
 6848TIP3    H120508   3.353   6.478   4.514
 6848TIP3    H220509   3.435   6.364   4.458
 6849TIP3   OH220510   5.286   4.895   5.433
 6849TIP3    H120511   5.262   4.911   5.524
 6849TIP3    H220512   5.319   4.979   5.401
 6850TIP3   OH220513   7.117   5.130   2.855
 6850TIP3    H120514   7.081   5.133   2.944
 6850TIP3    H220515   7.074   5.055   2.814
 6851TIP3   OH220516   5.312   2.015   4.535
 6851TIP3    H120517   5.268   2.030   4.451
 6851TIP3    H220518   5.262   1.945   4.576
 6852TIP3   OH220519   6.719   4.941   0.923
 6852TIP3    H120520   6.751   5.003   0.857
 6852TIP3    H220521   6.628   4.925   0.899
 6853TIP3   OH220522   0.373   4.049   4.789
 6853TIP3    H120523   0.302   4.025   4.847
 6853TIP3    H220524   0.355   4.002   4.707
 6854TIP3   OH220525   2.323   4.123   0.086
 6854TIP3    H120526   2.332   4.213   0.117
 6854TIP3    H220527   2.412   4.088   0.085
 6855TIP3   OH220528   2.297   4.140   0.952
 6855TIP3    H120529   2.308   4.162   1.044
 6855TIP3    H220530   2.311   4.045   0.949
 6856TIP3   OH220531   2.935   5.354   4.988
 6856TIP3    H120532   2.856   5.369   5.039
 6856TIP3    H220533   2.969   5.271   5.022
 6857TIP3   OH220534   3.365   6.303   0.647
 6857TIP3    H120535   3.438   6.316   0.587
 6857TIP3    H220536   3.403   6.316   0.734
 6858TIP3   OH220537   0.639   1.480   3.062
 6858TIP3    H120538   0.674   1.550   3.008
 6858TIP3    H220539   0.559   1.516   3.099
 6859TIP3   OH220540   1.114   0.813   1.743
 6859TIP3    H120541   1.112   0.751   1.816
 6859TIP3    H220542   1.040   0.786   1.688
 6860TIP3   OH220543   6.175   5.061   5.843
 6860TIP3    H120544   6.266   5.048   5.817
 6860TIP3    H220545   6.164   5.010   5.923
 6861TIP3   OH220546   5.387   0.727   4.278
 6861TIP3    H120547   5.449   0.661   4.248
 6861TIP3    H220548   5.436   0.809   4.278
 6862TIP3   OH220549   0.820   5.466   5.382
 6862TIP3    H120550   0.736   5.424   5.400
 6862TIP3    H220551   0.851   5.494   5.468
 6863TIP3   OH220552   6.026   5.787   3.648
 6863TIP3    H120553   5.958   5.825   3.703
 6863TIP3    H220554   6.106   5.832   3.674
 6864TIP3   OH220555   0.193   2.799   2.879
 6864TIP3    H120556   0.210   2.712   2.844
 6864TIP3    H220557   0.220   2.859   2.809
 6865TIP3   OH220558   2.301   3.994   3.716
 6865TIP3    H120559   2.312   4.056   3.645
 6865TIP3    H220560   2.210   4.002   3.742
 6866TIP3   OH220561   3.340   1.120   4.449
 6866TIP3    H120562   3.382   1.201   4.475
 6866TIP3    H220563   3.406   1.052   4.464
 6867TIP3   OH220564   0.716   3.136   5.581
 6867TIP3    H120565   0.739   3.072   5.648
 6867TIP3    H220566   0.778   3.208   5.595
 6868TIP3   OH220567   4.610   5.958   0.756
 6868TIP3    H120568   4.521   5.955   0.721
 6868TIP3    H220569   4.625   6.051   0.775
 6869TIP3   OH220570   2.287   2.266   0.281
 6869TIP3    H120571   2.349   2.294   0.214
 6869TIP3    H220572   2.207   2.244   0.233
 6870TIP3   OH220573   2.224   6.031   1.170
 6870TIP3    H120574   2.240   6.028   1.264
 6870TIP3    H220575   2.131   6.051   1.161
 6871TIP3   OH220576   5.302   0.785   1.151
 6871TIP3    H120577   5.217   0.741   1.143
 6871TIP3    H220578   5.295   0.838   1.230
 6872TIP3   OH220579   2.551   5.273   2.488
 6872TIP3    H120580   2.636   5.312   2.466
 6872TIP3    H220581   2.517   5.241   2.404
 6873TIP3   OH220582   3.083   0.230   5.122
 6873TIP3    H120583   3.088   0.210   5.216
 6873TIP3    H220584   3.130   0.313   5.112
 6874TIP3   OH220585   3.676   0.187   1.555
 6874TIP3    H120586   3.698   0.231   1.473
 6874TIP3    H220587   3.582   0.171   1.550
 6875TIP3   OH220588   6.393   2.518   2.357
 6875TIP3    H120589   6.433   2.433   2.343
 6875TIP3    H220590   6.404   2.535   2.451
 6876TIP3   OH220591   6.122   3.224   4.709
 6876TIP3    H120592   6.182   3.150   4.714
 6876TIP3    H220593   6.175   3.297   4.676
 6877TIP3   OH220594   4.898   0.506   3.657
 6877TIP3    H120595   4.881   0.534   3.747
 6877TIP3    H220596   4.811   0.486   3.621
 6878TIP3   OH220597   5.101   2.925   4.906
 6878TIP3    H120598   5.058   2.974   4.835
 6878TIP3    H220599   5.170   2.983   4.937
 6879TIP3   OH220600   2.598   2.094   3.390
 6879TIP3    H120601   2.517   2.094   3.441
 6879TIP3    H220602   2.572   2.062   3.303
 6880TIP3   OH220603   5.225   5.350   3.642
 6880TIP3    H120604   5.248   5.441   3.659
 6880TIP3    H220605   5.268   5.301   3.711
 6881TIP3   OH220606   2.518   0.340   5.490
 6881TIP3    H120607   2.436   0.306   5.526
 6881TIP3    H220608   2.514   0.320   5.397
 6882TIP3   OH220609   1.963   4.439   2.308
 6882TIP3    H120610   2.005   4.502   2.249
 6882TIP3    H220611   1.898   4.395   2.254
 6883TIP3   OH220612   6.361   3.066   4.705
 6883TIP3    H120613   6.311   3.001   4.754
 6883TIP3    H220614   6.452   3.037   4.711
 6884TIP3   OH220615   4.182   2.942   5.568
 6884TIP3    H120616   4.178   2.975   5.479
 6884TIP3    H220617   4.239   2.865   5.563
 6885TIP3   OH220618   5.666   1.680   0.586
 6885TIP3    H120619   5.745   1.634   0.616
 6885TIP3    H220620   5.648   1.641   0.500
 6886TIP3   OH220621   3.168   2.656   0.649
 6886TIP3    H120622   3.107   2.583   0.651
 6886TIP3    H220623   3.255   2.616   0.645
 6887TIP3   OH220624   1.625   5.188   0.396
 6887TIP3    H120625   1.612   5.144   0.312
 6887TIP3    H220626   1.584   5.274   0.385
 6888TIP3   OH220627   4.392   0.894   1.429
 6888TIP3    H120628   4.356   0.973   1.387
 6888TIP3    H220629   4.382   0.826   1.363
 6889TIP3   OH220630   0.486   3.359   4.338
 6889TIP3    H120631   0.450   3.386   4.253
 6889TIP3    H220632   0.517   3.440   4.378
 6890TIP3   OH220633   4.729   2.780   5.835
 6890TIP3    H120634   4.658   2.833   5.870
 6890TIP3    H220635   4.762   2.830   5.760
 6891TIP3   OH220636   0.313   3.225   0.791
 6891TIP3    H120637   0.250   3.160   0.760
 6891TIP3    H220638   0.398   3.182   0.782
 6892TIP3   OH220639   4.366   4.370   3.521
 6892TIP3    H120640   4.369   4.403   3.611
 6892TIP3    H220641   4.417   4.289   3.523
 6893TIP3   OH220642   0.620   6.583   5.462
 6893TIP3    H120643   0.553   6.515   5.466
 6893TIP3    H220644   0.598   6.644   5.532
 6894TIP3   OH220645   2.702   6.635   0.600
 6894TIP3    H120646   2.741   6.682   0.674
 6894TIP3    H220647   2.777   6.593   0.557
 6895TIP3   OH220648   0.094   0.600   0.901
 6895TIP3    H120649   0.059   0.537   0.964
 6895TIP3    H220650   0.037   0.677   0.910
 6896TIP3   OH220651   0.303   2.936   0.387
 6896TIP3    H120652   0.252   3.002   0.435
 6896TIP3    H220653   0.258   2.854   0.403
 6897TIP3   OH220654   6.503   3.619   2.270
 6897TIP3    H120655   6.580   3.642   2.218
 6897TIP3    H220656   6.453   3.701   2.276
 6898TIP3   OH220657   0.965   6.770   5.445
 6898TIP3    H120658   1.060   6.782   5.456
 6898TIP3    H220659   0.934   6.746   5.532
 6899TIP3   OH220660   2.416   6.573   3.420
 6899TIP3    H120661   2.398   6.482   3.442
 6899TIP3    H220662   2.510   6.577   3.407
 6900TIP3   OH220663   3.562   6.704   2.272
 6900TIP3    H120664   3.566   6.628   2.329
 6900TIP3    H220665   3.475   6.740   2.286
 6901TIP3   OH220666   0.620   5.226   5.070
 6901TIP3    H120667   0.714   5.235   5.084
 6901TIP3    H220668   0.607   5.247   4.978
 6902TIP3   OH220669   4.134   1.802   4.974
 6902TIP3    H120670   4.138   1.892   5.009
 6902TIP3    H220671   4.043   1.790   4.949
 6903TIP3   OH220672   4.226   3.273   4.269
 6903TIP3    H120673   4.296   3.275   4.204
 6903TIP3    H220674   4.257   3.211   4.336
 6904TIP3   OH220675   2.638   5.807   2.244
 6904TIP3    H120676   2.710   5.819   2.305
 6904TIP3    H220677   2.658   5.726   2.198
 6905TIP3   OH220678   5.105   3.807   5.666
 6905TIP3    H120679   5.169   3.776   5.731
 6905TIP3    H220680   5.151   3.800   5.582
 6906TIP3   OH220681   1.582   3.464   1.148
 6906TIP3    H120682   1.677   3.471   1.142
 6906TIP3    H220683   1.568   3.389   1.206
 6907TIP3   OH220684   1.936   6.504   1.897
 6907TIP3    H120685   1.903   6.520   1.986
 6907TIP3    H220686   1.925   6.588   1.853
 6908TIP3   OH220687   3.241   6.784   1.438
 6908TIP3    H120688   3.227   6.759   1.347
 6908TIP3    H220689   3.325   6.829   1.438
 6909TIP3   OH220690   6.867   6.008   3.083
 6909TIP3    H120691   6.873   6.034   2.991
 6909TIP3    H220692   6.952   6.030   3.120
 6910TIP3   OH220693   3.223   0.413   1.781
 6910TIP3    H120694   3.175   0.349   1.728
 6910TIP3    H220695   3.295   0.441   1.724
 6911TIP3   OH220696   2.498   3.620   3.034
 6911TIP3    H120697   2.574   3.622   2.975
 6911TIP3    H220698   2.533   3.650   3.118
 6912TIP3   OH220699   0.849   5.392   1.360
 6912TIP3    H120700   0.886   5.479   1.344
 6912TIP3    H220701   0.907   5.353   1.425
 6913TIP3   OH220702   3.977   3.581   5.678
 6913TIP3    H120703   3.938   3.622   5.755
 6913TIP3    H220704   3.913   3.514   5.652
 6914TIP3   OH220705   4.559   0.081   1.771
 6914TIP3    H120706   4.487   0.066   1.832
 6914TIP3    H220707   4.542   0.021   1.698
 6915TIP3   OH220708   5.946   2.482   1.149
 6915TIP3    H120709   5.854   2.509   1.146
 6915TIP3    H220710   5.967   2.458   1.059
 6916TIP3   OH220711   2.382   3.005   2.378
 6916TIP3    H120712   2.322   2.981   2.449
 6916TIP3    H220713   2.448   3.059   2.421
 6917TIP3   OH220714   7.013   6.582   1.972
 6917TIP3    H120715   7.083   6.613   1.915
 6917TIP3    H220716   7.050   6.507   2.018
 6918TIP3   OH220717   5.662   3.171   5.427
 6918TIP3    H120718   5.638   3.240   5.489
 6918TIP3    H220719   5.597   3.102   5.441
 6919TIP3   OH220720   6.159   2.688   3.226
 6919TIP3    H120721   6.189   2.602   3.254
 6919TIP3    H220722   6.139   2.734   3.307
 6920TIP3   OH220723   5.725   2.967   2.840
 6920TIP3    H120724   5.738   2.880   2.803
 6920TIP3    H220725   5.632   2.984   2.830
 6921TIP3   OH220726   3.665   4.993   1.767
 6921TIP3    H120727   3.686   4.960   1.854
 6921TIP3    H220728   3.732   5.059   1.749
 6922TIP3   OH220729   0.052   3.034   0.194
 6922TIP3    H120730   0.122   3.021   0.258
 6922TIP3    H220731   0.095   3.076   0.120
 6923TIP3   OH220732   7.011   2.612   5.528
 6923TIP3    H120733   6.932   2.631   5.477
 6923TIP3    H220734   7.058   2.695   5.531
 6924TIP3   OH220735   6.101   2.925   3.669
 6924TIP3    H120736   6.112   2.904   3.762
 6924TIP3    H220737   6.085   3.019   3.668
 6925TIP3   OH220738   1.375   0.126   4.429
 6925TIP3    H120739   1.437   0.105   4.499
 6925TIP3    H220740   1.336   0.210   4.455
 6926TIP3   OH220741   6.169   3.155   4.435
 6926TIP3    H120742   6.249   3.178   4.387
 6926TIP3    H220743   6.168   3.215   4.510
 6927TIP3   OH220744   1.167   6.392   3.122
 6927TIP3    H120745   1.152   6.311   3.072
 6927TIP3    H220746   1.130   6.461   3.067
 6928TIP3   OH220747   0.537   6.230   0.404
 6928TIP3    H120748   0.601   6.225   0.333
 6928TIP3    H220749   0.470   6.290   0.372
 6929TIP3   OH220750   2.290   5.852   1.569
 6929TIP3    H120751   2.380   5.859   1.602
 6929TIP3    H220752   2.266   5.941   1.545
 6930TIP3   OH220753   1.321   5.708   4.180
 6930TIP3    H120754   1.242   5.696   4.234
 6930TIP3    H220755   1.287   5.720   4.091
 6931TIP3   OH220756   5.114   2.480   2.657
 6931TIP3    H120757   5.085   2.448   2.743
 6931TIP3    H220758   5.033   2.508   2.614
 6932TIP3   OH220759   3.530   1.797   0.492
 6932TIP3    H120760   3.618   1.780   0.526
 6932TIP3    H220761   3.471   1.779   0.565
 6933TIP3   OH220762   6.761   2.036   0.609
 6933TIP3    H120763   6.744   2.129   0.597
 6933TIP3    H220764   6.709   2.012   0.686
 6934TIP3   OH220765   3.077   0.443   2.611
 6934TIP3    H120766   3.136   0.390   2.664
 6934TIP3    H220767   3.088   0.533   2.644
 6935TIP3   OH220768   2.557   4.172   4.648
 6935TIP3    H120769   2.599   4.257   4.634
 6935TIP3    H220770   2.500   4.160   4.572
 6936TIP3   OH220771   3.602   3.555   0.186
 6936TIP3    H120772   3.654   3.615   0.238
 6936TIP3    H220773   3.513   3.567   0.217
 6937TIP3   OH220774   0.597   1.550   1.080
 6937TIP3    H120775   0.591   1.476   1.018
 6937TIP3    H220776   0.506   1.577   1.092
 6938TIP3   OH220777   6.241   0.861   2.529
 6938TIP3    H120778   6.274   0.823   2.448
 6938TIP3    H220779   6.290   0.943   2.539
 6939TIP3   OH220780   3.065   0.236   0.374
 6939TIP3    H120781   3.087   0.290   0.298
 6939TIP3    H220782   3.077   0.294   0.449
 6940TIP3   OH220783   4.267   2.350   4.651
 6940TIP3    H120784   4.217   2.297   4.713
 6940TIP3    H220785   4.254   2.307   4.567
 6941TIP3   OH220786   3.416   6.682   5.808
 6941TIP3    H120787   3.412   6.732   5.727
 6941TIP3    H220788   3.334   6.633   5.810
 6942TIP3   OH220789   4.059   6.288   1.581
 6942TIP3    H120790   4.111   6.309   1.503
 6942TIP3    H220791   4.071   6.363   1.639
 6943TIP3   OH220792   3.343   4.829   1.094
 6943TIP3    H120793   3.257   4.791   1.074
 6943TIP3    H220794   3.342   4.842   1.189
 6944TIP3   OH220795   5.835   5.954   2.285
 6944TIP3    H120796   5.854   5.861   2.275
 6944TIP3    H220797   5.896   5.985   2.352
 6945TIP3   OH220798   4.465   1.545   1.579
 6945TIP3    H120799   4.458   1.543   1.484
 6945TIP3    H220800   4.545   1.596   1.596
 6946TIP3   OH220801   0.026   2.356   2.759
 6946TIP3    H120802   0.075   2.422   2.711
 6946TIP3    H220803   0.016   2.284   2.696
 6947TIP3   OH220804   5.935   2.790   2.561
 6947TIP3    H120805   5.919   2.767   2.469
 6947TIP3    H220806   6.004   2.856   2.557
 6948TIP3   OH220807   2.608   4.516   0.821
 6948TIP3    H120808   2.669   4.452   0.786
 6948TIP3    H220809   2.586   4.483   0.908
 6949TIP3   OH220810   5.324   0.649   4.594
 6949TIP3    H120811   5.279   0.569   4.621
 6949TIP3    H220812   5.415   0.623   4.584
 6950TIP3   OH220813   0.391   2.759   0.642
 6950TIP3    H120814   0.441   2.699   0.587
 6950TIP3    H220815   0.433   2.844   0.628
 6951TIP3   OH220816   2.776   4.070   5.286
 6951TIP3    H120817   2.849   4.026   5.242
 6951TIP3    H220818   2.698   4.031   5.245
 6952TIP3   OH220819   1.559   2.586   1.005
 6952TIP3    H120820   1.506   2.550   1.076
 6952TIP3    H220821   1.552   2.681   1.016
 6953TIP3   OH220822   3.563   6.200   2.475
 6953TIP3    H120823   3.557   6.165   2.564
 6953TIP3    H220824   3.649   6.173   2.443
 6954TIP3   OH220825   3.884   3.784   1.777
 6954TIP3    H120826   3.930   3.702   1.793
 6954TIP3    H220827   3.950   3.852   1.795
 6955TIP3   OH220828   3.595   2.907   0.055
 6955TIP3    H120829   3.642   2.979   0.013
 6955TIP3    H220830   3.664   2.852   0.093
 6956TIP3   OH220831   3.632   3.441   4.191
 6956TIP3    H120832   3.723   3.418   4.210
 6956TIP3    H220833   3.595   3.461   4.277
 6957TIP3   OH220834   0.210   4.752   3.850
 6957TIP3    H120835   0.204   4.671   3.901
 6957TIP3    H220836   0.163   4.817   3.902
 6958TIP3   OH220837   5.351   1.016   4.046
 6958TIP3    H120838   5.345   1.037   3.953
 6958TIP3    H220839   5.305   0.932   4.055
 6959TIP3   OH220840   0.266   4.415   1.577
 6959TIP3    H120841   0.345   4.408   1.631
 6959TIP3    H220842   0.254   4.327   1.541
 6960TIP3   OH220843   0.521   0.712   3.242
 6960TIP3    H120844   0.481   0.718   3.155
 6960TIP3    H220845   0.558   0.624   3.245
 6961TIP3   OH220846   6.852   2.355   5.145
 6961TIP3    H120847   6.797   2.367   5.068
 6961TIP3    H220848   6.938   2.386   5.117
 6962TIP3   OH220849   3.982   2.730   3.719
 6962TIP3    H120850   3.925   2.654   3.717
 6962TIP3    H220851   3.927   2.802   3.750
 6963TIP3   OH220852   3.068   6.273   5.827
 6963TIP3    H120853   3.055   6.186   5.865
 6963TIP3    H220854   2.980   6.310   5.821
 6964TIP3   OH220855   5.568   4.877   2.194
 6964TIP3    H120856   5.644   4.871   2.252
 6964TIP3    H220857   5.529   4.790   2.195
 6965TIP3   OH220858   1.317   4.784   3.951
 6965TIP3    H120859   1.388   4.721   3.963
 6965TIP3    H220860   1.336   4.855   4.011
 6966TIP3   OH220861   6.045   1.705   3.949
 6966TIP3    H120862   6.076   1.785   3.906
 6966TIP3    H220863   6.054   1.723   4.042
 6967TIP3   OH220864   0.909   6.074   3.189
 6967TIP3    H120865   0.888   6.129   3.113
 6967TIP3    H220866   0.979   6.122   3.234
 6968TIP3   OH220867   5.427   2.987   4.540
 6968TIP3    H120868   5.384   3.045   4.603
 6968TIP3    H220869   5.498   2.947   4.589
 6969TIP3   OH220870   5.145   1.267   3.931
 6969TIP3    H120871   5.112   1.282   3.842
 6969TIP3    H220872   5.233   1.233   3.918
 6970TIP3   OH220873   5.753   2.146   3.341
 6970TIP3    H120874   5.698   2.071   3.364
 6970TIP3    H220875   5.823   2.109   3.288
 6971TIP3   OH220876   0.856   6.422   2.922
 6971TIP3    H120877   0.931   6.365   2.943
 6971TIP3    H220878   0.786   6.362   2.899
 6972TIP3   OH220879   3.939   1.672   3.771
 6972TIP3    H120880   3.983   1.606   3.824
 6972TIP3    H220881   3.943   1.752   3.823
 6973TIP3   OH220882   2.735   5.032   2.575
 6973TIP3    H120883   2.773   5.098   2.632
 6973TIP3    H220884   2.697   5.082   2.502
 6974TIP3   OH220885   2.142   3.072   2.922
 6974TIP3    H120886   2.083   3.106   2.989
 6974TIP3    H220887   2.230   3.090   2.956
 6975TIP3   OH220888   6.758   5.249   4.702
 6975TIP3    H120889   6.828   5.235   4.766
 6975TIP3    H220890   6.677   5.232   4.750
 6976TIP3   OH220891   0.806   6.027   2.490
 6976TIP3    H120892   0.711   6.035   2.482
 6976TIP3    H220893   0.839   6.039   2.401
 6977TIP3   OH220894   1.291   5.678   0.557
 6977TIP3    H120895   1.246   5.674   0.473
 6977TIP3    H220896   1.342   5.597   0.561
 6978TIP3   OH220897   6.931   6.694   0.263
 6978TIP3    H120898   6.837   6.677   0.272
 6978TIP3    H220899   6.935   6.774   0.211
 6979TIP3   OH220900   2.507   4.333   1.927
 6979TIP3    H120901   2.424   4.320   1.972
 6979TIP3    H220902   2.550   4.247   1.931
 6980TIP3   OH220903   2.085   3.175   2.391
 6980TIP3    H120904   2.140   3.156   2.467
 6980TIP3    H220905   2.067   3.089   2.352
 6981TIP3   OH220906   0.266   2.107   4.649
 6981TIP3    H120907   0.290   2.063   4.731
 6981TIP3    H220908   0.271   2.201   4.670
 6982TIP3   OH220909   0.055   3.744   2.586
 6982TIP3    H120910  -0.021   3.773   2.635
 6982TIP3    H220911   0.054   3.798   2.507
 6983TIP3   OH220912   6.160   0.650   3.503
 6983TIP3    H120913   6.105   0.617   3.431
 6983TIP3    H220914   6.195   0.733   3.469
 6984TIP3   OH220915   2.971   6.732   3.023
 6984TIP3    H120916   3.052   6.757   3.067
 6984TIP3    H220917   2.945   6.812   2.976
 6985TIP3   OH220918   4.720   4.990   3.103
 6985TIP3    H120919   4.812   4.970   3.119
 6985TIP3    H220920   4.716   5.086   3.107
 6986TIP3   OH220921   1.335   5.021   3.677
 6986TIP3    H120922   1.394   5.019   3.601
 6986TIP3    H220923   1.390   5.053   3.749
 6987TIP3   OH220924   3.171   1.076   2.110
 6987TIP3    H120925   3.186   1.120   2.194
 6987TIP3    H220926   3.174   1.147   2.045
 6988TIP3   OH220927   7.160   4.872   1.176
 6988TIP3    H120928   7.157   4.893   1.269
 6988TIP3    H220929   7.074   4.897   1.143
 6989TIP3   OH220930   1.345   1.857   3.724
 6989TIP3    H120931   1.254   1.843   3.697
 6989TIP3    H220932   1.358   1.795   3.796
 6990TIP3   OH220933   1.521   6.563   2.650
 6990TIP3    H120934   1.555   6.645   2.686
 6990TIP3    H220935   1.598   6.507   2.640
 6991TIP3   OH220936   4.934   2.308   4.556
 6991TIP3    H120937   4.969   2.380   4.505
 6991TIP3    H220938   4.933   2.234   4.496
 6992TIP3   OH220939   0.990   4.291   3.118
 6992TIP3    H120940   0.911   4.271   3.168
 6992TIP3    H220941   1.053   4.321   3.183
 6993TIP3   OH220942   4.602   6.693   4.871
 6993TIP3    H120943   4.522   6.716   4.824
 6993TIP3    H220944   4.609   6.760   4.939
 6994TIP3   OH220945   6.332   6.466   0.191
 6994TIP3    H120946   6.237   6.459   0.181
 6994TIP3    H220947   6.367   6.446   0.104
 6995TIP3   OH220948   3.914   1.901   1.094
 6995TIP3    H120949   3.869   1.870   1.173
 6995TIP3    H220950   3.951   1.822   1.055
 6996TIP3   OH220951   0.693   1.538   4.447
 6996TIP3    H120952   0.771   1.494   4.414
 6996TIP3    H220953   0.621   1.499   4.399
 6997TIP3   OH220954   1.882   0.328   5.430
 6997TIP3    H120955   1.914   0.285   5.510
 6997TIP3    H220956   1.862   0.256   5.370
 6998TIP3   OH220957   0.228   5.790   2.212
 6998TIP3    H120958   0.261   5.754   2.130
 6998TIP3    H220959   0.279   5.745   2.280
 6999TIP3   OH220960   4.820   0.721   3.470
 6999TIP3    H120961   4.837   0.638   3.514
 6999TIP3    H220962   4.756   0.765   3.527
 7000TIP3   OH220963   6.535   1.969   1.653
 7000TIP3    H120964   6.582   2.048   1.680
 7000TIP3    H220965   6.581   1.898   1.698
 7001TIP3   OH220966   1.041   4.681   4.988
 7001TIP3    H120967   1.004   4.761   4.951
 7001TIP3    H220968   1.105   4.711   5.053
 7002TIP3   OH220969   0.626   6.451   1.515
 7002TIP3    H120970   0.669   6.369   1.540
 7002TIP3    H220971   0.534   6.437   1.535
 7003TIP3   OH220972   5.852   0.473   3.791
 7003TIP3    H120973   5.838   0.565   3.767
 7003TIP3    H220974   5.937   0.473   3.835
 7004TIP3   OH220975   6.864   0.059   1.911
 7004TIP3    H120976   6.914   0.010   1.976
 7004TIP3    H220977   6.927   0.120   1.873
 7005TIP3   OH220978   3.162   6.481   0.746
 7005TIP3    H120979   3.155   6.554   0.685
 7005TIP3    H220980   3.227   6.423   0.706
 7006TIP3   OH220981   1.939   6.328   5.738
 7006TIP3    H120982   1.965   6.269   5.809
 7006TIP3    H220983   1.910   6.408   5.782
 7007TIP3   OH220984   1.797   2.889   2.588
 7007TIP3    H120985   1.764   2.967   2.542
 7007TIP3    H220986   1.791   2.911   2.681
 7008TIP3   OH220987   6.957   0.617   4.108
 7008TIP3    H120988   7.050   0.600   4.123
 7008TIP3    H220989   6.911   0.547   4.155
 7009TIP3   OH220990   1.047   3.530   4.839
 7009TIP3    H120991   1.075   3.567   4.922
 7009TIP3    H220992   0.952   3.525   4.846
 7010TIP3   OH220993   2.289   1.776   4.415
 7010TIP3    H120994   2.360   1.834   4.440
 7010TIP3    H220995   2.283   1.713   4.487
 7011TIP3   OH220996   5.298   5.044   2.998
 7011TIP3    H120997   5.352   5.006   2.929
 7011TIP3    H220998   5.324   5.137   2.999
 7012TIP3   OH220999   3.698   0.797   5.751
 7012TIP3    H121000   3.632   0.865   5.765
 7012TIP3    H221001   3.747   0.826   5.674
 7013TIP3   OH221002   4.395   4.000   1.743
 7013TIP3    H121003   4.412   3.906   1.750
 7013TIP3    H221004   4.380   4.029   1.833
 7014TIP3   OH221005   4.313   2.320   4.225
 7014TIP3    H121006   4.340   2.258   4.293
 7014TIP3    H221007   4.273   2.392   4.273
 7015TIP3   OH221008   1.515   4.776   3.595
 7015TIP3    H121009   1.442   4.739   3.544
 7015TIP3    H221010   1.486   4.771   3.686
 7016TIP3   OH221011   6.343   3.224   4.237
 7016TIP3    H121012   6.265   3.206   4.184
 7016TIP3    H221013   6.340   3.319   4.252
 7017TIP3   OH221014   2.084   6.582   3.516
 7017TIP3    H121015   2.118   6.555   3.601
 7017TIP3    H221016   2.098   6.676   3.513
 7018TIP3   OH221017   6.670   4.538   1.644
 7018TIP3    H121018   6.656   4.559   1.736
 7018TIP3    H221019   6.587   4.501   1.615
 7019TIP3   OH221020   0.025   4.520   1.111
 7019TIP3    H121021   0.023   4.425   1.114
 7019TIP3    H221022   0.095   4.544   1.172
 7020TIP3   OH221023   1.010   0.090   4.148
 7020TIP3    H121024   1.044   0.174   4.117
 7020TIP3    H221025   0.914   0.102   4.147
 7021TIP3   OH221026   5.792   1.015   2.219
 7021TIP3    H121027   5.704   0.978   2.212
 7021TIP3    H221028   5.779   1.107   2.240
 7022TIP3   OH221029   4.065   6.054   0.825
 7022TIP3    H121030   4.101   6.117   0.888
 7022TIP3    H221031   4.046   6.106   0.747
 7023TIP3   OH221032   6.788   0.236   4.468
 7023TIP3    H121033   6.747   0.320   4.491
 7023TIP3    H221034   6.882   0.254   4.472
 7024TIP3   OH221035   2.815   1.726   1.925
 7024TIP3    H121036   2.841   1.796   1.865
 7024TIP3    H221037   2.844   1.756   2.011
 7025TIP3   OH221038   4.295   0.565   2.749
 7025TIP3    H121039   4.380   0.539   2.784
 7025TIP3    H221040   4.312   0.586   2.657
 7026TIP3   OH221041   5.830   0.531   2.287
 7026TIP3    H121042   5.899   0.469   2.310
 7026TIP3    H221043   5.859   0.615   2.322
 7027TIP3   OH221044   4.625   0.949   4.949
 7027TIP3    H121045   4.550   0.928   5.004
 7027TIP3    H221046   4.593   0.938   4.860
 7028TIP3   OH221047   0.353   2.492   5.470
 7028TIP3    H121048   0.331   2.402   5.443
 7028TIP3    H221049   0.366   2.539   5.388
 7029TIP3   OH221050   6.733   5.912   5.806
 7029TIP3    H121051   6.732   5.837   5.745
 7029TIP3    H221052   6.674   5.976   5.766
 7030TIP3   OH221053   6.650   3.602   1.393
 7030TIP3    H121054   6.570   3.606   1.341
 7030TIP3    H221055   6.629   3.542   1.464
 7031TIP3   OH221056   1.636   6.666   0.392
 7031TIP3    H121057   1.708   6.603   0.403
 7031TIP3    H221058   1.653   6.708   0.308
 7032TIP3   OH221059   6.784   0.108   2.274
 7032TIP3    H121060   6.786   0.016   2.300
 7032TIP3    H221061   6.692   0.124   2.251
 7033TIP3   OH221062   3.037   4.220   3.452
 7033TIP3    H121063   3.022   4.260   3.538
 7033TIP3    H221064   2.950   4.197   3.420
 7034TIP3   OH221065   5.667   0.906   4.323
 7034TIP3    H121066   5.687   0.882   4.413
 7034TIP3    H221067   5.615   0.987   4.330
 7035TIP3   OH221068   5.813   6.740   5.267
 7035TIP3    H121069   5.880   6.693   5.317
 7035TIP3    H221070   5.747   6.763   5.333
 7036TIP3   OH221071   5.219   3.058   0.626
 7036TIP3    H121072   5.152   2.991   0.613
 7036TIP3    H221073   5.182   3.117   0.691
 7037TIP3   OH221074   6.494   4.002   1.321
 7037TIP3    H121075   6.529   3.949   1.393
 7037TIP3    H221076   6.564   4.005   1.256
 7038TIP3   OH221077   1.134   5.303   0.794
 7038TIP3    H121078   1.229   5.288   0.792
 7038TIP3    H221079   1.112   5.301   0.887
 7039TIP3   OH221080   2.475   6.307   1.995
 7039TIP3    H121081   2.484   6.402   1.987
 7039TIP3    H221082   2.433   6.280   1.914
 7040TIP3   OH221083   4.948   2.217   4.222
 7040TIP3    H121084   4.905   2.133   4.209
 7040TIP3    H221085   5.041   2.196   4.235
 7041TIP3   OH221086   5.746   1.689   4.698
 7041TIP3    H121087   5.802   1.627   4.745
 7041TIP3    H221088   5.783   1.775   4.718
 7042TIP3   OH221089   6.853   0.727   0.796
 7042TIP3    H121090   6.798   0.797   0.760
 7042TIP3    H221091   6.906   0.698   0.722
 7043TIP3   OH221092   3.124   2.592   1.284
 7043TIP3    H121093   3.031   2.579   1.263
 7043TIP3    H221094   3.170   2.554   1.210
 7044TIP3   OH221095   6.644   4.447   4.436
 7044TIP3    H121096   6.577   4.464   4.502
 7044TIP3    H221097   6.715   4.508   4.456
 7045TIP3   OH221098   3.891   2.830   0.592
 7045TIP3    H121099   3.832   2.860   0.524
 7045TIP3    H221100   3.869   2.738   0.605
 7046TIP3   OH221101   4.863   0.859   3.979
 7046TIP3    H121102   4.835   0.920   4.047
 7046TIP3    H221103   4.810   0.781   3.994
 7047TIP3   OH221104   6.837   2.288   4.170
 7047TIP3    H121105   6.755   2.250   4.140
 7047TIP3    H221106   6.813   2.373   4.207
 7048TIP3   OH221107   6.831   1.614   3.809
 7048TIP3    H121108   6.899   1.584   3.748
 7048TIP3    H221109   6.795   1.533   3.846
 7049TIP3   OH221110   2.486   4.367   3.330
 7049TIP3    H121111   2.430   4.437   3.295
 7049TIP3    H221112   2.503   4.311   3.254
 7050TIP3   OH221113   6.815   0.852   4.148
 7050TIP3    H121114   6.848   0.762   4.157
 7050TIP3    H221115   6.870   0.891   4.080
 7051TIP3   OH221116   1.021   2.004   1.089
 7051TIP3    H121117   0.977   2.074   1.136
 7051TIP3    H221118   1.091   1.975   1.147
 7052TIP3   OH221119   3.969   1.356   3.364
 7052TIP3    H121120   4.052   1.310   3.362
 7052TIP3    H221121   3.947   1.362   3.457
 7053TIP3   OH221122   0.984   0.722   1.343
 7053TIP3    H121123   1.013   0.812   1.355
 7053TIP3    H221124   0.937   0.701   1.424
 7054TIP3   OH221125   2.502   3.540   0.021
 7054TIP3    H121126   2.497   3.635   0.032
 7054TIP3    H221127   2.498   3.505   0.110
 7055TIP3   OH221128   1.249   2.865   0.397
 7055TIP3    H121129   1.263   2.922   0.321
 7055TIP3    H221130   1.281   2.779   0.368
 7056TIP3   OH221131   3.406   5.202   4.924
 7056TIP3    H121132   3.373   5.264   4.989
 7056TIP3    H221133   3.474   5.251   4.877
 7057TIP3   OH221134   3.962   5.903   1.249
 7057TIP3    H121135   3.878   5.880   1.211
 7057TIP3    H221136   3.940   5.945   1.333
 7058TIP3   OH221137   3.749   6.456   2.150
 7058TIP3    H121138   3.771   6.453   2.057
 7058TIP3    H221139   3.653   6.445   2.152
 7059TIP3   OH221140   4.421   1.995   5.732
 7059TIP3    H121141   4.418   1.981   5.827
 7059TIP3    H221142   4.475   2.073   5.721
 7060TIP3   OH221143   7.169   0.187   0.294
 7060TIP3    H121144   7.094   0.211   0.348
 7060TIP3    H221145   7.212   0.271   0.274
 7061TIP3   OH221146   3.768   6.671   5.545
 7061TIP3    H121147   3.679   6.672   5.508
 7061TIP3    H221148   3.768   6.595   5.604
 7062TIP3   OH221149   6.443   0.484   1.109
 7062TIP3    H121150   6.511   0.500   1.043
 7062TIP3    H221151   6.380   0.555   1.095
 7063TIP3   OH221152   5.340   1.244   4.900
 7063TIP3    H121153   5.333   1.339   4.909
 7063TIP3    H221154   5.422   1.221   4.944
 7064TIP3   OH221155   4.388   6.416   1.896
 7064TIP3    H121156   4.448   6.342   1.910
 7064TIP3    H221157   4.382   6.458   1.981
 7065TIP3   OH221158   4.294   3.526   0.501
 7065TIP3    H121159   4.336   3.441   0.483
 7065TIP3    H221160   4.240   3.510   0.579
 7066TIP3   OH221161   4.762   5.100   5.133
 7066TIP3    H121162   4.803   5.082   5.048
 7066TIP3    H221163   4.836   5.106   5.194
 7067TIP3   OH221164   4.978   0.143   2.537
 7067TIP3    H121165   5.003   0.081   2.469
 7067TIP3    H221166   4.946   0.089   2.609
 7068TIP3   OH221167   5.995   3.949   0.594
 7068TIP3    H121168   5.931   3.996   0.646
 7068TIP3    H221169   6.060   3.919   0.657
 7069TIP3   OH221170   3.820   5.665   5.698
 7069TIP3    H121171   3.893   5.688   5.755
 7069TIP3    H221172   3.852   5.683   5.609
 7070TIP3   OH221173   5.866   0.486   4.221
 7070TIP3    H121174   5.814   0.459   4.146
 7070TIP3    H221175   5.907   0.568   4.192
 7071TIP3   OH221176   3.284   6.153   0.090
 7071TIP3    H121177   3.361   6.204   0.062
 7071TIP3    H221178   3.227   6.217   0.133
 7072TIP3   OH221179   3.842   3.216   0.882
 7072TIP3    H121180   3.753   3.184   0.869
 7072TIP3    H221181   3.873   3.170   0.959
 7073TIP3   OH221182   6.839   0.696   4.740
 7073TIP3    H121183   6.928   0.689   4.706
 7073TIP3    H221184   6.833   0.626   4.806
 7074TIP3   OH221185   1.313   1.136   4.938
 7074TIP3    H121186   1.364   1.076   4.883
 7074TIP3    H221187   1.225   1.099   4.938
 7075TIP3   OH221188   1.663   4.804   3.203
 7075TIP3    H121189   1.743   4.756   3.181
 7075TIP3    H221190   1.692   4.892   3.223
 7076TIP3   OH221191   2.271   1.447   5.164
 7076TIP3    H121192   2.209   1.437   5.091
 7076TIP3    H221193   2.333   1.513   5.134
 7077TIP3   OH221194   6.343   2.183   0.121
 7077TIP3    H121195   6.292   2.256   0.085
 7077TIP3    H221196   6.331   2.112   0.058
 7078TIP3   OH221197   5.918   6.626   1.033
 7078TIP3    H121198   5.856   6.699   1.031
 7078TIP3    H221199   5.934   6.605   0.941
 7079TIP3   OH221200   3.628   4.209   5.190
 7079TIP3    H121201   3.697   4.187   5.253
 7079TIP3    H221202   3.672   4.265   5.126
 7080TIP3   OH221203   5.655   0.101   4.678
 7080TIP3    H121204   5.590   0.040   4.713
 7080TIP3    H221205   5.735   0.080   4.725
 7081TIP3   OH221206   0.267   4.409   5.512
 7081TIP3    H121207   0.220   4.336   5.471
 7081TIP3    H221208   0.357   4.400   5.480
 7082TIP3   OH221209   1.297   5.748   5.025
 7082TIP3    H121210   1.353   5.674   5.001
 7082TIP3    H221211   1.312   5.760   5.119
 7083TIP3   OH221212   4.392   3.284   4.063
 7083TIP3    H121213   4.320   3.299   4.002
 7083TIP3    H221214   4.463   3.339   4.029
 7084TIP3   OH221215   5.597   3.340   1.472
 7084TIP3    H121216   5.672   3.284   1.492
 7084TIP3    H221217   5.635   3.426   1.454
 7085TIP3   OH221218   4.263   2.910   3.912
 7085TIP3    H121219   4.357   2.913   3.928
 7085TIP3    H221220   4.240   2.817   3.923
 7086TIP3   OH221221   6.078   4.759   0.324
 7086TIP3    H121222   6.156   4.725   0.280
 7086TIP3    H221223   6.063   4.845   0.284
 7087TIP3   OH221224   5.167   4.370   3.047
 7087TIP3    H121225   5.111   4.442   3.076
 7087TIP3    H221226   5.149   4.362   2.954
 7088TIP3   OH221227   1.728   1.490   3.109
 7088TIP3    H121228   1.803   1.521   3.059
 7088TIP3    H221229   1.652   1.530   3.066
 7089TIP3   OH221230   1.637   4.073   3.534
 7089TIP3    H121231   1.697   4.006   3.502
 7089TIP3    H221232   1.554   4.027   3.546
 7090TIP3   OH221233   3.040   6.484   3.707
 7090TIP3    H121234   2.999   6.478   3.621
 7090TIP3    H221235   3.121   6.434   3.699
 7091TIP3   OH221236   3.524   0.738   1.259
 7091TIP3    H121237   3.516   0.644   1.278
 7091TIP3    H221238   3.519   0.780   1.345
 7092TIP3   OH221239   2.191   0.454   0.779
 7092TIP3    H121240   2.213   0.545   0.762
 7092TIP3    H221241   2.172   0.417   0.693
 7093TIP3   OH221242   3.867   5.073   0.946
 7093TIP3    H121243   3.928   5.138   0.912
 7093TIP3    H221244   3.781   5.103   0.916
 7094TIP3   OH221245   5.302   3.813   2.879
 7094TIP3    H121246   5.330   3.890   2.829
 7094TIP3    H221247   5.382   3.780   2.919
 7095TIP3   OH221248   3.142   6.400   2.244
 7095TIP3    H121249   3.209   6.457   2.205
 7095TIP3    H221250   3.133   6.432   2.333
 7096TIP3   OH221251   5.134   3.245   3.749
 7096TIP3    H121252   5.228   3.228   3.745
 7096TIP3    H221253   5.096   3.185   3.685
 7097TIP3   OH221254   5.408   5.412   5.301
 7097TIP3    H121255   5.357   5.475   5.351
 7097TIP3    H221256   5.471   5.465   5.252
 7098TIP3   OH221257   6.052   3.606   4.747
 7098TIP3    H121258   6.009   3.523   4.766
 7098TIP3    H221259   5.993   3.649   4.684
 7099TIP3   OH221260   1.829   2.520   2.313
 7099TIP3    H121261   1.838   2.530   2.408
 7099TIP3    H221262   1.909   2.474   2.287
 7100TIP3   OH221263   0.583   2.382   5.605
 7100TIP3    H121264   0.587   2.331   5.686
 7100TIP3    H221265   0.493   2.372   5.574
 7101TIP3   OH221266   1.834   0.819   1.171
 7101TIP3    H121267   1.845   0.888   1.105
 7101TIP3    H221268   1.846   0.737   1.122
 7102TIP3   OH221269   5.953   0.395   1.078
 7102TIP3    H121270   5.981   0.402   0.987
 7102TIP3    H221271   5.937   0.485   1.105
 7103TIP3   OH221272   5.959   6.361   4.289
 7103TIP3    H121273   5.895   6.307   4.334
 7103TIP3    H221274   5.940   6.348   4.196
 7104TIP3   OH221275   6.824   6.082   2.813
 7104TIP3    H121276   6.738   6.107   2.780
 7104TIP3    H221277   6.874   6.058   2.735
 7105TIP3   OH221278   3.914   1.721   1.355
 7105TIP3    H121279   3.976   1.649   1.362
 7105TIP3    H221280   3.841   1.686   1.304
 7106TIP3   OH221281   4.009   4.508   1.054
 7106TIP3    H121282   3.987   4.416   1.037
 7106TIP3    H221283   3.945   4.557   1.003
 7107TIP3   OH221284   7.120   4.154   3.143
 7107TIP3    H121285   7.068   4.132   3.065
 7107TIP3    H221286   7.172   4.229   3.116
 7108TIP3   OH221287   0.998   0.833   2.611
 7108TIP3    H121288   0.980   0.763   2.549
 7108TIP3    H221289   1.044   0.900   2.559
 7109TIP3   OH221290   6.413   5.889   4.916
 7109TIP3    H121291   6.431   5.883   4.823
 7109TIP3    H221292   6.499   5.897   4.957
 7110TIP3   OH221293   4.688   4.070   0.633
 7110TIP3    H121294   4.724   3.986   0.602
 7110TIP3    H221295   4.671   4.056   0.726
 7111TIP3   OH221296   3.174   0.462   0.847
 7111TIP3    H121297   3.266   0.442   0.865
 7111TIP3    H221298   3.174   0.554   0.819
 7112TIP3   OH221299   5.270   5.650   2.316
 7112TIP3    H121300   5.289   5.699   2.236
 7112TIP3    H221301   5.308   5.563   2.301
 7113TIP3   OH221302   0.897   5.737   3.436
 7113TIP3    H121303   0.960   5.778   3.495
 7113TIP3    H221304   0.879   5.651   3.475
 7114TIP3   OH221305   0.472   3.888   1.473
 7114TIP3    H121306   0.558   3.856   1.500
 7114TIP3    H221307   0.456   3.962   1.532
 7115TIP3   OH221308   0.837   0.003   0.429
 7115TIP3    H121309   0.773   0.050   0.483
 7115TIP3    H221310   0.918   0.054   0.439
 7116TIP3   OH221311   2.230   5.539   5.898
 7116TIP3    H121312   2.158   5.495   5.854
 7116TIP3    H221313   2.187   5.595   5.964
 7117TIP3   OH221314   1.395   3.880   2.819
 7117TIP3    H121315   1.318   3.892   2.874
 7117TIP3    H221316   1.460   3.940   2.855
 7118TIP3   OH221317   4.874   1.712   5.144
 7118TIP3    H121318   4.925   1.636   5.117
 7118TIP3    H221319   4.808   1.677   5.204
 7119TIP3   OH221320   3.820   0.884   5.532
 7119TIP3    H121321   3.842   0.972   5.562
 7119TIP3    H221322   3.903   0.848   5.501
 7120TIP3   OH221323   2.486   2.773   1.450
 7120TIP3    H121324   2.413   2.732   1.498
 7120TIP3    H221325   2.443   2.823   1.380
 7121TIP3   OH221326   6.133   3.175   1.796
 7121TIP3    H121327   6.045   3.211   1.807
 7121TIP3    H221328   6.143   3.113   1.868
 7122TIP3   OH221329   6.447   4.587   3.704
 7122TIP3    H121330   6.538   4.564   3.685
 7122TIP3    H221331   6.442   4.681   3.684
 7123TIP3   OH221332   4.567   5.168   4.018
 7123TIP3    H121333   4.482   5.209   4.036
 7123TIP3    H221334   4.577   5.173   3.923
 7124TIP3   OH221335   0.816   6.194   4.110
 7124TIP3    H121336   0.783   6.264   4.166
 7124TIP3    H221337   0.906   6.178   4.141
 7125TIP3   OH221338   4.713   6.033   5.515
 7125TIP3    H121339   4.684   5.942   5.523
 7125TIP3    H221340   4.769   6.033   5.438
 7126TIP3   OH221341   6.512   2.023   1.375
 7126TIP3    H121342   6.514   1.991   1.466
 7126TIP3    H221343   6.484   1.947   1.324
 7127TIP3   OH221344   2.978   6.366   1.226
 7127TIP3    H121345   3.054   6.425   1.221
 7127TIP3    H221346   2.968   6.348   1.320
 7128TIP3   OH221347   5.373   0.327   5.795
 7128TIP3    H121348   5.285   0.319   5.757
 7128TIP3    H221349   5.373   0.411   5.840
 7129TIP3   OH221350   3.956   0.486   2.018
 7129TIP3    H121351   4.001   0.469   1.936
 7129TIP3    H221352   3.970   0.579   2.035
 7130TIP3   OH221353   2.193   4.431   0.268
 7130TIP3    H121354   2.114   4.429   0.214
 7130TIP3    H221355   2.164   4.466   0.352
 7131TIP3   OH221356   5.140   1.279   1.923
 7131TIP3    H121357   5.146   1.299   2.016
 7131TIP3    H221358   5.046   1.281   1.904
 7132TIP3   OH221359   3.535   6.651   2.007
 7132TIP3    H121360   3.549   6.727   1.951
 7132TIP3    H221361   3.574   6.675   2.091
 7133TIP3   OH221362   6.170   4.657   5.164
 7133TIP3    H121363   6.099   4.616   5.212
 7133TIP3    H221364   6.250   4.624   5.206
 7134TIP3   OH221365   1.757   2.957   0.581
 7134TIP3    H121366   1.828   2.934   0.521
 7134TIP3    H221367   1.770   2.901   0.657
 7135TIP3   OH221368   3.622   5.019   1.299
 7135TIP3    H121369   3.676   5.098   1.302
 7135TIP3    H221370   3.671   4.959   1.243
 7136TIP3   OH221371   1.915   1.433   1.514
 7136TIP3    H121372   1.934   1.523   1.540
 7136TIP3    H221373   1.986   1.410   1.455
 7137TIP3   OH221374   0.188   5.571   4.698
 7137TIP3    H121375   0.103   5.613   4.684
 7137TIP3    H221376   0.247   5.615   4.637
 7138TIP3   OH221377   3.790   2.990   1.881
 7138TIP3    H121378   3.848   2.954   1.947
 7138TIP3    H221379   3.846   3.049   1.829
 7139TIP3   OH221380   0.153   4.038   0.055
 7139TIP3    H121381   0.190   4.021   0.141
 7139TIP3    H221382   0.058   4.031   0.068
 7140TIP3   OH221383   5.830   0.635   3.311
 7140TIP3    H121384   5.786   0.559   3.273
 7140TIP3    H221385   5.781   0.653   3.391
 7141TIP3   OH221386   3.001   5.886   4.408
 7141TIP3    H121387   2.990   5.948   4.480
 7141TIP3    H221388   3.015   5.801   4.452
 7142TIP3   OH221389   0.181   4.897   4.125
 7142TIP3    H121390   0.207   4.972   4.177
 7142TIP3    H221391   0.246   4.830   4.144
 7143TIP3   OH221392   2.889   0.327   1.530
 7143TIP3    H121393   2.940   0.364   1.458
 7143TIP3    H221394   2.809   0.295   1.487
 7144TIP3   OH221395   2.543   3.335   4.504
 7144TIP3    H121396   2.628   3.338   4.546
 7144TIP3    H221397   2.561   3.350   4.411
 7145TIP3   OH221398   3.584   5.119   2.843
 7145TIP3    H121399   3.542   5.137   2.759
 7145TIP3    H221400   3.678   5.119   2.824
 7146TIP3   OH221401   3.901   1.399   5.027
 7146TIP3    H121402   3.985   1.380   4.984
 7146TIP3    H221403   3.925   1.449   5.105
 7147TIP3   OH221404   4.440   3.283   1.249
 7147TIP3    H121405   4.477   3.258   1.334
 7147TIP3    H221406   4.391   3.363   1.267
 7148TIP3   OH221407   4.841   6.632   0.470
 7148TIP3    H121408   4.780   6.697   0.504
 7148TIP3    H221409   4.895   6.607   0.546
 7149TIP3   OH221410   6.531   5.182   5.503
 7149TIP3    H121411   6.442   5.214   5.490
 7149TIP3    H221412   6.575   5.252   5.551
 7150TIP3   OH221413   1.078   6.361   2.535
 7150TIP3    H121414   1.101   6.284   2.586
 7150TIP3    H221415   1.155   6.418   2.541
 7151TIP3   OH221416   5.543   0.714   1.458
 7151TIP3    H121417   5.496   0.797   1.451
 7151TIP3    H221418   5.482   0.656   1.503
 7152TIP3   OH221419   3.338   4.619   0.616
 7152TIP3    H121420   3.322   4.613   0.521
 7152TIP3    H221421   3.299   4.703   0.641
 7153TIP3   OH221422   5.939   1.285   3.997
 7153TIP3    H121423   6.009   1.284   4.063
 7153TIP3    H221424   5.973   1.232   3.925
 7154TIP3   OH221425   5.673   2.584   3.865
 7154TIP3    H121426   5.635   2.665   3.831
 7154TIP3    H221427   5.686   2.529   3.788
 7155TIP3   OH221428   2.832   3.252   3.468
 7155TIP3    H121429   2.880   3.281   3.546
 7155TIP3    H221430   2.883   3.286   3.394
 7156TIP3   OH221431   2.096   2.054   4.513
 7156TIP3    H121432   2.163   2.039   4.447
 7156TIP3    H221433   2.026   1.993   4.490
 7157TIP3   OH221434   1.410   3.745   0.948
 7157TIP3    H121435   1.342   3.678   0.944
 7157TIP3    H221436   1.369   3.818   0.994
 7158TIP3   OH221437   6.794   5.367   1.850
 7158TIP3    H121438   6.831   5.403   1.931
 7158TIP3    H221439   6.722   5.427   1.828
 7159TIP3   OH221440   6.593   5.097   1.190
 7159TIP3    H121441   6.680   5.087   1.152
 7159TIP3    H221442   6.607   5.152   1.267
 7160TIP3   OH221443   5.763   6.446   2.064
 7160TIP3    H121444   5.831   6.506   2.033
 7160TIP3    H221445   5.683   6.477   2.022
 7161TIP3   OH221446   5.585   1.703   5.857
 7161TIP3    H121447   5.529   1.693   5.780
 7161TIP3    H221448   5.659   1.646   5.840
 7162TIP3   OH221449   0.944   0.553   5.132
 7162TIP3    H121450   0.943   0.458   5.123
 7162TIP3    H221451   0.854   0.579   5.117
 7163TIP3   OH221452   4.893   1.518   2.467
 7163TIP3    H121453   4.925   1.562   2.387
 7163TIP3    H221454   4.905   1.583   2.536
 7164TIP3   OH221455   6.864   2.771   1.489
 7164TIP3    H121456   6.863   2.698   1.551
 7164TIP3    H221457   6.946   2.817   1.507
 7165TIP3   OH221458   1.840   3.504   0.476
 7165TIP3    H121459   1.839   3.513   0.381
 7165TIP3    H221460   1.864   3.591   0.508
 7166TIP3   OH221461   1.814   4.532   3.196
 7166TIP3    H121462   1.801   4.445   3.234
 7166TIP3    H221463   1.904   4.555   3.218
 7167TIP3   OH221464   3.032   5.978   4.888
 7167TIP3    H121465   3.049   6.057   4.837
 7167TIP3    H221466   3.113   5.927   4.879
 7168TIP3   OH221467   1.755   0.456   0.120
 7168TIP3    H121468   1.671   0.501   0.107
 7168TIP3    H221469   1.784   0.484   0.207
 7169TIP3   OH221470   6.056   3.224   2.387
 7169TIP3    H121471   6.092   3.159   2.448
 7169TIP3    H221472   5.963   3.202   2.383
 7170TIP3   OH221473   5.710   2.500   0.117
 7170TIP3    H121474   5.725   2.573   0.057
 7170TIP3    H221475   5.798   2.472   0.143
 7171TIP3   OH221476   0.292   2.207   3.195
 7171TIP3    H121477   0.347   2.238   3.122
 7171TIP3    H221478   0.216   2.265   3.194
 7172TIP3   OH221479   6.971   1.465   3.635
 7172TIP3    H121480   6.940   1.433   3.550
 7172TIP3    H221481   7.019   1.545   3.615
 7173TIP3   OH221482   0.411   0.346   4.271
 7173TIP3    H121483   0.477   0.414   4.287
 7173TIP3    H221484   0.439   0.272   4.325
 7174TIP3   OH221485   4.286   2.986   4.851
 7174TIP3    H121486   4.366   3.002   4.901
 7174TIP3    H221487   4.316   2.965   4.763
 7175TIP3   OH221488   2.919   6.819   2.070
 7175TIP3    H121489   2.861   6.869   2.013
 7175TIP3    H221490   2.993   6.795   2.014
 7176TIP3   OH221491   1.170   3.969   3.163
 7176TIP3    H121492   1.207   4.030   3.099
 7176TIP3    H221493   1.238   3.903   3.176
 7177TIP3   OH221494   4.153   2.812   1.720
 7177TIP3    H121495   4.098   2.781   1.792
 7177TIP3    H221496   4.180   2.900   1.746
 7178TIP3   OH221497   4.793   5.888   3.726
 7178TIP3    H121498   4.712   5.895   3.675
 7178TIP3    H221499   4.827   5.978   3.728
 7179TIP3   OH221500   6.028   6.131   2.754
 7179TIP3    H121501   5.940   6.104   2.727
 7179TIP3    H221502   6.083   6.056   2.734
 7180TIP3   OH221503   4.673   5.759   5.474
 7180TIP3    H121504   4.716   5.684   5.514
 7180TIP3    H221505   4.649   5.728   5.386
 7181TIP3   OH221506   3.285   1.212   0.716
 7181TIP3    H121507   3.325   1.217   0.629
 7181TIP3    H221508   3.357   1.234   0.776
 7182TIP3   OH221509   1.205   5.912   5.449
 7182TIP3    H121510   1.151   5.972   5.398
 7182TIP3    H221511   1.286   5.960   5.466
 7183TIP3   OH221512   0.791   0.480   5.956
 7183TIP3    H121513   0.836   0.564   5.955
 7183TIP3    H221514   0.785   0.455   5.863
 7184TIP3   OH221515   0.198   0.662   2.022
 7184TIP3    H121516   0.241   0.586   2.061
 7184TIP3    H221517   0.240   0.737   2.064
 7185TIP3   OH221518   6.258   4.009   3.438
 7185TIP3    H121519   6.177   3.960   3.424
 7185TIP3    H221520   6.316   3.981   3.367
 7186TIP3   OH221521   1.946   6.402   3.180
 7186TIP3    H121522   1.965   6.319   3.136
 7186TIP3    H221523   2.002   6.401   3.258
 7187TIP3   OH221524   3.112   3.299   2.412
 7187TIP3    H121525   3.137   3.392   2.409
 7187TIP3    H221526   3.138   3.265   2.327
 7188TIP3   OH221527   0.261   3.581   1.156
 7188TIP3    H121528   0.299   3.628   1.082
 7188TIP3    H221529   0.198   3.521   1.117
 7189TIP3   OH221530   5.116   6.298   0.244
 7189TIP3    H121531   5.038   6.351   0.230
 7189TIP3    H221532   5.188   6.353   0.213
 7190TIP3   OH221533   1.601   2.108   4.950
 7190TIP3    H121534   1.522   2.161   4.947
 7190TIP3    H221535   1.655   2.147   5.019
 7191TIP3   OH221536   2.813   0.225   5.020
 7191TIP3    H121537   2.859   0.209   4.938
 7191TIP3    H221538   2.880   0.258   5.079
 7192TIP3   OH221539   2.406   3.754   1.547
 7192TIP3    H121540   2.493   3.718   1.560
 7192TIP3    H221541   2.346   3.682   1.567
 7193TIP3   OH221542   0.712   4.791   2.458
 7193TIP3    H121543   0.800   4.813   2.489
 7193TIP3    H221544   0.658   4.865   2.484
 7194TIP3   OH221545   0.075   2.645   5.711
 7194TIP3    H121546   0.104   2.700   5.638
 7194TIP3    H221547   0.082   2.556   5.678
 7195TIP3   OH221548   6.319   2.387   1.175
 7195TIP3    H121549   6.309   2.292   1.181
 7195TIP3    H221550   6.283   2.409   1.088
 7196TIP3   OH221551   3.236   3.558   1.975
 7196TIP3    H121552   3.315   3.564   2.028
 7196TIP3    H221553   3.265   3.521   1.892
 7197TIP3   OH221554   6.094   6.573   1.363
 7197TIP3    H121555   6.142   6.492   1.374
 7197TIP3    H221556   6.042   6.582   1.443
 7198TIP3   OH221557   5.615   2.325   5.750
 7198TIP3    H121558   5.635   2.321   5.844
 7198TIP3    H221559   5.521   2.312   5.744
 7199TIP3   OH221560   6.333   0.450   3.281
 7199TIP3    H121561   6.334   0.480   3.190
 7199TIP3    H221562   6.299   0.525   3.330
 7200TIP3   OH221563   4.251   5.679   2.274
 7200TIP3    H121564   4.269   5.743   2.343
 7200TIP3    H221565   4.259   5.594   2.317
 7201TIP3   OH221566   1.860   3.491   4.794
 7201TIP3    H121567   1.818   3.570   4.826
 7201TIP3    H221568   1.802   3.459   4.725
 7202TIP3   OH221569   5.071   2.964   5.663
 7202TIP3    H121570   4.979   2.957   5.635
 7202TIP3    H221571   5.109   3.027   5.602
 7203TIP3   OH221572   2.706   1.552   2.152
 7203TIP3    H121573   2.615   1.563   2.123
 7203TIP3    H221574   2.758   1.565   2.073
 7204TIP3   OH221575   4.120   6.337   3.958
 7204TIP3    H121576   4.039   6.365   3.916
 7204TIP3    H221577   4.182   6.324   3.887
 7205TIP3   OH221578   3.622   1.673   2.634
 7205TIP3    H121579   3.681   1.609   2.675
 7205TIP3    H221580   3.536   1.653   2.670
 7206TIP3   OH221581   3.737   5.194   3.134
 7206TIP3    H121582   3.672   5.125   3.129
 7206TIP3    H221583   3.789   5.172   3.212
 7207TIP3   OH221584   2.994   5.253   0.613
 7207TIP3    H121585   2.904   5.256   0.580
 7207TIP3    H221586   3.028   5.169   0.581
 7208TIP3   OH221587   6.596   1.865   3.157
 7208TIP3    H121588   6.603   1.852   3.252
 7208TIP3    H221589   6.684   1.846   3.124
 7209TIP3   OH221590   5.652   6.460   0.077
 7209TIP3    H121591   5.690   6.377   0.046
 7209TIP3    H221592   5.562   6.439   0.099
 7210TIP3   OH221593   1.426   3.204   2.630
 7210TIP3    H121594   1.348   3.150   2.628
 7210TIP3    H221595   1.452   3.206   2.722
 7211TIP3   OH221596   6.055   2.201   0.124
 7211TIP3    H121597   6.111   2.250   0.063
 7211TIP3    H221598   6.067   2.244   0.208
 7212TIP3   OH221599   0.517   4.218   3.052
 7212TIP3    H121600   0.463   4.200   2.975
 7212TIP3    H221601   0.467   4.282   3.103
 7213TIP3   OH221602   2.173   2.609   1.152
 7213TIP3    H121603   2.163   2.694   1.110
 7213TIP3    H221604   2.267   2.589   1.145
 7214TIP3   OH221605   1.517   2.352   1.204
 7214TIP3    H121606   1.492   2.417   1.270
 7214TIP3    H221607   1.612   2.357   1.200
 7215TIP3   OH221608   1.760   4.264   2.244
 7215TIP3    H121609   1.715   4.263   2.329
 7215TIP3    H221610   1.799   4.177   2.237
 7216TIP3   OH221611   1.206   0.130   5.233
 7216TIP3    H121612   1.134   0.069   5.249
 7216TIP3    H221613   1.284   0.083   5.262
 7217TIP3   OH221614   0.518   6.279   4.181
 7217TIP3    H121615   0.433   6.240   4.163
 7217TIP3    H221616   0.555   6.295   4.094
 7218TIP3   OH221617   2.329   2.980   2.118
 7218TIP3    H121618   2.328   2.930   2.200
 7218TIP3    H221619   2.367   3.065   2.142
 7219TIP3   OH221620   2.965   4.859   3.274
 7219TIP3    H121621   2.996   4.937   3.321
 7219TIP3    H221622   3.043   4.825   3.229
 7220TIP3   OH221623   0.897   2.979   4.217
 7220TIP3    H121624   0.836   3.002   4.147
 7220TIP3    H221625   0.931   3.062   4.248
 7221TIP3   OH221626   6.449   6.391   2.704
 7221TIP3    H121627   6.469   6.313   2.756
 7221TIP3    H221628   6.478   6.464   2.758
 7222TIP3   OH221629   1.205   3.444   2.880
 7222TIP3    H121630   1.211   3.485   2.794
 7222TIP3    H221631   1.248   3.359   2.869
 7223TIP3   OH221632   4.812   6.543   3.468
 7223TIP3    H121633   4.828   6.448   3.466
 7223TIP3    H221634   4.731   6.555   3.418
 7224TIP3   OH221635   0.695   1.699   2.861
 7224TIP3    H121636   0.650   1.756   2.798
 7224TIP3    H221637   0.664   1.727   2.946
 7225TIP3   OH221638   2.390   2.195   5.032
 7225TIP3    H121639   2.403   2.216   4.940
 7225TIP3    H221640   2.296   2.183   5.041
 7226TIP3   OH221641   5.463   2.626   5.890
 7226TIP3    H121642   5.428   2.585   5.970
 7226TIP3    H221643   5.422   2.578   5.819
 7227TIP3   OH221644   3.058   5.835   2.574
 7227TIP3    H121645   3.123   5.828   2.504
 7227TIP3    H221646   3.045   5.745   2.604
 7228TIP3   OH221647   1.449   3.799   4.036
 7228TIP3    H121648   1.419   3.839   4.117
 7228TIP3    H221649   1.533   3.842   4.017
 7229TIP3   OH221650   0.912   4.149   4.184
 7229TIP3    H121651   0.929   4.085   4.115
 7229TIP3    H221652   0.969   4.223   4.162
 7230TIP3   OH221653   5.251   2.556   1.913
 7230TIP3    H121654   5.200   2.595   1.984
 7230TIP3    H221655   5.328   2.612   1.904
 7231TIP3   OH221656   5.131   3.310   4.561
 7231TIP3    H121657   5.071   3.380   4.533
 7231TIP3    H221658   5.204   3.356   4.601
 7232TIP3   OH221659   5.196   6.126   5.725
 7232TIP3    H121660   5.148   6.112   5.807
 7232TIP3    H221661   5.130   6.120   5.657
 7233TIP3   OH221662   5.124   1.070   5.542
 7233TIP3    H121663   5.171   1.109   5.616
 7233TIP3    H221664   5.048   1.028   5.582
 7234TIP3   OH221665   0.480   3.571   4.138
 7234TIP3    H121666   0.482   3.500   4.074
 7234TIP3    H221667   0.541   3.636   4.104
 7235TIP3   OH221668   6.813   3.218   2.703
 7235TIP3    H121669   6.844   3.237   2.792
 7235TIP3    H221670   6.766   3.135   2.713
 7236TIP3   OH221671   5.442   4.293   1.434
 7236TIP3    H121672   5.503   4.289   1.507
 7236TIP3    H221673   5.382   4.364   1.457
 7237TIP3   OH221674   3.642   2.856   3.836
 7237TIP3    H121675   3.586   2.930   3.814
 7237TIP3    H221676   3.731   2.892   3.834
 7238TIP3   OH221677   4.423   1.212   3.070
 7238TIP3    H121678   4.400   1.198   2.978
 7238TIP3    H221679   4.378   1.142   3.117
 7239TIP3   OH221680   3.828   6.721   1.795
 7239TIP3    H121681   3.801   6.776   1.721
 7239TIP3    H221682   3.846   6.783   1.866
 7240TIP3   OH221683   5.931   4.231   5.767
 7240TIP3    H121684   5.977   4.172   5.827
 7240TIP3    H221685   5.868   4.276   5.823
 7241TIP3   OH221686   6.904   3.526   0.525
 7241TIP3    H121687   6.917   3.502   0.617
 7241TIP3    H221688   6.948   3.611   0.517
 7242TIP3   OH221689   2.267   0.475   0.452
 7242TIP3    H121690   2.236   0.384   0.452
 7242TIP3    H221691   2.243   0.508   0.366
 7243TIP3   OH221692   0.760   3.125   1.091
 7243TIP3    H121693   0.718   3.053   1.138
 7243TIP3    H221694   0.733   3.113   1.000
 7244TIP3   OH221695   4.908   6.446   0.108
 7244TIP3    H121696   4.878   6.481   0.024
 7244TIP3    H221697   4.830   6.447   0.163
 7245TIP3   OH221698   4.671   6.235   1.179
 7245TIP3    H121699   4.624   6.184   1.246
 7245TIP3    H221700   4.689   6.319   1.222
 7246TIP3   OH221701   4.310   6.424   0.201
 7246TIP3    H121702   4.292   6.471   0.119
 7246TIP3    H221703   4.258   6.471   0.267
 7247TIP3   OH221704   1.041   1.310   2.102
 7247TIP3    H121705   1.039   1.256   2.024
 7247TIP3    H221706   1.020   1.250   2.174
 7248TIP3   OH221707   1.331   2.888   0.689
 7248TIP3    H121708   1.405   2.946   0.671
 7248TIP3    H221709   1.254   2.941   0.674
 7249TIP3   OH221710   4.838   4.584   3.968
 7249TIP3    H121711   4.805   4.563   3.881
 7249TIP3    H221712   4.768   4.636   4.008
 7250TIP3   OH221713   1.306   4.779   4.733
 7250TIP3    H121714   1.364   4.781   4.657
 7250TIP3    H221715   1.365   4.781   4.809
 7251TIP3   OH221716   1.159   2.182   1.636
 7251TIP3    H121717   1.176   2.169   1.729
 7251TIP3    H221718   1.219   2.122   1.592
 7252TIP3   OH221719   1.259   0.814   5.043
 7252TIP3    H121720   1.266   0.886   5.106
 7252TIP3    H221721   1.169   0.819   5.011
 7253TIP3   OH221722   5.294   2.553   0.030
 7253TIP3    H121723   5.360   2.566  -0.038
 7253TIP3    H221724   5.290   2.637   0.076
 7254TIP3   OH221725   1.761   4.078   0.918
 7254TIP3    H121726   1.773   4.123   0.834
 7254TIP3    H221727   1.721   3.995   0.895
 7255TIP3   OH221728   6.173   4.573   1.183
 7255TIP3    H121729   6.149   4.512   1.114
 7255TIP3    H221730   6.121   4.652   1.164
 7256TIP3   OH221731   0.135   1.832   0.408
 7256TIP3    H121732   0.125   1.751   0.358
 7256TIP3    H221733   0.054   1.839   0.459
 7257TIP3   OH221734  -0.002   6.148   4.060
 7257TIP3    H121735   0.021   6.106   4.143
 7257TIP3    H221736  -0.080   6.101   4.030
 7258TIP3   OH221737   6.084   5.534   5.575
 7258TIP3    H121738   6.003   5.496   5.542
 7258TIP3    H221739   6.060   5.572   5.659
 7259TIP3   OH221740   2.758   6.044   2.846
 7259TIP3    H121741   2.793   6.040   2.935
 7259TIP3    H221742   2.814   6.108   2.802
 7260TIP3   OH221743   3.660   1.041   1.314
 7260TIP3    H121744   3.614   0.957   1.319
 7260TIP3    H221745   3.607   1.101   1.367
 7261TIP3   OH221746   1.629   3.549   3.215
 7261TIP3    H121747   1.611   3.548   3.121
 7261TIP3    H221748   1.715   3.591   3.222
 7262TIP3   OH221749   1.692   5.224   3.993
 7262TIP3    H121750   1.686   5.270   3.910
 7262TIP3    H221751   1.744   5.146   3.974
 7263TIP3   OH221752   2.848   4.412   2.093
 7263TIP3    H121753   2.868   4.408   2.000
 7263TIP3    H221754   2.904   4.344   2.132
 7264TIP3   OH221755   2.337   4.637   3.627
 7264TIP3    H121756   2.373   4.724   3.646
 7264TIP3    H221757   2.384   4.578   3.687
 7265TIP3   OH221758   6.835   2.636   1.734
 7265TIP3    H121759   6.794   2.704   1.788
 7265TIP3    H221760   6.800   2.554   1.770
 7266TIP3   OH221761   0.533   6.540   0.749
 7266TIP3    H121762   0.548   6.549   0.843
 7266TIP3    H221763   0.449   6.584   0.734
 7267TIP3   OH221764   0.055   0.637   5.168
 7267TIP3    H121765   0.113   0.582   5.220
 7267TIP3    H221766   0.086   0.727   5.185
 7268TIP3   OH221767   5.421   4.985   0.156
 7268TIP3    H121768   5.379   4.983   0.070
 7268TIP3    H221769   5.372   4.922   0.208
 7269TIP3   OH221770   6.597   2.436   1.738
 7269TIP3    H121771   6.549   2.354   1.751
 7269TIP3    H221772   6.611   2.441   1.644
 7270TIP3   OH221773   2.686   3.082   1.975
 7270TIP3    H121774   2.717   2.997   1.944
 7270TIP3    H221775   2.656   3.127   1.897
 7271TIP3   OH221776   1.804   5.765   2.603
 7271TIP3    H121777   1.715   5.792   2.628
 7271TIP3    H221778   1.812   5.676   2.637
 7272TIP3   OH221779   2.663   0.204   4.154
 7272TIP3    H121780   2.744   0.155   4.169
 7272TIP3    H221781   2.675   0.242   4.067
 7273TIP3   OH221782   0.605   1.580   5.828
 7273TIP3    H121783   0.682   1.525   5.834
 7273TIP3    H221784   0.543   1.530   5.774
 7274TIP3   OH221785   1.954   5.957   4.489
 7274TIP3    H121786   1.885   5.998   4.437
 7274TIP3    H221787   1.943   5.863   4.474
 7275TIP3   OH221788   4.923   2.700   5.315
 7275TIP3    H121789   4.965   2.683   5.230
 7275TIP3    H221790   4.861   2.628   5.325
 7276TIP3   OH221791   7.062   2.456   0.185
 7276TIP3    H121792   6.988   2.445   0.244
 7276TIP3    H221793   7.026   2.498   0.107
 7277TIP3   OH221794   4.656   1.075   3.335
 7277TIP3    H121795   4.731   1.060   3.393
 7277TIP3    H221796   4.582   1.087   3.394
 7278TIP3   OH221797   5.654   2.104   1.091
 7278TIP3    H121798   5.629   2.166   1.022
 7278TIP3    H221799   5.635   2.018   1.054
 7279TIP3   OH221800   5.307   0.250   1.723
 7279TIP3    H121801   5.383   0.298   1.756
 7279TIP3    H221802   5.343   0.169   1.687
 7280TIP3   OH221803   0.684   0.187   0.568
 7280TIP3    H121804   0.653   0.263   0.617
 7280TIP3    H221805   0.623   0.179   0.495
 7281TIP3   OH221806   1.499   3.365   4.306
 7281TIP3    H121807   1.562   3.411   4.250
 7281TIP3    H221808   1.431   3.335   4.247
 7282TIP3   OH221809   2.328   3.193   5.494
 7282TIP3    H121810   2.332   3.203   5.589
 7282TIP3    H221811   2.312   3.100   5.480
 7283TIP3   OH221812   4.515   4.151   1.540
 7283TIP3    H121813   4.460   4.103   1.602
 7283TIP3    H221814   4.603   4.145   1.578
 7284TIP3   OH221815   1.649   3.108   2.499
 7284TIP3    H121816   1.569   3.144   2.537
 7284TIP3    H221817   1.714   3.178   2.508
 7285TIP3   OH221818   4.217   2.949   2.285
 7285TIP3    H121819   4.231   3.011   2.356
 7285TIP3    H221820   4.239   2.998   2.205
 7286TIP3   OH221821   4.130   5.105   0.520
 7286TIP3    H121822   4.087   5.026   0.488
 7286TIP3    H221823   4.073   5.177   0.490
 7287TIP3   OH221824   4.360   2.813   0.479
 7287TIP3    H121825   4.419   2.766   0.537
 7287TIP3    H221826   4.284   2.834   0.533
 7288TIP3   OH221827   4.829   2.994   1.572
 7288TIP3    H121828   4.837   2.998   1.477
 7288TIP3    H221829   4.735   2.994   1.589
 7289TIP3   OH221830   2.925   0.875   0.295
 7289TIP3    H121831   2.912   0.921   0.212
 7289TIP3    H221832   2.970   0.794   0.270
 7290TIP3   OH221833   1.019   0.134   1.609
 7290TIP3    H121834   0.984   0.099   1.527
 7290TIP3    H221835   1.112   0.148   1.591
 7291TIP3   OH221836   1.664   3.839   0.874
 7291TIP3    H121837   1.694   3.790   0.798
 7291TIP3    H221838   1.583   3.795   0.901
 7292TIP3   OH221839   1.672   0.836   0.305
 7292TIP3    H121840   1.676   0.750   0.347
 7292TIP3    H221841   1.699   0.819   0.214
 7293TIP3   OH221842   3.895   1.301   4.158
 7293TIP3    H121843   3.976   1.310   4.207
 7293TIP3    H221844   3.884   1.206   4.145
 7294TIP3   OH221845   1.452   4.091   4.796
 7294TIP3    H121846   1.373   4.129   4.757
 7294TIP3    H221847   1.463   4.138   4.879
 7295TIP3   OH221848   5.815   4.368   1.823
 7295TIP3    H121849   5.874   4.413   1.884
 7295TIP3    H221850   5.813   4.425   1.746
 7296TIP3   OH221851   2.642   1.024   1.087
 7296TIP3    H121852   2.632   1.102   1.033
 7296TIP3    H221853   2.727   0.988   1.062
 7297TIP3   OH221854   1.194   2.629   4.511
 7297TIP3    H121855   1.116   2.593   4.468
 7297TIP3    H221856   1.255   2.555   4.516
 7298TIP3   OH221857   3.121   6.602   1.874
 7298TIP3    H121858   3.133   6.508   1.882
 7298TIP3    H221859   3.039   6.613   1.827
 7299TIP3   OH221860   0.517   2.639   1.236
 7299TIP3    H121861   0.515   2.552   1.276
 7299TIP3    H221862   0.425   2.665   1.230
 7300TIP3   OH221863   5.714   4.867   3.604
 7300TIP3    H121864   5.800   4.852   3.643
 7300TIP3    H221865   5.677   4.939   3.654
 7301TIP3   OH221866   1.132   1.768   1.696
 7301TIP3    H121867   1.217   1.724   1.700
 7301TIP3    H221868   1.081   1.716   1.634
 7302TIP3   OH221869   6.536   3.124   5.208
 7302TIP3    H121870   6.471   3.057   5.228
 7302TIP3    H221871   6.485   3.204   5.195
 7303TIP3   OH221872   1.334   1.613   0.065
 7303TIP3    H121873   1.303   1.614  -0.025
 7303TIP3    H221874   1.259   1.644   0.116
 7304TIP3   OH221875   1.742   2.370   1.824
 7304TIP3    H121876   1.751   2.362   1.729
 7304TIP3    H221877   1.695   2.453   1.837
 7305TIP3   OH221878   1.316   6.475   4.371
 7305TIP3    H121879   1.253   6.529   4.322
 7305TIP3    H221880   1.313   6.390   4.326
 7306TIP3   OH221881   1.320   2.964   1.321
 7306TIP3    H121882   1.252   2.937   1.383
 7306TIP3    H221883   1.387   2.896   1.327
 7307TIP3   OH221884   5.319   1.501   3.816
 7307TIP3    H121885   5.337   1.560   3.742
 7307TIP3    H221886   5.231   1.468   3.798
 7308TIP3   OH221887   6.402   3.215   2.459
 7308TIP3    H121888   6.474   3.278   2.467
 7308TIP3    H221889   6.377   3.196   2.549
 7309TIP3   OH221890   2.205   5.626   4.743
 7309TIP3    H121891   2.136   5.665   4.690
 7309TIP3    H221892   2.253   5.570   4.682
 7310TIP3   OH221893   3.501   0.196   2.633
 7310TIP3    H121894   3.580   0.183   2.686
 7310TIP3    H221895   3.533   0.227   2.548
 7311TIP3   OH221896   2.645   5.024   0.461
 7311TIP3    H121897   2.696   4.944   0.447
 7311TIP3    H221898   2.557   5.001   0.433
 7312TIP3   OH221899   1.023   2.194   4.265
 7312TIP3    H121900   1.117   2.187   4.280
 7312TIP3    H221901   0.994   2.260   4.327
 7313TIP3   OH221902   6.005   1.089   4.596
 7313TIP3    H121903   6.016   1.184   4.592
 7313TIP3    H221904   6.075   1.060   4.655
 7314TIP3   OH221905   5.692   5.421   0.860
 7314TIP3    H121906   5.780   5.393   0.835
 7314TIP3    H221907   5.653   5.451   0.778
 7315TIP3   OH221908   1.578   3.103   5.082
 7315TIP3    H121909   1.483   3.112   5.080
 7315TIP3    H221910   1.610   3.173   5.025
 7316TIP3   OH221911   2.087   0.715   4.611
 7316TIP3    H121912   2.009   0.759   4.574
 7316TIP3    H221913   2.107   0.646   4.548
 7317TIP3   OH221914   3.995   5.166   5.022
 7317TIP3    H121915   4.085   5.196   5.035
 7317TIP3    H221916   3.967   5.135   5.108
 7318TIP3   OH221917   5.555   4.036   1.223
 7318TIP3    H121918   5.579   4.068   1.310
 7318TIP3    H221919   5.550   3.941   1.232
 7319TIP3   OH221920   2.319   2.366   3.300
 7319TIP3    H121921   2.313   2.273   3.322
 7319TIP3    H221922   2.248   2.380   3.238
 7320TIP3   OH221923   0.660   5.691   5.284
 7320TIP3    H121924   0.665   5.719   5.375
 7320TIP3    H221925   0.597   5.618   5.285
 7321TIP3   OH221926   4.825   3.612   3.829
 7321TIP3    H121927   4.863   3.632   3.743
 7321TIP3    H221928   4.753   3.674   3.838
 7322TIP3   OH221929   2.615   5.557   0.364
 7322TIP3    H121930   2.575   5.549   0.451
 7322TIP3    H221931   2.659   5.473   0.350
 7323TIP3   OH221932   5.400   4.592   4.149
 7323TIP3    H121933   5.413   4.582   4.055
 7323TIP3    H221934   5.452   4.669   4.173
 7324TIP3   OH221935   4.810   6.122   4.391
 7324TIP3    H121936   4.733   6.153   4.342
 7324TIP3    H221937   4.839   6.045   4.343
 7325TIP3   OH221938   3.985   4.713   1.733
 7325TIP3    H121939   3.995   4.701   1.639
 7325TIP3    H221940   4.040   4.645   1.772
 7326TIP3   OH221941   5.362   0.954   5.927
 7326TIP3    H121942   5.398   1.041   5.947
 7326TIP3    H221943   5.275   0.972   5.892
 7327TIP3   OH221944   0.845   6.387   2.378
 7327TIP3    H121945   0.776   6.392   2.444
 7327TIP3    H221946   0.927   6.386   2.428
 7328TIP3   OH221947   2.155   0.307   2.427
 7328TIP3    H121948   2.196   0.325   2.342
 7328TIP3    H221949   2.099   0.231   2.411
 7329TIP3   OH221950   1.941   1.705   1.558
 7329TIP3    H121951   1.916   1.694   1.650
 7329TIP3    H221952   1.917   1.795   1.538
 7330TIP3   OH221953   6.988   1.687   2.902
 7330TIP3    H121954   7.081   1.684   2.880
 7330TIP3    H221955   6.975   1.613   2.962
 7331TIP3   OH221956   2.119   4.102   2.091
 7331TIP3    H121957   2.077   4.149   2.019
 7331TIP3    H221958   2.084   4.013   2.086
 7332TIP3   OH221959   6.949   2.787   2.615
 7332TIP3    H121960   6.897   2.727   2.562
 7332TIP3    H221961   7.040   2.760   2.600
 7333TIP3   OH221962   1.501   3.607   1.590
 7333TIP3    H121963   1.499   3.569   1.502
 7333TIP3    H221964   1.413   3.590   1.624
 7334TIP3   OH221965   4.476   1.073   2.689
 7334TIP3    H121966   4.558   1.023   2.691
 7334TIP3    H221967   4.483   1.132   2.764
 7335TIP3   OH221968   1.676   0.589   0.703
 7335TIP3    H121969   1.711   0.504   0.676
 7335TIP3    H221970   1.581   0.579   0.697
 7336TIP3   OH221971   3.830   6.170   3.607
 7336TIP3    H121972   3.804   6.162   3.515
 7336TIP3    H221973   3.915   6.214   3.604
 7337TIP3   OH221974   4.308   3.704   3.788
 7337TIP3    H121975   4.303   3.671   3.877
 7337TIP3    H221976   4.235   3.765   3.780
 7338TIP3   OH221977   4.256   5.961   0.540
 7338TIP3    H121978   4.185   6.014   0.505
 7338TIP3    H221979   4.217   5.912   0.612
 7339TIP3   OH221980   0.602   6.511   2.584
 7339TIP3    H121981   0.562   6.448   2.644
 7339TIP3    H221982   0.569   6.596   2.612
 7340TIP3   OH221983   1.437   3.276   5.629
 7340TIP3    H121984   1.459   3.243   5.542
 7340TIP3    H221985   1.354   3.233   5.651
 7341TIP3   OH221986   4.061   2.119   0.431
 7341TIP3    H121987   4.069   2.184   0.500
 7341TIP3    H221988   3.980   2.072   0.450
 7342TIP3   OH221989   1.472   4.583   5.130
 7342TIP3    H121990   1.410   4.656   5.134
 7342TIP3    H221991   1.430   4.514   5.181
 7343TIP3   OH221992   0.408   0.355   4.702
 7343TIP3    H121993   0.350   0.407   4.647
 7343TIP3    H221994   0.478   0.327   4.644
 7344TIP3   OH221995   0.547   1.096   0.744
 7344TIP3    H121996   0.468   1.044   0.731
 7344TIP3    H221997   0.613   1.033   0.772
 7345TIP3   OH221998   3.325   1.895   0.030
 7345TIP3    H121999   3.281   1.980   0.034
 7345TIP3    H222000   3.398   1.903   0.092
 7346TIP3   OH222001   2.128   3.649   2.253
 7346TIP3    H122002   2.161   3.645   2.342
 7346TIP3    H222003   2.098   3.560   2.234
 7347TIP3   OH222004   0.366   1.842   1.013
 7347TIP3    H122005   0.398   1.884   0.933
 7347TIP3    H222006   0.392   1.902   1.083
 7348TIP3   OH222007   5.837   5.460   3.770
 7348TIP3    H122008   5.922   5.486   3.805
 7348TIP3    H222009   5.774   5.508   3.823
 7349TIP3   OH222010   2.571   0.430   2.736
 7349TIP3    H122011   2.515   0.504   2.759
 7349TIP3    H222012   2.589   0.443   2.643
 7350TIP3   OH222013   0.873   2.596   0.704
 7350TIP3    H122014   0.945   2.584   0.642
 7350TIP3    H222015   0.805   2.639   0.653
 7351TIP3   OH222016   0.779   1.808   4.369
 7351TIP3    H122017   0.742   1.729   4.409
 7351TIP3    H222018   0.705   1.867   4.359
 7352TIP3   OH222019   3.268   0.601   1.999
 7352TIP3    H122020   3.244   0.568   1.912
 7352TIP3    H222021   3.218   0.682   2.008
 7353TIP3   OH222022   6.491   3.669   4.635
 7353TIP3    H122023   6.504   3.640   4.545
 7353TIP3    H222024   6.580   3.682   4.669
 7354TIP3   OH222025   5.731   0.233   4.469
 7354TIP3    H122026   5.765   0.321   4.488
 7354TIP3    H222027   5.728   0.190   4.554
 7355TIP3   OH222028   6.117   3.377   0.930
 7355TIP3    H122029   6.212   3.371   0.945
 7355TIP3    H222030   6.090   3.286   0.916
 7356TIP3   OH222031   4.379   1.204   2.459
 7356TIP3    H122032   4.306   1.231   2.515
 7356TIP3    H222033   4.436   1.152   2.516
 7357TIP3   OH222034   0.147   5.563   1.560
 7357TIP3    H122035   0.218   5.569   1.497
 7357TIP3    H222036   0.189   5.536   1.642
 7358TIP3   OH222037   0.102   1.623   1.672
 7358TIP3    H122038   0.066   1.709   1.654
 7358TIP3    H222039   0.066   1.567   1.603
 7359TIP3   OH222040   6.728   4.595   5.382
 7359TIP3    H122041   6.645   4.559   5.413
 7359TIP3    H222042   6.794   4.559   5.442
 7360TIP3   OH222043   5.655   5.927   4.010
 7360TIP3    H122044   5.585   5.989   3.993
 7360TIP3    H222045   5.723   5.978   4.054
 7361TIP3   OH222046   3.746   1.368   1.383
 7361TIP3    H122047   3.717   1.441   1.437
 7361TIP3    H222048   3.694   1.293   1.412
 7362TIP3   OH222049   2.907   5.702   5.599
 7362TIP3    H122050   2.983   5.694   5.541
 7362TIP3    H222051   2.939   5.672   5.685
 7363TIP3   OH222052   0.692   0.595   0.043
 7363TIP3    H122053   0.752   0.521   0.031
 7363TIP3    H222054   0.705   0.622   0.134
 7364TIP3   OH222055   3.936   5.993   4.812
 7364TIP3    H122056   3.882   6.038   4.747
 7364TIP3    H222057   3.893   5.908   4.825
 7365TIP3   OH222058   2.379   3.206   5.776
 7365TIP3    H122059   2.423   3.279   5.820
 7365TIP3    H222060   2.298   3.195   5.824
 7366TIP3   OH222061   1.968   1.417   2.129
 7366TIP3    H122062   1.887   1.434   2.081
 7366TIP3    H222063   1.981   1.495   2.183
 7367TIP3   OH222064   6.732   1.366   4.388
 7367TIP3    H122065   6.714   1.314   4.309
 7367TIP3    H222066   6.743   1.455   4.355
 7368TIP3   OH222067   0.277   6.813   1.033
 7368TIP3    H122068   0.364   6.777   1.016
 7368TIP3    H222069   0.250   6.773   1.116
 7369TIP3   OH222070   4.049   0.095   2.353
 7369TIP3    H122071   4.019   0.068   2.266
 7369TIP3    H222072   3.978   0.150   2.386
 7370TIP3   OH222073   1.417   6.217   3.058
 7370TIP3    H122074   1.431   6.298   3.010
 7370TIP3    H222075   1.476   6.222   3.133
 7371TIP3   OH222076   5.044   5.480   1.212
 7371TIP3    H122077   5.046   5.518   1.124
 7371TIP3    H222078   4.991   5.540   1.263
 7372TIP3   OH222079   5.168   3.460   0.477
 7372TIP3    H122080   5.237   3.485   0.416
 7372TIP3    H222081   5.088   3.497   0.440
 7373TIP3   OH222082   0.831   0.360   0.999
 7373TIP3    H122083   0.844   0.451   1.026
 7373TIP3    H222084   0.765   0.326   1.059
 7374TIP3   OH222085   2.275   2.035   0.772
 7374TIP3    H122086   2.186   2.006   0.753
 7374TIP3    H222087   2.324   2.017   0.692
 7375TIP3   OH222088   3.143   1.923   3.216
 7375TIP3    H122089   3.216   1.934   3.276
 7375TIP3    H222090   3.183   1.917   3.129
 7376TIP3   OH222091   3.876   5.298   4.824
 7376TIP3    H122092   3.956   5.351   4.822
 7376TIP3    H222093   3.891   5.234   4.894
 7377TIP3   OH222094   7.185   1.450   1.502
 7377TIP3    H122095   7.263   1.419   1.455
 7377TIP3    H222096   7.138   1.371   1.526
 7378TIP3   OH222097   5.838   5.110   5.674
 7378TIP3    H122098   5.896   5.107   5.751
 7378TIP3    H222099   5.822   5.018   5.653
 7379TIP3   OH222100   1.939   3.199   1.094
 7379TIP3    H122101   1.950   3.217   1.001
 7379TIP3    H222102   2.026   3.175   1.125
 7380TIP3   OH222103   3.305   1.440   5.421
 7380TIP3    H122104   3.369   1.424   5.351
 7380TIP3    H222105   3.349   1.501   5.480
 7381TIP3   OH222106   1.231   5.008   4.914
 7381TIP3    H122107   1.174   5.081   4.888
 7381TIP3    H222108   1.204   4.936   4.858
 7382TIP3   OH222109   2.570   4.936   3.564
 7382TIP3    H122110   2.621   4.868   3.521
 7382TIP3    H222111   2.548   4.998   3.493
 7383TIP3   OH222112   5.456   2.938   0.549
 7383TIP3    H122113   5.522   2.996   0.512
 7383TIP3    H222114   5.387   2.997   0.581
 7384TIP3   OH222115   0.991   2.971   2.164
 7384TIP3    H122116   1.044   3.022   2.103
 7384TIP3    H222117   0.989   3.023   2.244
 7385TIP3   OH222118   0.237   1.248   5.552
 7385TIP3    H122119   0.256   1.166   5.507
 7385TIP3    H222120   0.143   1.260   5.542
 7386TIP3   OH222121   6.068   6.513   0.178
 7386TIP3    H122122   6.011   6.450   0.133
 7386TIP3    H222123   6.028   6.523   0.265
 7387TIP3   OH222124   3.624   4.538   2.545
 7387TIP3    H122125   3.657   4.465   2.494
 7387TIP3    H222126   3.698   4.599   2.551
 7388TIP3   OH222127   0.363   0.149   1.865
 7388TIP3    H122128   0.450   0.131   1.900
 7388TIP3    H222129   0.338   0.233   1.904
 7389TIP3   OH222130   4.705   4.560   1.576
 7389TIP3    H122131   4.682   4.588   1.488
 7389TIP3    H222132   4.622   4.537   1.617
 7390TIP3   OH222133   4.416   2.001   1.425
 7390TIP3    H122134   4.348   1.934   1.435
 7390TIP3    H222135   4.370   2.078   1.392
 7391TIP3   OH222136   4.050   5.245   0.816
 7391TIP3    H122137   4.072   5.337   0.831
 7391TIP3    H222138   4.115   5.215   0.753
 7392TIP3   OH222139   2.272   2.248   1.630
 7392TIP3    H122140   2.199   2.310   1.622
 7392TIP3    H222141   2.281   2.233   1.724
 7393TIP3   OH222142   3.539   2.964   4.777
 7393TIP3    H122143   3.552   2.989   4.869
 7393TIP3    H222144   3.625   2.932   4.748
 7394TIP3   OH222145   1.558   0.413   2.329
 7394TIP3    H122146   1.570   0.398   2.235
 7394TIP3    H222147   1.505   0.339   2.358
 7395TIP3   OH222148   1.480   5.989   5.525
 7395TIP3    H122149   1.468   6.017   5.434
 7395TIP3    H222150   1.554   6.042   5.556
 7396TIP3   OH222151   6.335   2.611   2.667
 7396TIP3    H122152   6.411   2.569   2.708
 7396TIP3    H222153   6.262   2.592   2.726
 7397TIP3   OH222154   2.562   3.660   2.262
 7397TIP3    H122155   2.606   3.606   2.196
 7397TIP3    H222156   2.591   3.624   2.346
 7398TIP3   OH222157   6.107   5.862   1.058
 7398TIP3    H122158   6.129   5.936   1.114
 7398TIP3    H222159   6.187   5.810   1.054
 7399TIP3   OH222160   0.045   5.151   4.818
 7399TIP3    H122161   0.045   5.216   4.888
 7399TIP3    H222162  -0.046   5.123   4.810
 7400TIP3   OH222163   2.675   2.331   0.673
 7400TIP3    H122164   2.732   2.395   0.716
 7400TIP3    H222165   2.658   2.369   0.587
 7401TIP3   OH222166   0.188   5.401   0.074
 7401TIP3    H122167   0.173   5.370  -0.016
 7401TIP3    H222168   0.269   5.357   0.100
 7402TIP3   OH222169   2.787   2.802   3.639
 7402TIP3    H122170   2.721   2.752   3.688
 7402TIP3    H222171   2.842   2.841   3.707
 7403TIP3   OH222172   6.411   1.609   2.337
 7403TIP3    H122173   6.500   1.590   2.306
 7403TIP3    H222174   6.421   1.620   2.432
 7404TIP3   OH222175   0.924   1.489   5.194
 7404TIP3    H122176   0.868   1.527   5.262
 7404TIP3    H222177   0.988   1.436   5.242
 7405TIP3   OH222178  -0.017   5.454   1.373
 7405TIP3    H122179   0.043   5.495   1.435
 7405TIP3    H222180  -0.016   5.361   1.396
 7406TIP3   OH222181   3.191   1.389   2.730
 7406TIP3    H122182   3.143   1.309   2.706
 7406TIP3    H222183   3.276   1.379   2.688
 7407TIP3   OH222184   1.871   0.430   1.013
 7407TIP3    H122185   1.813   0.354   0.999
 7407TIP3    H222186   1.812   0.505   1.015
 7408TIP3   OH222187   0.388   5.416   1.644
 7408TIP3    H122188   0.419   5.477   1.711
 7408TIP3    H222189   0.444   5.433   1.569
 7409TIP3   OH222190   3.270   3.975   4.783
 7409TIP3    H122191   3.276   3.935   4.696
 7409TIP3    H222192   3.262   3.900   4.842
 7410TIP3   OH222193   0.123   4.807   0.160
 7410TIP3    H122194   0.046   4.790   0.214
 7410TIP3    H222195   0.192   4.754   0.198
 7411TIP3   OH222196   0.104   6.140   1.762
 7411TIP3    H122197   0.071   6.163   1.675
 7411TIP3    H222198   0.044   6.185   1.822
 7412TIP3   OH222199   2.412   1.973   3.201
 7412TIP3    H122200   2.369   1.968   3.116
 7412TIP3    H222201   2.483   1.909   3.196
 7413TIP3   OH222202   1.745   2.895   2.868
 7413TIP3    H122203   1.694   2.926   2.943
 7413TIP3    H222204   1.690   2.826   2.829
 7414TIP3   OH222205   1.152   4.642   5.838
 7414TIP3    H122206   1.166   4.553   5.805
 7414TIP3    H222207   1.196   4.698   5.774
 7415TIP3   OH222208   4.728   2.029   3.354
 7415TIP3    H122209   4.645   2.035   3.305
 7415TIP3    H222210   4.712   2.076   3.435
 7416TIP3   OH222211   0.721   4.545   2.901
 7416TIP3    H122212   0.659   4.488   2.856
 7416TIP3    H222213   0.699   4.633   2.871
 7417TIP3   OH222214   3.165   2.559   1.543
 7417TIP3    H122215   3.171   2.552   1.448
 7417TIP3    H222216   3.209   2.642   1.563
 7418TIP3   OH222217   3.764   6.679   3.687
 7418TIP3    H122218   3.756   6.698   3.780
 7418TIP3    H222219   3.848   6.635   3.679
 7419TIP3   OH222220   4.295   1.615   1.016
 7419TIP3    H122221   4.313   1.708   1.000
 7419TIP3    H222222   4.202   1.612   1.039
 7420TIP3   OH222223   2.443   0.595   4.573
 7420TIP3    H122224   2.415   0.556   4.490
 7420TIP3    H222225   2.415   0.533   4.640
 7421TIP3   OH222226   6.187   3.841   0.821
 7421TIP3    H122227   6.115   3.824   0.881
 7421TIP3    H222228   6.261   3.793   0.858
 7422TIP3   OH222229   3.911   5.716   0.758
 7422TIP3    H122230   3.893   5.726   0.664
 7422TIP3    H222231   3.988   5.770   0.773
 7423TIP3   OH222232   2.079   5.057   5.743
 7423TIP3    H122233   2.100   5.132   5.687
 7423TIP3    H222234   2.122   4.982   5.701
 7424TIP3   OH222235   4.885   5.869   2.968
 7424TIP3    H122236   4.912   5.947   3.015
 7424TIP3    H222237   4.964   5.813   2.967
 7425TIP3   OH222238   0.689   3.747   2.320
 7425TIP3    H122239   0.739   3.819   2.359
 7425TIP3    H222240   0.621   3.790   2.269
 7426TIP3   OH222241   5.428   0.518   2.310
 7426TIP3    H122242   5.499   0.458   2.335
 7426TIP3    H222243   5.469   0.578   2.248
 7427TIP3   OH222244   4.518   3.464   2.917
 7427TIP3    H122245   4.430   3.426   2.923
 7427TIP3    H222246   4.505   3.558   2.930
 7428TIP3   OH222247   0.564   5.146   0.800
 7428TIP3    H122248   0.586   5.234   0.772
 7428TIP3    H222249   0.523   5.105   0.723
 7429TIP3   OH222250   0.118   2.489   0.288
 7429TIP3    H122251   0.144   2.397   0.292
 7429TIP3    H222252   0.065   2.495   0.209
 7430TIP3   OH222253   0.103   3.493   4.613
 7430TIP3    H122254   0.148   3.560   4.561
 7430TIP3    H222255   0.096   3.531   4.701
 7431TIP3   OH222256   6.260   5.667   2.213
 7431TIP3    H122257   6.264   5.701   2.302
 7431TIP3    H222258   6.215   5.583   2.221
 7432TIP3   OH222259   3.366   0.671   3.044
 7432TIP3    H122260   3.344   0.607   2.976
 7432TIP3    H222261   3.307   0.744   3.029
 7433TIP3   OH222262   5.932   5.884   5.464
 7433TIP3    H122263   5.929   5.898   5.558
 7433TIP3    H222264   5.998   5.946   5.433
 7434TIP3   OH222265   4.633   2.723   0.374
 7434TIP3    H122266   4.728   2.720   0.358
 7434TIP3    H222267   4.617   2.812   0.404
 7435TIP3   OH222268   2.414   3.771   0.699
 7435TIP3    H122269   2.393   3.811   0.615
 7435TIP3    H222270   2.489   3.820   0.731
 7436TIP3   OH222271   6.822   5.358   2.764
 7436TIP3    H122272   6.757   5.288   2.768
 7436TIP3    H222273   6.893   5.322   2.710
 7437TIP3   OH222274   1.309   1.597   4.577
 7437TIP3    H122275   1.278   1.580   4.488
 7437TIP3    H222276   1.333   1.510   4.610
 7438TIP3   OH222277   1.151   5.106   2.330
 7438TIP3    H122278   1.216   5.050   2.371
 7438TIP3    H222279   1.111   5.155   2.402
 7439TIP3   OH222280   2.851   4.642   1.043
 7439TIP3    H122281   2.848   4.549   1.065
 7439TIP3    H222282   2.924   4.651   0.982
 7440TIP3   OH222283   5.758   3.115   1.620
 7440TIP3    H122284   5.717   3.078   1.541
 7440TIP3    H222285   5.824   3.051   1.645
 7441TIP3   OH222286   6.096   1.727   5.323
 7441TIP3    H122287   6.026   1.678   5.367
 7441TIP3    H222288   6.065   1.737   5.233
 7442TIP3   OH222289   2.624   5.730   5.570
 7442TIP3    H122290   2.719   5.738   5.569
 7442TIP3    H222291   2.600   5.735   5.662
 7443TIP3   OH222292   3.834   0.155   4.960
 7443TIP3    H122293   3.782   0.229   4.928
 7443TIP3    H222294   3.920   0.167   4.922
 7444TIP3   OH222295   3.957   5.881   4.130
 7444TIP3    H122296   3.984   5.790   4.136
 7444TIP3    H222297   3.880   5.887   4.187
 7445TIP3   OH222298   0.750   4.995   4.529
 7445TIP3    H122299   0.655   5.005   4.522
 7445TIP3    H222300   0.768   4.909   4.492
 7446TIP3   OH222301   5.512   2.677   2.853
 7446TIP3    H122302   5.600   2.660   2.819
 7446TIP3    H222303   5.527   2.726   2.934
 7447TIP3   OH222304   4.597   2.197   4.350
 7447TIP3    H122305   4.674   2.139   4.352
 7447TIP3    H222306   4.582   2.221   4.441
 7448TIP3   OH222307   0.060   6.328   1.491
 7448TIP3    H122308   0.110   6.370   1.422
 7448TIP3    H222309   0.006   6.398   1.528
 7449TIP3   OH222310   2.729   4.241   3.910
 7449TIP3    H122311   2.692   4.328   3.900
 7449TIP3    H222312   2.654   4.182   3.910
 7450TIP3   OH222313   2.686   2.328   2.645
 7450TIP3    H122314   2.753   2.301   2.582
 7450TIP3    H222315   2.725   2.306   2.731
 7451TIP3   OH222316   0.936   5.747   5.144
 7451TIP3    H122317   0.968   5.659   5.165
 7451TIP3    H222318   0.847   5.749   5.179
 7452TIP3   OH222319   5.130   5.855   1.005
 7452TIP3    H122320   5.042   5.839   0.972
 7452TIP3    H222321   5.177   5.894   0.930
 7453TIP3   OH222322   1.823   4.064   4.304
 7453TIP3    H122323   1.882   4.112   4.363
 7453TIP3    H222324   1.842   3.971   4.323
 7454TIP3   OH222325   4.912   4.676   4.917
 7454TIP3    H122326   5.006   4.664   4.904
 7454TIP3    H222327   4.873   4.645   4.835
 7455TIP3   OH222328   4.159   2.245   5.302
 7455TIP3    H122329   4.111   2.226   5.383
 7455TIP3    H222330   4.165   2.161   5.258
 7456TIP3   OH222331   4.717   0.917   2.704
 7456TIP3    H122332   4.808   0.939   2.685
 7456TIP3    H222333   4.700   0.958   2.789
 7457TIP3   OH222334   1.767   1.692   5.077
 7457TIP3    H122335   1.716   1.659   5.003
 7457TIP3    H222336   1.831   1.623   5.095
 7458TIP3   OH222337   5.754   1.561   1.848
 7458TIP3    H122338   5.733   1.570   1.941
 7458TIP3    H222339   5.834   1.612   1.836
 7459TIP3   OH222340   6.180   3.239   1.528
 7459TIP3    H122341   6.150   3.202   1.611
 7459TIP3    H222342   6.197   3.162   1.473
 7460TIP3   OH222343   2.134   4.778   1.513
 7460TIP3    H122344   2.186   4.854   1.537
 7460TIP3    H222345   2.109   4.793   1.421
 7461TIP3   OH222346   3.508   0.971   2.881
 7461TIP3    H122347   3.465   0.892   2.848
 7461TIP3    H222348   3.590   0.938   2.920
 7462TIP3   OH222349   6.966   6.309   3.096
 7462TIP3    H122350   7.028   6.239   3.116
 7462TIP3    H222351   7.018   6.389   3.105
 7463TIP3   OH222352   4.543   3.536   3.500
 7463TIP3    H122353   4.552   3.466   3.435
 7463TIP3    H222354   4.600   3.606   3.469
 7464TIP3   OH222355   5.825   3.328   3.756
 7464TIP3    H122356   5.841   3.355   3.666
 7464TIP3    H222357   5.912   3.316   3.794
 7465TIP3   OH222358   3.006   3.904   5.205
 7465TIP3    H122359   2.958   3.861   5.275
 7465TIP3    H222360   3.089   3.855   5.199
 7466TIP3   OH222361   5.763   4.368   3.989
 7466TIP3    H122362   5.727   4.453   4.015
 7466TIP3    H222363   5.848   4.388   3.950
 7467TIP3   OH222364   0.631   3.894   2.747
 7467TIP3    H122365   0.592   3.873   2.832
 7467TIP3    H222366   0.725   3.894   2.763
 7468TIP3   OH222367   2.329   4.537   3.205
 7468TIP3    H122368   2.235   4.538   3.219
 7468TIP3    H222369   2.339   4.549   3.110
 7469TIP3   OH222370   6.046   1.423   5.178
 7469TIP3    H122371   6.079   1.513   5.183
 7469TIP3    H222372   6.072   1.384   5.261
 7470TIP3   OH222373   5.921   3.946   2.787
 7470TIP3    H122374   5.870   3.948   2.706
 7470TIP3    H222375   5.920   4.036   2.819
 7471TIP3   OH222376   6.207   3.658   1.483
 7471TIP3    H122377   6.171   3.745   1.504
 7471TIP3    H222378   6.131   3.600   1.484
 7472TIP3   OH222379   6.728   3.503   3.200
 7472TIP3    H122380   6.794   3.513   3.268
 7472TIP3    H222381   6.776   3.514   3.118
 7473TIP3   OH222382   6.421   0.705   4.554
 7473TIP3    H122383   6.438   0.710   4.648
 7473TIP3    H222384   6.508   0.692   4.515
 7474TIP3   OH222385   4.246   5.397   3.484
 7474TIP3    H122386   4.243   5.478   3.535
 7474TIP3    H222387   4.310   5.342   3.529
 7475TIP3   OH222388   1.216   2.588   5.416
 7475TIP3    H122389   1.241   2.616   5.328
 7475TIP3    H222390   1.126   2.557   5.407
 7476TIP3   OH222391   3.156   2.325   4.004
 7476TIP3    H122392   3.211   2.395   4.041
 7476TIP3    H222393   3.069   2.342   4.041
 7477TIP3   OH222394   2.094   4.484   1.172
 7477TIP3    H122395   2.122   4.440   1.252
 7477TIP3    H222396   2.068   4.572   1.201
 7478TIP3   OH222397   5.271   4.150   5.299
 7478TIP3    H122398   5.345   4.201   5.266
 7478TIP3    H222399   5.266   4.073   5.242
 7479TIP3   OH222400   5.608   4.782   1.913
 7479TIP3    H122401   5.613   4.848   1.982
 7479TIP3    H222402   5.652   4.823   1.838
 7480TIP3   OH222403   1.010   2.330   5.007
 7480TIP3    H122404   1.037   2.391   4.938
 7480TIP3    H222405   1.085   2.272   5.018
 7481TIP3   OH222406   4.938   4.418   2.616
 7481TIP3    H122407   5.000   4.485   2.642
 7481TIP3    H222408   4.888   4.399   2.696
 7482TIP3   OH222409   7.086   4.695   3.435
 7482TIP3    H122410   7.121   4.706   3.346
 7482TIP3    H222411   7.014   4.759   3.440
 7483TIP3   OH222412   5.897   5.767   0.901
 7483TIP3    H122413   5.950   5.795   0.976
 7483TIP3    H222414   5.813   5.813   0.912
 7484TIP3   OH222415   1.571   6.009   2.108
 7484TIP3    H122416   1.545   6.099   2.091
 7484TIP3    H222417   1.662   6.015   2.136
 7485TIP3   OH222418   6.934   5.234   4.882
 7485TIP3    H122419   6.941   5.251   4.976
 7485TIP3    H222420   6.941   5.139   4.875
 7486TIP3   OH222421   3.629   4.693   5.591
 7486TIP3    H122422   3.658   4.635   5.661
 7486TIP3    H222423   3.618   4.636   5.515
 7487TIP3   OH222424   0.795   3.757   5.919
 7487TIP3    H122425   0.878   3.739   5.963
 7487TIP3    H222426   0.797   3.850   5.899
 7488TIP3   OH222427   2.576   3.141   0.444
 7488TIP3    H122428   2.485   3.119   0.467
 7488TIP3    H222429   2.629   3.077   0.492
 7489TIP3   OH222430   1.498   1.535   1.440
 7489TIP3    H122431   1.475   1.443   1.425
 7489TIP3    H222432   1.556   1.533   1.516
 7490TIP3   OH222433   1.323   3.538   5.625
 7490TIP3    H122434   1.349   3.446   5.635
 7490TIP3    H222435   1.393   3.577   5.574
 7491TIP3   OH222436   6.651   4.128   5.050
 7491TIP3    H122437   6.590   4.078   4.996
 7491TIP3    H222438   6.692   4.063   5.108
 7492TIP3   OH222439   2.213   3.929   2.489
 7492TIP3    H122440   2.225   3.837   2.514
 7492TIP3    H222441   2.288   3.948   2.433
 7493TIP3   OH222442   2.124   5.481   2.900
 7493TIP3    H122443   2.100   5.512   2.988
 7493TIP3    H222444   2.202   5.428   2.915
 7494TIP3   OH222445   4.001   5.105   3.841
 7494TIP3    H122446   3.944   5.029   3.835
 7494TIP3    H222447   3.957   5.172   3.788
 7495TIP3   OH222448   2.525   2.432   3.470
 7495TIP3    H122449   2.458   2.397   3.411
 7495TIP3    H222450   2.479   2.449   3.552
 7496TIP3   OH222451   5.016   4.516   1.936
 7496TIP3    H122452   5.043   4.441   1.883
 7496TIP3    H222453   4.921   4.513   1.936
 7497TIP3   OH222454   3.270   3.054   0.080
 7497TIP3    H122455   3.327   3.048   0.003
 7497TIP3    H222456   3.294   3.136   0.122
 7498TIP3   OH222457   6.287   1.735   1.032
 7498TIP3    H122458   6.297   1.737   1.127
 7498TIP3    H222459   6.229   1.660   1.015
 7499TIP3   OH222460   6.612   3.161   4.242
 7499TIP3    H122461   6.525   3.199   4.244
 7499TIP3    H222462   6.633   3.144   4.334
 7500TIP3   OH222463   4.342   4.658   1.749
 7500TIP3    H122464   4.415   4.614   1.704
 7500TIP3    H222465   4.276   4.670   1.682
 7501TIP3   OH222466   3.612   3.359   5.759
 7501TIP3    H122467   3.531   3.324   5.795
 7501TIP3    H222468   3.678   3.341   5.826
 7502TIP3   OH222469   7.150   2.361   3.409
 7502TIP3    H122470   7.243   2.375   3.387
 7502TIP3    H222471   7.106   2.441   3.380
 7503TIP3   OH222472   2.999   4.981   3.571
 7503TIP3    H122473   2.922   4.924   3.571
 7503TIP3    H222474   3.055   4.947   3.641
 7504TIP3   OH222475   0.206   1.513   3.580
 7504TIP3    H122476   0.171   1.440   3.630
 7504TIP3    H222477   0.164   1.505   3.494
 7505TIP3   OH222478   5.539   3.520   1.252
 7505TIP3    H122479   5.574   3.451   1.196
 7505TIP3    H222480   5.616   3.569   1.280
 7506TIP3   OH222481   6.756   1.940   4.710
 7506TIP3    H122482   6.794   1.871   4.765
 7506TIP3    H222483   6.809   1.939   4.630
 7507TIP3   OH222484   5.240   3.608   3.094
 7507TIP3    H122485   5.273   3.619   3.005
 7507TIP3    H222486   5.159   3.559   3.084
 7508TIP3   OH222487   4.801   2.458   5.295
 7508TIP3    H122488   4.881   2.410   5.273
 7508TIP3    H222489   4.733   2.420   5.240
 7509TIP3   OH222490   2.611   0.664   1.637
 7509TIP3    H122491   2.669   0.596   1.669
 7509TIP3    H222492   2.527   0.647   1.680
 7510TIP3   OH222493   6.875   6.761   5.274
 7510TIP3    H122494   6.966   6.748   5.247
 7510TIP3    H222495   6.849   6.676   5.310
 7511TIP3   OH222496   5.467   2.700   1.926
 7511TIP3    H122497   5.524   2.727   1.854
 7511TIP3    H222498   5.524   2.648   1.982
 7512TIP3   OH222499   6.787   2.422   4.639
 7512TIP3    H122500   6.872   2.382   4.658
 7512TIP3    H222501   6.723   2.359   4.671
 7513TIP3   OH222502   4.506   5.718   4.131
 7513TIP3    H122503   4.579   5.658   4.148
 7513TIP3    H222504   4.525   5.755   4.045
 7514TIP3   OH222505   5.171   4.591   2.816
 7514TIP3    H122506   5.221   4.666   2.783
 7514TIP3    H222507   5.115   4.627   2.884
 7515TIP3   OH222508   2.983   5.813   1.359
 7515TIP3    H122509   3.016   5.867   1.431
 7515TIP3    H222510   2.912   5.865   1.321
 7516TIP3   OH222511   3.936   3.652   3.634
 7516TIP3    H122512   3.872   3.709   3.591
 7516TIP3    H222513   3.892   3.624   3.715
 7517TIP3   OH222514   3.294   2.574   0.220
 7517TIP3    H122515   3.324   2.515   0.289
 7517TIP3    H222516   3.330   2.659   0.244
 7518TIP3   OH222517   3.045   1.588   5.717
 7518TIP3    H122518   2.971   1.609   5.774
 7518TIP3    H222519   3.099   1.668   5.718
 7519TIP3   OH222520   2.644   1.560   1.775
 7519TIP3    H122521   2.696   1.635   1.803
 7519TIP3    H222522   2.571   1.598   1.726
 7520TIP3   OH222523   3.814   5.536   4.619
 7520TIP3    H122524   3.821   5.470   4.687
 7520TIP3    H222525   3.869   5.503   4.548
 7521TIP3   OH222526   1.734   5.539   2.390
 7521TIP3    H122527   1.788   5.487   2.330
 7521TIP3    H222528   1.784   5.619   2.403
 7522TIP3   OH222529   1.642   1.642   5.537
 7522TIP3    H122530   1.644   1.658   5.442
 7522TIP3    H222531   1.682   1.555   5.547
 7523TIP3   OH222532   2.931   4.606   0.531
 7523TIP3    H122533   2.870   4.657   0.585
 7523TIP3    H222534   2.993   4.567   0.593
 7524TIP3   OH222535   1.330   3.097   0.192
 7524TIP3    H122536   1.399   3.147   0.235
 7524TIP3    H222537   1.312   3.145   0.111
 7525TIP3   OH222538   7.018   5.538   2.881
 7525TIP3    H122539   6.956   5.493   2.824
 7525TIP3    H222540   7.021   5.484   2.960
 7526TIP3   OH222541   0.270   2.050   0.499
 7526TIP3    H122542   0.232   1.971   0.462
 7526TIP3    H222543   0.355   2.059   0.455
 7527TIP3   OH222544   6.136   1.182   0.414
 7527TIP3    H122545   6.098   1.109   0.365
 7527TIP3    H222546   6.064   1.245   0.424
 7528TIP3   OH222547   5.203   4.045   0.940
 7528TIP3    H122548   5.239   4.037   0.852
 7528TIP3    H222549   5.112   4.071   0.926
 7529TIP3   OH222550   0.877   1.109   0.872
 7529TIP3    H122551   0.950   1.047   0.876
 7529TIP3    H222552   0.910   1.181   0.817
 7530TIP3   OH222553   1.302   2.955   2.269
 7530TIP3    H122554   1.389   2.942   2.231
 7530TIP3    H222555   1.306   3.042   2.309
 7531TIP3   OH222556   0.910   0.619   1.076
 7531TIP3    H122557   0.907   0.710   1.047
 7531TIP3    H222558   0.909   0.624   1.172
 7532TIP3   OH222559   1.236   4.981   2.797
 7532TIP3    H122560   1.316   4.938   2.767
 7532TIP3    H222561   1.180   4.909   2.828
 7533TIP3   OH222562   5.235   4.489   4.336
 7533TIP3    H122563   5.269   4.539   4.262
 7533TIP3    H222564   5.311   4.440   4.369
 7534TIP3   OH222565   0.965   2.619   0.445
 7534TIP3    H122566   0.875   2.589   0.434
 7534TIP3    H222567   0.973   2.693   0.384
 7535TIP3   OH222568   3.846   5.650   2.932
 7535TIP3    H122569   3.897   5.718   2.890
 7535TIP3    H222570   3.768   5.641   2.877
 7536TIP3   OH222571   0.531   4.719   1.213
 7536TIP3    H122572   0.520   4.723   1.308
 7536TIP3    H222573   0.446   4.691   1.180
 7537TIP3   OH222574   3.045   6.084   5.605
 7537TIP3    H122575   3.105   6.094   5.531
 7537TIP3    H222576   3.096   6.113   5.681
 7538TIP3   OH222577   1.711   0.352   4.491
 7538TIP3    H122578   1.783   0.415   4.500
 7538TIP3    H222579   1.755   0.267   4.481
 7539TIP3   OH222580   3.671   3.842   5.287
 7539TIP3    H122581   3.585   3.855   5.326
 7539TIP3    H222582   3.732   3.851   5.360
 7540TIP3   OH222583   5.564   2.339   1.867
 7540TIP3    H122584   5.518   2.377   1.792
 7540TIP3    H222585   5.496   2.330   1.935
 7541TIP3   OH222586   0.292   4.902   0.908
 7541TIP3    H122587   0.239   4.920   0.986
 7541TIP3    H222588   0.244   4.833   0.862
 7542TIP3   OH222589   1.900   3.146   3.240
 7542TIP3    H122590   1.976   3.203   3.235
 7542TIP3    H222591   1.829   3.202   3.273
 7543TIP3   OH222592   5.100   4.220   2.830
 7543TIP3    H122593   5.154   4.210   2.752
 7543TIP3    H222594   5.064   4.133   2.845
 7544TIP3   OH222595   6.486   2.441   4.182
 7544TIP3    H122596   6.422   2.424   4.251
 7544TIP3    H222597   6.510   2.354   4.150
 7545TIP3   OH222598   4.317   0.899   4.058
 7545TIP3    H122599   4.341   0.937   4.142
 7545TIP3    H222600   4.363   0.952   3.993
 7546TIP3   OH222601   2.854   0.803   3.071
 7546TIP3    H122602   2.854   0.716   3.111
 7546TIP3    H222603   2.946   0.829   3.070
 7547TIP3   OH222604   1.129   0.352   2.443
 7547TIP3    H122605   1.186   0.337   2.367
 7547TIP3    H222606   1.188   0.351   2.518
 7548TIP3   OH222607   5.617   2.360   4.306
 7548TIP3    H122608   5.658   2.275   4.319
 7548TIP3    H222609   5.565   2.374   4.385
 7549TIP3   OH222610   0.880   3.206   4.544
 7549TIP3    H122611   0.942   3.172   4.480
 7549TIP3    H222612   0.886   3.301   4.536
 7550TIP3   OH222613   1.636   6.457   5.129
 7550TIP3    H122614   1.682   6.373   5.127
 7550TIP3    H222615   1.547   6.436   5.101
 7551TIP3   OH222616   4.452   1.851   0.187
 7551TIP3    H122617   4.530   1.863   0.133
 7551TIP3    H222618   4.385   1.905   0.146
 7552TIP3   OH222619   4.931   3.555   0.343
 7552TIP3    H122620   4.888   3.572   0.260
 7552TIP3    H222621   4.869   3.503   0.393
 7553TIP3   OH222622   6.139   0.056   3.342
 7553TIP3    H122623   6.083   0.003   3.286
 7553TIP3    H222624   6.213   0.081   3.286
 7554TIP3   OH222625   4.769   3.394   5.145
 7554TIP3    H122626   4.725   3.316   5.178
 7554TIP3    H222627   4.745   3.399   5.053
 7555TIP3   OH222628   2.565   1.116   5.741
 7555TIP3    H122629   2.478   1.094   5.707
 7555TIP3    H222630   2.554   1.114   5.837
 7556TIP3   OH222631   6.213   1.423   2.985
 7556TIP3    H122632   6.165   1.445   3.065
 7556TIP3    H222633   6.213   1.504   2.934
 7557TIP3   OH222634   1.769   2.079   4.730
 7557TIP3    H122635   1.717   2.087   4.809
 7557TIP3    H222636   1.844   2.024   4.755
 7558TIP3   OH222637   6.071   4.870   4.179
 7558TIP3    H122638   6.133   4.801   4.156
 7558TIP3    H222639   6.024   4.887   4.098
 7559TIP3   OH222640   0.973   0.404   4.417
 7559TIP3    H122641   0.895   0.371   4.371
 7559TIP3    H222642   0.948   0.492   4.446
 7560TIP3   OH222643   1.373   5.741   5.832
 7560TIP3    H122644   1.460   5.720   5.799
 7560TIP3    H222645   1.313   5.702   5.767
 7561TIP3   OH222646   3.234   2.256   2.815
 7561TIP3    H122647   3.149   2.217   2.794
 7561TIP3    H222648   3.213   2.331   2.871
 7562TIP3   OH222649   6.164   0.197   5.582
 7562TIP3    H122650   6.099   0.176   5.515
 7562TIP3    H222651   6.114   0.202   5.664
 7563TIP3   OH222652   2.508   4.523   2.695
 7563TIP3    H122653   2.446   4.594   2.710
 7563TIP3    H222654   2.455   4.452   2.660
 7564TIP3   OH222655   2.848   5.434   3.063
 7564TIP3    H122656   2.866   5.493   3.136
 7564TIP3    H222657   2.891   5.352   3.086
 7565TIP3   OH222658   3.503   0.550   5.460
 7565TIP3    H122659   3.451   0.568   5.382
 7565TIP3    H222660   3.592   0.577   5.437
 7566TIP3   OH222661   0.123   3.036   4.256
 7566TIP3    H122662   0.183   3.071   4.322
 7566TIP3    H222663   0.152   2.946   4.241
 7567TIP3   OH222664   6.770   5.109   1.935
 7567TIP3    H122665   6.777   5.204   1.924
 7567TIP3    H222666   6.738   5.078   1.850
 7568TIP3   OH222667   1.107   3.373   5.468
 7568TIP3    H122668   1.184   3.428   5.481
 7568TIP3    H222669   1.128   3.318   5.393
 7569TIP3   OH222670   7.217   0.008   2.107
 7569TIP3    H122671   7.136  -0.013   2.060
 7569TIP3    H222672   7.205  -0.031   2.193
 7570TIP3   OH222673   1.504   1.262   1.271
 7570TIP3    H122674   1.410   1.249   1.264
 7570TIP3    H222675   1.532   1.197   1.336
 7571TIP3   OH222676   1.810   4.510   5.744
 7571TIP3    H122677   1.889   4.536   5.793
 7571TIP3    H222678   1.843   4.483   5.658
 7572TIP3   OH222679   4.517   5.787   4.546
 7572TIP3    H122680   4.453   5.852   4.576
 7572TIP3    H222681   4.592   5.800   4.603
 7573TIP3   OH222682   1.838   4.365   3.978
 7573TIP3    H122683   1.903   4.358   4.048
 7573TIP3    H222684   1.754   4.350   4.022
 7574TIP3   OH222685   6.182   3.859   3.691
 7574TIP3    H122686   6.176   3.902   3.606
 7574TIP3    H222687   6.254   3.796   3.681
 7575TIP3   OH222688   4.380   6.024   2.465
 7575TIP3    H122689   4.447   6.050   2.402
 7575TIP3    H222690   4.402   5.933   2.487
 7576TIP3   OH222691   2.042   0.369   3.948
 7576TIP3    H122692   1.952   0.337   3.959
 7576TIP3    H222693   2.087   0.297   3.903
 7577TIP3   OH222694   3.107   2.958   1.715
 7577TIP3    H122695   3.175   2.901   1.680
 7577TIP3    H222696   3.148   3.044   1.721
 7578TIP3   OH222697   3.993   6.157   0.171
 7578TIP3    H122698   3.920   6.164   0.108
 7578TIP3    H222699   4.055   6.099   0.128
 7579TIP3   OH222700   0.506   4.927   2.089
 7579TIP3    H122701   0.474   4.990   2.024
 7579TIP3    H222702   0.454   4.848   2.073
 7580TIP3   OH222703   2.049   2.457   2.169
 7580TIP3    H122704   2.074   2.542   2.133
 7580TIP3    H222705   2.031   2.403   2.092
 7581TIP3   OH222706   1.868   3.333   3.837
 7581TIP3    H122707   1.773   3.342   3.839
 7581TIP3    H222708   1.888   3.315   3.745
 7582TIP3   OH222709   0.763   3.772   1.165
 7582TIP3    H122710   0.739   3.679   1.168
 7582TIP3    H222711   0.845   3.774   1.117
 7583TIP3   OH222712   6.371   3.707   3.535
 7583TIP3    H122713   6.282   3.678   3.517
 7583TIP3    H222714   6.421   3.679   3.458
 7584TIP3   OH222715   4.454   4.983   2.210
 7584TIP3    H122716   4.391   4.999   2.139
 7584TIP3    H222717   4.516   5.056   2.203
 7585TIP3   OH222718   7.130   5.385   2.060
 7585TIP3    H122719   7.177   5.407   2.140
 7585TIP3    H222720   7.133   5.289   2.056
 7586TIP3   OH222721   6.013   1.303   1.685
 7586TIP3    H122722   6.055   1.387   1.703
 7586TIP3    H222723   6.047   1.277   1.599
 7587TIP3   OH222724   2.793   4.360   0.454
 7587TIP3    H122725   2.711   4.384   0.411
 7587TIP3    H222726   2.832   4.443   0.481
 7588TIP3   OH222727   0.830   4.056   5.667
 7588TIP3    H122728   0.805   4.002   5.741
 7588TIP3    H222729   0.748   4.097   5.638
 7589TIP3   OH222730   0.098   4.232   5.373
 7589TIP3    H122731   0.114   4.280   5.292
 7589TIP3    H222732   0.006   4.206   5.368
 7590TIP3   OH222733   1.878   1.372   3.926
 7590TIP3    H122734   1.930   1.441   3.966
 7590TIP3    H222735   1.907   1.292   3.969
 7591TIP3   OH222736   3.022   1.188   2.653
 7591TIP3    H122737   2.974   1.169   2.733
 7591TIP3    H222738   3.003   1.114   2.595
 7592TIP3   OH222739   3.063   4.820   5.186
 7592TIP3    H122740   3.098   4.737   5.155
 7592TIP3    H222741   2.989   4.838   5.128
 7593TIP3   OH222742   2.694   0.322   3.904
 7593TIP3    H122743   2.759   0.388   3.926
 7593TIP3    H222744   2.696   0.317   3.809
 7594TIP3   OH222745   5.648   0.288   5.949
 7594TIP3    H122746   5.613   0.273   5.861
 7594TIP3    H222747   5.689   0.375   5.944
 7595TIP3   OH222748   4.792   4.001   1.383
 7595TIP3    H122749   4.869   3.973   1.431
 7595TIP3    H222750   4.815   4.089   1.351
 7596TIP3   OH222751   0.159   6.779   4.906
 7596TIP3    H122752   0.092   6.721   4.942
 7596TIP3    H222753   0.153   6.859   4.958
 7597TIP3   OH222754   4.846   3.015   1.276
 7597TIP3    H122755   4.941   3.022   1.286
 7597TIP3    H222756   4.825   3.075   1.204
 7598TIP3   OH222757   1.357   1.507   5.257
 7598TIP3    H122758   1.266   1.486   5.277
 7598TIP3    H222759   1.399   1.422   5.244
 7599TIP3   OH222760   1.466   2.732   1.404
 7599TIP3    H122761   1.428   2.698   1.485
 7599TIP3    H222762   1.438   2.669   1.337
 7600TIP3   OH222763   5.264   2.366   4.153
 7600TIP3    H122764   5.199   2.398   4.089
 7600TIP3    H222765   5.347   2.399   4.119
 7601TIP3   OH222766   5.673   5.911   1.185
 7601TIP3    H122767   5.617   5.839   1.216
 7601TIP3    H222768   5.677   5.972   1.258
 7602TIP3   OH222769   7.198   5.613   5.014
 7602TIP3    H122770   7.266   5.641   5.075
 7602TIP3    H222771   7.197   5.680   4.946
 7603TIP3   OH222772   4.901   2.013   5.435
 7603TIP3    H122773   4.930   2.061   5.514
 7603TIP3    H222774   4.915   2.075   5.364
 7604TIP3   OH222775   0.159   0.957   0.967
 7604TIP3    H122776   0.084   0.900   0.952
 7604TIP3    H222777   0.139   1.037   0.918
 7605TIP3   OH222778   3.262   2.909   5.136
 7605TIP3    H122779   3.299   2.996   5.123
 7605TIP3    H222780   3.224   2.886   5.052
 7606TIP3   OH222781   2.408   5.290   0.910
 7606TIP3    H122782   2.432   5.240   0.988
 7606TIP3    H222783   2.364   5.227   0.853
 7607TIP3   OH222784   6.547   5.873   2.418
 7607TIP3    H122785   6.525   5.954   2.372
 7607TIP3    H222786   6.550   5.807   2.349
 7608TIP3   OH222787   4.944   5.103   3.953
 7608TIP3    H122788   4.943   5.198   3.940
 7608TIP3    H222789   4.979   5.068   3.872
 7609TIP3   OH222790   6.896   5.846   2.180
 7609TIP3    H122791   6.855   5.932   2.180
 7609TIP3    H222792   6.990   5.864   2.172
 7610TIP3   OH222793   6.379   2.716   3.043
 7610TIP3    H122794   6.444   2.706   3.112
 7610TIP3    H222795   6.295   2.716   3.089
 7611TIP3   OH222796   0.821   1.098   3.053
 7611TIP3    H122797   0.802   1.128   3.142
 7611TIP3    H222798   0.792   1.007   3.051
 7612TIP3   OH222799   5.384   4.449   3.496
 7612TIP3    H122800   5.428   4.523   3.537
 7612TIP3    H222801   5.306   4.434   3.550
 7613TIP3   OH222802   4.053   0.974   1.619
 7613TIP3    H122803   4.125   0.910   1.619
 7613TIP3    H222804   3.982   0.930   1.572
 7614TIP3   OH222805   3.352   6.566   0.923
 7614TIP3    H122806   3.308   6.544   0.840
 7614TIP3    H222807   3.427   6.620   0.896
 7615TIP3   OH222808   6.034   0.732   4.174
 7615TIP3    H122809   6.099   0.758   4.240
 7615TIP3    H222810   6.052   0.789   4.099
 7616TIP3   OH222811   3.516   0.375   2.914
 7616TIP3    H122812   3.485   0.285   2.923
 7616TIP3    H222813   3.608   0.371   2.942
 7617TIP3   OH222814   4.887   3.328   3.874
 7617TIP3    H122815   4.967   3.312   3.824
 7617TIP3    H222816   4.858   3.414   3.846
 7618TIP3   OH222817   0.867   6.160   5.855
 7618TIP3    H122818   0.944   6.217   5.856
 7618TIP3    H222819   0.817   6.187   5.932
 7619TIP3   OH222820   0.040   2.056   5.088
 7619TIP3    H122821   0.093   2.016   5.020
 7619TIP3    H222822  -0.002   1.983   5.133
 7620TIP3   OH222823   2.406   6.150   4.722
 7620TIP3    H122824   2.357   6.123   4.645
 7620TIP3    H222825   2.340   6.156   4.791
 7621TIP3   OH222826   5.271   3.870   0.730
 7621TIP3    H122827   5.215   3.793   0.739
 7621TIP3    H222828   5.277   3.885   0.636
 7622TIP3   OH222829   3.564   3.977   1.894
 7622TIP3    H122830   3.635   4.016   1.945
 7622TIP3    H222831   3.588   3.885   1.887
 7623TIP3   OH222832   1.239   2.423   2.939
 7623TIP3    H122833   1.267   2.405   2.850
 7623TIP3    H222834   1.318   2.450   2.985
 7624TIP3   OH222835   3.883   2.085   2.025
 7624TIP3    H122836   3.908   2.006   2.074
 7624TIP3    H222837   3.854   2.147   2.092
 7625TIP3   OH222838   2.587   3.688   5.387
 7625TIP3    H122839   2.603   3.678   5.293
 7625TIP3    H222840   2.585   3.599   5.421
 7626TIP3   OH222841   5.658   4.069   3.729
 7626TIP3    H122842   5.650   4.165   3.731
 7626TIP3    H222843   5.568   4.038   3.736
 7627TIP3   OH222844   0.859   3.040  -0.019
 7627TIP3    H122845   0.797   2.973  -0.048
 7627TIP3    H222846   0.843   3.049   0.075
 7628TIP3   OH222847   3.085   0.966   3.121
 7628TIP3    H122848   3.117   1.051   3.090
 7628TIP3    H222849   3.146   0.942   3.191
 7629TIP3   OH222850   2.988   3.126   5.119
 7629TIP3    H122851   3.036   3.206   5.139
 7629TIP3    H222852   2.939   3.106   5.199
 7630TIP3   OH222853   4.467   3.678   4.180
 7630TIP3    H122854   4.529   3.674   4.108
 7630TIP3    H222855   4.497   3.612   4.242
 7631TIP3   OH222856   5.828   0.785   2.393
 7631TIP3    H122857   5.736   0.766   2.407
 7631TIP3    H222858   5.829   0.865   2.339
 7632TIP3   OH222859   4.874   0.310   1.295
 7632TIP3    H122860   4.946   0.246   1.298
 7632TIP3    H222861   4.918   0.395   1.295
 7633TIP3   OH222862   4.244   5.959   1.175
 7633TIP3    H122863   4.203   6.041   1.149
 7633TIP3    H222864   4.171   5.901   1.196
 7634TIP3   OH222865   3.628   4.053   1.093
 7634TIP3    H122866   3.586   3.974   1.059
 7634TIP3    H222867   3.612   4.120   1.026
 7635TIP3   OH222868   0.166   1.705   5.808
 7635TIP3    H122869   0.162   1.669   5.719
 7635TIP3    H222870   0.252   1.748   5.812
 7636TIP3   OH222871   6.348   0.848   0.811
 7636TIP3    H122872   6.312   0.895   0.736
 7636TIP3    H222873   6.280   0.852   0.878
 7637TIP3   OH222874   7.206   4.960   5.271
 7637TIP3    H122875   7.221   5.054   5.285
 7637TIP3    H222876   7.117   4.954   5.237
 7638TIP3   OH222877   3.585   4.295   2.441
 7638TIP3    H122878   3.510   4.241   2.415
 7638TIP3    H222879   3.657   4.232   2.452
 7639TIP3   OH222880   2.436   1.519   2.443
 7639TIP3    H122881   2.470   1.591   2.391
 7639TIP3    H222882   2.388   1.464   2.381
 7640TIP3   OH222883   1.736   6.539   3.848
 7640TIP3    H122884   1.792   6.463   3.864
 7640TIP3    H222885   1.795   6.605   3.811
 7641TIP3   OH222886   3.382   5.041   1.985
 7641TIP3    H122887   3.302   5.037   2.037
 7641TIP3    H222888   3.381   4.960   1.934
 7642TIP3   OH222889   4.961   1.708   0.057
 7642TIP3    H122890   4.946   1.710   0.151
 7642TIP3    H222891   4.915   1.629   0.027
 7643TIP3   OH222892   0.416   5.937   0.939
 7643TIP3    H122893   0.493   5.960   0.889
 7643TIP3    H222894   0.396   6.015   0.992
 7644TIP3   OH222895   0.312   0.194   5.419
 7644TIP3    H122896   0.244   0.255   5.393
 7644TIP3    H222897   0.307   0.190   5.514
 7645TIP3   OH222898   0.506   5.547   3.557
 7645TIP3    H122899   0.542   5.586   3.478
 7645TIP3    H222900   0.578   5.494   3.593
 7646TIP3   OH222901   6.627   5.853   4.331
 7646TIP3    H122902   6.635   5.920   4.262
 7646TIP3    H222903   6.697   5.874   4.392
 7647TIP3   OH222904   2.591   3.853   4.773
 7647TIP3    H122905   2.659   3.893   4.828
 7647TIP3    H222906   2.510   3.893   4.805
 7648TIP3   OH222907   0.438   1.143   4.357
 7648TIP3    H122908   0.384   1.135   4.279
 7648TIP3    H222909   0.439   1.236   4.377
 7649TIP3   OH222910   5.638   6.436   3.874
 7649TIP3    H122911   5.553   6.424   3.917
 7649TIP3    H222912   5.634   6.526   3.839
 7650TIP3   OH222913   5.124   4.654   0.305
 7650TIP3    H122914   5.036   4.628   0.335
 7650TIP3    H222915   5.183   4.608   0.365
 7651TIP3   OH222916   4.025   4.612   4.628
 7651TIP3    H122917   4.041   4.706   4.616
 7651TIP3    H222918   4.112   4.575   4.644
 7652TIP3   OH222919   2.700   2.592   2.679
 7652TIP3    H122920   2.791   2.591   2.649
 7652TIP3    H222921   2.670   2.502   2.669
 7653TIP3   OH222922   5.856   2.643   4.049
 7653TIP3    H122923   5.863   2.736   4.070
 7653TIP3    H222924   5.801   2.641   3.970
 7654TIP3   OH222925   5.824   1.097   3.327
 7654TIP3    H122926   5.796   1.052   3.407
 7654TIP3    H222927   5.831   1.189   3.353
 7655TIP3   OH222928   4.707   5.701   0.687
 7655TIP3    H122929   4.693   5.698   0.781
 7655TIP3    H222930   4.651   5.773   0.657
 7656TIP3   OH222931   0.902   4.913   4.819
 7656TIP3    H122932   0.905   4.872   4.733
 7656TIP3    H222933   0.813   4.946   4.827
 7657TIP3   OH222934   3.012   1.325   1.684
 7657TIP3    H122935   2.984   1.416   1.670
 7657TIP3    H222936   3.106   1.331   1.700
 7658TIP3   OH222937   1.396   0.804   0.062
 7658TIP3    H122938   1.309   0.793   0.023
 7658TIP3    H222939   1.423   0.893   0.038
 7659TIP3   OH222940   4.570   0.471   2.803
 7659TIP3    H122941   4.576   0.380   2.776
 7659TIP3    H222942   4.597   0.471   2.895
 7660TIP3   OH222943   4.350   4.278  -0.007
 7660TIP3    H122944   4.401   4.353  -0.038
 7660TIP3    H222945   4.375   4.206  -0.065
 7661TIP3   OH222946   7.181   1.379   0.977
 7661TIP3    H122947   7.226   1.408   1.056
 7661TIP3    H222948   7.241   1.317   0.936
 7662TIP3   OH222949   0.444   2.335   2.458
 7662TIP3    H122950   0.471   2.400   2.523
 7662TIP3    H222951   0.378   2.282   2.503
 7663TIP3   OH222952   3.413   0.153   1.546
 7663TIP3    H122953   3.324   0.160   1.581
 7663TIP3    H222954   3.404   0.097   1.469
 7664TIP3   OH222955   2.455   3.809   3.915
 7664TIP3    H122956   2.449   3.801   3.820
 7664TIP3    H222957   2.448   3.719   3.947
 7665TIP3   OH222958   3.227   2.299   1.327
 7665TIP3    H122959   3.220   2.298   1.231
 7665TIP3    H222960   3.317   2.274   1.345
 7666TIP3   OH222961   5.280   0.111   4.589
 7666TIP3    H122962   5.298   0.047   4.520
 7666TIP3    H222963   5.260   0.058   4.667
 7667TIP3   OH222964   4.727   2.725   1.488
 7667TIP3    H122965   4.719   2.644   1.438
 7667TIP3    H222966   4.803   2.769   1.449
 7668TIP3   OH222967   4.428   0.380   1.729
 7668TIP3    H122968   4.400   0.332   1.650
 7668TIP3    H222969   4.514   0.345   1.749
 7669TIP3   OH222970   1.062   0.775   5.558
 7669TIP3    H122971   1.151   0.807   5.545
 7669TIP3    H222972   1.036   0.742   5.472
 7670TIP3   OH222973   2.382   3.263   4.233
 7670TIP3    H122974   2.300   3.244   4.187
 7670TIP3    H222975   2.423   3.332   4.181
 7671TIP3   OH222976   4.233   4.918   5.495
 7671TIP3    H122977   4.289   4.902   5.418
 7671TIP3    H222978   4.154   4.867   5.477
 7672TIP3   OH222979   0.654   3.947   0.755
 7672TIP3    H122980   0.619   3.897   0.681
 7672TIP3    H222981   0.579   3.956   0.815
 7673TIP3   OH222982   3.184   3.252   2.159
 7673TIP3    H122983   3.112   3.259   2.096
 7673TIP3    H222984   3.262   3.278   2.110
 7674TIP3   OH222985   1.219   5.775   3.888
 7674TIP3    H122986   1.189   5.696   3.842
 7674TIP3    H222987   1.139   5.824   3.906
 7675TIP3   OH222988   7.098   3.335   2.562
 7675TIP3    H122989   7.083   3.242   2.578
 7675TIP3    H222990   7.015   3.367   2.525
 7676TIP3   OH222991   5.894   5.676   1.326
 7676TIP3    H122992   5.808   5.646   1.355
 7676TIP3    H222993   5.876   5.729   1.249
 7677TIP3   OH222994   3.706   0.742   5.326
 7677TIP3    H122995   3.727   0.786   5.408
 7677TIP3    H222996   3.791   0.731   5.283
 7678TIP3   OH222997   4.161   4.172   2.916
 7678TIP3    H122998   4.152   4.132   2.829
 7678TIP3    H222999   4.178   4.265   2.898
 7679TIP3   OH223000   5.479   1.825   0.747
 7679TIP3    H123001   5.517   1.764   0.684
 7679TIP3    H223002   5.527   1.809   0.828
 7680TIP3   OH223003   6.528  -0.004   2.545
 7680TIP3    H123004   6.558  -0.084   2.501
 7680TIP3    H223005   6.465   0.034   2.484
 7681TIP3   OH223006   1.787   2.767   2.217
 7681TIP3    H123007   1.861   2.788   2.160
 7681TIP3    H223008   1.793   2.672   2.230
 7682TIP3   OH223009   4.122   1.106   5.204
 7682TIP3    H123010   4.208   1.064   5.209
 7682TIP3    H223011   4.139   1.197   5.225
 7683TIP3   OH223012   4.809   0.138   1.857
 7683TIP3    H123013   4.845   0.207   1.801
 7683TIP3    H223014   4.717   0.131   1.830
 7684TIP3   OH223015   2.732   1.263   3.214
 7684TIP3    H123016   2.711   1.188   3.158
 7684TIP3    H223017   2.688   1.244   3.297
 7685TIP3   OH223018   4.247   5.834   3.759
 7685TIP3    H123019   4.282   5.914   3.798
 7685TIP3    H223020   4.152   5.840   3.774
 7686TIP3   OH223021   4.516   0.452   4.810
 7686TIP3    H123022   4.482   0.399   4.738
 7686TIP3    H223023   4.584   0.506   4.769
 7687TIP3   OH223024   5.792   5.019   0.274
 7687TIP3    H123025   5.760   4.947   0.219
 7687TIP3    H223026   5.868   4.982   0.319
 7688TIP3   OH223027   1.844   6.076   0.337
 7688TIP3    H123028   1.781   6.119   0.395
 7688TIP3    H223029   1.834   6.121   0.254
 7689TIP3   OH223030   0.710   1.353   1.460
 7689TIP3    H123031   0.629   1.404   1.461
 7689TIP3    H223032   0.767   1.400   1.399
 7690TIP3   OH223033   1.234   6.428   1.846
 7690TIP3    H123034   1.202   6.364   1.911
 7690TIP3    H223035   1.165   6.431   1.780
 7691TIP3   OH223036   3.254   3.140   2.617
 7691TIP3    H123037   3.299   3.224   2.620
 7691TIP3    H223038   3.189   3.150   2.547
 7692TIP3   OH223039   4.759   4.299   1.247
 7692TIP3    H123040   4.678   4.263   1.209
 7692TIP3    H223041   4.742   4.393   1.254
 7693TIP3   OH223042   0.824   1.883   1.314
 7693TIP3    H123043   0.741   1.852   1.280
 7693TIP3    H223044   0.884   1.808   1.306
 7694TIP3   OH223045   6.506   3.998   2.618
 7694TIP3    H123046   6.454   3.924   2.651
 7694TIP3    H223047   6.460   4.026   2.539
 7695TIP3   OH223048   4.183   1.622   1.637
 7695TIP3    H123049   4.127   1.545   1.626
 7695TIP3    H223050   4.270   1.592   1.611
 7696TIP3   OH223051   5.823   0.024   3.043
 7696TIP3    H123052   5.756   0.071   2.994
 7696TIP3    H223053   5.896   0.086   3.051
 7697TIP3   OH223054   5.896   2.139   0.506
 7697TIP3    H123055   5.971   2.123   0.563
 7697TIP3    H223056   5.929   2.198   0.438
 7698TIP3   OH223057   3.335   4.202   0.995
 7698TIP3    H123058   3.303   4.128   0.944
 7698TIP3    H223059   3.303   4.279   0.948
 7699TIP3   OH223060   4.484   3.074   3.733
 7699TIP3    H123061   4.437   3.147   3.773
 7699TIP3    H223062   4.570   3.073   3.776
 7700TIP3   OH223063   6.706   6.043   4.152
 7700TIP3    H123064   6.773   6.105   4.179
 7700TIP3    H223065   6.750   5.985   4.090
 7701TIP3   OH223066   4.111   3.778   3.238
 7701TIP3    H123067   4.168   3.783   3.315
 7701TIP3    H223068   4.154   3.833   3.173
 7702TIP3   OH223069   2.506   1.799   2.312
 7702TIP3    H123070   2.411   1.807   2.307
 7702TIP3    H223071   2.529   1.840   2.396
 7703TIP3   OH223072   4.610   3.338   1.602
 7703TIP3    H123073   4.695   3.316   1.563
 7703TIP3    H223074   4.608   3.291   1.685
 7704TIP3   OH223075   0.602   5.259   4.061
 7704TIP3    H123076   0.614   5.206   4.140
 7704TIP3    H223077   0.629   5.203   3.989
 7705TIP3   OH223078   2.393   5.142   1.763
 7705TIP3    H123079   2.380   5.191   1.682
 7705TIP3    H223080   2.435   5.204   1.823
 7706TIP3   OH223081   5.318   4.417   0.238
 7706TIP3    H123082   5.304   4.425   0.332
 7706TIP3    H223083   5.331   4.323   0.224
 7707TIP3   OH223084   5.952   2.876   1.355
 7707TIP3    H123085   5.955   2.804   1.417
 7707TIP3    H223086   5.936   2.835   1.270
 7708TIP3   OH223087   3.905   2.987   3.855
 7708TIP3    H123088   3.933   3.007   3.944
 7708TIP3    H223089   3.878   3.072   3.819
 7709TIP3   OH223090   4.530   0.845   3.143
 7709TIP3    H123091   4.567   0.817   3.226
 7709TIP3    H223092   4.606   0.861   3.086
 7710TIP3   OH223093   3.925   6.191   4.081
 7710TIP3    H123094   3.924   6.095   4.089
 7710TIP3    H223095   4.013   6.211   4.049
 7711TIP3   OH223096   5.745   2.458   1.359
 7711TIP3    H123097   5.822   2.403   1.347
 7711TIP3    H223098   5.678   2.398   1.393
 7712TIP3   OH223099   4.960   0.883   3.323
 7712TIP3    H123100   4.889   0.845   3.374
 7712TIP3    H223101   5.029   0.817   3.324
 7713TIP3   OH223102   5.644   3.451   4.672
 7713TIP3    H123103   5.732   3.473   4.703
 7713TIP3    H223104   5.622   3.522   4.611
 7714TIP3   OH223105   4.334   0.149   5.084
 7714TIP3    H123106   4.382   0.228   5.109
 7714TIP3    H223107   4.366   0.128   4.997
 7715TIP3   OH223108   1.210   2.073   5.850
 7715TIP3    H123109   1.301   2.100   5.839
 7715TIP3    H223110   1.177   2.128   5.921
 7716TIP3   OH223111   2.937   2.564   3.172
 7716TIP3    H123112   2.929   2.589   3.264
 7716TIP3    H223113   2.906   2.642   3.125
 7717TIP3   OH223114   5.904   5.096   1.145
 7717TIP3    H123115   5.837   5.150   1.188
 7717TIP3    H223116   5.854   5.036   1.090
 7718TIP3   OH223117   3.927   1.965   2.319
 7718TIP3    H123118   3.933   1.892   2.256
 7718TIP3    H223119   3.882   1.928   2.394
 7719TIP3   OH223120   2.359   2.879   1.232
 7719TIP3    H123121   2.309   2.864   1.152
 7719TIP3    H223122   2.364   2.974   1.240
 7720TIP3   OH223123   5.106   5.877   0.447
 7720TIP3    H123124   5.041   5.811   0.474
 7720TIP3    H223125   5.079   5.901   0.358
 7721TIP3   OH223126   4.041   2.646   4.570
 7721TIP3    H123127   4.021   2.726   4.522
 7721TIP3    H223128   3.984   2.580   4.532
 7722TIP3   OH223129   3.687   1.847   1.968
 7722TIP3    H123130   3.666   1.936   1.996
 7722TIP3    H223131   3.700   1.799   2.050
 7723TIP3   OH223132   1.044   2.535   1.414
 7723TIP3    H123133   1.122   2.562   1.366
 7723TIP3    H223134   0.972   2.552   1.352
 7724TIP3   OH223135   0.532   5.580   4.539
 7724TIP3    H123136   0.523   5.532   4.621
 7724TIP3    H223137   0.590   5.525   4.486
 7725TIP3   OH223138   4.455   0.233   3.304
 7725TIP3    H123139   4.477   0.305   3.245
 7725TIP3    H223140   4.404   0.172   3.250
 7726TIP3   OH223141   2.180   5.303   0.335
 7726TIP3    H123142   2.126   5.242   0.285
 7726TIP3    H223143   2.136   5.310   0.420
 7727TIP3   OH223144   5.806   0.289   3.590
 7727TIP3    H123145   5.780   0.327   3.507
 7727TIP3    H223146   5.814   0.363   3.650
 7728TIP3   OH223147   2.035   0.133   5.607
 7728TIP3    H123148   2.028   0.177   5.692
 7728TIP3    H223149   1.955   0.081   5.601
 7729TIP3   OH223150   2.432   5.611   4.233
 7729TIP3    H123151   2.423   5.659   4.316
 7729TIP3    H223152   2.514   5.563   4.242
 7730TIP3   OH223153   0.436   5.021   0.595
 7730TIP3    H123154   0.377   5.096   0.606
 7730TIP3    H223155   0.450   5.015   0.501
 7731TIP3   OH223156   5.488   4.629   0.593
 7731TIP3    H123157   5.582   4.635   0.606
 7731TIP3    H223158   5.450   4.668   0.672
 7732TIP3   OH223159   0.722   3.446   5.134
 7732TIP3    H123160   0.704   3.485   5.048
 7732TIP3    H223161   0.795   3.387   5.118
 7733TIP3   OH223162   5.486   4.187   2.696
 7733TIP3    H123163   5.400   4.167   2.659
 7733TIP3    H223164   5.478   4.276   2.730
 7734TIP3   OH223165   5.192   0.423   0.464
 7734TIP3    H123166   5.221   0.342   0.423
 7734TIP3    H223167   5.104   0.438   0.428
 7735TIP3   OH223168   3.927   3.182   1.355
 7735TIP3    H123169   4.018   3.154   1.345
 7735TIP3    H223170   3.928   3.244   1.428
 7736TIP3   OH223171   3.109   2.170   0.544
 7736TIP3    H123172   3.018   2.161   0.571
 7736TIP3    H223173   3.143   2.080   0.543
 7737TIP3   OH223174   3.272   2.676   5.668
 7737TIP3    H123175   3.324   2.631   5.602
 7737TIP3    H223176   3.285   2.624   5.748
 7738TIP3   OH223177   4.979   3.698   1.345
 7738TIP3    H123178   4.941   3.697   1.433
 7738TIP3    H223179   5.032   3.778   1.343
 7739TIP3   OH223180   6.092   6.762   3.222
 7739TIP3    H123181   6.079   6.684   3.277
 7739TIP3    H223182   6.113   6.727   3.136
 7740TIP3   OH223183   5.555   5.516   3.859
 7740TIP3    H123184   5.549   5.608   3.883
 7740TIP3    H223185   5.465   5.484   3.865
 7741TIP3   OH223186   1.815   1.994   4.205
 7741TIP3    H123187   1.880   1.926   4.187
 7741TIP3    H223188   1.765   1.960   4.280
 7742TIP3   OH223189   5.788   2.599   1.868
 7742TIP3    H123190   5.872   2.584   1.824
 7742TIP3    H223191   5.725   2.549   1.817
 7743TIP3   OH223192   4.103   1.825   2.092
 7743TIP3    H123193   4.153   1.748   2.119
 7743TIP3    H223194   4.081   1.810   2.000
 7744TIP3   OH223195   6.947   3.519   3.369
 7744TIP3    H123196   7.021   3.562   3.326
 7744TIP3    H223197   6.973   3.511   3.460
 7745TIP3   OH223198   3.711   4.538   5.140
 7745TIP3    H123199   3.639   4.578   5.090
 7745TIP3    H223200   3.672   4.518   5.225
 7746TIP3   OH223201   3.861   0.736   4.756
 7746TIP3    H123202   3.957   0.731   4.759
 7746TIP3    H223203   3.838   0.786   4.834
 7747TIP3   OH223204   1.751   4.908   2.914
 7747TIP3    H123205   1.738   4.926   3.007
 7747TIP3    H223206   1.843   4.930   2.898
 7748TIP3   OH223207   4.958   1.355   0.843
 7748TIP3    H123208   5.031   1.394   0.891
 7748TIP3    H223209   4.953   1.406   0.762
 7749TIP3   OH223210   3.295   6.719   3.510
 7749TIP3    H123211   3.211   6.764   3.495
 7749TIP3    H223212   3.320   6.744   3.599
 7750TIP3   OH223213   2.988   5.330   2.263
 7750TIP3    H123214   3.051   5.402   2.271
 7750TIP3    H223215   2.988   5.308   2.170
 7751TIP3   OH223216   2.284   1.346   2.603
 7751TIP3    H123217   2.340   1.409   2.558
 7751TIP3    H223218   2.325   1.261   2.586
 7752TIP3   OH223219   6.980   2.580   4.506
 7752TIP3    H123220   6.913   2.519   4.535
 7752TIP3    H223221   7.051   2.524   4.473
 7753TIP3   OH223222   1.136   5.339   3.877
 7753TIP3    H123223   1.175   5.421   3.847
 7753TIP3    H223224   1.202   5.300   3.934
 7754TIP3   OH223225   4.392   1.848   0.446
 7754TIP3    H123226   4.396   1.847   0.350
 7754TIP3    H223227   4.472   1.805   0.474
 7755TIP3   OH223228   6.110   0.624   2.938
 7755TIP3    H123229   6.057   0.652   2.863
 7755TIP3    H223230   6.061   0.551   2.976
 7756TIP3   OH223231   2.099   6.535   2.900
 7756TIP3    H123232   2.178   6.510   2.852
 7756TIP3    H223233   2.030   6.536   2.834
 7757TIP3   OH223234   2.216   1.401   3.359
 7757TIP3    H123235   2.206   1.311   3.390
 7757TIP3    H223236   2.304   1.404   3.322
 7758TIP3   OH223237   4.591   5.531   3.623
 7758TIP3    H123238   4.648   5.481   3.681
 7758TIP3    H223239   4.639   5.537   3.540
 7759TIP3   OH223240   6.302   1.184   3.283
 7759TIP3    H123241   6.227   1.146   3.238
 7759TIP3    H223242   6.264   1.237   3.353
 7760TIP3   OH223243   0.901   4.326   5.290
 7760TIP3    H123244   0.839   4.257   5.315
 7760TIP3    H223245   0.985   4.296   5.324
 7761TIP3   OH223246   1.312   5.984   4.656
 7761TIP3    H123247   1.241   5.978   4.592
 7761TIP3    H223248   1.269   6.013   4.737
 7762TIP3   OH223249   5.546   2.290   1.468
 7762TIP3    H123250   5.488   2.347   1.519
 7762TIP3    H223251   5.548   2.208   1.516
 7763TIP3   OH223252   5.446   4.858   4.118
 7763TIP3    H123253   5.457   4.912   4.196
 7763TIP3    H223254   5.387   4.908   4.062
 7764TIP3   OH223255   3.281   3.678   4.259
 7764TIP3    H123256   3.298   3.666   4.165
 7764TIP3    H223257   3.262   3.590   4.291
 7765TIP3   OH223258   2.540   3.517   1.306
 7765TIP3    H123259   2.614   3.529   1.366
 7765TIP3    H223260   2.569   3.449   1.245
 7766TIP3   OH223261   5.893   2.658   0.416
 7766TIP3    H123262   5.826   2.610   0.465
 7766TIP3    H223263   5.976   2.632   0.458
 7767TIP3   OH223264   7.045   5.609   3.274
 7767TIP3    H123265   7.022   5.527   3.231
 7767TIP3    H223266   6.966   5.633   3.322
 7768TIP3   OH223267   2.151   0.560   5.480
 7768TIP3    H123268   2.145   0.479   5.429
 7768TIP3    H223269   2.174   0.627   5.416
 7769TIP3   OH223270   5.831   5.179   3.789
 7769TIP3    H123271   5.736   5.173   3.784
 7769TIP3    H223272   5.849   5.273   3.788
 7770TIP3   OH223273   0.505   4.786   5.561
 7770TIP3    H123274   0.442   4.787   5.489
 7770TIP3    H223275   0.541   4.875   5.563
 7771TIP3   OH223276   3.146   4.251   1.894
 7771TIP3    H123277   3.195   4.195   1.834
 7771TIP3    H223278   3.118   4.192   1.964
 7772TIP3   OH223279   1.137   2.026   0.678
 7772TIP3    H123280   1.184   2.065   0.604
 7772TIP3    H223281   1.109   2.100   0.731
 7773TIP3   OH223282   7.064   0.378   4.180
 7773TIP3    H123283   7.097   0.298   4.219
 7773TIP3    H223284   7.143   0.424   4.150
 7774TIP3   OH223285   3.361   3.081   1.486
 7774TIP3    H123286   3.349   3.008   1.426
 7774TIP3    H223287   3.411   3.146   1.435
 7775TIP3   OH223288   1.801   0.568   3.676
 7775TIP3    H123289   1.805   0.531   3.764
 7775TIP3    H223290   1.708   0.580   3.659
 7776TIP3   OH223291   2.150   4.439   3.540
 7776TIP3    H123292   2.209   4.513   3.554
 7776TIP3    H223293   2.096   4.436   3.619
 7777TIP3   OH223294   3.597   0.288   5.546
 7777TIP3    H123295   3.556   0.366   5.508
 7777TIP3    H223296   3.615   0.312   5.636
 7778TIP3   OH223297   0.605   1.608   1.841
 7778TIP3    H123298   0.593   1.696   1.876
 7778TIP3    H223299   0.538   1.600   1.773
 7779TIP3   OH223300   5.165   0.277   0.712
 7779TIP3    H123301   5.154   0.328   0.792
 7779TIP3    H223302   5.160   0.341   0.641
 7780TIP3   OH223303   4.411   4.770   4.533
 7780TIP3    H123304   4.385   4.686   4.495
 7780TIP3    H223305   4.421   4.752   4.627
 7781TIP3   OH223306   6.263   6.110   0.597
 7781TIP3    H123307   6.222   6.147   0.519
 7781TIP3    H223308   6.214   6.030   0.615
 7782TIP3   OH223309   4.816   5.625   3.124
 7782TIP3    H123310   4.784   5.571   3.052
 7782TIP3    H223311   4.786   5.713   3.102
 7783TIP3   OH223312   2.610   3.832   1.975
 7783TIP3    H123313   2.663   3.848   2.053
 7783TIP3    H223314   2.539   3.895   1.981
 7784TIP3   OH223315   0.198   3.669   4.065
 7784TIP3    H123316   0.186   3.761   4.087
 7784TIP3    H223317   0.289   3.650   4.086
 7785TIP3   OH223318   2.101   3.614   1.139
 7785TIP3    H123319   2.114   3.618   1.044
 7785TIP3    H223320   2.186   3.640   1.176
 7786TIP3   OH223321   4.148   2.566   2.933
 7786TIP3    H123322   4.224   2.535   2.884
 7786TIP3    H223323   4.104   2.626   2.873
 7787TIP3   OH223324   0.479   3.737   2.941
 7787TIP3    H123325   0.460   3.806   3.005
 7787TIP3    H223326   0.417   3.753   2.870
 7788TIP3   OH223327   5.720   2.749   2.298
 7788TIP3    H123328   5.777   2.692   2.247
 7788TIP3    H223329   5.703   2.824   2.241
 7789TIP3   OH223330   4.146   5.510   1.831
 7789TIP3    H123331   4.126   5.468   1.748
 7789TIP3    H223332   4.128   5.603   1.816
 7790TIP3   OH223333   4.811   3.981   1.030
 7790TIP3    H123334   4.805   3.898   1.077
 7790TIP3    H223335   4.720   4.000   1.004
 7791TIP3   OH223336   3.637   3.669   1.375
 7791TIP3    H123337   3.719   3.717   1.387
 7791TIP3    H223338   3.634   3.650   1.281
 7792TIP3   OH223339   3.779   3.344   1.194
 7792TIP3    H123340   3.829   3.275   1.239
 7792TIP3    H223341   3.786   3.420   1.251
 7793TIP3   OH223342   3.792   4.746   5.900
 7793TIP3    H123343   3.776   4.827   5.949
 7793TIP3    H223344   3.887   4.739   5.896
 7794TIP3   OH223345   6.352   5.729   1.040
 7794TIP3    H123346   6.395   5.720   0.955
 7794TIP3    H223347   6.315   5.642   1.058
 7795TIP3   OH223348   7.208   6.471   5.713
 7795TIP3    H123349   7.140   6.537   5.701
 7795TIP3    H223350   7.177   6.417   5.785
 7796TIP3   OH223351   4.628   6.074   2.334
 7796TIP3    H123352   4.617   6.011   2.263
 7796TIP3    H223353   4.684   6.030   2.397
 7797TIP3   OH223354   3.830   1.304   4.615
 7797TIP3    H123355   3.801   1.227   4.565
 7797TIP3    H223356   3.925   1.295   4.619
 7798TIP3   OH223357   2.080   5.651   3.124
 7798TIP3    H123358   1.998   5.688   3.157
 7798TIP3    H223359   2.134   5.727   3.103
 7799TIP3   OH223360   6.920   1.347   5.539
 7799TIP3    H123361   6.909   1.304   5.454
 7799TIP3    H223362   6.832   1.370   5.567
 7800TIP3   OH223363   0.170   1.962   0.138
 7800TIP3    H123364   0.188   1.873   0.168
 7800TIP3    H223365   0.142   2.009   0.216
 7801TIP3   OH223366   3.168   2.287   5.815
 7801TIP3    H123367   3.226   2.347   5.862
 7801TIP3    H223368   3.110   2.345   5.765
 7802TIP3   OH223369   3.522   6.080   2.742
 7802TIP3    H123370   3.507   6.118   2.829
 7802TIP3    H223371   3.595   6.019   2.755
 7803TIP3   OH223372   7.025   1.788   5.592
 7803TIP3    H123373   7.101   1.802   5.536
 7803TIP3    H223374   6.957   1.756   5.533
 7804TIP3   OH223375   4.745   0.335   3.392
 7804TIP3    H123376   4.740   0.314   3.485
 7804TIP3    H223377   4.654   0.350   3.366
 7805TIP3   OH223378   2.023   2.111   2.528
 7805TIP3    H123379   2.089   2.077   2.588
 7805TIP3    H223380   2.015   2.204   2.552
 7806TIP3   OH223381   4.685   2.824   2.836
 7806TIP3    H123382   4.768   2.844   2.793
 7806TIP3    H223383   4.689   2.871   2.919
 7807TIP3   OH223384   5.145   6.821   3.321
 7807TIP3    H123385   5.215   6.779   3.372
 7807TIP3    H223386   5.081   6.848   3.386
 7808TIP3   OH223387   2.550   1.822   4.517
 7808TIP3    H123388   2.550   1.729   4.494
 7808TIP3    H223389   2.623   1.859   4.468
 7809TIP3   OH223390   3.698   3.264   4.556
 7809TIP3    H123391   3.663   3.325   4.621
 7809TIP3    H223392   3.791   3.285   4.550
 7810TIP3   OH223393   6.466   3.270   4.866
 7810TIP3    H123394   6.404   3.340   4.887
 7810TIP3    H223395   6.427   3.226   4.791
 7811TIP3   OH223396   0.610   0.508   1.861
 7811TIP3    H123397   0.574   0.463   1.785
 7811TIP3    H223398   0.690   0.460   1.882
 7812TIP3   OH223399   3.543   6.143   0.451
 7812TIP3    H123400   3.496   6.079   0.398
 7812TIP3    H223401   3.586   6.090   0.519
 7813TIP3   OH223402   4.846   6.463   0.972
 7813TIP3    H123403   4.913   6.409   1.014
 7813TIP3    H223404   4.831   6.534   1.034
 7814TIP3   OH223405   1.410   6.554   3.157
 7814TIP3    H123406   1.375   6.594   3.236
 7814TIP3    H223407   1.501   6.531   3.179
 7815TIP3   OH223408   1.940   1.604   0.999
 7815TIP3    H123409   1.969   1.646   0.918
 7815TIP3    H223410   1.871   1.544   0.971
 7816TIP3   OH223411   1.345   5.103   2.103
 7816TIP3    H123412   1.329   5.011   2.124
 7816TIP3    H223413   1.270   5.149   2.139
 7817TIP3   OH223414   1.198   1.678   0.469
 7817TIP3    H123415   1.286   1.711   0.488
 7817TIP3    H223416   1.149   1.692   0.549
 7818TIP3   OH223417   7.127   5.718   4.688
 7818TIP3    H123418   7.089   5.645   4.737
 7818TIP3    H223419   7.099   5.704   4.598
 7819TIP3   OH223420   0.981   5.455   4.509
 7819TIP3    H123421   0.970   5.507   4.430
 7819TIP3    H223422   0.968   5.364   4.481
 7820TIP3   OH223423   2.242   0.556   3.941
 7820TIP3    H123424   2.219   0.600   4.023
 7820TIP3    H223425   2.168   0.498   3.924
 7821TIP3   OH223426   4.309   3.973   3.657
 7821TIP3    H123427   4.292   3.966   3.563
 7821TIP3    H223428   4.227   3.949   3.699
 7822TIP3   OH223429   0.614   0.243   3.542
 7822TIP3    H123430   0.537   0.273   3.590
 7822TIP3    H223431   0.581   0.223   3.455
 7823TIP3   OH223432   7.186   2.770   3.349
 7823TIP3    H123433   7.091   2.761   3.343
 7823TIP3    H223434   7.216   2.757   3.259
 7824TIP3   OH223435   0.638   6.121   4.381
 7824TIP3    H123436   0.708   6.178   4.412
 7824TIP3    H223437   0.594   6.173   4.313
 7825TIP3   OH223438   3.384   5.493   1.705
 7825TIP3    H123439   3.326   5.417   1.707
 7825TIP3    H223440   3.472   5.455   1.708
 7826TIP3   OH223441   1.025   2.146   5.667
 7826TIP3    H123442   1.108   2.120   5.707
 7826TIP3    H223443   1.019   2.240   5.682
 7827TIP3   OH223444   6.346   2.934   4.379
 7827TIP3    H123445   6.288   2.980   4.319
 7827TIP3    H223446   6.344   2.986   4.459
 7828TIP3   OH223447   6.961   5.803   1.716
 7828TIP3    H123448   7.049   5.826   1.688
 7828TIP3    H223449   6.972   5.722   1.766
 7829TIP3   OH223450   7.088   2.103   3.314
 7829TIP3    H123451   7.121   2.193   3.317
 7829TIP3    H223452   7.041   2.093   3.397
 7830TIP3   OH223453   0.357   4.381   1.286
 7830TIP3    H123454   0.286   4.346   1.340
 7830TIP3    H223455   0.420   4.310   1.279
 7831TIP3   OH223456   4.885   6.170   0.025
 7831TIP3    H123457   4.832   6.136   0.097
 7831TIP3    H223458   4.903   6.261   0.049
 7832TIP3   OH223459   3.979   0.971   0.420
 7832TIP3    H123460   4.041   1.044   0.412
 7832TIP3    H223461   3.893   1.014   0.422
 7833TIP3   OH223462   0.020   2.727   3.089
 7833TIP3    H123463   0.056   2.736   3.001
 7833TIP3    H223464  -0.060   2.780   3.088
 7834TIP3   OH223465   1.553   0.271   5.026
 7834TIP3    H123466   1.462   0.242   5.016
 7834TIP3    H223467   1.579   0.297   4.938
 7835TIP3   OH223468   1.705   1.024   5.542
 7835TIP3    H123469   1.702   0.956   5.474
 7835TIP3    H223470   1.798   1.046   5.549
 7836TIP3   OH223471   5.346   6.599   3.449
 7836TIP3    H123472   5.334   6.585   3.542
 7836TIP3    H223473   5.377   6.514   3.416
 7837TIP3   OH223474   4.473   5.795   0.513
 7837TIP3    H123475   4.449   5.731   0.446
 7837TIP3    H223476   4.399   5.855   0.516
 7838TIP3   OH223477   6.189   1.308   4.553
 7838TIP3    H123478   6.184   1.403   4.562
 7838TIP3    H223479   6.240   1.294   4.473
 7839TIP3   OH223480   4.229   2.609   4.746
 7839TIP3    H123481   4.145   2.627   4.704
 7839TIP3    H223482   4.231   2.514   4.756
 7840TIP3   OH223483   0.395   6.758   1.864
 7840TIP3    H123484   0.375   6.851   1.856
 7840TIP3    H223485   0.436   6.750   1.950
 7841TIP3   OH223486   1.445   2.759   3.512
 7841TIP3    H123487   1.494   2.729   3.587
 7841TIP3    H223488   1.507   2.811   3.461
 7842TIP3   OH223489   2.161   1.736   3.111
 7842TIP3    H123490   2.123   1.692   3.187
 7842TIP3    H223491   2.156   1.829   3.132
 7843TIP3   OH223492   1.305   3.303   4.095
 7843TIP3    H123493   1.316   3.397   4.104
 7843TIP3    H223494   1.227   3.282   4.146
 7844TIP3   OH223495   0.671   6.760   5.051
 7844TIP3    H123496   0.642   6.851   5.051
 7844TIP3    H223497   0.752   6.761   5.000
 7845TIP3   OH223498   2.911   4.197   4.128
 7845TIP3    H123499   2.985   4.256   4.110
 7845TIP3    H223500   2.847   4.218   4.060
 7846TIP3   OH223501   3.047   5.341   1.992
 7846TIP3    H123502   3.034   5.399   1.917
 7846TIP3    H223503   3.135   5.361   2.022
 7847TIP3   OH223504   3.658   1.540   5.486
 7847TIP3    H123505   3.641   1.455   5.444
 7847TIP3    H223506   3.690   1.517   5.573
 7848TIP3   OH223507   3.949   4.484   2.157
 7848TIP3    H123508   3.974   4.393   2.138
 7848TIP3    H223509   3.882   4.505   2.091
 7849TIP3   OH223510   2.861   5.557   1.417
 7849TIP3    H123511   2.913   5.633   1.443
 7849TIP3    H223512   2.835   5.575   1.326
 7850TIP3   OH223513   7.202   5.223   5.254
 7850TIP3    H123514   7.130   5.252   5.198
 7850TIP3    H223515   7.279   5.268   5.220
 7851TIP3   OH223516   5.115   0.829   0.009
 7851TIP3    H123517   5.087   0.740   0.031
 7851TIP3    H223518   5.156   0.861   0.090
 7852TIP3   OH223519   4.356   2.471   2.774
 7852TIP3    H123520   4.410   2.543   2.743
 7852TIP3    H223521   4.404   2.435   2.849
 7853TIP3   OH223522   2.739   4.373   4.544
 7853TIP3    H123523   2.665   4.373   4.483
 7853TIP3    H223524   2.813   4.405   4.492
 7854TIP3   OH223525   4.574   5.565   2.399
 7854TIP3    H123526   4.517   5.629   2.440
 7854TIP3    H223527   4.574   5.588   2.306
 7855TIP3   OH223528   0.658   0.563   0.888
 7855TIP3    H123529   0.668   0.603   0.975
 7855TIP3    H223530   0.737   0.590   0.841
 7856TIP3   OH223531   0.787   0.681   0.488
 7856TIP3    H123532   0.827   0.728   0.414
 7856TIP3    H223533   0.797   0.588   0.466
 7857TIP3   OH223534   0.721   5.886   4.949
 7857TIP3    H123535   0.792   5.873   5.011
 7857TIP3    H223536   0.684   5.798   4.936
 7858TIP3   OH223537   3.206   2.686   3.426
 7858TIP3    H123538   3.292   2.659   3.393
 7858TIP3    H223539   3.225   2.730   3.509
 7859TIP3   OH223540   3.930   6.185   5.802
 7859TIP3    H123541   3.953   6.128   5.875
 7859TIP3    H223542   4.010   6.235   5.785
 7860TIP3   OH223543   0.541   4.686   0.457
 7860TIP3    H123544   0.522   4.759   0.516
 7860TIP3    H223545   0.632   4.698   0.433
 7861TIP3   OH223546   6.373   0.620   2.361
 7861TIP3    H123547   6.414   0.703   2.337
 7861TIP3    H223548   6.443   0.555   2.355
 7862TIP3   OH223549   5.777   1.829   1.309
 7862TIP3    H123550   5.833   1.784   1.372
 7862TIP3    H223551   5.771   1.919   1.342
 7863TIP3   OH223552   6.619   5.702   0.029
 7863TIP3    H123553   6.696   5.666  -0.015
 7863TIP3    H223554   6.642   5.793   0.048
 7864TIP3   OH223555   5.634   1.792   5.253
 7864TIP3    H123556   5.607   1.881   5.230
 7864TIP3    H223557   5.704   1.804   5.317
 7865TIP3   OH223558   1.340   0.639   1.654
 7865TIP3    H123559   1.419   0.674   1.614
 7865TIP3    H223560   1.272   0.703   1.634
 7866TIP3   OH223561   5.394   0.710   3.968
 7866TIP3    H123562   5.337   0.686   4.041
 7866TIP3    H223563   5.482   0.716   4.006
 7867TIP3   OH223564   3.393   0.519   2.728
 7867TIP3    H123565   3.437   0.516   2.643
 7867TIP3    H223566   3.453   0.473   2.787
 7868TIP3   OH223567   3.787   1.289   3.880
 7868TIP3    H123568   3.694   1.298   3.900
 7868TIP3    H223569   3.832   1.312   3.961
 7869TIP3   OH223570   3.209   2.363   0.720
 7869TIP3    H123571   3.191   2.284   0.670
 7869TIP3    H223572   3.149   2.359   0.795
 7870TIP3   OH223573   1.256   4.879   1.041
 7870TIP3    H123574   1.184   4.843   0.990
 7870TIP3    H223575   1.224   4.964   1.071
 7871TIP3   OH223576   3.631   6.546   3.482
 7871TIP3    H123577   3.660   6.590   3.562
 7871TIP3    H223578   3.588   6.616   3.432
 7872TIP3   OH223579   5.331   5.488   2.706
 7872TIP3    H123580   5.403   5.516   2.763
 7872TIP3    H223581   5.287   5.569   2.681
 7873TIP3   OH223582   1.087   4.740   5.526
 7873TIP3    H123583   1.028   4.813   5.544
 7873TIP3    H223584   1.030   4.663   5.524
 7874TIP3   OH223585   2.191   1.078   2.911
 7874TIP3    H123586   2.131   1.151   2.925
 7874TIP3    H223587   2.154   1.030   2.837
 7875TIP3   OH223588   6.708   4.280   2.880
 7875TIP3    H123589   6.707   4.375   2.881
 7875TIP3    H223590   6.655   4.255   2.956
 7876TIP3   OH223591   6.375   6.301   5.057
 7876TIP3    H123592   6.367   6.206   5.045
 7876TIP3    H223593   6.297   6.326   5.106
 7877TIP3   OH223594   0.241   5.906   5.277
 7877TIP3    H123595   0.255   5.907   5.183
 7877TIP3    H223596   0.326   5.882   5.315
 7878TIP3   OH223597   5.651   0.922   3.206
 7878TIP3    H123598   5.726   0.980   3.216
 7878TIP3    H223599   5.683   0.835   3.230
 7879TIP3   OH223600   6.634   3.168   3.340
 7879TIP3    H123601   6.620   3.144   3.431
 7879TIP3    H223602   6.549   3.153   3.298
 7880TIP3   OH223603   2.143   2.787   5.016
 7880TIP3    H123604   2.210   2.724   5.043
 7880TIP3    H223605   2.063   2.735   5.009
 7881TIP3   OH223606   0.626   3.530   1.912
 7881TIP3    H123607   0.610   3.573   1.828
 7881TIP3    H223608   0.538   3.510   1.946
 7882TIP3   OH223609   0.298   4.776   3.574
 7882TIP3    H123610   0.367   4.710   3.565
 7882TIP3    H223611   0.257   4.757   3.659
 7883TIP3   OH223612   1.046   1.834   5.872
 7883TIP3    H123613   1.088   1.920   5.877
 7883TIP3    H223614   1.118   1.772   5.861
 7884TIP3   OH223615   6.107   3.102   0.996
 7884TIP3    H123616   6.149   3.143   1.072
 7884TIP3    H223617   6.059   3.028   1.032
 7885TIP3   OH223618   0.841   2.640   1.257
 7885TIP3    H123619   0.830   2.710   1.321
 7885TIP3    H223620   0.753   2.603   1.246
 7886TIP3   OH223621   0.712   4.803   2.788
 7886TIP3    H123622   0.735   4.878   2.842
 7886TIP3    H223623   0.745   4.825   2.701
 7887TIP3   OH223624   2.207   0.950   1.007
 7887TIP3    H123625   2.269   0.964   0.935
 7887TIP3    H223626   2.121   0.957   0.966
 7888TIP3   OH223627   2.074   1.339   1.014
 7888TIP3    H123628   2.096   1.408   0.952
 7888TIP3    H223629   1.978   1.337   1.014
 7889TIP3   OH223630   1.637   5.966   0.836
 7889TIP3    H123631   1.583   5.944   0.760
 7889TIP3    H223632   1.710   5.904   0.832
 7890TIP3   OH223633   5.371   5.419   2.257
 7890TIP3    H123634   5.374   5.352   2.325
 7890TIP3    H223635   5.452   5.406   2.208
 7891TIP3   OH223636   1.268   3.918   2.591
 7891TIP3    H123637   1.260   4.012   2.604
 7891TIP3    H223638   1.325   3.888   2.661
 7892TIP3   OH223639   2.117   0.668   2.778
 7892TIP3    H123640   2.034   0.634   2.744
 7892TIP3    H223641   2.182   0.601   2.755
 7893TIP3   OH223642   1.311   3.185   5.162
 7893TIP3    H123643   1.334   3.256   5.222
 7893TIP3    H223644   1.255   3.225   5.096
 7894TIP3   OH223645   4.463   3.264   2.253
 7894TIP3    H123646   4.463   3.182   2.205
 7894TIP3    H223647   4.375   3.299   2.242
 7895TIP3   OH223648   4.131   3.915   2.997
 7895TIP3    H123649   4.219   3.903   2.962
 7895TIP3    H223650   4.104   4.002   2.966
 7896TIP3   OH223651   1.193   1.616   3.346
 7896TIP3    H123652   1.265   1.660   3.303
 7896TIP3    H223653   1.208   1.631   3.440
 7897TIP3   OH223654   0.284   3.687   4.534
 7897TIP3    H123655   0.280   3.776   4.498
 7897TIP3    H223656   0.338   3.696   4.613
 7898TIP3   OH223657   4.186   4.792   4.063
 7898TIP3    H123658   4.267   4.783   4.014
 7898TIP3    H223659   4.117   4.772   4.000
 7899TIP3   OH223660   0.996   6.717   5.736
 7899TIP3    H123661   0.969   6.807   5.758
 7899TIP3    H223662   1.091   6.718   5.745
 7900TIP3   OH223663   3.596   1.486   0.890
 7900TIP3    H123664   3.507   1.508   0.917
 7900TIP3    H223665   3.632   1.434   0.962
 7901TIP3   OH223666   0.247   3.053   3.027
 7901TIP3    H123667   0.253   2.958   3.022
 7901TIP3    H223668   0.159   3.073   2.998
 7902TIP3   OH223669   5.198   6.729   0.686
 7902TIP3    H123670   5.216   6.807   0.740
 7902TIP3    H223671   5.124   6.687   0.729
 7903TIP3   OH223672   3.833   6.435   5.026
 7903TIP3    H123673   3.829   6.341   5.044
 7903TIP3    H223674   3.926   6.452   5.014
 7904TIP3   OH223675   1.520   0.707   4.468
 7904TIP3    H123676   1.490   0.789   4.429
 7904TIP3    H223677   1.530   0.647   4.394
 7905TIP3   OH223678   0.851   0.180   2.640
 7905TIP3    H123679   0.777   0.241   2.646
 7905TIP3    H223680   0.827   0.108   2.698
 7906TIP3   OH223681   3.981   1.458   3.059
 7906TIP3    H123682   4.052   1.495   3.007
 7906TIP3    H223683   3.909   1.445   2.996
 7907TIP3   OH223684   0.160   4.369   1.999
 7907TIP3    H123685   0.160   4.391   2.092
 7907TIP3    H223686   0.084   4.415   1.963
 7908TIP3   OH223687   5.185   1.694   3.986
 7908TIP3    H123688   5.129   1.695   3.908
 7908TIP3    H223689   5.269   1.660   3.955
 7909TIP3   OH223690   5.879   6.691   2.222
 7909TIP3    H123691   5.794   6.707   2.263
 7909TIP3    H223692   5.926   6.636   2.286
 7910TIP3   OH223693   4.954   0.756   2.251
 7910TIP3    H123694   5.008   0.688   2.291
 7910TIP3    H223695   4.982   0.757   2.159
 7911TIP3   OH223696   7.165   6.400   2.111
 7911TIP3    H123697   7.216   6.411   2.191
 7911TIP3    H223698   7.198   6.319   2.071
 7912TIP3   OH223699   2.274   1.754   4.852
 7912TIP3    H123700   2.181   1.751   4.831
 7912TIP3    H223701   2.318   1.721   4.774
 7913TIP3   OH223702   0.274   3.188   2.386
 7913TIP3    H123703   0.230   3.103   2.377
 7913TIP3    H223704   0.208   3.252   2.361
 7914TIP3   OH223705   4.164   2.231   4.438
 7914TIP3    H123706   4.120   2.246   4.354
 7914TIP3    H223707   4.097   2.192   4.494
 7915TIP3   OH223708   4.347   4.788   3.061
 7915TIP3    H123709   4.270   4.780   3.005
 7915TIP3    H223710   4.363   4.882   3.068
 7916TIP3   OH223711   3.329   5.160   0.511
 7916TIP3    H123712   3.344   5.152   0.417
 7916TIP3    H223713   3.299   5.250   0.523
 7917TIP3   OH223714   6.183   2.970   1.457
 7917TIP3    H123715   6.092   2.948   1.440
 7917TIP3    H223716   6.207   2.915   1.532
 7918TIP3   OH223717   2.881   3.778   0.771
 7918TIP3    H123718   2.946   3.795   0.703
 7918TIP3    H223719   2.917   3.820   0.849
 7919TIP3   OH223720   4.053   2.180   3.060
 7919TIP3    H123721   4.130   2.156   3.113
 7919TIP3    H223722   4.037   2.271   3.082
 7920TIP3   OH223723   6.745   1.774   0.600
 7920TIP3    H123724   6.762   1.868   0.606
 7920TIP3    H223725   6.788   1.747   0.518
 7921TIP3   OH223726   1.232   0.308   1.399
 7921TIP3    H123727   1.320   0.273   1.385
 7921TIP3    H223728   1.174   0.243   1.359
 7922TIP3   OH223729   1.631   2.943   3.434
 7922TIP3    H123730   1.598   3.007   3.497
 7922TIP3    H223731   1.719   2.922   3.465
 7923TIP3   OH223732   5.449   0.460   5.269
 7923TIP3    H123733   5.424   0.549   5.295
 7923TIP3    H223734   5.475   0.418   5.351
 7924TIP3   OH223735   5.222   3.746   2.112
 7924TIP3    H123736   5.190   3.799   2.185
 7924TIP3    H223737   5.253   3.810   2.048
 7925TIP3   OH223738   1.412   6.435   1.650
 7925TIP3    H123739   1.353   6.434   1.725
 7925TIP3    H223740   1.389   6.356   1.601
 7926TIP3   OH223741   0.079   0.246   2.933
 7926TIP3    H123742   0.037   0.162   2.915
 7926TIP3    H223743   0.141   0.228   3.003
 7927TIP3   OH223744   0.047   2.688   4.171
 7927TIP3    H123745   0.014   2.740   4.098
 7927TIP3    H223746   0.130   2.730   4.195
 7928TIP3   OH223747   0.543   0.917   3.417
 7928TIP3    H123748   0.515   0.836   3.373
 7928TIP3    H223749   0.546   0.982   3.348
 7929TIP3   OH223750   5.272   5.620   0.140
 7929TIP3    H123751   5.252   5.615   0.234
 7929TIP3    H223752   5.333   5.548   0.125
 7930TIP3   OH223753   4.932   4.917   5.532
 7930TIP3    H123754   4.950   4.996   5.481
 7930TIP3    H223755   4.928   4.846   5.468
 7931TIP3   OH223756   2.112   3.992   2.943
 7931TIP3    H123757   2.114   4.020   2.851
 7931TIP3    H223758   2.176   3.921   2.948
 7932TIP3   OH223759   5.033   2.788   1.789
 7932TIP3    H123760   5.028   2.833   1.873
 7932TIP3    H223761   4.987   2.845   1.727
 7933TIP3   OH223762   0.050   5.496   2.580
 7933TIP3    H123763  -0.006   5.432   2.623
 7933TIP3    H223764   0.028   5.488   2.487
 7934TIP3   OH223765   2.136   5.405   4.385
 7934TIP3    H123766   2.155   5.349   4.310
 7934TIP3    H223767   2.117   5.491   4.347
 7935TIP3   OH223768   6.304   4.125   4.457
 7935TIP3    H123769   6.361   4.179   4.402
 7935TIP3    H223770   6.243   4.084   4.396
 7936TIP3   OH223771   2.263   0.199   4.868
 7936TIP3    H123772   2.175   0.172   4.894
 7936TIP3    H223773   2.319   0.126   4.894
 7937TIP3   OH223774   4.737   0.575   5.571
 7937TIP3    H123775   4.801   0.507   5.547
 7937TIP3    H223776   4.726   0.566   5.665
 7938TIP3   OH223777   6.241   5.506   2.729
 7938TIP3    H123778   6.154   5.499   2.689
 7938TIP3    H223779   6.292   5.555   2.665
 7939TIP3   OH223780   6.327   1.742   0.453
 7939TIP3    H123781   6.342   1.651   0.424
 7939TIP3    H223782   6.306   1.789   0.373
 7940TIP3   OH223783   3.877   6.135   2.432
 7940TIP3    H123784   3.921   6.123   2.516
 7940TIP3    H223785   3.917   6.214   2.395
 7941TIP3   OH223786   6.549   6.676   4.723
 7941TIP3    H123787   6.517   6.610   4.785
 7941TIP3    H223788   6.594   6.740   4.778
 7942TIP3   OH223789   0.857   5.381   4.994
 7942TIP3    H123790   0.922   5.412   5.057
 7942TIP3    H223791   0.877   5.430   4.914
 7943TIP3   OH223792   4.241   5.100   2.880
 7943TIP3    H123793   4.176   5.046   2.925
 7943TIP3    H223794   4.324   5.075   2.921
 7944TIP3   OH223795   0.946   2.945   3.710
 7944TIP3    H123796   0.922   2.938   3.617
 7944TIP3    H223797   0.916   3.032   3.735
 7945TIP3   OH223798   3.388   4.414   1.952
 7945TIP3    H123799   3.432   4.427   1.868
 7945TIP3    H223800   3.307   4.367   1.929
 7946TIP3   OH223801   1.834   0.119   4.436
 7946TIP3    H123802   1.896   0.135   4.365
 7946TIP3    H223803   1.800   0.031   4.420
 7947TIP3   OH223804   2.470   4.670   2.982
 7947TIP3    H123805   2.551   4.672   3.033
 7947TIP3    H223806   2.491   4.716   2.901
 7948TIP3   OH223807   0.949   4.312   3.564
 7948TIP3    H123808   0.911   4.258   3.633
 7948TIP3    H223809   0.874   4.346   3.515
 7949TIP3   OH223810   6.421   5.151   0.892
 7949TIP3    H123811   6.487   5.208   0.852
 7949TIP3    H223812   6.411   5.079   0.829
 7950TIP3   OH223813   0.707   2.784   0.546
 7950TIP3    H123814   0.651   2.840   0.600
 7950TIP3    H223815   0.688   2.812   0.456
 7951TIP3   OH223816   0.821   4.185   0.857
 7951TIP3    H123817   0.870   4.185   0.775
 7951TIP3    H223818   0.787   4.096   0.865
 7952TIP3   OH223819   7.023   5.179   1.208
 7952TIP3    H123820   6.961   5.241   1.244
 7952TIP3    H223821   7.087   5.233   1.161
 7953TIP3   OH223822   7.178   5.608   1.902
 7953TIP3    H123823   7.197   5.556   1.823
 7953TIP3    H223824   7.183   5.545   1.974
 7954TIP3   OH223825   6.171   5.757   4.440
 7954TIP3    H123826   6.253   5.708   4.437
 7954TIP3    H223827   6.169   5.796   4.528
 7955TIP3   OH223828   1.492   3.832   4.845
 7955TIP3    H123829   1.459   3.918   4.818
 7955TIP3    H223830   1.505   3.841   4.940
 7956TIP3   OH223831   5.503   1.893   1.311
 7956TIP3    H123832   5.454   1.946   1.248
 7956TIP3    H223833   5.591   1.886   1.274
 7957TIP3   OH223834   4.214   1.218   1.599
 7957TIP3    H123835   4.173   1.274   1.533
 7957TIP3    H223836   4.152   1.147   1.612
 7958TIP3   OH223837   0.216   5.202   0.859
 7958TIP3    H123838   0.220   5.283   0.910
 7958TIP3    H223839   0.283   5.145   0.896
 7959TIP3   OH223840   6.808   0.531   5.765
 7959TIP3    H123841   6.747   0.590   5.808
 7959TIP3    H223842   6.784   0.444   5.796
 7960TIP3   OH223843   3.033   2.039   4.266
 7960TIP3    H123844   3.001   2.113   4.214
 7960TIP3    H223845   3.088   1.989   4.206
 7961TIP3   OH223846   5.433   0.853   3.757
 7961TIP3    H123847   5.349   0.843   3.713
 7961TIP3    H223848   5.418   0.820   3.845
 7962TIP3   OH223849   5.592   5.720   0.498
 7962TIP3    H123850   5.662   5.786   0.500
 7962TIP3    H223851   5.513   5.769   0.521
 7963TIP3   OH223852   6.142   1.727   3.637
 7963TIP3    H123853   6.217   1.715   3.696
 7963TIP3    H223854   6.116   1.819   3.649
 7964TIP3   OH223855   1.283   2.298   5.660
 7964TIP3    H123856   1.365   2.255   5.686
 7964TIP3    H223857   1.278   2.284   5.565
 7965TIP3   OH223858   2.739   5.334   5.210
 7965TIP3    H123859   2.749   5.392   5.285
 7965TIP3    H223860   2.645   5.337   5.189
 7966TIP3   OH223861   1.990   4.401   4.209
 7966TIP3    H123862   2.040   4.334   4.256
 7966TIP3    H223863   1.982   4.473   4.271
 7967TIP3   OH223864   1.280   3.432   4.708
 7967TIP3    H123865   1.203   3.459   4.759
 7967TIP3    H223866   1.354   3.470   4.757
 7968TIP3   OH223867   5.039   5.231   4.823
 7968TIP3    H123868   5.093   5.293   4.772
 7968TIP3    H223869   5.075   5.235   4.911
 7969TIP3   OH223870   0.774   1.055   5.475
 7969TIP3    H123871   0.857   1.053   5.523
 7969TIP3    H223872   0.715   1.105   5.532
 7970TIP3   OH223873   5.138   4.174   1.330
 7970TIP3    H123874   5.128   4.080   1.315
 7970TIP3    H223875   5.214   4.200   1.278
 7971TIP3   OH223876   2.139   5.364   3.843
 7971TIP3    H123877   2.186   5.447   3.835
 7971TIP3    H223878   2.058   5.387   3.888
 7972TIP3   OH223879   5.309   4.155   0.198
 7972TIP3    H123880   5.264   4.071   0.198
 7972TIP3    H223881   5.389   4.139   0.146
 7973TIP3   OH223882   6.022   1.757   0.466
 7973TIP3    H123883   5.947   1.724   0.416
 7973TIP3    H223884   6.090   1.773   0.401
 7974TIP3   OH223885   5.250   2.327   0.170
 7974TIP3    H123886   5.342   2.304   0.175
 7974TIP3    H223887   5.247   2.405   0.114
 7975TIP3   OH223888   6.578   5.026   3.543
 7975TIP3    H123889   6.584   5.065   3.455
 7975TIP3    H223890   6.522   4.950   3.531
 7976TIP3   OH223891   6.740   2.507   4.284
 7976TIP3    H123892   6.653   2.505   4.244
 7976TIP3    H223893   6.723   2.518   4.378
 7977TIP3   OH223894   1.408   5.396   4.986
 7977TIP3    H123895   1.486   5.447   5.006
 7977TIP3    H223896   1.427   5.308   5.019
 7978TIP3   OH223897   6.745   6.653   1.985
 7978TIP3    H123898   6.699   6.653   1.900
 7978TIP3    H223899   6.828   6.609   1.967
 7979TIP3   OH223900   4.442   4.929   2.480
 7979TIP3    H123901   4.439   4.953   2.387
 7979TIP3    H223902   4.362   4.967   2.517
 7980TIP3   OH223903   5.198   4.943   5.683
 7980TIP3    H123904   5.191   5.018   5.743
 7980TIP3    H223905   5.109   4.930   5.650
 7981TIP3   OH223906   4.044   2.535   0.472
 7981TIP3    H123907   4.069   2.599   0.406
 7981TIP3    H223908   4.122   2.525   0.527
 7982TIP3   OH223909   0.762   5.879   2.130
 7982TIP3    H123910   0.726   5.874   2.219
 7982TIP3    H223911   0.856   5.887   2.142
 7983TIP3   OH223912   4.539   3.828   3.481
 7983TIP3    H123913   4.561   3.798   3.569
 7983TIP3    H223914   4.593   3.906   3.468
 7984TIP3   OH223915   4.766   0.077   5.888
 7984TIP3    H123916   4.682   0.120   5.874
 7984TIP3    H223917   4.814   0.136   5.947
 7985TIP3   OH223918   2.160   5.144   4.091
 7985TIP3    H123919   2.241   5.195   4.096
 7985TIP3    H223920   2.129   5.139   4.181
 7986TIP3   OH223921   4.128   2.400   2.610
 7986TIP3    H123922   4.086   2.473   2.566
 7986TIP3    H223923   4.217   2.431   2.628
 7987TIP3   OH223924   0.451   6.656   1.296
 7987TIP3    H123925   0.530   6.624   1.340
 7987TIP3    H223926   0.434   6.591   1.228
 7988TIP3   OH223927   2.009   4.961   2.798
 7988TIP3    H123928   2.061   4.925   2.869
 7988TIP3    H223929   2.058   5.038   2.768
 7989TIP3   OH223930   0.473   1.397   1.994
 7989TIP3    H123931   0.515   1.442   1.921
 7989TIP3    H223932   0.452   1.466   2.056
 7990TIP3   OH223933   2.245   1.132   4.479
 7990TIP3    H123934   2.271   1.045   4.511
 7990TIP3    H223935   2.152   1.140   4.503
 7991TIP3   OH223936   2.022   0.635   2.433
 7991TIP3    H123937   2.117   0.643   2.427
 7991TIP3    H223938   1.992   0.723   2.454
 7992TIP3   OH223939   3.862   5.563   3.882
 7992TIP3    H123940   3.913   5.543   3.961
 7992TIP3    H223941   3.911   5.523   3.811
 7993TIP3   OH223942   4.254   4.759   1.521
 7993TIP3    H123943   4.283   4.827   1.460
 7993TIP3    H223944   4.162   4.746   1.501
 7994TIP3   OH223945   4.278   4.300   5.218
 7994TIP3    H123946   4.214   4.278   5.151
 7994TIP3    H223947   4.264   4.237   5.288
 7995TIP3   OH223948   6.912   3.564   2.951
 7995TIP3    H123949   6.946   3.651   2.971
 7995TIP3    H223950   6.838   3.580   2.893
 7996TIP3   OH223951   5.497   2.666   4.377
 7996TIP3    H123952   5.420   2.631   4.332
 7996TIP3    H223953   5.565   2.669   4.310
 7997TIP3   OH223954   1.328   5.262   4.223
 7997TIP3    H123955   1.252   5.312   4.194
 7997TIP3    H223956   1.384   5.257   4.146
 7998TIP3   OH223957   4.728   0.023   3.348
 7998TIP3    H123958   4.760  -0.067   3.344
 7998TIP3    H223959   4.799   0.072   3.389
 7999TIP3   OH223960   1.042   1.022   3.689
 7999TIP3    H123961   1.057   1.089   3.756
 7999TIP3    H223962   0.947   1.008   3.690
 8000TIP3   OH223963   5.454   5.864   5.639
 8000TIP3    H123964   5.398   5.930   5.679
 8000TIP3    H223965   5.506   5.912   5.574
 8001TIP3   OH223966   2.047   5.139   4.338
 8001TIP3    H123967   1.972   5.177   4.292
 8001TIP3    H223968   2.051   5.187   4.421
 8002TIP3   OH223969   5.558   5.662   4.196
 8002TIP3    H123970   5.500   5.722   4.243
 8002TIP3    H223971   5.545   5.685   4.103
 8003TIP3   OH223972   4.002   3.378   1.548
 8003TIP3    H123973   4.096   3.369   1.562
 8003TIP3    H223974   3.992   3.460   1.501
 8004TIP3   OH223975   2.085   4.606   3.317
 8004TIP3    H123976   2.074   4.542   3.387
 8004TIP3    H223977   2.117   4.685   3.361
 8005TIP3   OH223978   1.067   2.857   5.811
 8005TIP3    H123979   1.154   2.861   5.770
 8005TIP3    H223980   1.015   2.805   5.750
 8006TIP3   OH223981   2.585   5.089   2.266
 8006TIP3    H123982   2.604   5.002   2.230
 8006TIP3    H223983   2.580   5.146   2.189
 8007TIP3   OH223984   5.115   5.806   1.352
 8007TIP3    H123985   5.052   5.776   1.285
 8007TIP3    H223986   5.063   5.813   1.432
 8008TIP3   OH223987   3.653   1.809   4.424
 8008TIP3    H123988   3.561   1.829   4.405
 8008TIP3    H223989   3.676   1.866   4.497
 8009TIP3   OH223990   2.064   1.578   2.353
 8009TIP3    H123991   2.065   1.510   2.419
 8009TIP3    H223992   1.989   1.633   2.375
 8010TIP3   OH223993   0.315   5.687   3.697
 8010TIP3    H123994   0.342   5.637   3.774
 8010TIP3    H223995   0.339   5.630   3.623
 8011TIP3   OH223996   1.477   2.921   1.895
 8011TIP3    H123997   1.496   3.014   1.906
 8011TIP3    H223998   1.551   2.887   1.845
 8012TIP3   OH223999   3.540   2.437   5.624
 8012TIP3    H124000   3.590   2.358   5.601
 8012TIP3    H224001   3.604   2.507   5.621
 8013TIP3   OH224002   0.161   6.235   5.582
 8013TIP3    H124003   0.112   6.258   5.661
 8013TIP3    H224004   0.133   6.298   5.517
 8014TIP3   OH224005   1.671   5.237   5.729
 8014TIP3    H124006   1.714   5.162   5.771
 8014TIP3    H224007   1.742   5.282   5.683
 8015TIP3   OH224008   1.624   1.667   1.020
 8015TIP3    H124009   1.690   1.663   1.089
 8015TIP3    H224010   1.570   1.589   1.034
 8016TIP3   OH224011   6.296   3.595   5.337
 8016TIP3    H124012   6.321   3.620   5.248
 8016TIP3    H224013   6.378   3.598   5.387
 8017TIP3   OH224014   6.748   3.333   0.708
 8017TIP3    H124015   6.668   3.368   0.669
 8017TIP3    H224016   6.741   3.238   0.696
 8018TIP3   OH224017   4.136   5.419   1.543
 8018TIP3    H124018   4.145   5.378   1.457
 8018TIP3    H224019   4.222   5.407   1.584
 8019TIP3   OH224020   2.897   2.910   4.989
 8019TIP3    H124021   2.927   2.995   5.020
 8019TIP3    H224022   2.949   2.847   5.040
 8020TIP3   OH224023   7.082   4.592   3.893
 8020TIP3    H124024   7.136   4.519   3.925
 8020TIP3    H224025   7.040   4.558   3.814
 8021TIP3   OH224026   6.311   5.364   5.840
 8021TIP3    H124027   6.262   5.282   5.845
 8021TIP3    H224028   6.396   5.343   5.879
 8022TIP3   OH224029   4.582   2.372   5.130
 8022TIP3    H124030   4.534   2.314   5.188
 8022TIP3    H224031   4.550   2.350   5.042
 8023TIP3   OH224032   4.467   2.475   0.217
 8023TIP3    H124033   4.544   2.531   0.226
 8023TIP3    H224034   4.392   2.535   0.221
 8024TIP3   OH224035   6.323   2.148   2.084
 8024TIP3    H124036   6.326   2.187   2.172
 8024TIP3    H224037   6.298   2.220   2.027
 8025TIP3   OH224038   6.886   2.363   1.293
 8025TIP3    H124039   6.803   2.340   1.336
 8025TIP3    H224040   6.934   2.280   1.287
 8026TIP3   OH224041   3.191   2.525   2.928
 8026TIP3    H124042   3.130   2.539   3.001
 8026TIP3    H224043   3.277   2.529   2.969
 8027TIP3   OH224044   0.359   0.547   5.076
 8027TIP3    H124045   0.417   0.566   5.150
 8027TIP3    H224046   0.400   0.590   5.001
 8028TIP3   OH224047   4.205   3.198   0.674
 8028TIP3    H124048   4.175   3.287   0.655
 8028TIP3    H224049   4.283   3.186   0.621
 8029TIP3   OH224050   4.255   4.199   4.765
 8029TIP3    H124051   4.193   4.272   4.761
 8029TIP3    H224052   4.201   4.123   4.784
 8030TIP3   OH224053   3.902   6.510   5.762
 8030TIP3    H124054   3.944   6.537   5.844
 8030TIP3    H224055   3.812   6.487   5.787
 8031TIP3   OH224056   4.489   0.401   0.342
 8031TIP3    H124057   4.402   0.428   0.313
 8031TIP3    H224058   4.529   0.481   0.377
 8032TIP3   OH224059   0.123   4.578   3.464
 8032TIP3    H124060   0.171   4.659   3.448
 8032TIP3    H224061   0.031   4.605   3.466
 8033TIP3   OH224062   7.166   2.483   2.278
 8033TIP3    H124063   7.108   2.495   2.203
 8033TIP3    H224064   7.176   2.389   2.286
 8034TIP3   OH224065   6.044   0.964   5.228
 8034TIP3    H124066   6.134   0.995   5.232
 8034TIP3    H224067   6.038   0.921   5.142
 8035TIP3   OH224068   2.473   6.282   4.133
 8035TIP3    H124069   2.505   6.262   4.044
 8035TIP3    H224070   2.501   6.208   4.186
 8036TIP3   OH224071   0.652   4.900   5.145
 8036TIP3    H124072   0.654   4.979   5.200
 8036TIP3    H224073   0.679   4.930   5.059
 8037TIP3   OH224074   0.322   5.581   0.598
 8037TIP3    H124075   0.363   5.545   0.676
 8037TIP3    H224076   0.389   5.638   0.560
 8038TIP3   OH224077   1.249   6.456   5.731
 8038TIP3    H124078   1.218   6.400   5.803
 8038TIP3    H224079   1.270   6.539   5.773
 8039TIP3   OH224080   3.344   5.363   5.150
 8039TIP3    H124081   3.250   5.356   5.160
 8039TIP3    H224082   3.379   5.346   5.238
 8040TIP3   OH224083   4.691   6.438   4.533
 8040TIP3    H124084   4.615   6.476   4.490
 8040TIP3    H224085   4.666   6.348   4.551
 8041TIP3   OH224086   2.613   2.631   0.939
 8041TIP3    H124087   2.634   2.718   0.975
 8041TIP3    H224088   2.607   2.645   0.845
 8042TIP3   OH224089   3.889   3.541   2.212
 8042TIP3    H124090   3.795   3.526   2.211
 8042TIP3    H224091   3.898   3.636   2.204
 8043TIP3   OH224092   3.397   2.835   0.239
 8043TIP3    H124093   3.453   2.833   0.162
 8043TIP3    H224094   3.333   2.905   0.221
 8044TIP3   OH224095   1.479   1.574   2.986
 8044TIP3    H124096   1.534   1.606   2.914
 8044TIP3    H224097   1.409   1.526   2.942
 8045TIP3   OH224098   2.337   3.760   2.043
 8045TIP3    H124099   2.247   3.756   2.076
 8045TIP3    H224100   2.392   3.752   2.121
 8046TIP3   OH224101   5.121   1.632   4.850
 8046TIP3    H124102   5.075   1.716   4.851
 8046TIP3    H224103   5.187   1.642   4.781
 8047TIP3   OH224104   6.478   5.307   2.024
 8047TIP3    H124105   6.456   5.396   1.999
 8047TIP3    H224106   6.508   5.266   1.943
 8048TIP3   OH224107   5.619   4.443   4.417
 8048TIP3    H124108   5.629   4.536   4.395
 8048TIP3    H224109   5.702   4.419   4.458
 8049TIP3   OH224110   4.328   6.006   5.715
 8049TIP3    H124111   4.339   5.983   5.623
 8049TIP3    H224112   4.270   6.082   5.714
 8050TIP3   OH224113   6.271   0.480   4.410
 8050TIP3    H124114   6.282   0.571   4.439
 8050TIP3    H224115   6.326   0.429   4.469
 8051TIP3   OH224116   1.252   0.613   3.626
 8051TIP3    H124117   1.346   0.598   3.635
 8051TIP3    H224118   1.244   0.696   3.580
 8052TIP3   OH224119   5.555   4.007   4.345
 8052TIP3    H124120   5.525   4.098   4.344
 8052TIP3    H224121   5.560   3.983   4.253
 8053TIP3   OH224122   5.054   0.827   1.420
 8053TIP3    H124123   5.041   0.741   1.382
 8053TIP3    H224124   5.084   0.809   1.509
 8054TIP3   OH224125   5.579   2.090   4.389
 8054TIP3    H124126   5.497   2.073   4.435
 8054TIP3    H224127   5.609   2.003   4.361
 8055TIP3   OH224128   2.504   0.993   5.314
 8055TIP3    H124129   2.553   1.075   5.319
 8055TIP3    H224130   2.447   1.003   5.238
 8056TIP3   OH224131   2.884   6.018   4.615
 8056TIP3    H124132   2.809   6.073   4.639
 8056TIP3    H224133   2.901   5.966   4.694
 8057TIP3   OH224134   3.104   1.001   5.643
 8057TIP3    H124135   3.090   1.008   5.737
 8057TIP3    H224136   3.109   1.091   5.612
 8058TIP3   OH224137   3.407   3.209   4.126
 8058TIP3    H124138   3.386   3.250   4.209
 8058TIP3    H224139   3.502   3.200   4.126
 8059TIP3   OH224140   6.103   5.894   0.723
 8059TIP3    H124141   6.091   5.899   0.818
 8059TIP3    H224142   6.017   5.867   0.689
 8060TIP3   OH224143   1.106   3.704   3.888
 8060TIP3    H124144   1.035   3.714   3.826
 8060TIP3    H224145   1.186   3.710   3.835
 8061TIP3   OH224146   1.968   1.137   4.034
 8061TIP3    H124147   2.060   1.123   4.014
 8061TIP3    H224148   1.957   1.102   4.123
 8062TIP3   OH224149   0.355   4.682   5.768
 8062TIP3    H124150   0.408   4.717   5.696
 8062TIP3    H224151   0.414   4.684   5.844
 8063TIP3   OH224152   6.935   0.997   4.701
 8063TIP3    H124153   6.996   1.008   4.773
 8063TIP3    H224154   6.988   0.968   4.627
 8064TIP3   OH224155   5.011   4.610   3.520
 8064TIP3    H124156   5.066   4.558   3.578
 8064TIP3    H224157   4.971   4.546   3.462
 8065TIP3   OH224158   0.745   4.913   3.420
 8065TIP3    H124159   0.708   4.886   3.504
 8065TIP3    H224160   0.726   5.006   3.414
 8066TIP3   OH224161   1.577   5.486   5.487
 8066TIP3    H124162   1.612   5.535   5.561
 8066TIP3    H224163   1.644   5.493   5.419
 8067TIP3   OH224164   1.481   5.301   1.926
 8067TIP3    H124165   1.447   5.388   1.944
 8067TIP3    H224166   1.430   5.243   1.982
 8068TIP3   OH224167   2.874   3.268   4.426
 8068TIP3    H124168   2.965   3.269   4.458
 8068TIP3    H224169   2.858   3.177   4.401
 8069TIP3   OH224170   0.225   0.322   1.468
 8069TIP3    H124171   0.149   0.367   1.430
 8069TIP3    H224172   0.208   0.229   1.452
 8070TIP3   OH224173   1.128   5.023   4.566
 8070TIP3    H124174   1.075   5.043   4.488
 8070TIP3    H224175   1.157   5.108   4.598
 8071TIP3   OH224176   0.714   2.367   2.586
 8071TIP3    H124177   0.760   2.326   2.513
 8071TIP3    H224178   0.666   2.439   2.546
 8072TIP3   OH224179   4.082   2.101   4.727
 8072TIP3    H124180   4.073   2.017   4.683
 8072TIP3    H224181   4.152   2.087   4.791
 8073TIP3   OH224182   3.149   4.366   4.038
 8073TIP3    H124183   3.239   4.368   4.072
 8073TIP3    H224184   3.142   4.443   3.982
 8074TIP3   OH224185   1.919   2.197   1.199
 8074TIP3    H124186   1.972   2.258   1.250
 8074TIP3    H224187   1.835   2.193   1.245
 8075TIP3   OH224188   5.889   1.499   3.836
 8075TIP3    H124189   5.912   1.423   3.890
 8075TIP3    H224190   5.942   1.570   3.872
 8076TIP3   OH224191   3.643   4.472   0.484
 8076TIP3    H124192   3.730   4.460   0.522
 8076TIP3    H224193   3.602   4.386   0.489
 8077TIP3   OH224194   1.925   4.999   2.088
 8077TIP3    H124195   1.876   5.081   2.080
 8077TIP3    H224196   1.895   4.945   2.015
 8078TIP3   OH224197   6.100   5.524   3.567
 8078TIP3    H124198   6.069   5.602   3.613
 8078TIP3    H224199   6.196   5.532   3.569
 8079TIP3   OH224200   2.767   4.420   4.209
 8079TIP3    H124201   2.790   4.430   4.117
 8079TIP3    H224202   2.812   4.341   4.237
 8080TIP3   OH224203   1.863   2.033   3.722
 8080TIP3    H124204   1.852   1.967   3.654
 8080TIP3    H224205   1.784   2.026   3.776
 8081TIP3   OH224206   0.662   0.895   1.424
 8081TIP3    H124207   0.618   0.811   1.414
 8081TIP3    H224208   0.592   0.958   1.440
 8082TIP3   OH224209   6.668   2.965   1.447
 8082TIP3    H124210   6.718   2.885   1.461
 8082TIP3    H224211   6.721   3.016   1.385
 8083TIP3   OH224212   0.494   1.110   1.508
 8083TIP3    H124213   0.515   1.092   1.599
 8083TIP3    H224214   0.548   1.186   1.486
 8084TIP3   OH224215   1.180   3.084   5.453
 8084TIP3    H124216   1.191   3.153   5.519
 8084TIP3    H224217   1.086   3.082   5.437
 8085TIP3   OH224218   1.695   4.317   5.455
 8085TIP3    H124219   1.689   4.281   5.543
 8085TIP3    H224220   1.653   4.403   5.461
 8086TIP3   OH224221   2.550   3.818   5.818
 8086TIP3    H124222   2.603   3.897   5.825
 8086TIP3    H224223   2.599   3.752   5.867
 8087TIP3   OH224224   5.072   3.025   0.925
 8087TIP3    H124225   5.062   3.097   0.863
 8087TIP3    H224226   5.104   3.066   1.005
 8088TIP3   OH224227   5.036   5.470   2.794
 8088TIP3    H124228   5.064   5.384   2.762
 8088TIP3    H224229   5.038   5.526   2.717
 8089TIP3   OH224230   5.750   4.945   2.761
 8089TIP3    H124231   5.826   4.934   2.817
 8089TIP3    H224232   5.680   4.972   2.820
 8090TIP3   OH224233   0.921   1.134   2.291
 8090TIP3    H124234   0.946   1.186   2.367
 8090TIP3    H224235   0.827   1.149   2.281
 8091TIP3   OH224236   0.752   5.357   1.104
 8091TIP3    H124237   0.781   5.273   1.069
 8091TIP3    H224238   0.814   5.377   1.174
 8092TIP3   OH224239   6.135   5.542   0.185
 8092TIP3    H124240   6.075   5.613   0.163
 8092TIP3    H224241   6.209   5.585   0.228
 8093TIP3   OH224242   0.564   2.196  -0.059
 8093TIP3    H124243   0.585   2.122  -0.002
 8093TIP3    H224244   0.559   2.270   0.000
 8094TIP3   OH224245   2.799   2.820   1.844
 8094TIP3    H124246   2.890   2.800   1.864
 8094TIP3    H224247   2.804   2.888   1.777
 8095TIP3   OH224248   5.450   3.022   5.559
 8095TIP3    H124249   5.374   3.079   5.551
 8095TIP3    H224250   5.414   2.934   5.569
 8096TIP3   OH224251   1.160   0.344   2.942
 8096TIP3    H124252   1.191   0.354   3.032
 8096TIP3    H224253   1.071   0.378   2.943
 8097TIP3   OH224254   2.233   3.124   2.627
 8097TIP3    H124255   2.324   3.138   2.651
 8097TIP3    H224256   2.188   3.108   2.710
 8098TIP3   OH224257   1.327   1.142   0.771
 8098TIP3    H124258   1.357   1.119   0.859
 8098TIP3    H224259   1.393   1.203   0.738
 8099TIP3   OH224260   2.309   5.455   0.109
 8099TIP3    H124261   2.316   5.369   0.069
 8099TIP3    H224262   2.300   5.437   0.203
 8100TIP3   OH224263   5.091   2.666   2.103
 8100TIP3    H124264   5.015   2.636   2.052
 8100TIP3    H224265   5.052   2.714   2.177
 8101TIP3   OH224266   3.912   3.097   0.629
 8101TIP3    H124267   3.931   3.128   0.718
 8101TIP3    H224268   3.951   3.010   0.626
 8102TIP3   OH224269   4.015   6.479   0.665
 8102TIP3    H124270   4.020   6.571   0.638
 8102TIP3    H224271   3.956   6.439   0.601
 8103TIP3   OH224272   2.145   3.455   1.860
 8103TIP3    H124273   2.054   3.455   1.892
 8103TIP3    H224274   2.188   3.385   1.909
 8104TIP3   OH224275   1.882   5.465   3.605
 8104TIP3    H124276   1.912   5.532   3.667
 8104TIP3    H224277   1.808   5.423   3.649
 8105TIP3   OH224278   6.445   6.043   5.307
 8105TIP3    H124279   6.409   5.959   5.335
 8105TIP3    H224280   6.413   6.055   5.218
 8106TIP3   OH224281   5.410   3.245   4.096
 8106TIP3    H124282   5.369   3.293   4.168
 8106TIP3    H224283   5.344   3.181   4.069
 8107TIP3   OH224284   3.530   4.296   2.805
 8107TIP3    H124285   3.601   4.305   2.869
 8107TIP3    H224286   3.563   4.339   2.726
 8108TIP3   OH224287   2.277   3.803   5.081
 8108TIP3    H124288   2.276   3.735   5.013
 8108TIP3    H224289   2.257   3.756   5.162
 8109TIP3   OH224290   4.835   3.854   2.734
 8109TIP3    H124291   4.873   3.813   2.811
 8109TIP3    H224292   4.883   3.817   2.660
 8110TIP3   OH224293   4.187   5.873   4.778
 8110TIP3    H124294   4.218   5.927   4.705
 8110TIP3    H224295   4.135   5.933   4.831
 8111TIP3   OH224296   5.226   0.540   2.881
 8111TIP3    H124297   5.161   0.583   2.826
 8111TIP3    H224298   5.266   0.475   2.824
 8112TIP3   OH224299   3.576   4.345   4.604
 8112TIP3    H124300   3.506   4.352   4.669
 8112TIP3    H224301   3.562   4.421   4.547
 8113TIP3   OH224302   2.170   4.917   3.014
 8113TIP3    H124303   2.138   4.930   3.103
 8113TIP3    H224304   2.255   4.874   3.026
 8114TIP3   OH224305   3.748   5.993   5.234
 8114TIP3    H124306   3.834   5.972   5.272
 8114TIP3    H224307   3.696   5.914   5.249
 8115TIP3   OH224308   2.674   0.915   5.589
 8115TIP3    H124309   2.721   0.865   5.655
 8115TIP3    H224310   2.634   0.988   5.637
 8116TIP3   OH224311   4.743   3.960   4.756
 8116TIP3    H124312   4.804   4.000   4.695
 8116TIP3    H224313   4.728   4.027   4.823
 8117TIP3   OH224314   5.891   1.520   0.016
 8117TIP3    H124315   5.967   1.512   0.074
 8117TIP3    H224316   5.851   1.433   0.016
 8118TIP3   OH224317   6.443   3.963   3.236
 8118TIP3    H124318   6.422   3.940   3.146
 8118TIP3    H224319   6.494   4.044   3.230
 8119TIP3   OH224320   4.078   1.448   5.536
 8119TIP3    H124321   4.162   1.491   5.518
 8119TIP3    H224322   4.102   1.357   5.556
 8120TIP3   OH224323   1.026   1.434   4.023
 8120TIP3    H124324   1.022   1.524   3.990
 8120TIP3    H224325   0.936   1.414   4.048
 8121TIP3   OH224326   1.913   5.564   1.053
 8121TIP3    H124327   1.821   5.559   1.026
 8121TIP3    H224328   1.956   5.495   1.002
 8122TIP3   OH224329   2.992   0.960   0.632
 8122TIP3    H124330   2.915   0.957   0.576
 8122TIP3    H224331   3.051   0.894   0.596
 8123TIP3   OH224332   0.935   0.263   5.771
 8123TIP3    H124333   0.947   0.212   5.691
 8123TIP3    H224334   0.861   0.221   5.815
 8124TIP3   OH224335   4.290   0.388   0.758
 8124TIP3    H124336   4.261   0.410   0.847
 8124TIP3    H224337   4.360   0.450   0.740
 8125TIP3   OH224338   6.212   6.708   0.042
 8125TIP3    H124339   6.165   6.635   0.081
 8125TIP3    H224340   6.289   6.720   0.097
 8126TIP3   OH224341   0.779   5.718   3.733
 8126TIP3    H124342   0.723   5.791   3.708
 8126TIP3    H224343   0.720   5.655   3.773
 8127TIP3   OH224344   6.026   4.408   3.908
 8127TIP3    H124345   6.082   4.335   3.935
 8127TIP3    H224346   6.086   4.482   3.901
 8128TIP3   OH224347   1.522   3.622   4.704
 8128TIP3    H124348   1.457   3.637   4.635
 8128TIP3    H224349   1.501   3.687   4.772
 8129TIP3   OH224350   2.640   2.824   5.012
 8129TIP3    H124351   2.616   2.743   4.967
 8129TIP3    H224352   2.732   2.837   4.990
 8130TIP3   OH224353   1.854   2.721   5.701
 8130TIP3    H124354   1.893   2.647   5.654
 8130TIP3    H224355   1.917   2.742   5.770
 8131TIP3   OH224356   5.032   5.954   3.442
 8131TIP3    H124357   4.937   5.946   3.437
 8131TIP3    H224358   5.064   5.935   3.354
 8132TIP3   OH224359   6.806   5.827   0.704
 8132TIP3    H124360   6.897   5.854   0.716
 8132TIP3    H224361   6.811   5.733   0.687
 8133TIP3   OH224362   2.092   3.393   3.359
 8133TIP3    H124363   2.173   3.380   3.409
 8133TIP3    H224364   2.023   3.391   3.425
 8134TIP3   OH224365   3.195   3.598   2.699
 8134TIP3    H124366   3.248   3.668   2.738
 8134TIP3    H224367   3.116   3.643   2.668
 8135TIP3   OH224368   4.012   6.532   1.700
 8135TIP3    H124369   3.946   6.599   1.719
 8135TIP3    H224370   4.071   6.573   1.638
 8136TIP3   OH224371   4.569   0.475   0.780
 8136TIP3    H124372   4.526   0.412   0.838
 8136TIP3    H224373   4.634   0.424   0.733
 8137TIP3   OH224374   3.009   6.146   2.622
 8137TIP3    H124375   3.043   6.114   2.538
 8137TIP3    H224376   3.056   6.095   2.688
 8138TIP3   OH224377   5.268   2.942   1.319
 8138TIP3    H124378   5.334   3.010   1.338
 8138TIP3    H224379   5.229   2.970   1.237
 8139TIP3   OH224380   4.418   4.134   2.262
 8139TIP3    H124381   4.413   4.142   2.357
 8139TIP3    H224382   4.501   4.088   2.246
 8140TIP3   OH224383   5.159   2.493   5.446
 8140TIP3    H124384   5.195   2.500   5.357
 8140TIP3    H224385   5.085   2.554   5.446
 8141TIP3   OH224386   3.246   0.957   4.690
 8141TIP3    H124387   3.218   1.018   4.621
 8141TIP3    H224388   3.190   0.978   4.764
 8142TIP3   OH224389   3.907   2.459   5.511
 8142TIP3    H124390   3.974   2.506   5.461
 8142TIP3    H224391   3.884   2.385   5.455
 8143TIP3   OH224392   5.648   3.728   2.545
 8143TIP3    H124393   5.740   3.714   2.568
 8143TIP3    H224394   5.602   3.657   2.590
 8144TIP3   OH224395   2.232   1.474   1.191
 8144TIP3    H124396   2.146   1.466   1.151
 8144TIP3    H224397   2.277   1.392   1.170
 8145TIP3   OH224398   0.243   1.359   4.483
 8145TIP3    H124399   0.321   1.388   4.435
 8145TIP3    H224400   0.184   1.435   4.481
 8146TIP3   OH224401   5.815   2.985   0.454
 8146TIP3    H124402   5.903   2.997   0.489
 8146TIP3    H224403   5.780   2.908   0.500
 8147TIP3   OH224404   1.876   0.516   1.980
 8147TIP3    H124405   1.949   0.545   2.036
 8147TIP3    H224406   1.916   0.455   1.918
 8148TIP3   OH224407   2.593   1.537   4.794
 8148TIP3    H124408   2.611   1.443   4.799
 8148TIP3    H224409   2.604   1.559   4.702
 8149TIP3   OH224410   4.991   4.943   3.072
 8149TIP3    H124411   5.004   5.038   3.073
 8149TIP3    H224412   5.057   4.911   3.010
 8150TIP3   OH224413   6.372   2.007   0.961
 8150TIP3    H124414   6.321   2.037   1.036
 8150TIP3    H224415   6.370   1.911   0.968
 8151TIP3   OH224416   5.826   1.038   3.922
 8151TIP3    H124417   5.894   0.981   3.959
 8151TIP3    H224418   5.761   1.046   3.992
 8152TIP3   OH224419   7.113   6.127   5.222
 8152TIP3    H124420   7.179   6.121   5.292
 8152TIP3    H224421   7.164   6.138   5.142
 8153TIP3   OH224422   1.637   5.220   4.951
 8153TIP3    H124423   1.676   5.306   4.939
 8153TIP3    H224424   1.627   5.184   4.863
 8154TIP3   OH224425   2.013   1.886   3.319
 8154TIP3    H124426   2.036   1.896   3.411
 8154TIP3    H224427   1.978   1.797   3.312
 8155TIP3   OH224428   5.344   5.845   2.749
 8155TIP3    H124429   5.399   5.783   2.798
 8155TIP3    H224430   5.379   5.931   2.773
 8156TIP3   OH224431   4.101   5.513   1.243
 8156TIP3    H124432   4.195   5.528   1.235
 8156TIP3    H224433   4.088   5.422   1.215
 8157TIP3   OH224434   1.408   5.873   2.307
 8157TIP3    H124435   1.469   5.906   2.241
 8157TIP3    H224436   1.379   5.950   2.355
 8158TIP3   OH224437   3.306  -0.012   4.909
 8158TIP3    H124438   3.343  -0.077   4.849
 8158TIP3    H224439   3.380   0.018   4.962
 8159TIP3   OH224440   5.460   4.533   1.838
 8159TIP3    H124441   5.429   4.515   1.927
 8159TIP3    H224442   5.523   4.604   1.848
 8160TIP3   OH224443   5.162   4.446   4.642
 8160TIP3    H124444   5.082   4.406   4.609
 8160TIP3    H224445   5.190   4.504   4.571
 8161TIP3   OH224446   5.346   6.700   1.156
 8161TIP3    H124447   5.357   6.640   1.082
 8161TIP3    H224448   5.305   6.648   1.225
 8162TIP3   OH224449   2.393   5.656   4.518
 8162TIP3    H124450   2.375   5.744   4.484
 8162TIP3    H224451   2.489   5.647   4.512
 8163TIP3   OH224452   5.037   3.571   5.432
 8163TIP3    H124453   4.966   3.575   5.368
 8163TIP3    H224454   5.016   3.496   5.487
 8164TIP3   OH224455   3.533   2.888   1.296
 8164TIP3    H124456   3.605   2.938   1.336
 8164TIP3    H224457   3.513   2.937   1.216
 8165TIP3   OH224458   6.811   1.127   1.628
 8165TIP3    H124459   6.834   1.065   1.698
 8165TIP3    H224460   6.728   1.093   1.592
 8166TIP3   OH224461   5.007   1.793   1.836
 8166TIP3    H124462   4.936   1.742   1.797
 8166TIP3    H224463   4.968   1.832   1.914
 8167TIP3   OH224464   2.028   5.736   1.490
 8167TIP3    H124465   1.986   5.722   1.575
 8167TIP3    H224466   2.114   5.772   1.511
 8168TIP3   OH224467   5.777   2.165   4.756
 8168TIP3    H124468   5.684   2.145   4.745
 8168TIP3    H224469   5.781   2.217   4.837
 8169TIP3   OH224470   3.260   1.186   2.331
 8169TIP3    H124471   3.311   1.250   2.381
 8169TIP3    H224472   3.171   1.196   2.363
 8170TIP3   OH224473   3.077   3.549   3.662
 8170TIP3    H124474   3.157   3.602   3.662
 8170TIP3    H224475   3.072   3.513   3.574
 8171TIP3   OH224476   4.511   1.932   3.246
 8171TIP3    H124477   4.506   1.843   3.210
 8171TIP3    H224478   4.483   1.922   3.337
 8172TIP3   OH224479   2.475   0.703   3.765
 8172TIP3    H124480   2.508   0.674   3.850
 8172TIP3    H224481   2.553   0.715   3.712
 8173TIP3   OH224482   1.309   3.875   1.805
 8173TIP3    H124483   1.248   3.839   1.741
 8173TIP3    H224484   1.359   3.940   1.756
 8174TIP3   OH224485   3.682   6.191   5.666
 8174TIP3    H124486   3.672   6.113   5.719
 8174TIP3    H224487   3.773   6.219   5.680
 8175TIP3   OH224488   5.018   3.800   3.961
 8175TIP3    H124489   4.936   3.756   3.982
 8175TIP3    H224490   5.054   3.827   4.045
 8176TIP3   OH224491   3.172   2.985   2.328
 8176TIP3    H124492   3.212   2.929   2.261
 8176TIP3    H224493   3.123   3.050   2.278
 8177TIP3   OH224494   0.302   5.007   2.952
 8177TIP3    H124495   0.254   4.925   2.942
 8177TIP3    H224496   0.333   5.006   3.042
 8178TIP3   OH224497   0.348   6.265   3.529
 8178TIP3    H124498   0.279   6.229   3.472
 8178TIP3    H224499   0.413   6.195   3.535
 8179TIP3   OH224500   5.960   1.729   3.190
 8179TIP3    H124501   5.923   1.816   3.171
 8179TIP3    H224502   6.036   1.747   3.245
 8180TIP3   OH224503   6.247   0.339   2.633
 8180TIP3    H124504   6.204   0.255   2.619
 8180TIP3    H224505   6.187   0.403   2.595
 8181TIP3   OH224506   6.808   6.473   3.319
 8181TIP3    H124507   6.773   6.388   3.293
 8181TIP3    H224508   6.892   6.453   3.360
 8182TIP3   OH224509   5.688   4.454   5.630
 8182TIP3    H124510   5.781   4.474   5.634
 8182TIP3    H224511   5.656   4.506   5.556
 8183TIP3   OH224512   0.298   5.728   4.510
 8183TIP3    H124513   0.381   5.702   4.470
 8183TIP3    H224514   0.279   5.813   4.472
 8184TIP3   OH224515   0.387   1.721   3.525
 8184TIP3    H124516   0.334   1.650   3.561
 8184TIP3    H224517   0.425   1.685   3.445
 8185TIP3   OH224518   1.447   0.300   4.155
 8185TIP3    H124519   1.377   0.325   4.216
 8185TIP3    H224520   1.401   0.281   4.073
 8186TIP3   OH224521   5.548   3.785   0.524
 8186TIP3    H124522   5.549   3.845   0.599
 8186TIP3    H224523   5.543   3.698   0.563
 8187TIP3   OH224524   1.749   5.258   1.147
 8187TIP3    H124525   1.836   5.287   1.172
 8187TIP3    H224526   1.689   5.321   1.187
 8188TIP3   OH224527   1.506   1.395   3.960
 8188TIP3    H124528   1.566   1.352   4.021
 8188TIP3    H224529   1.424   1.402   4.009
 8189TIP3   OH224530   0.250   3.149   0.049
 8189TIP3    H124531   0.262   3.196  -0.033
 8189TIP3    H224532   0.336   3.151   0.091
 8190TIP3   OH224533   5.834   1.360   3.386
 8190TIP3    H124534   5.780   1.427   3.344
 8190TIP3    H224535   5.885   1.407   3.451
 8191TIP3   OH224536   1.806   6.017   5.332
 8191TIP3    H124537   1.735   5.957   5.311
 8191TIP3    H224538   1.846   5.980   5.411
 8192TIP3   OH224539   3.529   4.809   4.315
 8192TIP3    H124540   3.561   4.760   4.239
 8192TIP3    H224541   3.471   4.876   4.278
 8193TIP3   OH224542   0.376   2.589   1.565
 8193TIP3    H124543   0.392   2.652   1.635
 8193TIP3    H224544   0.312   2.528   1.602
 8194TIP3   OH224545   4.581   3.152   0.732
 8194TIP3    H124546   4.542   3.205   0.801
 8194TIP3    H224547   4.540   3.183   0.651
 8195TIP3   OH224548   2.673   5.041   4.505
 8195TIP3    H124549   2.634   4.954   4.498
 8195TIP3    H224550   2.652   5.069   4.594
 8196TIP3   OH224551   5.883   4.787   2.051
 8196TIP3    H124552   5.860   4.876   2.076
 8196TIP3    H224553   5.829   4.731   2.108
 8197TIP3   OH224554   2.671   3.412   4.291
 8197TIP3    H124555   2.676   3.461   4.209
 8197TIP3    H224556   2.762   3.398   4.316
 8198TIP3   OH224557   1.975   2.952   5.196
 8198TIP3    H124558   1.968   2.919   5.286
 8198TIP3    H224559   2.056   2.912   5.162
 8199TIP3   OH224560   5.436   4.248   4.301
 8199TIP3    H124561   5.433   4.263   4.207
 8199TIP3    H224562   5.497   4.314   4.334
 8200TIP3   OH224563   6.769   0.202   4.011
 8200TIP3    H124564   6.707   0.136   3.981
 8200TIP3    H224565   6.794   0.249   3.931
 8201TIP3   OH224566   4.850   4.713   2.686
 8201TIP3    H124567   4.803   4.792   2.659
 8201TIP3    H224568   4.838   4.710   2.781
 8202TIP3   OH224569   3.134   4.278   1.181
 8202TIP3    H124570   3.175   4.358   1.147
 8202TIP3    H224571   3.199   4.210   1.167
 8203TIP3   OH224572   3.127   5.546   3.559
 8203TIP3    H124573   3.195   5.613   3.574
 8203TIP3    H224574   3.046   5.596   3.554
 8204TIP3   OH224575   6.047   5.067   1.958
 8204TIP3    H124576   6.066   5.158   1.982
 8204TIP3    H224577   5.978   5.040   2.019
 8205TIP3   OH224578   3.958   0.841   1.070
 8205TIP3    H124579   4.020   0.856   0.998
 8205TIP3    H224580   4.013   0.813   1.143
 8206TIP3   OH224581   2.565   1.088   3.726
 8206TIP3    H124582   2.574   1.075   3.820
 8206TIP3    H224583   2.528   1.005   3.694
 8207TIP3   OH224584   7.165   4.518   1.642
 8207TIP3    H124585   7.139   4.504   1.551
 8207TIP3    H224586   7.208   4.436   1.668
 8208TIP3   OH224587   4.621   2.235   0.129
 8208TIP3    H124588   4.554   2.301   0.114
 8208TIP3    H224589   4.620   2.221   0.224
 8209TIP3   OH224590   4.034  -0.010   0.138
 8209TIP3    H124591   3.975   0.033   0.076
 8209TIP3    H224592   4.109   0.049   0.143
 8210TIP3   OH224593   3.286   5.726   5.843
 8210TIP3    H124594   3.205   5.678   5.828
 8210TIP3    H224595   3.341   5.665   5.891
 8211TIP3   OH224596   4.639   6.614   5.578
 8211TIP3    H124597   4.685   6.620   5.661
 8211TIP3    H224598   4.629   6.704   5.549
 8212TIP3   OH224599   3.710   6.181   1.143
 8212TIP3    H124600   3.669   6.131   1.213
 8212TIP3    H224601   3.645   6.184   1.073
 8213TIP3   OH224602   1.000   0.262   3.290
 8213TIP3    H124603   1.049   0.287   3.368
 8213TIP3    H224604   1.049   0.189   3.252
 8214TIP3   OH224605   2.544   1.285   5.035
 8214TIP3    H124606   2.482   1.215   5.058
 8214TIP3    H224607   2.497   1.366   5.057
 8215TIP3   OH224608   4.700   2.702   4.257
 8215TIP3    H124609   4.766   2.674   4.319
 8215TIP3    H224610   4.652   2.621   4.236
 8216TIP3   OH224611   5.069   6.094   3.068
 8216TIP3    H124612   5.143   6.147   3.037
 8216TIP3    H224613   5.027   6.148   3.135
 8217TIP3   OH224614   4.650   1.871   1.034
 8217TIP3    H124615   4.732   1.920   1.028
 8217TIP3    H224616   4.582   1.934   1.011
 8218TIP3   OH224617   1.039   6.659   4.713
 8218TIP3    H124618   1.006   6.745   4.686
 8218TIP3    H224619   1.130   6.659   4.683
 8219TIP3   OH224620   7.056   3.976   2.029
 8219TIP3    H124621   7.024   3.959   2.118
 8219TIP3    H224622   7.039   3.894   1.982
 8220TIP3   OH224623   6.005   2.748   5.841
 8220TIP3    H124624   6.054   2.676   5.800
 8220TIP3    H224625   6.062   2.781   5.910
 8221TIP3   OH224626   5.177   1.027   1.273
 8221TIP3    H124627   5.121   0.954   1.300
 8221TIP3    H224628   5.134   1.105   1.308
 8222TIP3   OH224629   6.779   1.880   2.124
 8222TIP3    H124630   6.704   1.829   2.095
 8222TIP3    H224631   6.761   1.900   2.216
 8223TIP3   OH224632   4.379   0.448   3.131
 8223TIP3    H124633   4.421   0.530   3.106
 8223TIP3    H224634   4.317   0.474   3.200
 8224TIP3   OH224635   4.561   5.881   3.569
 8224TIP3    H124636   4.511   5.828   3.507
 8224TIP3    H224637   4.516   5.965   3.570
 8225TIP3   OH224638   2.570   2.571   4.893
 8225TIP3    H124639   2.613   2.503   4.945
 8225TIP3    H224640   2.593   2.550   4.802
 8226TIP3   OH224641   6.842   0.511   4.976
 8226TIP3    H124642   6.748   0.530   4.972
 8226TIP3    H224643   6.847   0.420   5.008
 8227TIP3   OH224644   1.446   6.327   3.883
 8227TIP3    H124645   1.434   6.233   3.869
 8227TIP3    H224646   1.360   6.358   3.913
 8228TIP3   OH224647   4.056   4.457   3.572
 8228TIP3    H124648   4.088   4.399   3.504
 8228TIP3    H224649   4.010   4.527   3.525
 8229TIP3   OH224650   7.035   6.419   0.061
 8229TIP3    H124651   7.113   6.474   0.071
 8229TIP3    H224652   6.964   6.481   0.046
 8230TIP3   OH224653   1.608   4.711   1.678
 8230TIP3    H124654   1.694   4.752   1.673
 8230TIP3    H224655   1.549   4.781   1.708
 8231TIP3   OH224656   0.837   2.195   2.990
 8231TIP3    H124657   0.910   2.247   3.023
 8231TIP3    H224658   0.861   2.105   3.010
 8232TIP3   OH224659   1.332   6.056   3.838
 8232TIP3    H124660   1.354   6.021   3.924
 8232TIP3    H224661   1.237   6.057   3.836
 8233TIP3   OH224662   3.120   4.455   3.629
 8233TIP3    H124663   3.190   4.391   3.619
 8233TIP3    H224664   3.092   4.475   3.540
 8234TIP3   OH224665   6.667   2.362   2.199
 8234TIP3    H124666   6.640   2.300   2.131
 8234TIP3    H224667   6.741   2.319   2.242
 8235TIP3   OH224668   4.626   2.708   5.243
 8235TIP3    H124669   4.530   2.716   5.242
 8235TIP3    H224670   4.642   2.616   5.260
 8236TIP3   OH224671   2.531   3.034   4.402
 8236TIP3    H124672   2.502   3.118   4.437
 8236TIP3    H224673   2.548   3.051   4.310
 8237TIP3   OH224674   5.726   2.938   3.559
 8237TIP3    H124675   5.655   2.924   3.496
 8237TIP3    H224676   5.792   2.987   3.510
 8238TIP3   OH224677   0.348   5.032   5.749
 8238TIP3    H124678   0.434   4.991   5.753
 8238TIP3    H224679   0.300   4.980   5.685
 8239TIP3   OH224680   6.475   0.247   4.114
 8239TIP3    H124681   6.489   0.225   4.206
 8239TIP3    H224682   6.541   0.314   4.094
 8240TIP3   OH224683   4.505   6.068   4.894
 8240TIP3    H124684   4.582   6.014   4.876
 8240TIP3    H224685   4.503   6.078   4.989
 8241TIP3   OH224686   3.911   5.243   1.500
 8241TIP3    H124687   3.987   5.286   1.540
 8241TIP3    H224688   3.937   5.151   1.493
 8242TIP3   OH224689   2.855   4.683   2.156
 8242TIP3    H124690   2.906   4.681   2.237
 8242TIP3    H224691   2.860   4.593   2.122
 8243TIP3   OH224692   2.562   6.227   3.875
 8243TIP3    H124693   2.576   6.140   3.914
 8243TIP3    H224694   2.649   6.255   3.846
 8244TIP3   OH224695   4.985   1.371   5.792
 8244TIP3    H124696   4.913   1.356   5.731
 8244TIP3    H224697   4.943   1.390   5.876
 8245TIP3   OH224698   5.123   0.693   0.306
 8245TIP3    H124699   5.119   0.621   0.368
 8245TIP3    H224700   5.096   0.654   0.222
 8246TIP3   OH224701   3.850   1.001   0.147
 8246TIP3    H124702   3.815   1.080   0.187
 8246TIP3    H224703   3.783   0.934   0.163
 8247TIP3   OH224704   0.530   3.408   3.611
 8247TIP3    H124705   0.452   3.438   3.564
 8247TIP3    H224706   0.592   3.480   3.605
 8248TIP3   OH224707   2.073   4.671   2.886
 8248TIP3    H124708   1.984   4.677   2.851
 8248TIP3    H224709   2.088   4.756   2.927
 8249TIP3   OH224710   1.062   1.303   3.560
 8249TIP3    H124711   1.058   1.208   3.557
 8249TIP3    H224712   1.129   1.327   3.496
 8250TIP3   OH224713   2.322   5.362   3.518
 8250TIP3    H124714   2.340   5.450   3.484
 8250TIP3    H224715   2.227   5.352   3.506
 8251TIP3   OH224716   5.885   0.340   1.924
 8251TIP3    H124717   5.872   0.427   1.887
 8251TIP3    H224718   5.831   0.340   2.004
 8252TIP3   OH224719   0.536   5.770   0.540
 8252TIP3    H124720   0.629   5.774   0.564
 8252TIP3    H224721   0.503   5.858   0.557
 8253TIP3   OH224722   6.932   1.693   0.385
 8253TIP3    H124723   6.960   1.784   0.383
 8253TIP3    H224724   6.939   1.662   0.295
 8254TIP3   OH224725   3.364   2.998   2.904
 8254TIP3    H124726   3.301   2.957   2.845
 8254TIP3    H224727   3.428   2.929   2.922
 8255TIP3   OH224728   2.844   0.832   2.577
 8255TIP3    H124729   2.934   0.837   2.545
 8255TIP3    H224730   2.815   0.745   2.550
 8256TIP3   OH224731   0.029   2.182   3.875
 8256TIP3    H124732   0.019   2.182   3.780
 8256TIP3    H224733   0.027   2.089   3.899
 8257TIP3   OH224734   3.436   2.210   5.352
 8257TIP3    H124735   3.348   2.177   5.367
 8257TIP3    H224736   3.423   2.294   5.308
 8258TIP3   OH224737   5.825   1.076   4.909
 8258TIP3    H124738   5.912   1.104   4.937
 8258TIP3    H224739   5.833   0.981   4.898
 8259TIP3   OH224740   6.712   5.194   2.416
 8259TIP3    H124741   6.760   5.276   2.429
 8259TIP3    H224742   6.642   5.216   2.355
 8260TIP3   OH224743   1.284   0.665   1.309
 8260TIP3    H124744   1.355   0.621   1.357
 8260TIP3    H224745   1.207   0.613   1.326
 8261TIP3   OH224746   3.058   4.916   5.930
 8261TIP3    H124747   2.978   4.962   5.907
 8261TIP3    H224748   3.112   4.919   5.851
 8262TIP3   OH224749   2.160   6.175   2.587
 8262TIP3    H124750   2.087   6.130   2.629
 8262TIP3    H224751   2.147   6.161   2.494
 8263TIP3   OH224752   3.497   0.783   5.041
 8263TIP3    H124753   3.444   0.763   4.963
 8263TIP3    H224754   3.456   0.732   5.111
 8264TIP3   OH224755   2.716   5.271   0.514
 8264TIP3    H124756   2.656   5.196   0.519
 8264TIP3    H224757   2.739   5.278   0.422
 8265TIP3   OH224758   3.836   0.756   2.777
 8265TIP3    H124759   3.795   0.760   2.864
 8265TIP3    H224760   3.923   0.720   2.793
 8266TIP3   OH224761   3.766   0.340   1.334
 8266TIP3    H124762   3.770   0.366   1.242
 8266TIP3    H224763   3.858   0.337   1.361
 8267TIP3   OH224764   3.908   4.168   5.099
 8267TIP3    H124765   3.853   4.128   5.032
 8267TIP3    H224766   3.997   4.142   5.075
 8268TIP3   OH224767   2.653   1.644   3.697
 8268TIP3    H124768   2.718   1.694   3.647
 8268TIP3    H224769   2.627   1.702   3.768
 8269TIP3   OH224770   6.739   5.728   3.719
 8269TIP3    H124771   6.675   5.724   3.789
 8269TIP3    H224772   6.773   5.817   3.722
 8270TIP3   OH224773   5.792   0.506   2.819
 8270TIP3    H124774   5.840   0.492   2.738
 8270TIP3    H224775   5.826   0.441   2.880
 8271TIP3   OH224776   2.436   4.007   2.766
 8271TIP3    H124777   2.422   3.932   2.708
 8271TIP3    H224778   2.413   3.975   2.853
 8272TIP3   OH224779   2.484   0.973   2.854
 8272TIP3    H124780   2.579   0.963   2.849
 8272TIP3    H224781   2.456   0.910   2.920
 8273TIP3   OH224782   2.127   6.803   5.517
 8273TIP3    H124783   2.114   6.788   5.423
 8273TIP3    H224784   2.110   6.718   5.558
 8274TIP3   OH224785   5.553   2.766   1.617
 8274TIP3    H124786   5.495   2.841   1.605
 8274TIP3    H224787   5.617   2.773   1.546
 8275TIP3   OH224788   4.925   5.186   1.341
 8275TIP3    H124789   4.870   5.229   1.275
 8275TIP3    H224790   4.935   5.252   1.410
 8276TIP3   OH224791   2.264   0.248   3.629
 8276TIP3    H124792   2.186   0.305   3.624
 8276TIP3    H224793   2.228   0.161   3.645
 8277TIP3   OH224794   4.104   4.736   5.186
 8277TIP3    H124795   4.028   4.768   5.235
 8277TIP3    H224796   4.158   4.692   5.252
 8278TIP3   OH224797   5.404   3.496   2.652
 8278TIP3    H124798   5.331   3.555   2.638
 8278TIP3    H224799   5.423   3.459   2.566
 8279TIP3   OH224800   6.934   4.836   3.664
 8279TIP3    H124801   7.012   4.830   3.720
 8279TIP3    H224802   6.873   4.889   3.714
 8280TIP3   OH224803   6.709   6.082   5.392
 8280TIP3    H124804   6.627   6.079   5.344
 8280TIP3    H224805   6.721   5.993   5.425
 8281TIP3   OH224806   2.361   5.070   0.412
 8281TIP3    H124807   2.350   5.155   0.369
 8281TIP3    H224808   2.276   5.052   0.452
 8282TIP3   OH224809   6.392   3.891   2.968
 8282TIP3    H124810   6.405   3.811   2.918
 8282TIP3    H224811   6.415   3.962   2.907
 8283TIP3   OH224812   4.090   0.298   2.905
 8283TIP3    H124813   4.186   0.297   2.904
 8283TIP3    H224814   4.066   0.249   2.984
 8284TIP3   OH224815   4.429   6.443   5.608
 8284TIP3    H124816   4.401   6.406   5.524
 8284TIP3    H224817   4.497   6.506   5.585
 8285TIP3   OH224818   2.392   2.483   1.023
 8285TIP3    H124819   2.426   2.440   1.101
 8285TIP3    H224820   2.461   2.544   0.997
 8286TIP3   OH224821   1.791   4.776   5.666
 8286TIP3    H124822   1.780   4.684   5.689
 8286TIP3    H224823   1.764   4.781   5.574
 8287TIP3   OH224824   4.161   4.645   2.130
 8287TIP3    H124825   4.082   4.596   2.110
 8287TIP3    H224826   4.146   4.732   2.094
 8288TIP3   OH224827   4.324   1.507   5.908
 8288TIP3    H124828   4.319   1.602   5.921
 8288TIP3    H224829   4.380   1.497   5.830
 8289TIP3   OH224830   3.646   5.497   1.591
 8289TIP3    H124831   3.589   5.538   1.526
 8289TIP3    H224832   3.712   5.563   1.611
 8290TIP3   OH224833   6.139   2.558   5.047
 8290TIP3    H124834   6.106   2.479   5.091
 8290TIP3    H224835   6.224   2.532   5.011
 8291TIP3   OH224836   2.050   2.997   0.238
 8291TIP3    H124837   2.036   3.022   0.147
 8291TIP3    H224838   2.137   3.030   0.259
 8292TIP3   OH224839   2.324   1.327   2.275
 8292TIP3    H124840   2.312   1.241   2.314
 8292TIP3    H224841   2.307   1.314   2.182
 8293TIP3   OH224842   1.882   4.722   3.896
 8293TIP3    H124843   1.925   4.703   3.979
 8293TIP3    H224844   1.845   4.638   3.868
 8294TIP3   OH224845   5.084   6.147   2.761
 8294TIP3    H124846   5.179   6.157   2.754
 8294TIP3    H224847   5.056   6.217   2.819
 8295TIP3   OH224848   6.349   0.051   5.707
 8295TIP3    H124849   6.321  -0.039   5.692
 8295TIP3    H224850   6.280   0.105   5.668
 8296TIP3   OH224851   5.718   3.149   4.074
 8296TIP3    H124852   5.635   3.195   4.088
 8296TIP3    H224853   5.721   3.134   3.979
 8297TIP3   OH224854   3.574   4.777   2.283
 8297TIP3    H124855   3.536   4.863   2.266
 8297TIP3    H224856   3.597   4.743   2.196
 8298TIP3   OH224857   2.640   3.107   1.028
 8298TIP3    H124858   2.623   3.179   0.967
 8298TIP3    H224859   2.663   3.151   1.110
 8299TIP3   OH224860   4.858   2.753   0.224
 8299TIP3    H124861   4.948   2.782   0.208
 8299TIP3    H224862   4.867   2.663   0.255
 8300TIP3   OH224863   5.528   0.728   2.099
 8300TIP3    H124864   5.543   0.743   2.006
 8300TIP3    H224865   5.508   0.814   2.135
 8301TIP3   OH224866   3.444   6.374   1.790
 8301TIP3    H124867   3.439   6.463   1.756
 8301TIP3    H224868   3.416   6.380   1.881
 8302TIP3   OH224869   2.003   0.319   1.768
 8302TIP3    H124870   2.016   0.239   1.819
 8302TIP3    H224871   1.935   0.296   1.705
 8303TIP3   OH224872   4.084   3.879   3.805
 8303TIP3    H124873   4.060   3.903   3.894
 8303TIP3    H224874   4.000   3.864   3.761
 8304TIP3   OH224875   4.687   0.669   1.390
 8304TIP3    H124876   4.671   0.591   1.337
 8304TIP3    H224877   4.732   0.729   1.331
 8305TIP3   OH224878   1.947   2.212   2.244
 8305TIP3    H124879   2.005   2.287   2.257
 8305TIP3    H224880   1.954   2.162   2.325
 8306TIP3   OH224881   4.019   2.338   1.472
 8306TIP3    H124882   3.992   2.246   1.483
 8306TIP3    H224883   3.997   2.380   1.555
 8307TIP3   OH224884   6.948   0.350   5.290
 8307TIP3    H124885   6.862   0.330   5.254
 8307TIP3    H224886   6.968   0.275   5.347
 8308TIP3   OH224887   4.286   5.158   5.607
 8308TIP3    H124888   4.281   5.071   5.568
 8308TIP3    H224889   4.251   5.216   5.539
 8309TIP3   OH224890   7.261   4.016   4.718
 8309TIP3    H124891   7.301   4.078   4.779
 8309TIP3    H224892   7.172   4.047   4.707
 8310TIP3   OH224893   1.687   1.119   1.110
 8310TIP3    H124894   1.696   1.094   1.018
 8310TIP3    H224895   1.775   1.111   1.145
 8311TIP3   OH224896   1.041   6.582   0.645
 8311TIP3    H124897   0.972   6.602   0.581
 8311TIP3    H224898   1.092   6.512   0.605
 8312TIP3   OH224899   2.399   5.033   5.024
 8312TIP3    H124900   2.379   4.942   5.001
 8312TIP3    H224901   2.314   5.073   5.042
 8313TIP3   OH224902   3.727   0.898   0.864
 8313TIP3    H124903   3.756   0.856   0.783
 8313TIP3    H224904   3.793   0.874   0.929
 8314TIP3   OH224905   1.814   3.225   2.038
 8314TIP3    H124906   1.894   3.196   2.081
 8314TIP3    H224907   1.836   3.227   1.945
 8315TIP3   OH224908   2.474   5.274   5.377
 8315TIP3    H124909   2.478   5.349   5.319
 8315TIP3    H224910   2.542   5.290   5.442
 8316TIP3   OH224911   2.729   6.167   1.745
 8316TIP3    H124912   2.701   6.109   1.816
 8316TIP3    H224913   2.769   6.242   1.789
 8317TIP3   OH224914   6.442   0.924   5.696
 8317TIP3    H124915   6.487   1.001   5.659
 8317TIP3    H224916   6.445   0.938   5.791
 8318TIP3   OH224917   6.711   4.789   5.197
 8318TIP3    H124918   6.709   4.867   5.252
 8318TIP3    H224919   6.705   4.716   5.260
 8319TIP3   OH224920   0.795   0.660   3.671
 8319TIP3    H124921   0.711   0.636   3.633
 8319TIP3    H224922   0.811   0.749   3.640
 8320TIP3   OH224923   1.145   0.594   1.913
 8320TIP3    H124924   1.181   0.645   1.986
 8320TIP3    H224925   1.200   0.516   1.908
 8321TIP3   OH224926   0.133   4.657   4.725
 8321TIP3    H124927   0.185   4.737   4.735
 8321TIP3    H224928   0.177   4.607   4.657
 8322TIP3   OH224929   3.875   2.535   0.891
 8322TIP3    H124930   3.919   2.456   0.862
 8322TIP3    H224931   3.910   2.553   0.978
 8323TIP3   OH224932   4.775   3.935  -0.048
 8323TIP3    H124933   4.709   3.903  -0.109
 8323TIP3    H224934   4.726   3.976   0.023
 8324TIP3   OH224935   7.032   2.179   4.566
 8324TIP3    H124936   6.991   2.160   4.650
 8324TIP3    H224937   7.123   2.202   4.589
 8325TIP3   OH224938   3.767   6.636   4.729
 8325TIP3    H124939   3.731   6.637   4.818
 8325TIP3    H224940   3.717   6.704   4.682
 8326TIP3   OH224941   2.764   1.692   4.179
 8326TIP3    H124942   2.710   1.616   4.157
 8326TIP3    H224943   2.819   1.706   4.102
 8327TIP3   OH224944   3.786   5.155   2.454
 8327TIP3    H124945   3.757   5.075   2.497
 8327TIP3    H224946   3.875   5.136   2.423
 8328TIP3   OH224947   0.752   4.471   4.542
 8328TIP3    H124948   0.827   4.419   4.512
 8328TIP3    H224949   0.770   4.486   4.635
 8329TIP3   OH224950   3.224   5.515   2.235
 8329TIP3    H124951   3.292   5.481   2.178
 8329TIP3    H224952   3.204   5.602   2.201
 8330TIP3   OH224953   3.107   4.476   1.765
 8330TIP3    H124954   3.117   4.389   1.805
 8330TIP3    H224955   3.028   4.512   1.805
 8331TIP3   OH224956   6.581   1.108   3.189
 8331TIP3    H124957   6.494   1.122   3.227
 8331TIP3    H224958   6.564   1.076   3.100
 8332TIP3   OH224959   3.570   1.399   1.178
 8332TIP3    H124960   3.625   1.376   1.253
 8332TIP3    H224961   3.483   1.369   1.203
 8333TIP3   OH224962   5.429   3.487   0.914
 8333TIP3    H124963   5.518   3.512   0.936
 8333TIP3    H224964   5.409   3.536   0.835
 8334TIP3   OH224965   2.522   3.219   2.141
 8334TIP3    H124966   2.602   3.171   2.120
 8334TIP3    H224967   2.528   3.236   2.235
 8335TIP3   OH224968   1.885   5.868   0.839
 8335TIP3    H124969   1.926   5.783   0.855
 8335TIP3    H224970   1.878   5.874   0.744
 8336TIP3   OH224971   5.847   0.124   4.070
 8336TIP3    H124972   5.906   0.169   4.130
 8336TIP3    H224973   5.873   0.032   4.075
 8337TIP3   OH224974   4.629   0.280   0.121
 8337TIP3    H124975   4.583   0.306   0.201
 8337TIP3    H224976   4.615   0.186   0.114
 8338TIP3   OH224977   5.512   0.889   0.044
 8338TIP3    H124978   5.589   0.938   0.014
 8338TIP3    H224979   5.438   0.933   0.003
 8339TIP3   OH224980   6.559   5.098   5.118
 8339TIP3    H124981   6.540   5.059   5.033
 8339TIP3    H224982   6.479   5.082   5.169
 8340TIP3   OH224983   0.957   3.278   2.802
 8340TIP3    H124984   1.007   3.357   2.783
 8340TIP3    H224985   0.884   3.281   2.740
 8341TIP3   OH224986   3.192   3.231   1.655
 8341TIP3    H124987   3.146   3.299   1.605
 8341TIP3    H224988   3.279   3.226   1.615
 8342TIP3   OH224989   5.445   5.173   5.158
 8342TIP3    H124990   5.488   5.223   5.088
 8342TIP3    H224991   5.442   5.234   5.232
 8343TIP3   OH224992   0.551   6.260   0.682
 8343TIP3    H124993   0.557   6.267   0.587
 8343TIP3    H224994   0.480   6.320   0.706
 8344TIP3   OH224995   0.607   1.740   5.120
 8344TIP3    H124996   0.570   1.775   5.039
 8344TIP3    H224997   0.701   1.732   5.102
 8345TIP3   OH224998   0.366   1.536   0.441
 8345TIP3    H124999   0.322   1.484   0.509
 8345TIP3    H225000   0.322   1.511   0.360
 8346TIP3   OH225001   2.558   4.007   4.104
 8346TIP3    H125002   2.646   3.985   4.074
 8346TIP3    H225003   2.501   3.943   4.062
 8347TIP3   OH225004   6.404   5.581   1.981
 8347TIP3    H125005   6.356   5.645   1.928
 8347TIP3    H225006   6.379   5.600   2.071
 8348TIP3   OH225007   0.018   0.144   5.243
 8348TIP3    H125008  -0.032   0.106   5.171
 8348TIP3    H225009   0.089   0.081   5.259
 8349TIP3   OH225010   0.020   5.703   5.308
 8349TIP3    H125011  -0.067   5.742   5.313
 8349TIP3    H225012   0.080   5.775   5.326
 8350TIP3   OH225013   0.628   3.794   4.103
 8350TIP3    H125014   0.666   3.878   4.074
 8350TIP3    H225015   0.638   3.796   4.198
 8351TIP3   OH225016   0.424   3.763   5.692
 8351TIP3    H125017   0.363   3.798   5.627
 8351TIP3    H225018   0.400   3.671   5.701
 8352TIP3   OH225019   1.878   0.214   3.398
 8352TIP3    H125020   1.884   0.270   3.321
 8352TIP3    H225021   1.852   0.129   3.364
 8353TIP3   OH225022   5.064   2.268   4.819
 8353TIP3    H125023   4.985   2.213   4.817
 8353TIP3    H225024   5.033   2.352   4.853
 8354TIP3   OH225025   5.749   4.364   2.619
 8354TIP3    H125026   5.689   4.438   2.614
 8354TIP3    H225027   5.740   4.332   2.709
 8355TIP3   OH225028   5.110   1.184   3.159
 8355TIP3    H125029   5.122   1.089   3.149
 8355TIP3    H225030   5.120   1.219   3.071
 8356TIP3   OH225031   4.277   4.928   1.297
 8356TIP3    H125032   4.247   4.968   1.215
 8356TIP3    H225033   4.344   4.989   1.330
 8357TIP3   OH225034   4.837   4.369   1.743
 8357TIP3    H125035   4.798   4.456   1.741
 8357TIP3    H225036   4.876   4.358   1.656
 8358TIP3   OH225037   1.803   4.874   1.872
 8358TIP3    H125038   1.724   4.928   1.872
 8358TIP3    H225039   1.780   4.798   1.925
 8359TIP3   OH225040   5.414   1.398   3.121
 8359TIP3    H125041   5.356   1.418   3.195
 8359TIP3    H225042   5.446   1.310   3.140
 8360TIP3   OH225043   5.803   5.730   4.989
 8360TIP3    H125044   5.794   5.703   5.081
 8360TIP3    H225045   5.876   5.677   4.956
 8361TIP3   OH225046   1.575   4.391   5.778
 8361TIP3    H125047   1.504   4.437   5.734
 8361TIP3    H225048   1.654   4.438   5.750
 8362TIP3   OH225049   3.071   1.476   2.940
 8362TIP3    H125050   2.986   1.435   2.924
 8362TIP3    H225051   3.120   1.463   2.859
 8363TIP3   OH225052   4.918   4.247   1.464
 8363TIP3    H125053   4.839   4.264   1.414
 8363TIP3    H225054   4.985   4.229   1.398
 8364TIP3   OH225055   0.896   0.191   0.779
 8364TIP3    H125056   0.832   0.228   0.840
 8364TIP3    H225057   0.860   0.211   0.692
 8365TIP3   OH225058   5.584   0.728   1.840
 8365TIP3    H125059   5.658   0.786   1.825
 8365TIP3    H225060   5.601   0.653   1.783
 8366TIP3   OH225061   7.248   0.044   3.414
 8366TIP3    H125062   7.249  -0.051   3.409
 8366TIP3    H225063   7.220   0.073   3.327
 8367TIP3   OH225064   4.727   4.584   4.399
 8367TIP3    H125065   4.646   4.540   4.425
 8367TIP3    H225066   4.698   4.665   4.358
 8368TIP3   OH225067   5.454   6.093   3.924
 8368TIP3    H125068   5.361   6.072   3.911
 8368TIP3    H225069   5.453   6.176   3.972
 8369TIP3   OH225070   4.967   5.985   4.816
 8369TIP3    H125071   4.964   5.925   4.890
 8369TIP3    H225072   4.958   6.072   4.855
 8370TIP3   OH225073   2.247   5.801   0.962
 8370TIP3    H125074   2.299   5.724   0.937
 8370TIP3    H225075   2.217   5.782   1.050
 8371TIP3   OH225076   4.116   3.263   2.795
 8371TIP3    H125077   4.150   3.325   2.859
 8371TIP3    H225078   4.022   3.281   2.792
 8372TIP3   OH225079   6.196   6.385   2.619
 8372TIP3    H125080   6.285   6.394   2.653
 8372TIP3    H225081   6.140   6.410   2.692
 8373TIP3   OH225082   6.976   3.803   0.537
 8373TIP3    H125083   6.934   3.783   0.620
 8373TIP3    H225084   7.066   3.826   0.560
 8374TIP3   OH225085   5.783   2.230   1.734
 8374TIP3    H125086   5.704   2.272   1.768
 8374TIP3    H225087   5.818   2.181   1.808
 8375TIP3   OH225088   5.540   2.079   5.202
 8375TIP3    H125089   5.497   2.010   5.152
 8375TIP3    H225090   5.524   2.159   5.151
 8376TIP3   OH225091   0.812   4.875   5.563
 8376TIP3    H125092   0.769   4.814   5.622
 8376TIP3    H225093   0.794   4.840   5.475
 8377TIP3   OH225094   2.112   5.052   0.530
 8377TIP3    H125095   2.030   5.061   0.481
 8377TIP3    H225096   2.103   4.968   0.576
 8378TIP3   OH225097   1.645   0.180   1.902
 8378TIP3    H125098   1.593   0.184   1.822
 8378TIP3    H225099   1.640   0.088   1.929
 8379TIP3   OH225100   1.523   3.907   1.452
 8379TIP3    H125101   1.474   3.826   1.434
 8379TIP3    H225102   1.571   3.888   1.532
 8380TIP3   OH225103   4.936   6.202   5.609
 8380TIP3    H125104   4.872   6.238   5.670
 8380TIP3    H225105   4.898   6.218   5.522
 8381TIP3   OH225106   2.806   4.182   3.297
 8381TIP3    H125107   2.719   4.147   3.317
 8381TIP3    H225108   2.832   4.136   3.217
 8382TIP3   OH225109   4.002   2.811   2.328
 8382TIP3    H125110   3.954   2.847   2.403
 8382TIP3    H225111   4.078   2.868   2.319
 8383TIP3   OH225112   5.017   6.596   4.968
 8383TIP3    H125113   4.946   6.536   4.988
 8383TIP3    H225114   5.014   6.607   4.874
 8384TIP3   OH225115   2.799   5.075   5.893
 8384TIP3    H125116   2.823   5.155   5.847
 8384TIP3    H225117   2.717   5.048   5.853
 8385TIP3   OH225118   2.585   4.142   4.348
 8385TIP3    H125119   2.679   4.148   4.366
 8385TIP3    H225120   2.579   4.095   4.265
 8386TIP3   OH225121   5.693   3.194   3.221
 8386TIP3    H125122   5.613   3.244   3.205
 8386TIP3    H225123   5.703   3.140   3.142
 8387TIP3   OH225124   3.485   4.789   0.880
 8387TIP3    H125125   3.566   4.839   0.883
 8387TIP3    H225126   3.452   4.791   0.970
 8388TIP3   OH225127   1.883   1.086   4.750
 8388TIP3    H125128   1.869   1.171   4.791
 8388TIP3    H225129   1.812   1.031   4.782
 8389TIP3   OH225130   2.948   5.098   0.200
 8389TIP3    H125131   2.923   5.006   0.191
 8389TIP3    H225132   3.043   5.098   0.192
 8390TIP3   OH225133   4.834   3.149   2.196
 8390TIP3    H125134   4.907   3.188   2.150
 8390TIP3    H225135   4.836   3.057   2.170
 8391TIP3   OH225136   2.006   0.464   4.509
 8391TIP3    H125137   2.083   0.420   4.545
 8391TIP3    H225138   2.018   0.461   4.414
 8392TIP3   OH225139   4.618   0.671   0.414
 8392TIP3    H125140   4.581   0.751   0.452
 8392TIP3    H225141   4.672   0.701   0.341
 8393TIP3   OH225142   4.438   1.879   3.558
 8393TIP3    H125143   4.413   1.948   3.621
 8393TIP3    H225144   4.359   1.825   3.550
 8394TIP3   OH225145   1.980   5.655   4.416
 8394TIP3    H125146   2.011   5.668   4.326
 8394TIP3    H225147   1.900   5.603   4.406
 8395TIP3   OH225148   5.054   5.729   3.658
 8395TIP3    H125149   4.966   5.761   3.677
 8395TIP3    H225150   5.095   5.719   3.743
 8396TIP3   OH225151   2.611   2.688   3.387
 8396TIP3    H125152   2.598   2.603   3.428
 8396TIP3    H225153   2.535   2.699   3.330
 8397TIP3   OH225154   1.624   3.314   2.221
 8397TIP3    H125155   1.677   3.265   2.159
 8397TIP3    H225156   1.685   3.338   2.291
 8398TIP3   OH225157   5.216   4.921   4.484
 8398TIP3    H125158   5.159   4.851   4.453
 8398TIP3    H225159   5.156   4.990   4.513
 8399TIP3   OH225160   1.788   4.895   4.976
 8399TIP3    H125161   1.839   4.974   4.959
 8399TIP3    H225162   1.800   4.877   5.069
 8400TIP3   OH225163   5.525   4.583   3.863
 8400TIP3    H125164   5.618   4.603   3.873
 8400TIP3    H225165   5.500   4.623   3.780
 8401TIP3   OH225166   4.374   6.334   4.805
 8401TIP3    H125167   4.289   6.293   4.821
 8401TIP3    H225168   4.437   6.264   4.820
 8402TIP3   OH225169   6.363   4.930   3.813
 8402TIP3    H125170   6.370   5.026   3.821
 8402TIP3    H225171   6.291   4.916   3.751
 8403TIP3   OH225172   4.715   4.912   1.862
 8403TIP3    H125173   4.623   4.890   1.852
 8403TIP3    H225174   4.759   4.867   1.791
 8404TIP3   OH225175   7.148   4.601   5.578
 8404TIP3    H125176   7.216   4.539   5.605
 8404TIP3    H225177   7.175   4.685   5.616
 8405TIP3   OH225178   0.531   1.076   2.494
 8405TIP3    H125179   0.476   1.154   2.503
 8405TIP3    H225180   0.601   1.089   2.557
 8406TIP3   OH225181   0.249   6.020   4.871
 8406TIP3    H125182   0.296   6.102   4.887
 8406TIP3    H225183   0.313   5.963   4.829
 8407TIP3   OH225184   5.277   1.916   4.153
 8407TIP3    H125185   5.371   1.924   4.138
 8407TIP3    H225186   5.256   1.826   4.128
 8408TIP3   OH225187   2.642   0.491   4.202
 8408TIP3    H125188   2.602   0.405   4.219
 8408TIP3    H225189   2.736   0.475   4.205
 8409TIP3   OH225190   2.264   2.777   4.293
 8409TIP3    H125191   2.182   2.775   4.343
 8409TIP3    H225192   2.320   2.713   4.337
 8410TIP3   OH225193   6.786   6.232   5.622
 8410TIP3    H125194   6.796   6.192   5.536
 8410TIP3    H225195   6.700   6.201   5.653
 8411TIP3   OH225196   0.510   1.148   3.239
 8411TIP3    H125197   0.481   1.151   3.148
 8411TIP3    H225198   0.600   1.182   3.237
 8412TIP3   OH225199   0.076   3.570   2.130
 8412TIP3    H125200  -0.010   3.571   2.171
 8412TIP3    H225201   0.058   3.567   2.036
 8413TIP3   OH225202   5.847   0.381   4.751
 8413TIP3    H125203   5.810   0.439   4.684
 8413TIP3    H225204   5.771   0.350   4.800
 8414TIP3   OH225205   5.216   0.302   2.442
 8414TIP3    H125206   5.288   0.264   2.393
 8414TIP3    H225207   5.139   0.249   2.418
 8415TIP3   OH225208   4.667   3.948   3.853
 8415TIP3    H125209   4.748   3.965   3.805
 8415TIP3    H225210   4.637   3.864   3.819
 8416TIP3   OH225211   2.409   4.865   5.386
 8416TIP3    H125212   2.331   4.866   5.330
 8416TIP3    H225213   2.473   4.919   5.340
 8417TIP3   OH225214   6.974   5.139   0.065
 8417TIP3    H125215   7.065   5.114   0.046
 8417TIP3    H225216   6.931   5.140  -0.020
 8418TIP3   OH225217   5.054   6.673   5.555
 8418TIP3    H125218   4.989   6.694   5.622
 8418TIP3    H225219   5.098   6.595   5.589
 8419TIP3   OH225220   4.297   3.486   1.873
 8419TIP3    H125221   4.249   3.496   1.955
 8419TIP3    H225222   4.387   3.466   1.899
 8420TIP3   OH225223   1.716   2.271   3.463
 8420TIP3    H125224   1.693   2.358   3.432
 8420TIP3    H225225   1.790   2.285   3.523
 8421TIP3   OH225226   3.456   3.994   1.310
 8421TIP3    H125227   3.496   4.027   1.230
 8421TIP3    H225228   3.361   3.999   1.294
 8422TIP3   OH225229   5.475   3.424   5.355
 8422TIP3    H125230   5.507   3.499   5.304
 8422TIP3    H225231   5.524   3.428   5.437
 8423TIP3   OH225232   0.502   0.391   0.492
 8423TIP3    H125233   0.468   0.302   0.494
 8423TIP3    H225234   0.467   0.429   0.411
 8424TIP3   OH225235   5.588   0.614   4.504
 8424TIP3    H125236   5.588   0.613   4.409
 8424TIP3    H225237   5.665   0.562   4.529
 8425TIP3   OH225238   5.103   1.272   2.897
 8425TIP3    H125239   5.188   1.273   2.851
 8425TIP3    H225240   5.059   1.351   2.867
 8426TIP3   OH225241   5.119   1.038   1.803
 8426TIP3    H125242   5.155   1.118   1.842
 8426TIP3    H225243   5.033   1.064   1.770
 8427TIP3   OH225244   0.039   0.763   0.068
 8427TIP3    H125245   0.078   0.815   0.138
 8427TIP3    H225246  -0.052   0.751   0.093
 8428TIP3   OH225247   4.621   1.061   1.895
 8428TIP3    H125248   4.598   1.021   1.811
 8428TIP3    H225249   4.576   1.146   1.894
 8429TIP3   OH225250   3.422   5.135   5.640
 8429TIP3    H125251   3.465   5.176   5.715
 8429TIP3    H225252   3.365   5.203   5.604
 8430TIP3   OH225253   5.266   1.316   1.649
 8430TIP3    H125254   5.302   1.404   1.662
 8430TIP3    H225255   5.203   1.306   1.721
 8431TIP3   OH225256   4.212   3.623   5.276
 8431TIP3    H125257   4.306   3.631   5.260
 8431TIP3    H225258   4.173   3.699   5.233
 8432TIP3   OH225259   0.273   0.134   5.697
 8432TIP3    H125260   0.269   0.049   5.655
 8432TIP3    H225261   0.216   0.126   5.774
 8433TIP3   OH225262   6.440   0.302   0.237
 8433TIP3    H125263   6.440   0.311   0.142
 8433TIP3    H225264   6.530   0.322   0.263
 8434TIP3   OH225265   4.499   2.741   3.309
 8434TIP3    H125266   4.565   2.672   3.303
 8434TIP3    H225267   4.548   2.823   3.298
 8435TIP3   OH225268   4.670   2.550   2.866
 8435TIP3    H125269   4.692   2.629   2.817
 8435TIP3    H225270   4.592   2.574   2.916
 8436TIP3   OH225271   7.135   0.634   1.979
 8436TIP3    H125272   7.227   0.659   1.982
 8436TIP3    H225273   7.136   0.539   1.973
 8437TIP3   OH225274   4.094   3.796   0.886
 8437TIP3    H125275   4.138   3.870   0.928
 8437TIP3    H225276   4.015   3.783   0.937
 8438TIP3   OH225277   4.634   4.259   0.420
 8438TIP3    H125278   4.540   4.278   0.417
 8438TIP3    H225279   4.645   4.208   0.500
 8439TIP3   OH225280   4.017   3.517   2.976
 8439TIP3    H125281   3.966   3.538   3.054
 8439TIP3    H225282   4.107   3.511   3.007
 8440TIP3   OH225283   4.009   1.086   4.766
 8440TIP3    H125284   3.929   1.068   4.815
 8440TIP3    H225285   4.050   1.000   4.755
 8441TIP3   OH225286   2.368   6.506   5.449
 8441TIP3    H125287   2.284   6.526   5.490
 8441TIP3    H225288   2.354   6.522   5.356
 8442TIP3   OH225289   3.858   4.228   3.633
 8442TIP3    H125290   3.937   4.281   3.622
 8442TIP3    H225291   3.820   4.224   3.545
 8443TIP3   OH225292   5.424   4.574   5.775
 8443TIP3    H125293   5.342   4.566   5.727
 8443TIP3    H225294   5.488   4.528   5.721
 8444TIP3   OH225295   4.773   5.509   2.850
 8444TIP3    H125296   4.743   5.525   2.761
 8444TIP3    H225297   4.868   5.497   2.841
 8445TIP3   OH225298   6.537   6.271   4.427
 8445TIP3    H125299   6.597   6.336   4.463
 8445TIP3    H225300   6.525   6.298   4.336
 8446TIP3   OH225301   0.462   5.946   4.252
 8446TIP3    H125302   0.471   5.860   4.294
 8446TIP3    H225303   0.520   6.004   4.301
 8447TIP3   OH225304   3.933   1.400   3.653
 8447TIP3    H125305   3.963   1.462   3.719
 8447TIP3    H225306   3.865   1.349   3.697
 8448TIP3   OH225307   3.844   1.705   2.206
 8448TIP3    H125308   3.812   1.617   2.226
 8448TIP3    H225309   3.897   1.694   2.127
 8449TIP3   OH225310   2.817   2.435   5.310
 8449TIP3    H125311   2.861   2.351   5.322
 8449TIP3    H225312   2.787   2.433   5.219
 8450TIP3   OH225313   6.130   4.805   3.355
 8450TIP3    H125314   6.111   4.713   3.372
 8450TIP3    H225315   6.068   4.830   3.286
 8451TIP3   OH225316   5.417   1.735   2.058
 8451TIP3    H125317   5.359   1.690   2.119
 8451TIP3    H225318   5.490   1.765   2.112
 8452TIP3   OH225319   2.178   5.365   4.638
 8452TIP3    H125320   2.111   5.396   4.698
 8452TIP3    H225321   2.137   5.371   4.551
 8453TIP3   OH225322   1.946   4.137   1.104
 8453TIP3    H125323   1.889   4.118   1.030
 8453TIP3    H225324   1.912   4.219   1.139
 8454TIP3   OH225325   3.303   4.420   4.458
 8454TIP3    H125326   3.233   4.465   4.411
 8454TIP3    H225327   3.359   4.491   4.491
 8455TIP3   OH225328   5.497   4.943   0.794
 8455TIP3    H125329   5.556   4.978   0.726
 8455TIP3    H225330   5.551   4.940   0.873
 8456TIP3   OH225331   0.235   6.710   5.570
 8456TIP3    H125332   0.167   6.647   5.547
 8456TIP3    H225333   0.265   6.744   5.486
 8457TIP3   OH225334   6.177   2.461   3.385
 8457TIP3    H125335   6.225   2.479   3.467
 8457TIP3    H225336   6.085   2.467   3.410
 8458TIP3   OH225337   5.682   3.001   1.382
 8458TIP3    H125338   5.688   2.910   1.353
 8458TIP3    H225339   5.641   3.047   1.308
 8459TIP3   OH225340   5.690   2.606   0.906
 8459TIP3    H125341   5.611   2.633   0.859
 8459TIP3    H225342   5.664   2.528   0.954
 8460TIP3   OH225343   4.124   0.078   1.162
 8460TIP3    H125344   4.136  -0.002   1.111
 8460TIP3    H225345   4.050   0.059   1.219
 8461TIP3   OH225346   1.564   1.094   4.342
 8461TIP3    H125347   1.563   1.114   4.436
 8461TIP3    H225348   1.485   1.043   4.328
 8462TIP3   OH225349   1.445   4.399   1.269
 8462TIP3    H125350   1.539   4.386   1.277
 8462TIP3    H225351   1.407   4.342   1.337
 8463TIP3   OH225352   0.272   2.047   2.298
 8463TIP3    H125353   0.230   2.080   2.218
 8463TIP3    H225354   0.224   1.966   2.318
 8464TIP3   OH225355   1.752   0.076   1.333
 8464TIP3    H125356   1.778  -0.015   1.322
 8464TIP3    H225357   1.776   0.118   1.250
 8465TIP3   OH225358   6.221   1.906   0.251
 8465TIP3    H125359   6.246   1.966   0.181
 8465TIP3    H225360   6.234   1.955   0.331
 8466TIP3   OH225361   3.403   4.418   3.103
 8466TIP3    H125362   3.394   4.413   3.198
 8466TIP3    H225363   3.495   4.398   3.087
 8467TIP3   OH225364   0.476   1.998   2.957
 8467TIP3    H125365   0.396   2.045   2.979
 8467TIP3    H225366   0.521   2.054   2.894
 8468TIP3   OH225367   3.792   1.280   0.104
 8468TIP3    H125368   3.734   1.320   0.040
 8468TIP3    H225369   3.865   1.341   0.112
 8469TIP3   OH225370   0.772   1.886   2.360
 8469TIP3    H125371   0.819   1.900   2.277
 8469TIP3    H225372   0.694   1.940   2.352
 8470TIP3   OH225373   1.754   3.997   2.418
 8470TIP3    H125374   1.843   4.033   2.409
 8470TIP3    H225375   1.748   3.932   2.348
 8471TIP3   OH225376   4.266   3.374   3.024
 8471TIP3    H125377   4.292   3.439   3.089
 8471TIP3    H225378   4.268   3.291   3.072
 8472TIP3   OH225379   4.266   4.683   1.155
 8472TIP3    H125380   4.360   4.676   1.139
 8472TIP3    H225381   4.259   4.738   1.233
 8473TIP3   OH225382   0.667   5.084   3.862
 8473TIP3    H125383   0.747   5.133   3.841
 8473TIP3    H225384   0.681   4.998   3.823
 8474TIP3   OH225385   5.999   3.424   1.433
 8474TIP3    H125386   6.058   3.371   1.487
 8474TIP3    H225387   5.943   3.360   1.388
 8475TIP3   OH225388   6.013   3.257   3.194
 8475TIP3    H125389   5.966   3.233   3.114
 8475TIP3    H225390   6.097   3.212   3.187
 8476TIP3   OH225391   3.373   6.454   4.980
 8476TIP3    H125392   3.445   6.509   5.009
 8476TIP3    H225393   3.294   6.500   5.008
 8477TIP3   OH225394   3.873   1.621   0.835
 8477TIP3    H125395   3.961   1.589   0.853
 8477TIP3    H225396   3.815   1.556   0.876
 8478TIP3   OH225397   0.956   6.519   1.999
 8478TIP3    H125398   0.906   6.568   2.065
 8478TIP3    H225399   1.029   6.481   2.048
 8479TIP3   OH225400   2.131   0.352   5.107
 8479TIP3    H125401   2.141   0.260   5.081
 8479TIP3    H225402   2.038   0.371   5.093
 8480TIP3   OH225403   0.426   3.587   0.155
 8480TIP3    H125404   0.457   3.499   0.176
 8480TIP3    H225405   0.423   3.589   0.059
 8481TIP3   OH225406   3.684   2.925   4.494
 8481TIP3    H125407   3.696   2.865   4.567
 8481TIP3    H225408   3.726   3.006   4.522
 8482TIP3   OH225409   3.101   6.060   2.370
 8482TIP3    H125410   3.196   6.059   2.354
 8482TIP3    H225411   3.066   6.112   2.297
 8483TIP3   OH225412   5.720   4.995   1.745
 8483TIP3    H125413   5.812   4.975   1.730
 8483TIP3    H225414   5.720   5.064   1.811
 8484TIP3   OH225415   0.467   5.047   3.571
 8484TIP3    H125416   0.520   4.968   3.585
 8484TIP3    H225417   0.377   5.018   3.587
 8485TIP3   OH225418   2.298   4.473   1.407
 8485TIP3    H125419   2.263   4.561   1.392
 8485TIP3    H225420   2.382   4.488   1.450
 8486TIP3   OH225421   7.085   3.764   1.634
 8486TIP3    H125422   7.007   3.774   1.689
 8486TIP3    H225423   7.057   3.706   1.563
 8487TIP3   OH225424   1.376   5.485   3.731
 8487TIP3    H125425   1.303   5.439   3.689
 8487TIP3    H225426   1.408   5.545   3.663
 8488TIP3   OH225427   2.417   5.122   1.172
 8488TIP3    H125428   2.360   5.045   1.184
 8488TIP3    H225429   2.373   5.192   1.219
 8489TIP3   OH225430   2.818   1.850   0.490
 8489TIP3    H125431   2.743   1.839   0.549
 8489TIP3    H225432   2.839   1.943   0.495
 8490TIP3   OH225433   4.945   5.946   2.673
 8490TIP3    H125434   4.936   5.925   2.766
 8490TIP3    H225435   4.994   6.028   2.672
 8491TIP3   OH225436   6.702   4.091   2.377
 8491TIP3    H125437   6.692   4.024   2.444
 8491TIP3    H225438   6.653   4.166   2.411
 8492TIP3   OH225439   5.120   1.145   4.703
 8492TIP3    H125440   5.081   1.076   4.650
 8492TIP3    H225441   5.189   1.182   4.649
 8493TIP3   OH225442   3.864   1.770   4.909
 8493TIP3    H125443   3.836   1.862   4.910
 8493TIP3    H225444   3.786   1.721   4.936
 8494TIP3   OH225445   6.146   2.161   1.766
 8494TIP3    H125446   6.097   2.210   1.699
 8494TIP3    H225447   6.079   2.128   1.825
 8495TIP3   OH225448   2.984   1.460   3.501
 8495TIP3    H125449   2.908   1.425   3.547
 8495TIP3    H225450   3.052   1.465   3.568
 8496TIP3   OH225451   3.308   3.268   3.273
 8496TIP3    H125452   3.403   3.275   3.284
 8496TIP3    H225453   3.282   3.200   3.335
 8497TIP3   OH225454   1.821   0.980   3.189
 8497TIP3    H125455   1.878   0.993   3.264
 8497TIP3    H225456   1.781   1.067   3.174
 8498TIP3   OH225457   6.315   4.941   1.935
 8498TIP3    H125458   6.317   4.849   1.963
 8498TIP3    H225459   6.223   4.966   1.941
 8499TIP3   OH225460   3.734   4.939   0.431
 8499TIP3    H125461   3.682   4.935   0.512
 8499TIP3    H225462   3.677   4.903   0.364
 8500TIP3   OH225463   4.252   3.998   3.353
 8500TIP3    H125464   4.171   4.036   3.318
 8500TIP3    H225465   4.314   4.002   3.279
 8501TIP3   OH225466   6.639   4.628   4.200
 8501TIP3    H125467   6.730   4.654   4.186
 8501TIP3    H225468   6.601   4.701   4.250
 8502TIP3   OH225469   3.883   0.841   0.641
 8502TIP3    H125470   3.946   0.773   0.664
 8502TIP3    H225471   3.928   0.895   0.577
 8503TIP3   OH225472   3.594   2.568   0.387
 8503TIP3    H125473   3.644   2.558   0.469
 8503TIP3    H225474   3.518   2.621   0.412
 8504TIP3   OH225475   3.796   2.778   5.305
 8504TIP3    H125476   3.870   2.790   5.247
 8504TIP3    H225477   3.722   2.820   5.261
 8505TIP3   OH225478   2.774   3.772   0.069
 8505TIP3    H125479   2.769   3.723  -0.013
 8505TIP3    H225480   2.843   3.836   0.055
 8506TIP3   OH225481   4.314   2.911   3.010
 8506TIP3    H125482   4.384   2.976   2.999
 8506TIP3    H225483   4.306   2.901   3.105
 8507TIP3   OH225484   4.855   5.864   4.314
 8507TIP3    H125485   4.946   5.838   4.330
 8507TIP3    H225486   4.814   5.785   4.277
 8508TIP3   OH225487   1.065   1.350   1.013
 8508TIP3    H125488   1.000   1.411   1.048
 8508TIP3    H225489   1.115   1.402   0.950
 8509TIP3   OH225490   4.045   2.325   0.913
 8509TIP3    H125491   3.996   2.285   0.986
 8509TIP3    H225492   4.131   2.344   0.951
 8510TIP3   OH225493   4.528   0.274   0.958
 8510TIP3    H125494   4.485   0.236   1.035
 8510TIP3    H225495   4.604   0.218   0.943
 8511TIP3   OH225496   6.036   3.799   1.061
 8511TIP3    H125497   5.953   3.793   1.109
 8511TIP3    H225498   6.086   3.722   1.088
 8512TIP3   OH225499   0.063   1.725   4.156
 8512TIP3    H125500  -0.031   1.720   4.173
 8512TIP3    H225501   0.091   1.633   4.152
 8513TIP3   OH225502   0.525   3.943   4.541
 8513TIP3    H125503   0.434   3.952   4.515
 8513TIP3    H225504   0.530   3.859   4.585
 8514TIP3   OH225505   0.070   3.394   2.376
 8514TIP3    H125506   0.002   3.378   2.441
 8514TIP3    H225507   0.099   3.483   2.393
 8515TIP3   OH225508   0.008   0.963   0.557
 8515TIP3    H125509   0.040   1.039   0.605
 8515TIP3    H225510   0.084   0.904   0.552
 8516TIP3   OH225511   5.348   5.580   3.613
 8516TIP3    H125512   5.432   5.582   3.567
 8516TIP3    H225513   5.284   5.611   3.548
 8517TIP3   OH225514   1.059   0.473   5.537
 8517TIP3    H125515   1.098   0.467   5.624
 8517TIP3    H225516   1.129   0.449   5.477
 8518TIP3   OH225517   0.451   2.516   2.685
 8518TIP3    H125518   0.485   2.530   2.774
 8518TIP3    H225519   0.483   2.590   2.635
 8519TIP3   OH225520   5.115   5.856   3.205
 8519TIP3    H125521   5.094   5.941   3.166
 8519TIP3    H225522   5.144   5.802   3.132
 8520TIP3   OH225523   1.640   6.338   4.091
 8520TIP3    H125524   1.587   6.377   4.021
 8520TIP3    H225525   1.690   6.269   4.048
 8521TIP3   OH225526   0.109   5.934   0.900
 8521TIP3    H125527   0.182   5.996   0.897
 8521TIP3    H225528   0.108   5.902   0.990
 8522TIP3   OH225529   3.612   2.937   2.358
 8522TIP3    H125530   3.538   2.975   2.404
 8522TIP3    H225531   3.576   2.863   2.310
 8523TIP3   OH225532   6.379   4.049   3.762
 8523TIP3    H125533   6.444   3.996   3.807
 8523TIP3    H225534   6.300   3.995   3.761
 8524TIP3   OH225535   7.042   6.487   0.412
 8524TIP3    H125536   7.121   6.539   0.419
 8524TIP3    H225537   6.988   6.533   0.348
 8525TIP3   OH225538   2.336   2.836   3.597
 8525TIP3    H125539   2.324   2.742   3.585
 8525TIP3    H225540   2.403   2.843   3.665
 8526TIP3   OH225541   6.858   2.798   2.888
 8526TIP3    H125542   6.896   2.821   2.803
 8526TIP3    H225543   6.764   2.792   2.871
 8527TIP3   OH225544   2.913   2.119   2.191
 8527TIP3    H125545   2.830   2.081   2.221
 8527TIP3    H225546   2.934   2.070   2.112
 8528TIP3   OH225547   6.241   5.366   4.932
 8528TIP3    H125548   6.326   5.329   4.906
 8528TIP3    H225549   6.210   5.307   5.001
 8529TIP3   OH225550   4.529   0.442   3.935
 8529TIP3    H125551   4.500   0.354   3.956
 8529TIP3    H225552   4.516   0.450   3.841
 8530TIP3   OH225553   0.843   3.091   4.811
 8530TIP3    H125554   0.799   3.026   4.757
 8530TIP3    H225555   0.859   3.164   4.751
 8531TIP3   OH225556   5.280   6.737   2.284
 8531TIP3    H125557   5.308   6.704   2.199
 8531TIP3    H225558   5.209   6.799   2.263
 8532TIP3   OH225559   0.815   2.531   3.180
 8532TIP3    H125560   0.882   2.465   3.160
 8532TIP3    H225561   0.795   2.571   3.095
 8533TIP3   OH225562   1.796   2.499   0.079
 8533TIP3    H125563   1.836   2.562   0.020
 8533TIP3    H225564   1.869   2.455   0.122
 8534TIP3   OH225565   2.237   4.566   1.820
 8534TIP3    H125566   2.330   4.589   1.820
 8534TIP3    H225567   2.196   4.633   1.875
 8535TIP3   OH225568   2.123   3.546   5.739
 8535TIP3    H125569   2.202   3.570   5.787
 8535TIP3    H225570   2.099   3.625   5.690
 8536TIP3   OH225571   6.217   1.491   1.197
 8536TIP3    H125572   6.209   1.518   1.289
 8536TIP3    H225573   6.297   1.439   1.194
 8537TIP3   OH225574   4.297   2.093   3.140
 8537TIP3    H125575   4.380   2.055   3.168
 8537TIP3    H225576   4.261   2.031   3.078
 8538TIP3   OH225577   6.667   3.334   5.755
 8538TIP3    H125578   6.730   3.312   5.687
 8538TIP3    H225579   6.687   3.425   5.778
 8539TIP3   OH225580   0.765   4.633   1.954
 8539TIP3    H125581   0.804   4.668   2.035
 8539TIP3    H225582   0.766   4.707   1.893
 8540TIP3   OH225583   0.413   1.825   4.600
 8540TIP3    H125584   0.485   1.887   4.592
 8540TIP3    H225585   0.455   1.739   4.591
 8541TIP3   OH225586   5.276   3.450   0.043
 8541TIP3    H125587   5.299   3.473   0.133
 8541TIP3    H225588   5.287   3.355   0.039
 8542TIP3   OH225589   2.873   4.923   3.027
 8542TIP3    H125590   2.912   4.896   3.110
 8542TIP3    H225591   2.827   5.005   3.047
 8543TIP3   OH225592   5.497   0.991   2.151
 8543TIP3    H125593   5.406   1.002   2.179
 8543TIP3    H225594   5.511   1.061   2.088
 8544TIP3   OH225595   5.661   1.477   5.542
 8544TIP3    H125596   5.575   1.502   5.575
 8544TIP3    H225597   5.643   1.418   5.469
 8545TIP3   OH225598   5.245   2.146   4.295
 8545TIP3    H125599   5.258   2.223   4.239
 8545TIP3    H225600   5.254   2.071   4.235
 8546TIP3   OH225601   1.107   3.948   2.886
 8546TIP3    H125602   1.151   4.033   2.882
 8546TIP3    H225603   1.123   3.916   2.975
 8547TIP3   OH225604   6.455   0.175   2.737
 8547TIP3    H125605   6.360   0.178   2.744
 8547TIP3    H225606   6.473   0.115   2.665
 8548TIP3   OH225607   6.326   2.866   5.571
 8548TIP3    H125608   6.403   2.908   5.609
 8548TIP3    H225609   6.253   2.917   5.603
 8549TIP3   OH225610   6.958   4.950   3.347
 8549TIP3    H125611   6.956   5.017   3.415
 8549TIP3    H225612   6.867   4.923   3.338
 8550TIP3   OH225613   5.513   4.498   4.827
 8550TIP3    H125614   5.494   4.447   4.906
 8550TIP3    H225615   5.513   4.434   4.757
 8551TIP3   OH225616   5.237   1.464   3.335
 8551TIP3    H125617   5.279   1.499   3.413
 8551TIP3    H225618   5.153   1.509   3.329
 8552TIP3   OH225619   0.996   5.540   2.914
 8552TIP3    H125620   1.069   5.538   2.852
 8552TIP3    H225621   0.993   5.451   2.949
 8553TIP3   OH225622   1.189   4.561   5.231
 8553TIP3    H125623   1.173   4.509   5.310
 8553TIP3    H225624   1.168   4.650   5.256
 8554TIP3   OH225625   6.106   1.059   3.112
 8554TIP3    H125626   6.129   1.055   3.019
 8554TIP3    H225627   6.013   1.084   3.112
 8555TIP3   OH225628   5.344   6.313   2.751
 8555TIP3    H125629   5.339   6.300   2.656
 8555TIP3    H225630   5.399   6.390   2.762
 8556TIP3   OH225631   3.677   3.524   3.393
 8556TIP3    H125632   3.605   3.587   3.395
 8556TIP3    H225633   3.680   3.493   3.303
 8557TIP3   OH225634   5.603   3.923   5.215
 8557TIP3    H125635   5.558   3.840   5.203
 8557TIP3    H225636   5.696   3.899   5.225
 8558TIP3   OH225637   6.608   0.388   1.345
 8558TIP3    H125638   6.692   0.390   1.299
 8558TIP3    H225639   6.572   0.476   1.333
 8559TIP3   OH225640   5.085   4.746   3.927
 8559TIP3    H125641   5.036   4.682   3.875
 8559TIP3    H225642   5.039   4.749   4.011
 8560TIP3   OH225643   5.302   4.087   4.519
 8560TIP3    H125644   5.218   4.056   4.486
 8560TIP3    H225645   5.341   4.133   4.445
 8561TIP3   OH225646   3.972   5.633   2.176
 8561TIP3    H125647   4.055   5.649   2.221
 8561TIP3    H225648   3.926   5.716   2.180
 8562TIP3   OH225649   2.234   6.070   3.349
 8562TIP3    H125650   2.156   6.121   3.373
 8562TIP3    H225651   2.261   6.106   3.265
 8563TIP3   OH225652   2.013   1.213   5.058
 8563TIP3    H125653   2.054   1.228   4.973
 8563TIP3    H225654   1.963   1.132   5.047
 8564TIP3   OH225655   2.540   2.885   3.766
 8564TIP3    H125656   2.523   2.894   3.860
 8564TIP3    H225657   2.561   2.974   3.737
 8565TIP3   OH225658   5.078   4.897   5.186
 8565TIP3    H125659   5.135   4.820   5.175
 8565TIP3    H225660   5.106   4.957   5.117
 8566TIP3   OH225661   3.497   3.442   1.444
 8566TIP3    H125662   3.557   3.373   1.472
 8566TIP3    H225663   3.544   3.524   1.461
 8567TIP3   OH225664   0.538   0.072   2.700
 8567TIP3    H125665   0.609   0.052   2.761
 8567TIP3    H225666   0.481   0.131   2.748
 8568TIP3   OH225667   0.543   3.276   1.218
 8568TIP3    H125668   0.599   3.246   1.146
 8568TIP3    H225669   0.598   3.267   1.296
 8569TIP3   OH225670   0.481   3.126   4.832
 8569TIP3    H125671   0.543   3.117   4.759
 8569TIP3    H225672   0.415   3.188   4.800
 8570TIP3   OH225673   2.763   5.140   0.943
 8570TIP3    H125674   2.740   5.220   0.896
 8570TIP3    H225675   2.796   5.081   0.875
 8571TIP3   OH225676   1.274   5.622   1.161
 8571TIP3    H125677   1.308   5.573   1.236
 8571TIP3    H225678   1.180   5.622   1.173
 8572TIP3   OH225679   4.347   2.773   4.243
 8572TIP3    H125680   4.251   2.770   4.234
 8572TIP3    H225681   4.365   2.713   4.316
 8573TIP3   OH225682   1.016   0.435   0.770
 8573TIP3    H125683   1.064   0.377   0.711
 8573TIP3    H225684   0.979   0.376   0.836
 8574TIP3   OH225685   2.309   2.264   5.585
 8574TIP3    H125686   2.278   2.256   5.675
 8574TIP3    H225687   2.390   2.214   5.583
 8575TIP3   OH225688   1.791   2.902   4.282
 8575TIP3    H125689   1.852   2.976   4.281
 8575TIP3    H225690   1.707   2.940   4.307
 8576TIP3   OH225691   2.111   3.766   3.325
 8576TIP3    H125692   2.117   3.855   3.290
 8576TIP3    H225693   2.080   3.777   3.415
 8577TIP3   OH225694   5.676   2.215   0.674
 8577TIP3    H125695   5.745   2.157   0.642
 8577TIP3    H225696   5.651   2.266   0.597
 8578TIP3   OH225697   6.571   5.501   1.759
 8578TIP3    H125698   6.520   5.469   1.685
 8578TIP3    H225699   6.505   5.534   1.821
 8579TIP3   OH225700   0.269   4.127   3.234
 8579TIP3    H125701   0.278   4.192   3.304
 8579TIP3    H225702   0.240   4.178   3.158
 8580TIP3   OH225703   2.533   2.036   2.598
 8580TIP3    H125704   2.479   1.960   2.621
 8580TIP3    H225705   2.501   2.063   2.512
 8581TIP3   OH225706   5.088   6.342   4.622
 8581TIP3    H125707   5.005   6.327   4.668
 8581TIP3    H225708   5.090   6.436   4.605
 8582TIP3   OH225709   7.127   5.357   3.948
 8582TIP3    H125710   7.182   5.308   3.886
 8582TIP3    H225711   7.038   5.335   3.924
 8583TIP3   OH225712   3.396   6.085   5.715
 8583TIP3    H125713   3.459   6.037   5.768
 8583TIP3    H225714   3.439   6.168   5.695
 8584TIP3   OH225715   7.118   5.953   2.578
 8584TIP3    H125716   7.076   5.877   2.619
 8584TIP3    H225717   7.060   5.975   2.505
 8585TIP3   OH225718   4.492   2.990   2.584
 8585TIP3    H125719   4.460   3.045   2.656
 8585TIP3    H225720   4.519   3.052   2.517
 8586TIP3   OH225721   0.670   1.747   5.616
 8586TIP3    H125722   0.657   1.838   5.642
 8586TIP3    H225723   0.640   1.696   5.691
 8587TIP3   OH225724   1.116   2.342   3.563
 8587TIP3    H125725   1.111   2.436   3.582
 8587TIP3    H225726   1.164   2.338   3.480
 8588TIP3   OH225727   1.368   3.238   2.182
 8588TIP3    H125728   1.455   3.276   2.195
 8588TIP3    H225729   1.380   3.174   2.111
 8589TIP3   OH225730   0.911   5.588   4.287
 8589TIP3    H125731   0.820   5.600   4.312
 8589TIP3    H225732   0.933   5.666   4.235
 8590TIP3   OH225733   4.923   2.694   3.101
 8590TIP3    H125734   4.886   2.780   3.080
 8590TIP3    H225735   4.860   2.655   3.161
 8591TIP3   OH225736   4.863   6.626   5.761
 8591TIP3    H125737   4.925   6.553   5.754
 8591TIP3    H225738   4.854   6.641   5.855
 8592TIP3   OH225739   7.014   2.912   1.012
 8592TIP3    H125740   6.986   2.942   0.925
 8592TIP3    H225741   7.101   2.951   1.023
 8593TIP3   OH225742   3.585   1.813   4.989
 8593TIP3    H125743   3.538   1.864   5.055
 8593TIP3    H225744   3.519   1.794   4.922
 8594TIP3   OH225745   0.825   4.334   1.093
 8594TIP3    H125746   0.828   4.280   1.014
 8594TIP3    H225747   0.747   4.390   1.081
 8595TIP3   OH225748   5.848   5.355   5.108
 8595TIP3    H125749   5.845   5.260   5.092
 8595TIP3    H225750   5.828   5.394   5.023
 8596TIP3   OH225751   6.576   6.179   5.933
 8596TIP3    H125752   6.545   6.123   5.861
 8596TIP3    H225753   6.630   6.246   5.890
 8597TIP3   OH225754   1.423   4.123   5.074
 8597TIP3    H125755   1.369   4.202   5.072
 8597TIP3    H225756   1.477   4.133   5.153
 8598TIP3   OH225757   6.268   0.187   2.289
 8598TIP3    H125758   6.241   0.275   2.263
 8598TIP3    H225759   6.258   0.186   2.384
 8599TIP3   OH225760   2.872   4.017   1.935
 8599TIP3    H125761   2.878   3.922   1.924
 8599TIP3    H225762   2.836   4.049   1.852
 8600TIP3   OH225763   0.554   4.237   4.837
 8600TIP3    H125764   0.566   4.238   4.931
 8600TIP3    H225765   0.502   4.159   4.820
 8601TIP3   OH225766   3.860   1.710   0.267
 8601TIP3    H125767   3.766   1.721   0.258
 8601TIP3    H225768   3.872   1.667   0.352
 8602TIP3   OH225769   6.065   1.982   5.001
 8602TIP3    H125770   6.160   1.977   5.010
 8602TIP3    H225771   6.033   1.899   5.036
 8603TIP3   OH225772   2.113   6.532   5.540
 8603TIP3    H125773   2.036   6.489   5.503
 8603TIP3    H225774   2.128   6.487   5.623
 8604TIP3   OH225775   1.770   1.195   2.579
 8604TIP3    H125776   1.740   1.205   2.669
 8604TIP3    H225777   1.735   1.272   2.533
 8605TIP3   OH225778   3.833   2.342   0.445
 8605TIP3    H125779   3.922   2.377   0.447
 8605TIP3    H225780   3.807   2.337   0.537
 8606TIP3   OH225781   6.738   6.678   3.902
 8606TIP3    H125782   6.764   6.768   3.882
 8606TIP3    H225783   6.691   6.649   3.824
 8607TIP3   OH225784   4.233   6.705   3.800
 8607TIP3    H125785   4.245   6.781   3.744
 8607TIP3    H225786   4.184   6.738   3.876
 8608TIP3   OH225787   2.318   1.703   3.740
 8608TIP3    H125788   2.382   1.643   3.778
 8608TIP3    H225789   2.255   1.720   3.811
 8609TIP3   OH225790   0.334   0.316   1.152
 8609TIP3    H125791   0.379   0.363   1.082
 8609TIP3    H225792   0.282   0.382   1.197
 8610TIP3   OH225793   0.369   6.390   1.510
 8610TIP3    H125794   0.349   6.418   1.421
 8610TIP3    H225795   0.325   6.306   1.520
 8611TIP3   OH225796   3.462   6.235   4.036
 8611TIP3    H125797   3.415   6.315   4.011
 8611TIP3    H225798   3.394   6.168   4.038
 8612TIP3   OH225799   6.732   5.516   4.878
 8612TIP3    H125800   6.750   5.488   4.789
 8612TIP3    H225801   6.802   5.577   4.900
 8613TIP3   OH225802   3.751   3.376   3.690
 8613TIP3    H125803   3.735   3.434   3.616
 8613TIP3    H225804   3.696   3.410   3.760
 8614TIP3   OH225805   6.569   2.507   3.814
 8614TIP3    H125806   6.644   2.448   3.807
 8614TIP3    H225807   6.594   2.568   3.883
 8615TIP3   OH225808   6.983   0.846   0.454
 8615TIP3    H125809   7.052   0.884   0.509
 8615TIP3    H225810   6.978   0.755   0.481
 8616TIP3   OH225811   3.879   3.224   5.541
 8616TIP3    H125812   3.824   3.243   5.617
 8616TIP3    H225813   3.869   3.130   5.527
 8617TIP3   OH225814   4.221   3.544   5.580
 8617TIP3    H125815   4.139   3.561   5.626
 8617TIP3    H225816   4.200   3.554   5.488
 8618TIP3   OH225817   3.352   4.185   2.400
 8618TIP3    H125818   3.321   4.120   2.464
 8618TIP3    H225819   3.273   4.234   2.377
 8619TIP3   OH225820   1.948   6.151   1.192
 8619TIP3    H125821   1.883   6.117   1.253
 8619TIP3    H225822   1.899   6.176   1.114
 8620TIP3   OH225823   6.742   2.225   3.819
 8620TIP3    H125824   6.830   2.191   3.836
 8620TIP3    H225825   6.684   2.167   3.869
 8621TIP3   OH225826   0.830   3.567   2.115
 8621TIP3    H125827   0.772   3.608   2.179
 8621TIP3    H225828   0.778   3.566   2.034
 8622TIP3   OH225829   6.851   3.379   2.474
 8622TIP3    H125830   6.834   3.323   2.549
 8622TIP3    H225831   6.781   3.358   2.412
 8623TIP3   OH225832   2.922   0.059   0.786
 8623TIP3    H125833   2.929   0.148   0.821
 8623TIP3    H225834   2.991   0.011   0.832
 8624TIP3   OH225835   5.785   4.833   2.395
 8624TIP3    H125836   5.873   4.836   2.433
 8624TIP3    H225837   5.775   4.743   2.363
 8625TIP3   OH225838   6.872   2.171   2.288
 8625TIP3    H125839   6.928   2.109   2.241
 8625TIP3    H225840   6.932   2.239   2.318
 8626TIP3   OH225841   1.780   0.765   4.561
 8626TIP3    H125842   1.820   0.753   4.475
 8626TIP3    H225843   1.687   0.748   4.547
 8627TIP3   OH225844   5.788   5.951   3.615
 8627TIP3    H125845   5.770   5.904   3.534
 8627TIP3    H225846   5.710   6.004   3.630
 8628TIP3   OH225847   5.341   0.751   5.685
 8628TIP3    H125848   5.260   0.770   5.731
 8628TIP3    H225849   5.408   0.801   5.731
 8629TIP3   OH225850   2.368   6.497   2.260
 8629TIP3    H125851   2.373   6.426   2.325
 8629TIP3    H225852   2.298   6.469   2.200
 8630TIP3   OH225853   6.435   5.070   5.729
 8630TIP3    H125854   6.483   5.120   5.662
 8630TIP3    H225855   6.500   5.052   5.797
 8631TIP3   OH225856   7.104   4.713  -0.006
 8631TIP3    H125857   7.157   4.739   0.070
 8631TIP3    H225858   7.016   4.702   0.029
 8632TIP3   OH225859   4.844   5.911   5.767
 8632TIP3    H125860   4.807   5.984   5.716
 8632TIP3    H225861   4.879   5.851   5.702
 8633TIP3   OH225862   2.402   3.346   3.795
 8633TIP3    H125863   2.382   3.347   3.701
 8633TIP3    H225864   2.486   3.392   3.802
 8634TIP3   OH225865   2.304   4.638   4.364
 8634TIP3    H125866   2.356   4.569   4.323
 8634TIP3    H225867   2.218   4.599   4.377
 8635TIP3   OH225868   0.076   6.536   0.582
 8635TIP3    H125869   0.023   6.511   0.658
 8635TIP3    H225870   0.132   6.460   0.565
 8636TIP3   OH225871   0.526   2.477   4.827
 8636TIP3    H125872   0.501   2.548   4.767
 8636TIP3    H225873   0.597   2.515   4.880
 8637TIP3   OH225874   6.144   4.914   3.609
 8637TIP3    H125875   6.147   4.862   3.529
 8637TIP3    H225876   6.100   4.995   3.585
 8638TIP3   OH225877   1.561   3.613   5.500
 8638TIP3    H125878   1.594   3.532   5.460
 8638TIP3    H225879   1.639   3.667   5.511
 8639TIP3   OH225880   6.910   4.538   0.436
 8639TIP3    H125881   6.895   4.444   0.429
 8639TIP3    H225882   6.843   4.578   0.382
 8640TIP3   OH225883   0.452   3.268   3.272
 8640TIP3    H125884   0.389   3.229   3.333
 8640TIP3    H225885   0.414   3.354   3.251
 8641TIP3   OH225886   5.373   1.209   5.705
 8641TIP3    H125887   5.318   1.185   5.780
 8641TIP3    H225888   5.345   1.298   5.682
 8642TIP3   OH225889  -0.040   5.868   1.941
 8642TIP3    H125890  -0.048   5.774   1.924
 8642TIP3    H225891  -0.026   5.875   2.035
 8643TIP3   OH225892   4.950   2.811   2.754
 8643TIP3    H125893   4.969   2.761   2.833
 8643TIP3    H225894   5.017   2.880   2.751
 8644TIP3   OH225895   4.150   2.646   3.895
 8644TIP3    H125896   4.073   2.622   3.946
 8644TIP3    H225897   4.115   2.691   3.819
 8645TIP3   OH225898   5.594   0.144   2.973
 8645TIP3    H125899   5.519   0.188   2.933
 8645TIP3    H225900   5.601   0.183   3.060
 8646TIP3   OH225901   2.627   3.914   0.740
 8646TIP3    H125902   2.648   3.933   0.831
 8646TIP3    H225903   2.709   3.884   0.702
 8647TIP3   OH225904   2.737   2.158   4.641
 8647TIP3    H125905   2.676   2.158   4.567
 8647TIP3    H225906   2.814   2.112   4.609
 8648TIP3   OH225907   5.605   1.844   0.245
 8648TIP3    H125908   5.584   1.920   0.191
 8648TIP3    H225909   5.610   1.879   0.334
 8649TIP3   OH225910   6.264   0.489   5.745
 8649TIP3    H125911   6.358   0.497   5.758
 8649TIP3    H225912   6.255   0.459   5.654
 8650TIP3   OH225913   1.956   2.395   5.853
 8650TIP3    H125914   2.046   2.363   5.854
 8650TIP3    H225915   1.923   2.372   5.766
 8651TIP3   OH225916   7.050   1.885   2.382
 8651TIP3    H125917   7.024   1.936   2.459
 8651TIP3    H225918   7.004   1.802   2.392
 8652TIP3   OH225919   5.094   3.851   3.486
 8652TIP3    H125920   5.078   3.943   3.465
 8652TIP3    H225921   5.148   3.853   3.564
 8653TIP3   OH225922   1.060   5.795   4.902
 8653TIP3    H125923   1.017   5.794   4.987
 8653TIP3    H225924   1.152   5.777   4.921
 8654TIP3   OH225925   5.296   6.285   4.854
 8654TIP3    H125926   5.373   6.326   4.814
 8654TIP3    H225927   5.231   6.284   4.784
 8655TIP3   OH225928   2.989   6.498   4.917
 8655TIP3    H125929   2.959   6.443   4.989
 8655TIP3    H225930   2.989   6.440   4.841
 8656TIP3   OH225931   7.170   1.837   3.260
 8656TIP3    H125932   7.195   1.837   3.168
 8656TIP3    H225933   7.123   1.919   3.273
 8657TIP3   OH225934   1.120   5.256   2.855
 8657TIP3    H125935   1.170   5.311   2.795
 8657TIP3    H225936   1.157   5.168   2.843
 8658TIP3   OH225937   4.008   5.448   5.233
 8658TIP3    H125938   4.056   5.520   5.191
 8658TIP3    H225939   4.022   5.373   5.175
 8659TIP3   OH225940   0.943   5.675   2.394
 8659TIP3    H125941   1.005   5.731   2.347
 8659TIP3    H225942   0.860   5.723   2.391
 8660TIP3   OH225943   1.453   1.075   4.594
 8660TIP3    H125944   1.385   1.015   4.562
 8660TIP3    H225945   1.467   1.049   4.684
 8661TIP3   OH225946   4.245   1.102   2.022
 8661TIP3    H125947   4.316   1.149   2.066
 8661TIP3    H225948   4.279   1.013   2.010
 8662TIP3   OH225949   0.668   5.668   4.079
 8662TIP3    H125950   0.660   5.579   4.043
 8662TIP3    H225951   0.753   5.699   4.049
 8663TIP3   OH225952   4.210   1.698   3.224
 8663TIP3    H125953   4.260   1.621   3.198
 8663TIP3    H225954   4.210   1.696   3.320
 8664TIP3   OH225955   6.721   3.675   2.117
 8664TIP3    H125956   6.784   3.604   2.130
 8664TIP3    H225957   6.682   3.657   2.031
 8665TIP3   OH225958   2.473   2.724   0.270
 8665TIP3    H125959   2.544   2.757   0.325
 8665TIP3    H225960   2.419   2.672   0.329
 8666TIP3   OH225961   1.959   3.614   5.220
 8666TIP3    H125962   1.961   3.573   5.134
 8666TIP3    H225963   1.872   3.651   5.228
 8667TIP3   OH225964   6.287   0.957   1.902
 8667TIP3    H125965   6.296   0.979   1.994
 8667TIP3    H225966   6.196   0.977   1.881
 8668TIP3   OH225967   7.043   4.961   2.576
 8668TIP3    H125968   6.987   4.932   2.505
 8668TIP3    H225969   6.983   4.973   2.651
 8669TIP3   OH225970   4.885   2.287   0.092
 8669TIP3    H125971   4.887   2.305  -0.002
 8669TIP3    H225972   4.795   2.260   0.110
 8670TIP3   OH225973   0.326   4.248   4.529
 8670TIP3    H125974   0.371   4.322   4.570
 8670TIP3    H225975   0.363   4.242   4.441
 8671TIP3   OH225976   0.117   4.678   5.362
 8671TIP3    H125977   0.027   4.709   5.351
 8671TIP3    H225978   0.111   4.610   5.430
 8672TIP3   OH225979   1.168   6.199   5.842
 8672TIP3    H125980   1.210   6.217   5.926
 8672TIP3    H225981   1.230   6.144   5.795
 8673TIP3   OH225982   6.105   3.521   3.686
 8673TIP3    H125983   6.017   3.559   3.691
 8673TIP3    H225984   6.142   3.556   3.606
 8674TIP3   OH225985   7.112   2.037   5.372
 8674TIP3    H125986   7.200   2.075   5.371
 8674TIP3    H225987   7.059   2.101   5.418
 8675TIP3   OH225988   1.530   6.078   0.282
 8675TIP3    H125989   1.508   6.106   0.194
 8675TIP3    H225990   1.561   5.987   0.272
 8676TIP3   OH225991   5.211   3.165   1.876
 8676TIP3    H125992   5.244   3.174   1.786
 8676TIP3    H225993   5.233   3.075   1.901
 8677TIP3   OH225994   2.824   5.560   0.632
 8677TIP3    H125995   2.869   5.507   0.698
 8677TIP3    H225996   2.821   5.648   0.670
 8678TIP3   OH225997   1.550   6.346   4.679
 8678TIP3    H125998   1.603   6.312   4.751
 8678TIP3    H225999   1.561   6.441   4.683
 8679TIP3   OH226000   7.162   6.164   2.769
 8679TIP3    H126001   7.085   6.214   2.743
 8679TIP3    H226002   7.158   6.084   2.717
 8680TIP3   OH226003   2.901   2.353   2.000
 8680TIP3    H126004   2.983   2.335   1.953
 8680TIP3    H226005   2.895   2.283   2.065
 8681TIP3   OH226006   2.383   6.636   4.912
 8681TIP3    H126007   2.382   6.585   4.831
 8681TIP3    H226008   2.470   6.676   4.913
 8682TIP3   OH226009   1.758   2.278   2.987
 8682TIP3    H126010   1.774   2.358   3.037
 8682TIP3    H226011   1.692   2.230   3.038
 8683TIP3   OH226012   0.120   0.976   0.233
 8683TIP3    H126013   0.148   0.970   0.325
 8683TIP3    H226014   0.195   1.013   0.187
 8684TIP3   OH226015   3.304   5.000   2.427
 8684TIP3    H126016   3.286   4.913   2.390
 8684TIP3    H226017   3.222   5.047   2.418
 8685TIP3   OH226018   5.789   4.404   1.532
 8685TIP3    H126019   5.814   4.403   1.440
 8685TIP3    H226020   5.762   4.495   1.548
 8686TIP3   OH226021   5.758   1.260   1.782
 8686TIP3    H126022   5.735   1.352   1.794
 8686TIP3    H226023   5.843   1.262   1.738
 8687TIP3   OH226024   2.755   2.149   3.618
 8687TIP3    H126025   2.676   2.101   3.646
 8687TIP3    H226026   2.729   2.192   3.537
 8688TIP3   OH226027   3.446   2.619   3.288
 8688TIP3    H126028   3.407   2.577   3.212
 8688TIP3    H226029   3.469   2.547   3.347
 8689TIP3   OH226030   4.846   4.623   4.647
 8689TIP3    H126031   4.788   4.594   4.577
 8689TIP3    H226032   4.904   4.687   4.605
 8690TIP3   OH226033   6.015   3.028   0.216
 8690TIP3    H126034   6.053   2.940   0.209
 8690TIP3    H226035   5.922   3.013   0.234
 8691TIP3   OH226036   0.477   2.096   2.656
 8691TIP3    H126037   0.523   2.166   2.703
 8691TIP3    H226038   0.511   2.099   2.567
 8692TIP3   OH226039   4.528   4.458   1.170
 8692TIP3    H126040   4.448   4.427   1.127
 8692TIP3    H226041   4.498   4.492   1.254
 8693TIP3   OH226042   4.094   1.898   5.688
 8693TIP3    H126043   4.145   1.975   5.663
 8693TIP3    H226044   4.005   1.931   5.701
 8694TIP3   OH226045   6.887   4.482   5.555
 8694TIP3    H126046   6.976   4.514   5.568
 8694TIP3    H226047   6.882   4.404   5.611
 8695TIP3   OH226048   1.412   5.653   1.709
 8695TIP3    H126049   1.372   5.588   1.651
 8695TIP3    H226050   1.355   5.729   1.701
 8696TIP3   OH226051   1.470   2.463   5.203
 8696TIP3    H126052   1.460   2.438   5.294
 8696TIP3    H226053   1.404   2.530   5.188
 8697TIP3   OH226054   1.841   6.403   1.461
 8697TIP3    H126055   1.847   6.396   1.366
 8697TIP3    H226056   1.811   6.493   1.477
 8698TIP3   OH226057   2.969   2.163   1.384
 8698TIP3    H126058   2.878   2.192   1.384
 8698TIP3    H226059   3.011   2.217   1.318
 8699TIP3   OH226060   6.471   5.235   4.416
 8699TIP3    H126061   6.489   5.170   4.484
 8699TIP3    H226062   6.387   5.209   4.380
 8700TIP3   OH226063   6.801   0.255   5.062
 8700TIP3    H126064   6.750   0.264   4.982
 8700TIP3    H226065   6.746   0.204   5.121
 8701TIP3   OH226066   0.558   6.023   4.637
 8701TIP3    H126067   0.565   6.041   4.543
 8701TIP3    H226068   0.646   6.037   4.671
 8702TIP3   OH226069   1.025   5.847   3.152
 8702TIP3    H126070   0.991   5.934   3.176
 8702TIP3    H226071   1.114   5.846   3.187
 8703TIP3   OH226072   2.963   5.713   4.625
 8703TIP3    H126073   2.973   5.693   4.718
 8703TIP3    H226074   2.883   5.668   4.599
 8704TIP3   OH226075   1.643   3.339   0.600
 8704TIP3    H126076   1.594   3.397   0.658
 8704TIP3    H226077   1.713   3.395   0.565
 8705TIP3   OH226078   2.198   6.252   5.347
 8705TIP3    H126079   2.109   6.266   5.378
 8705TIP3    H226080   2.221   6.332   5.300
 8706TIP3   OH226081   3.754   0.360   5.299
 8706TIP3    H126082   3.705   0.282   5.272
 8706TIP3    H226083   3.725   0.376   5.389
 8707TIP3   OH226084   3.922   2.495   1.183
 8707TIP3    H126085   3.849   2.433   1.191
 8707TIP3    H226086   4.000   2.441   1.187
 8708TIP3   OH226087   5.378   0.705   5.317
 8708TIP3    H126088   5.456   0.751   5.348
 8708TIP3    H226089   5.309   0.771   5.318
 8709TIP3   OH226090   1.474   0.937   4.827
 8709TIP3    H126091   1.423   0.859   4.805
 8709TIP3    H226092   1.563   0.904   4.840
 8710TIP3   OH226093   4.292   4.448   4.915
 8710TIP3    H126094   4.203   4.438   4.882
 8710TIP3    H226095   4.321   4.358   4.934
 8711TIP3   OH226096   5.350   1.241   0.074
 8711TIP3    H126097   5.442   1.220   0.085
 8711TIP3    H226098   5.313   1.236   0.162
 8712TIP3   OH226099   4.240   1.993   0.086
 8712TIP3    H126100   4.193   2.070   0.116
 8712TIP3    H226101   4.181   1.920   0.104
 8713TIP3   OH226102   0.575   4.156   0.212
 8713TIP3    H126103   0.643   4.172   0.277
 8713TIP3    H226104   0.570   4.237   0.161
 8714TIP3   OH226105   5.508   0.162   5.000
 8714TIP3    H126106   5.466   0.125   5.077
 8714TIP3    H226107   5.510   0.090   4.937
 8715TIP3   OH226108   5.120   3.629   0.699
 8715TIP3    H126109   5.036   3.594   0.727
 8715TIP3    H226110   5.146   3.574   0.625
 8716TIP3   OH226111   4.691   1.746   3.646
 8716TIP3    H126112   4.758   1.759   3.579
 8716TIP3    H226113   4.625   1.813   3.627
 8717TIP3   OH226114   4.136   1.263   5.842
 8717TIP3    H126115   4.202   1.281   5.775
 8717TIP3    H226116   4.068   1.329   5.828
 8718TIP3   OH226117   1.687   5.680   1.794
 8718TIP3    H126118   1.666   5.747   1.858
 8718TIP3    H226119   1.607   5.669   1.743
 8719TIP3   OH226120   1.935   6.442   0.199
 8719TIP3    H126121   1.982   6.399   0.128
 8719TIP3    H226122   1.858   6.481   0.157
 8720TIP3   OH226123   4.329   3.604   3.164
 8720TIP3    H126124   4.416   3.636   3.188
 8720TIP3    H226125   4.276   3.621   3.242
 8721TIP3   OH226126   4.372   3.292   5.584
 8721TIP3    H126127   4.388   3.380   5.619
 8721TIP3    H226128   4.296   3.260   5.632
 8722TIP3   OH226129   0.710   6.005   5.362
 8722TIP3    H126130   0.736   6.070   5.428
 8722TIP3    H226131   0.753   5.924   5.390
 8723TIP3   OH226132   6.046   0.459   0.510
 8723TIP3    H126133   6.101   0.400   0.561
 8723TIP3    H226134   6.061   0.434   0.419
 8724TIP3   OH226135   5.363   3.983   4.767
 8724TIP3    H126136   5.347   4.007   4.676
 8724TIP3    H226137   5.458   3.970   4.771
 8725TIP3   OH226138   0.887   2.655   4.636
 8725TIP3    H126139   0.895   2.654   4.540
 8725TIP3    H226140   0.811   2.711   4.652
 8726TIP3   OH226141   4.869   1.362   5.487
 8726TIP3    H126142   4.841   1.436   5.542
 8726TIP3    H226143   4.801   1.296   5.499
 8727TIP3   OH226144   7.160   4.310   2.311
 8727TIP3    H126145   7.164   4.351   2.397
 8727TIP3    H226146   7.131   4.220   2.329
 8728TIP3   OH226147   3.217   0.937   3.365
 8728TIP3    H126148   3.207   1.008   3.428
 8728TIP3    H226149   3.256   0.866   3.415
 8729TIP3   OH226150   5.589   0.576   0.364
 8729TIP3    H126151   5.661   0.580   0.427
 8729TIP3    H226152   5.511   0.590   0.417
 8730TIP3   OH226153   6.217   4.163   5.258
 8730TIP3    H126154   6.225   4.120   5.343
 8730TIP3    H226155   6.200   4.255   5.278
 8731TIP3   OH226156   2.009   4.306   1.434
 8731TIP3    H126157   2.030   4.361   1.510
 8731TIP3    H226158   2.041   4.219   1.458
 8732TIP3   OH226159   2.603   5.226   3.476
 8732TIP3    H126160   2.575   5.174   3.401
 8732TIP3    H226161   2.538   5.296   3.483
 8733TIP3   OH226162   0.591   0.974   3.990
 8733TIP3    H126163   0.503   1.008   4.005
 8733TIP3    H226164   0.619   1.014   3.908
 8734TIP3   OH226165   3.733   5.933   2.791
 8734TIP3    H126166   3.827   5.934   2.808
 8734TIP3    H226167   3.713   5.842   2.768
 8735TIP3   OH226168   7.056   3.401   3.767
 8735TIP3    H126169   7.083   3.361   3.850
 8735TIP3    H226170   6.964   3.377   3.758
 8736TIP3   OH226171   5.735   3.691   4.164
 8736TIP3    H126172   5.826   3.699   4.134
 8736TIP3    H226173   5.699   3.620   4.112
 8737TIP3   OH226174   4.617   3.080   0.190
 8737TIP3    H126175   4.526   3.081   0.217
 8737TIP3    H226176   4.667   3.074   0.271
 8738TIP3   OH226177   6.026   4.807   5.842
 8738TIP3    H126178   5.991   4.845   5.921
 8738TIP3    H226179   5.975   4.846   5.771
 8739TIP3   OH226180   3.709   2.855   1.044
 8739TIP3    H126181   3.749   2.818   1.123
 8739TIP3    H226182   3.691   2.779   0.988
 8740TIP3   OH226183   1.371   3.404   5.285
 8740TIP3    H126184   1.364   3.499   5.277
 8740TIP3    H226185   1.465   3.386   5.276
 8741TIP3   OH226186   2.842   3.460   1.846
 8741TIP3    H126187   2.885   3.469   1.761
 8741TIP3    H226188   2.870   3.537   1.895
 8742TIP3   OH226189   1.081   2.882   1.424
 8742TIP3    H126190   1.075   2.930   1.341
 8742TIP3    H226191   0.998   2.836   1.431
 8743TIP3   OH226192   3.543   2.369   3.439
 8743TIP3    H126193   3.489   2.317   3.379
 8743TIP3    H226194   3.566   2.307   3.509
 8744TIP3   OH226195   5.145   5.492   0.919
 8744TIP3    H126196   5.129   5.562   0.855
 8744TIP3    H226197   5.239   5.497   0.936
 8745TIP3   OH226198   2.883   2.474   3.658
 8745TIP3    H126199   2.851   2.516   3.738
 8745TIP3    H226200   2.880   2.380   3.678
 8746TIP3   OH226201   2.362   3.151   1.329
 8746TIP3    H126202   2.335   3.215   1.263
 8746TIP3    H226203   2.425   3.199   1.384
 8747TIP3   OH226204   4.786   0.989   3.121
 8747TIP3    H126205   4.714   0.996   3.183
 8747TIP3    H226206   4.864   0.977   3.176
 8748TIP3   OH226207   4.063   4.449   3.840
 8748TIP3    H126208   4.058   4.454   3.744
 8748TIP3    H226209   4.153   4.476   3.860
 8749TIP3   OH226210   6.115   0.410   2.157
 8749TIP3    H126211   6.048   0.471   2.125
 8749TIP3    H226212   6.195   0.438   2.114
 8750TIP3   OH226213   2.539   6.668   2.137
 8750TIP3    H126214   2.480   6.682   2.063
 8750TIP3    H226215   2.502   6.593   2.184
 8751TIP3   OH226216   1.140   4.390   3.351
 8751TIP3    H126217   1.094   4.413   3.432
 8751TIP3    H226218   1.176   4.473   3.320
 8752TIP3   OH226219   3.008   4.511   0.125
 8752TIP3    H126220   3.017   4.422   0.158
 8752TIP3    H226221   2.915   4.531   0.135
 8753TIP3   OH226222   5.153   5.876   1.819
 8753TIP3    H126223   5.238   5.890   1.862
 8753TIP3    H226224   5.148   5.945   1.753
 8754TIP3   OH226225   0.915   4.428   5.856
 8754TIP3    H126226   1.002   4.390   5.850
 8754TIP3    H226227   0.928   4.510   5.903
 8755TIP3   OH226228   4.361   0.668   1.272
 8755TIP3    H126229   4.441   0.638   1.316
 8755TIP3    H226230   4.386   0.681   1.181
 8756TIP3   OH226231   1.702   1.216   3.148
 8756TIP3    H126232   1.618   1.196   3.107
 8756TIP3    H226233   1.715   1.309   3.134
 8757TIP3   OH226234   3.564   6.499   2.458
 8757TIP3    H126235   3.502   6.508   2.530
 8757TIP3    H226236   3.571   6.405   2.444
 8758TIP3   OH226237   4.074   5.006   3.075
 8758TIP3    H126238   4.085   5.081   3.133
 8758TIP3    H226239   4.002   4.956   3.115
 8759TIP3   OH226240   4.827   4.149   5.786
 8759TIP3    H126241   4.734   4.154   5.767
 8759TIP3    H226242   4.854   4.063   5.755
 8760TIP3   OH226243   3.542   0.682   3.249
 8760TIP3    H126244   3.485   0.711   3.319
 8760TIP3    H226245   3.487   0.686   3.170
 8761TIP3   OH226246   3.203   3.793   4.543
 8761TIP3    H126247   3.266   3.766   4.476
 8761TIP3    H226248   3.121   3.806   4.496
 8762TIP3   OH226249   2.634   3.307   0.852
 8762TIP3    H126250   2.714   3.326   0.803
 8762TIP3    H226251   2.567   3.361   0.812
 8763TIP3   OH226252   1.519   1.070   1.489
 8763TIP3    H126253   1.587   1.048   1.552
 8763TIP3    H226254   1.441   1.089   1.541
 8764TIP3   OH226255   1.680   2.687   5.437
 8764TIP3    H126256   1.682   2.668   5.531
 8764TIP3    H226257   1.670   2.782   5.432
 8765TIP3   OH226258   0.204   0.818   4.033
 8765TIP3    H126259   0.287   0.799   4.078
 8765TIP3    H226260   0.231   0.841   3.944
 8766TIP3   OH226261   5.904   5.572   0.664
 8766TIP3    H126262   5.886   5.621   0.744
 8766TIP3    H226263   5.817   5.545   0.633
 8767TIP3   OH226264   2.998   5.866   3.671
 8767TIP3    H126265   3.051   5.842   3.747
 8767TIP3    H226266   2.913   5.824   3.687
 8768TIP3   OH226267   0.030   3.333   3.540
 8768TIP3    H126268   0.089   3.276   3.590
 8768TIP3    H226269  -0.032   3.366   3.605
 8769TIP3   OH226270   0.529   2.757   2.195
 8769TIP3    H126271   0.465   2.828   2.191
 8769TIP3    H226272   0.555   2.743   2.104
 8770TIP3   OH226273   4.247   6.283   2.432
 8770TIP3    H126274   4.221   6.210   2.489
 8770TIP3    H226275   4.286   6.240   2.355
 8771TIP3   OH226276   3.983   0.775   5.181
 8771TIP3    H126277   3.928   0.844   5.143
 8771TIP3    H226278   4.031   0.738   5.106
 8772TIP3   OH226279   3.204   0.271   5.577
 8772TIP3    H126280   3.246   0.233   5.655
 8772TIP3    H226281   3.199   0.364   5.595
 8773TIP3   OH226282   7.098   5.826   4.401
 8773TIP3    H126283   7.164   5.877   4.448
 8773TIP3    H226284   7.144   5.746   4.375
 8774TIP3   OH226285   3.757   4.857   1.989
 8774TIP3    H126286   3.723   4.773   2.020
 8774TIP3    H226287   3.829   4.878   2.048
 8775TIP3   OH226288   6.954   0.440   3.025
 8775TIP3    H126289   7.041   0.465   2.992
 8775TIP3    H226290   6.963   0.443   3.120
 8776TIP3   OH226291   7.112   3.027   0.504
 8776TIP3    H126292   7.078   2.973   0.432
 8776TIP3    H226293   7.058   3.105   0.503
 8777TIP3   OH226294   7.148   3.247   0.767
 8777TIP3    H126295   7.178   3.160   0.795
 8777TIP3    H226296   7.083   3.229   0.700
 8778TIP3   OH226297   6.242   4.905   4.779
 8778TIP3    H126298   6.204   4.927   4.694
 8778TIP3    H226299   6.188   4.833   4.811
 8779TIP3   OH226300   2.063   4.023   3.834
 8779TIP3    H126301   1.981   4.072   3.841
 8779TIP3    H226302   2.093   4.013   3.924
 8780TIP3   OH226303   0.478   5.830   3.326
 8780TIP3    H126304   0.548   5.837   3.261
 8780TIP3    H226305   0.496   5.747   3.371
 8781TIP3   OH226306   1.838   5.194   1.584
 8781TIP3    H126307   1.751   5.229   1.566
 8781TIP3    H226308   1.843   5.113   1.533
 8782TIP3   OH226309   3.576   1.234   3.573
 8782TIP3    H126310   3.601   1.323   3.596
 8782TIP3    H226311   3.496   1.244   3.521
 8783TIP3   OH226312   6.418   3.918   5.178
 8783TIP3    H126313   6.477   3.983   5.140
 8783TIP3    H226314   6.339   3.966   5.202
 8784TIP3   OH226315   6.954   1.261   5.029
 8784TIP3    H126316   6.880   1.280   4.970
 8784TIP3    H226317   7.024   1.319   4.998
 8785TIP3   OH226318   1.817   4.969   3.943
 8785TIP3    H126319   1.835   4.875   3.933
 8785TIP3    H226320   1.897   5.012   3.913
 8786TIP3   OH226321   2.628   3.089   2.453
 8786TIP3    H126322   2.651   2.999   2.475
 8786TIP3    H226323   2.712   3.135   2.447
 8787TIP3   OH226324   2.649   2.463   0.426
 8787TIP3    H126325   2.716   2.530   0.413
 8787TIP3    H226326   2.630   2.431   0.338
 8788TIP3   OH226327   1.151   5.974   0.346
 8788TIP3    H126328   1.127   5.916   0.418
 8788TIP3    H226329   1.166   5.915   0.272
 8789TIP3   OH226330   3.601   5.806   2.444
 8789TIP3    H126331   3.677   5.772   2.397
 8789TIP3    H226332   3.611   5.772   2.533
 8790TIP3   OH226333   1.538   4.082   4.392
 8790TIP3    H126334   1.633   4.092   4.380
 8790TIP3    H226335   1.521   4.115   4.480
 8791TIP3   OH226336   2.788   4.878   5.097
 8791TIP3    H126337   2.767   4.795   5.054
 8791TIP3    H226338   2.702   4.915   5.118
 8792TIP3   OH226339   4.486   6.669   2.448
 8792TIP3    H126340   4.532   6.588   2.426
 8792TIP3    H226341   4.483   6.670   2.543
 8793TIP3   OH226342   4.744   0.854   4.502
 8793TIP3    H126343   4.661   0.876   4.459
 8793TIP3    H226344   4.767   0.768   4.467
 8794TIP3   OH226345   5.684   1.651   1.136
 8794TIP3    H126346   5.705   1.710   1.209
 8794TIP3    H226347   5.726   1.568   1.159
 8795TIP3   OH226348   6.856   6.248   5.221
 8795TIP3    H126349   6.806   6.195   5.283
 8795TIP3    H226350   6.941   6.204   5.215
 8796TIP3   OH226351   3.682   1.206   0.691
 8796TIP3    H126352   3.644   1.159   0.765
 8796TIP3    H226353   3.638   1.291   0.691
 8797TIP3   OH226354   3.117   6.352   0.145
 8797TIP3    H126355   3.102   6.444   0.164
 8797TIP3    H226356   3.031   6.311   0.153
 8798TIP3   OH226357   4.543   2.166   0.930
 8798TIP3    H126358   4.508   2.216   0.857
 8798TIP3    H226359   4.619   2.217   0.960
 8799TIP3   OH226360   4.330   0.398   1.433
 8799TIP3    H126361   4.312   0.437   1.347
 8799TIP3    H226362   4.362   0.470   1.486
 8800TIP3   OH226363   3.401   6.741   5.169
 8800TIP3    H126364   3.430   6.812   5.113
 8800TIP3    H226365   3.309   6.729   5.147
 8801TIP3   OH226366   5.835   3.687   4.612
 8801TIP3    H126367   5.755   3.738   4.607
 8801TIP3    H226368   5.848   3.653   4.524
 8802TIP3   OH226369   0.319   6.309   3.138
 8802TIP3    H126370   0.318   6.340   3.228
 8802TIP3    H226371   0.284   6.220   3.142
 8803TIP3   OH226372   6.385   3.498   4.266
 8803TIP3    H126373   6.445   3.542   4.327
 8803TIP3    H226374   6.349   3.569   4.212
 8804TIP3   OH226375   2.067   5.627   0.768
 8804TIP3    H126376   2.093   5.623   0.676
 8804TIP3    H226377   1.973   5.612   0.767
 8805TIP3   OH226378   3.687   3.933   0.293
 8805TIP3    H126379   3.720   3.858   0.341
 8805TIP3    H226380   3.728   3.926   0.207
 8806TIP3   OH226381   4.380   0.933   3.723
 8806TIP3    H126382   4.312   0.901   3.665
 8806TIP3    H226383   4.335   0.992   3.784
 8807TIP3   OH226384   0.425   2.277   2.036
 8807TIP3    H126385   0.390   2.317   2.116
 8807TIP3    H226386   0.517   2.262   2.056
 8808TIP3   OH226387   3.242   6.780   4.351
 8808TIP3    H126388   3.215   6.818   4.268
 8808TIP3    H226389   3.276   6.854   4.402
 8809TIP3   OH226390   3.084   6.286   1.659
 8809TIP3    H126391   3.168   6.244   1.679
 8809TIP3    H226392   3.108   6.367   1.613
 8810TIP3   OH226393   6.672   3.213   5.494
 8810TIP3    H126394   6.682   3.148   5.563
 8810TIP3    H226395   6.719   3.176   5.419
 8811TIP3   OH226396   1.052   6.494   3.387
 8811TIP3    H126397   1.142   6.526   3.385
 8811TIP3    H226398   1.007   6.551   3.449
 8812TIP3   OH226399   3.761   3.954   3.924
 8812TIP3    H126400   3.709   4.012   3.868
 8812TIP3    H226401   3.742   3.866   3.890
 8813TIP3   OH226402   6.142   1.894   2.036
 8813TIP3    H126403   6.178   1.818   2.082
 8813TIP3    H226404   6.212   1.960   2.039
 8814TIP3   OH226405   1.051   6.688   0.035
 8814TIP3    H126406   1.068   6.691   0.129
 8814TIP3    H226407   1.050   6.595   0.014
 8815TIP3   OH226408   4.319   6.431   0.516
 8815TIP3    H126409   4.224   6.429   0.520
 8815TIP3    H226410   4.342   6.373   0.443
 8816TIP3   OH226411   5.289   3.176   0.023
 8816TIP3    H126412   5.209   3.126   0.040
 8816TIP3    H226413   5.321   3.142  -0.060
 8817TIP3   OH226414   3.203   0.820   0.504
 8817TIP3    H126415   3.240   0.769   0.432
 8817TIP3    H226416   3.189   0.907   0.468
 8818TIP3   OH226417   6.441   5.123   1.792
 8818TIP3    H126418   6.412   5.050   1.846
 8818TIP3    H226419   6.456   5.085   1.706
 8819TIP3   OH226420   1.073   4.057   5.211
 8819TIP3    H126421   1.002   4.105   5.169
 8819TIP3    H226422   1.035   4.024   5.293
 8820TIP3   OH226423   2.885   3.818   5.828
 8820TIP3    H126424   2.905   3.786   5.916
 8820TIP3    H226425   2.837   3.900   5.843
 8821TIP3   OH226426   0.812   4.750   0.386
 8821TIP3    H126427   0.883   4.774   0.327
 8821TIP3    H226428   0.857   4.714   0.463
 8822TIP3   OH226429   4.199   3.010   3.669
 8822TIP3    H126430   4.233   2.992   3.757
 8822TIP3    H226431   4.107   2.982   3.673
 8823TIP3   OH226432   3.674   3.152   4.100
 8823TIP3    H126433   3.718   3.163   4.016
 8823TIP3    H226434   3.709   3.222   4.155
 8824TIP3   OH226435   2.186   5.399   5.312
 8824TIP3    H126436   2.142   5.408   5.228
 8824TIP3    H226437   2.220   5.486   5.332
 8825TIP3   OH226438   2.570   4.539   5.193
 8825TIP3    H126439   2.657   4.562   5.161
 8825TIP3    H226440   2.587   4.490   5.274
 8826TIP3   OH226441   4.356   6.327   5.360
 8826TIP3    H126442   4.290   6.384   5.319
 8826TIP3    H226443   4.323   6.239   5.343
 8827TIP3   OH226444   5.380   5.139   3.530
 8827TIP3    H126445   5.321   5.213   3.539
 8827TIP3    H226446   5.411   5.143   3.439
 8828TIP3   OH226447   4.489   0.048   3.513
 8828TIP3    H126448   4.582   0.037   3.492
 8828TIP3    H226449   4.461   0.123   3.461
 8829TIP3   OH226450   5.630   2.413   1.088
 8829TIP3    H126451   5.605   2.325   1.058
 8829TIP3    H226452   5.562   2.436   1.151
 8830TIP3   OH226453   3.853   3.080   3.048
 8830TIP3    H126454   3.766   3.119   3.059
 8830TIP3    H226455   3.913   3.153   3.057
 8831TIP3   OH226456   2.337   6.684   2.475
 8831TIP3    H126457   2.354   6.667   2.382
 8831TIP3    H226458   2.271   6.754   2.474
 8832TIP3   OH226459   3.413   4.087   4.497
 8832TIP3    H126460   3.465   4.012   4.471
 8832TIP3    H226461   3.475   4.161   4.495
 8833TIP3   OH226462   0.231   2.423   0.550
 8833TIP3    H126463   0.211   2.459   0.463
 8833TIP3    H226464   0.173   2.347   0.558
 8834TIP3   OH226465   0.464   3.710   3.806
 8834TIP3    H126466   0.389   3.768   3.823
 8834TIP3    H226467   0.466   3.699   3.711
 8835TIP3   OH226468   5.137   2.655   0.727
 8835TIP3    H126469   5.081   2.578   0.730
 8835TIP3    H226470   5.084   2.722   0.683
 8836TIP3   OH226471   0.149   4.472   3.007
 8836TIP3    H126472   0.135   4.408   2.937
 8836TIP3    H226473   0.194   4.545   2.963
 8837TIP3   OH226474   3.429   3.582   5.686
 8837TIP3    H126475   3.482   3.505   5.666
 8837TIP3    H226476   3.446   3.599   5.779
 8838TIP3   OH226477   0.479   2.448   0.095
 8838TIP3    H126478   0.555   2.484   0.140
 8838TIP3    H226479   0.423   2.524   0.078
 8839TIP3   OH226480   3.754   3.116   2.219
 8839TIP3    H126481   3.730   3.042   2.274
 8839TIP3    H226482   3.692   3.114   2.146
 8840TIP3   OH226483   5.235   2.042   1.616
 8840TIP3    H126484   5.317   2.047   1.567
 8840TIP3    H226485   5.261   2.057   1.707
 8841TIP3   OH226486   3.702   1.714   5.286
 8841TIP3    H126487   3.673   1.666   5.363
 8841TIP3    H226488   3.643   1.790   5.281
 8842TIP3   OH226489   3.638   5.460   3.171
 8842TIP3    H126490   3.660   5.383   3.118
 8842TIP3    H226491   3.543   5.468   3.163
 8843TIP3   OH226492   5.213   4.870   2.515
 8843TIP3    H126493   5.243   4.901   2.430
 8843TIP3    H226494   5.120   4.891   2.517
 8844TIP3   OH226495   2.506   0.061   1.864
 8844TIP3    H126496   2.413   0.062   1.842
 8844TIP3    H226497   2.549   0.025   1.787
 8845TIP3   OH226498   1.981   0.733   3.950
 8845TIP3    H126499   1.905   0.674   3.954
 8845TIP3    H226500   1.953   0.803   3.891
 8846TIP3   OH226501   0.143   3.299   1.320
 8846TIP3    H126502   0.189   3.277   1.239
 8846TIP3    H226503   0.161   3.225   1.378
 8847TIP3   OH226504   4.065   6.193   1.105
 8847TIP3    H126505   3.975   6.166   1.086
 8847TIP3    H226506   4.057   6.286   1.128
 8848TIP3   OH226507   3.044   3.947   2.425
 8848TIP3    H126508   3.021   4.039   2.437
 8848TIP3    H226509   3.125   3.936   2.474
 8849TIP3   OH226510   6.185   4.057   4.975
 8849TIP3    H126511   6.116   4.098   4.922
 8849TIP3    H226512   6.214   4.127   5.034
 8850TIP3   OH226513   0.389   2.993   3.953
 8850TIP3    H126514   0.326   2.930   3.918
 8850TIP3    H226515   0.471   2.945   3.958
 8851TIP3   OH226516   4.488   6.492   4.351
 8851TIP3    H126517   4.419   6.426   4.356
 8851TIP3    H226518   4.441   6.575   4.352
 8852TIP3   OH226519   0.332   2.529   3.326
 8852TIP3    H126520   0.248   2.517   3.280
 8852TIP3    H226521   0.389   2.570   3.261
 8853TIP3   OH226522   0.479   0.369   0.899
 8853TIP3    H126523   0.551   0.432   0.905
 8853TIP3    H226524   0.523   0.285   0.886
 8854TIP3   OH226525   0.542   0.589   4.864
 8854TIP3    H126526   0.509   0.526   4.800
 8854TIP3    H226527   0.569   0.664   4.812
 8855TIP3   OH226528   0.642   2.561   4.421
 8855TIP3    H126529   0.651   2.636   4.480
 8855TIP3    H226530   0.731   2.543   4.391
 8856TIP3   OH226531   6.498   4.946   4.822
 8856TIP3    H126532   6.406   4.924   4.840
 8856TIP3    H226533   6.548   4.878   4.866
 8857TIP3   OH226534   4.042   4.706   0.576
 8857TIP3    H126535   3.968   4.744   0.623
 8857TIP3    H226536   4.038   4.612   0.598
 8858TIP3   OH226537   0.259   6.377   4.944
 8858TIP3    H126538   0.310   6.457   4.961
 8858TIP3    H226539   0.323   6.306   4.947
 8859TIP3   OH226540   5.282   3.111   4.754
 8859TIP3    H126541   5.194   3.141   4.730
 8859TIP3    H226542   5.336   3.190   4.754
 8860TIP3   OH226543   6.392   5.770   4.668
 8860TIP3    H126544   6.392   5.715   4.590
 8860TIP3    H226545   6.472   5.744   4.715
 8861TIP3   OH226546   2.441   4.401   5.722
 8861TIP3    H126547   2.382   4.326   5.717
 8861TIP3    H226548   2.430   4.446   5.638
 8862TIP3   OH226549   0.155   6.790   0.502
 8862TIP3    H126550   0.249   6.799   0.490
 8862TIP3    H226551   0.141   6.697   0.521
 8863TIP3   OH226552   3.905   1.781   3.516
 8863TIP3    H126553   3.823   1.831   3.519
 8863TIP3    H226554   3.911   1.740   3.602
 8864TIP3   OH226555   7.059   1.428   1.970
 8864TIP3    H126556   7.007   1.363   1.923
 8864TIP3    H226557   7.148   1.417   1.935
 8865TIP3   OH226558   2.228   3.329   1.139
 8865TIP3    H126559   2.202   3.418   1.162
 8865TIP3    H226560   2.230   3.328   1.044
 8866TIP3   OH226561   2.878   6.788   1.336
 8866TIP3    H126562   2.833   6.778   1.252
 8866TIP3    H226563   2.968   6.761   1.318
 8867TIP3   OH226564   5.738   3.320   2.829
 8867TIP3    H126565   5.779   3.239   2.858
 8867TIP3    H226566   5.762   3.327   2.737
 8868TIP3   OH226567   1.179   6.245   0.327
 8868TIP3    H126568   1.162   6.152   0.344
 8868TIP3    H226569   1.093   6.283   0.313
 8869TIP3   OH226570   0.584   1.843   2.022
 8869TIP3    H126571   0.530   1.806   2.092
 8869TIP3    H226572   0.655   1.888   2.068
 8870TIP3   OH226573   1.968   0.763   5.250
 8870TIP3    H126574   1.897   0.751   5.313
 8870TIP3    H226575   2.035   0.812   5.298
 8871TIP3   OH226576   1.318   2.394   2.657
 8871TIP3    H126577   1.408   2.366   2.677
 8871TIP3    H226578   1.329   2.469   2.599
 8872TIP3   OH226579   2.773   2.984   4.740
 8872TIP3    H126580   2.754   2.892   4.722
 8872TIP3    H226581   2.836   2.982   4.812
 8873TIP3   OH226582   0.828   1.402   5.602
 8873TIP3    H126583   0.810   1.375   5.692
 8873TIP3    H226584   0.923   1.418   5.601
 8874TIP3   OH226585   2.345   4.824   3.344
 8874TIP3    H126586   2.270   4.820   3.403
 8874TIP3    H226587   2.389   4.740   3.355
 8875TIP3   OH226588   3.239   0.659   4.203
 8875TIP3    H126589   3.180   0.664   4.278
 8875TIP3    H226590   3.225   0.572   4.167
 8876TIP3   OH226591   5.038   5.212   2.982
 8876TIP3    H126592   5.013   5.171   2.899
 8876TIP3    H226593   5.097   5.283   2.957
 8877TIP3   OH226594   1.663   4.280   1.731
 8877TIP3    H126595   1.723   4.206   1.729
 8877TIP3    H226596   1.681   4.323   1.815
 8878TIP3   OH226597   2.284   6.732   2.006
 8878TIP3    H126598   2.306   6.816   1.967
 8878TIP3    H226599   2.200   6.746   2.050
 8879TIP3   OH226600   6.613   0.876   0.694
 8879TIP3    H126601   6.599   0.791   0.652
 8879TIP3    H226602   6.540   0.885   0.755
 8880TIP3   OH226603   5.197   2.265   5.104
 8880TIP3    H126604   5.225   2.243   5.015
 8880TIP3    H226605   5.238   2.350   5.122
 8881TIP3   OH226606   6.767   2.328   5.556
 8881TIP3    H126607   6.715   2.366   5.485
 8881TIP3    H226608   6.857   2.354   5.537
 8882TIP3   OH226609   3.931   2.482   4.934
 8882TIP3    H126610   3.882   2.410   4.974
 8882TIP3    H226611   3.936   2.458   4.841
 8883TIP3   OH226612   6.669   5.483   1.463
 8883TIP3    H126613   6.576   5.467   1.481
 8883TIP3    H226614   6.681   5.576   1.483
 8884TIP3   OH226615   6.190   0.119   0.169
 8884TIP3    H126616   6.170   0.038   0.217
 8884TIP3    H226617   6.282   0.110   0.144
 8885TIP3   OH226618   4.708   1.358   0.947
 8885TIP3    H126619   4.803   1.355   0.935
 8885TIP3    H226620   4.693   1.310   1.029
 8886TIP3   OH226621   5.813   1.196   3.069
 8886TIP3    H126622   5.816   1.190   3.164
 8886TIP3    H226623   5.820   1.290   3.050
 8887TIP3   OH226624   4.673   6.684   3.744
 8887TIP3    H126625   4.627   6.720   3.668
 8887TIP3    H226626   4.633   6.727   3.819
 8888TIP3   OH226627   3.427   1.668   5.573
 8888TIP3    H126628   3.506   1.669   5.519
 8888TIP3    H226629   3.456   1.634   5.657
 8889TIP3   OH226630   4.146   6.048   4.499
 8889TIP3    H126631   4.120   5.963   4.466
 8889TIP3    H226632   4.242   6.045   4.501
 8890TIP3   OH226633   4.579   6.753   4.557
 8890TIP3    H126634   4.511   6.789   4.501
 8890TIP3    H226635   4.549   6.664   4.578
 8891TIP3   OH226636   3.288   3.977   0.827
 8891TIP3    H126637   3.304   3.985   0.733
 8891TIP3    H226638   3.359   3.921   0.859
 8892TIP3   OH226639   1.315   3.494   0.988
 8892TIP3    H126640   1.400   3.463   1.019
 8892TIP3    H226641   1.280   3.420   0.938
 8893TIP3   OH226642   5.044   5.239   1.757
 8893TIP3    H126643   5.129   5.228   1.715
 8893TIP3    H226644   4.987   5.274   1.688
 8894TIP3   OH226645   0.801   5.044   1.378
 8894TIP3    H126646   0.873   5.094   1.416
 8894TIP3    H226647   0.821   4.953   1.401
 8895TIP3   OH226648   4.325   5.521   5.285
 8895TIP3    H126649   4.404   5.575   5.283
 8895TIP3    H226650   4.305   5.510   5.377
 8896TIP3   OH226651   7.165   5.105   2.002
 8896TIP3    H126652   7.192   5.160   1.929
 8896TIP3    H226653   7.239   5.046   2.016
 8897TIP3   OH226654   5.478   0.865   0.501
 8897TIP3    H126655   5.438   0.779   0.515
 8897TIP3    H226656   5.430   0.924   0.559
 8898TIP3   OH226657   2.706   5.117   3.166
 8898TIP3    H126658   2.693   5.172   3.088
 8898TIP3    H226659   2.617   5.091   3.191
 8899TIP3   OH226660   3.486   3.971   2.759
 8899TIP3    H126661   3.568   3.943   2.717
 8899TIP3    H226662   3.507   4.056   2.798
 8900TIP3   OH226663   1.312   0.304   5.619
 8900TIP3    H126664   1.407   0.310   5.629
 8900TIP3    H226665   1.298   0.303   5.524
 8901TIP3   OH226666   3.722   0.554   5.068
 8901TIP3    H126667   3.701   0.619   5.134
 8901TIP3    H226668   3.761   0.481   5.117
 8902TIP3   OH226669   6.042   5.235   2.863
 8902TIP3    H126670   6.044   5.302   2.795
 8902TIP3    H226671   5.979   5.268   2.927
 8903TIP3   OH226672   1.596   1.848   3.965
 8903TIP3    H126673   1.601   1.891   3.879
 8903TIP3    H226674   1.539   1.905   4.017
 8904TIP3   OH226675   4.429   0.694   5.150
 8904TIP3    H126676   4.368   0.624   5.174
 8904TIP3    H226677   4.515   0.657   5.165
 8905TIP3   OH226678   6.453   0.743   1.843
 8905TIP3    H126679   6.442   0.670   1.905
 8905TIP3    H226680   6.396   0.812   1.878
 8906TIP3   OH226681   4.985   1.592   4.147
 8906TIP3    H126682   5.058   1.645   4.114
 8906TIP3    H226683   4.912   1.613   4.089
 8907TIP3   OH226684   4.261   3.475   4.472
 8907TIP3    H126685   4.225   3.452   4.386
 8907TIP3    H226686   4.319   3.402   4.494
 8908TIP3   OH226687   4.105   1.457   0.402
 8908TIP3    H126688   4.102   1.361   0.397
 8908TIP3    H226689   4.195   1.480   0.377
 8909TIP3   OH226690   0.030   2.197   4.277
 8909TIP3    H126691   0.119   2.211   4.246
 8909TIP3    H226692   0.038   2.133   4.348
 8910TIP3   OH226693   4.671   2.308   2.726
 8910TIP3    H126694   4.659   2.376   2.792
 8910TIP3    H226695   4.583   2.290   2.693
 8911TIP3   OH226696   6.575   0.662   1.329
 8911TIP3    H126697   6.585   0.673   1.423
 8911TIP3    H226698   6.495   0.711   1.308
 8912TIP3   OH226699   2.706   6.330   2.999
 8912TIP3    H126700   2.721   6.302   2.909
 8912TIP3    H226701   2.629   6.388   2.993
 8913TIP3   OH226702   1.242   2.965   1.739
 8913TIP3    H126703   1.292   3.039   1.707
 8913TIP3    H226704   1.300   2.923   1.803
 8914TIP3   OH226705   2.255   3.338   0.851
 8914TIP3    H126706   2.276   3.421   0.807
 8914TIP3    H226707   2.301   3.272   0.800
 8915TIP3   OH226708   2.411   0.055   4.580
 8915TIP3    H126709   2.351   0.102   4.523
 8915TIP3    H226710   2.368  -0.028   4.598
 8916TIP3   OH226711   6.510   4.111   5.549
 8916TIP3    H126712   6.519   4.175   5.479
 8916TIP3    H226713   6.436   4.142   5.601
 8917TIP3   OH226714   2.406   1.787   2.616
 8917TIP3    H126715   2.413   1.763   2.708
 8917TIP3    H226716   2.401   1.704   2.570
 8918TIP3   OH226717   0.688   3.382   2.682
 8918TIP3    H126718   0.688   3.432   2.763
 8918TIP3    H226719   0.652   3.442   2.617
 8919TIP3   OH226720   4.247   2.657   0.275
 8919TIP3    H126721   4.237   2.713   0.198
 8919TIP3    H226722   4.298   2.709   0.336
 8920TIP3   OH226723   1.470   6.574   5.564
 8920TIP3    H126724   1.518   6.521   5.500
 8920TIP3    H226725   1.406   6.513   5.602
 8921TIP3   OH226726   4.080   3.140   0.156
 8921TIP3    H126727   4.009   3.081   0.134
 8921TIP3    H226728   4.082   3.140   0.252
 8922TIP3   OH226729   1.317   0.748   0.572
 8922TIP3    H126730   1.243   0.802   0.602
 8922TIP3    H226731   1.382   0.758   0.641
 8923TIP3   OH226732   5.518   2.658   2.443
 8923TIP3    H126733   5.607   2.670   2.407
 8923TIP3    H226734   5.532   2.624   2.531
 8924TIP3   OH226735   0.461   5.218   4.500
 8924TIP3    H126736   0.413   5.234   4.581
 8924TIP3    H226737   0.431   5.286   4.440
 8925TIP3   OH226738   4.889   2.681   4.440
 8925TIP3    H126739   4.968   2.634   4.413
 8925TIP3    H226740   4.890   2.677   4.536
 8926TIP3   OH226741   5.948   1.007   1.223
 8926TIP3    H126742   5.925   0.924   1.265
 8926TIP3    H226743   5.880   1.068   1.252
 8927TIP3   OH226744   0.565   4.180   5.605
 8927TIP3    H126745   0.478   4.152   5.574
 8927TIP3    H226746   0.548   4.257   5.659
 8928TIP3   OH226747   4.044   1.476   2.288
 8928TIP3    H126748   4.045   1.385   2.315
 8928TIP3    H226749   4.019   1.524   2.368
 8929TIP3   OH226750   0.742   4.215   3.232
 8929TIP3    H126751   0.672   4.187   3.291
 8929TIP3    H226752   0.716   4.181   3.147
 8930TIP3   OH226753   4.405   4.059   4.017
 8930TIP3    H126754   4.363   4.000   4.080
 8930TIP3    H226755   4.454   4.002   3.958
 8931TIP3   OH226756   6.521   3.089   1.001
 8931TIP3    H126757   6.578   3.023   1.040
 8931TIP3    H226758   6.450   3.100   1.064
 8932TIP3   OH226759   5.571   5.321   3.373
 8932TIP3    H126760   5.569   5.346   3.465
 8932TIP3    H226761   5.491   5.360   3.336
 8933TIP3   OH226762   5.061   4.869   2.787
 8933TIP3    H126763   5.031   4.791   2.740
 8933TIP3    H226764   5.038   4.942   2.729
 8934TIP3   OH226765   5.090   3.812   1.778
 8934TIP3    H126766   5.149   3.876   1.820
 8934TIP3    H226767   5.009   3.817   1.830
 8935TIP3   OH226768   0.899   2.763   3.928
 8935TIP3    H126769   0.921   2.835   3.870
 8935TIP3    H226770   0.948   2.780   4.008
 8936TIP3   OH226771   2.876   2.843   3.147
 8936TIP3    H126772   2.921   2.923   3.174
 8936TIP3    H226773   2.892   2.837   3.053
 8937TIP3   OH226774   2.072   5.442   1.517
 8937TIP3    H126775   2.076   5.538   1.514
 8937TIP3    H226776   1.996   5.424   1.573
 8938TIP3   OH226777   5.329   6.801   0.162
 8938TIP3    H126778   5.398   6.816   0.098
 8938TIP3    H226779   5.248   6.817   0.113
 8939TIP3   OH226780   5.070   6.527   2.633
 8939TIP3    H126781   4.997   6.586   2.616
 8939TIP3    H226782   5.118   6.567   2.705
 8940TIP3   OH226783   6.257   0.587   0.808
 8940TIP3    H126784   6.237   0.635   0.888
 8940TIP3    H226785   6.316   0.645   0.760
 8941TIP3   OH226786   4.574   1.689   3.077
 8941TIP3    H126787   4.634   1.663   3.147
 8941TIP3    H226788   4.511   1.617   3.072
 8942TIP3   OH226789   3.074   4.272   2.640
 8942TIP3    H126790   3.112   4.340   2.585
 8942TIP3    H226791   3.134   4.265   2.715
 8943TIP3   OH226792   2.462   5.402   5.108
 8943TIP3    H126793   2.462   5.459   5.031
 8943TIP3    H226794   2.378   5.356   5.104
 8944TIP3   OH226795   1.332   3.706   5.853
 8944TIP3    H126796   1.330   3.640   5.922
 8944TIP3    H226797   1.341   3.655   5.772
 8945TIP3   OH226798   6.253   5.309   5.469
 8945TIP3    H126799   6.220   5.385   5.517
 8945TIP3    H226800   6.183   5.244   5.475
 8946TIP3   OH226801   0.445   3.193   5.589
 8946TIP3    H126802   0.423   3.104   5.618
 8946TIP3    H226803   0.540   3.193   5.583
 8947TIP3   OH226804   4.394   1.241   3.535
 8947TIP3    H126805   4.437   1.311   3.585
 8947TIP3    H226806   4.329   1.205   3.596
 8948TIP3   OH226807   0.305   5.569   1.316
 8948TIP3    H126808   0.361   5.638   1.279
 8948TIP3    H226809   0.333   5.489   1.271
 8949TIP3   OH226810   6.826   6.491   5.588
 8949TIP3    H126811   6.827   6.395   5.586
 8949TIP3    H226812   6.754   6.516   5.530
 8950TIP3   OH226813   3.918   4.871   5.643
 8950TIP3    H126814   3.966   4.862   5.725
 8950TIP3    H226815   3.826   4.880   5.669
 8951TIP3   OH226816   7.015   0.889   1.253
 8951TIP3    H126817   7.107   0.913   1.242
 8951TIP3    H226818   6.967   0.966   1.222
 8952TIP3   OH226819   7.022   2.320   5.368
 8952TIP3    H126820   7.100   2.359   5.327
 8952TIP3    H226821   6.948   2.362   5.325
 8953TIP3   OH226822   3.315   3.297   0.191
 8953TIP3    H126823   3.252   3.350   0.242
 8953TIP3    H226824   3.391   3.288   0.249
 8954TIP3   OH226825   4.899   2.488   0.275
 8954TIP3    H126826   4.896   2.432   0.198
 8954TIP3    H226827   4.982   2.466   0.318
 8955TIP3   OH226828   1.193   0.470   4.984
 8955TIP3    H126829   1.109   0.478   4.937
 8955TIP3    H226830   1.173   0.498   5.073
 8956TIP3   OH226831   4.026   0.750   5.435
 8956TIP3    H126832   4.009   0.771   5.344
 8956TIP3    H226833   4.039   0.655   5.435
 8957TIP3   OH226834   6.960   1.654   4.682
 8957TIP3    H126835   6.973   1.570   4.637
 8957TIP3    H226836   7.014   1.716   4.633
 8958TIP3   OH226837   0.596   1.250   0.112
 8958TIP3    H126838   0.629   1.337   0.088
 8958TIP3    H226839   0.509   1.267   0.148
 8959TIP3   OH226840   4.172   0.854   2.746
 8959TIP3    H126841   4.180   0.758   2.741
 8959TIP3    H226842   4.142   0.871   2.835
 8960TIP3   OH226843   3.775   3.592   4.588
 8960TIP3    H126844   3.861   3.554   4.603
 8960TIP3    H226845   3.757   3.643   4.666
 8961TIP3   OH226846   1.284   6.652   2.926
 8961TIP3    H126847   1.210   6.704   2.959
 8961TIP3    H226848   1.327   6.620   3.005
 8962TIP3   OH226849   0.331   2.505   5.773
 8962TIP3    H126850   0.417   2.483   5.807
 8962TIP3    H226851   0.346   2.524   5.680
 8963TIP3   OH226852   1.215   3.606   1.336
 8963TIP3    H126853   1.307   3.629   1.322
 8963TIP3    H226854   1.166   3.681   1.304
 8964TIP3   OH226855   4.156   6.570   2.381
 8964TIP3    H126856   4.062   6.579   2.367
 8964TIP3    H226857   4.171   6.475   2.384
 8965TIP3   OH226858   6.739   3.846   2.497
 8965TIP3    H126859   6.778   3.759   2.491
 8965TIP3    H226860   6.689   3.844   2.578
 8966TIP3   OH226861   6.244   1.943   2.509
 8966TIP3    H126862   6.306   1.925   2.580
 8966TIP3    H226863   6.179   1.873   2.516
 8967TIP3   OH226864   0.309   5.131   1.579
 8967TIP3    H126865   0.372   5.136   1.508
 8967TIP3    H226866   0.308   5.219   1.617
 8968TIP3   OH226867   2.176   6.415   0.352
 8968TIP3    H126868   2.213   6.343   0.300
 8968TIP3    H226869   2.104   6.448   0.299
 8969TIP3   OH226870   5.246   4.817   1.378
 8969TIP3    H126871   5.239   4.832   1.472
 8969TIP3    H226872   5.235   4.903   1.338
 8970TIP3   OH226873   4.566   3.693   3.251
 8970TIP3    H126874   4.550   3.745   3.330
 8970TIP3    H226875   4.660   3.676   3.253
 8971TIP3   OH226876   6.873   3.151   0.973
 8971TIP3    H126877   6.966   3.132   0.965
 8971TIP3    H226878   6.830   3.087   0.917
 8972TIP3   OH226879   1.895   0.775   3.509
 8972TIP3    H126880   1.930   0.735   3.429
 8972TIP3    H226881   1.868   0.701   3.563
 8973TIP3   OH226882   0.550   3.068   5.265
 8973TIP3    H126883   0.565   3.099   5.354
 8973TIP3    H226884   0.494   2.991   5.275
 8974TIP3   OH226885   2.521   4.907   2.826
 8974TIP3    H126886   2.582   4.979   2.846
 8974TIP3    H226887   2.461   4.944   2.762
 8975TIP3   OH226888   1.046   2.918   0.597
 8975TIP3    H126889   0.962   2.913   0.551
 8975TIP3    H226890   1.111   2.905   0.528
 8976TIP3   OH226891   0.529   0.539   3.583
 8976TIP3    H126892   0.469   0.473   3.619
 8976TIP3    H226893   0.571   0.496   3.509
 8977TIP3   OH226894   3.567   2.970   5.164
 8977TIP3    H126895   3.531   3.019   5.238
 8977TIP3    H226896   3.558   3.029   5.089
 8978TIP3   OH226897   4.807   3.339   4.157
 8978TIP3    H126898   4.845   3.296   4.080
 8978TIP3    H226899   4.845   3.292   4.231
 8979TIP3   OH226900   4.549   0.106   2.454
 8979TIP3    H126901   4.633   0.109   2.409
 8979TIP3    H226902   4.503   0.185   2.425
 8980TIP3   OH226903   2.192   0.183   1.303
 8980TIP3    H126904   2.147   0.115   1.252
 8980TIP3    H226905   2.229   0.136   1.377
 8981TIP3   OH226906   6.314   5.047   4.244
 8981TIP3    H126907   6.380   4.979   4.232
 8981TIP3    H226908   6.231   5.001   4.243
 8982TIP3   OH226909   3.431   1.273   0.464
 8982TIP3    H126910   3.453   1.361   0.494
 8982TIP3    H226911   3.495   1.255   0.395
 8983TIP3   OH226912   0.273   6.461   1.787
 8983TIP3    H126913   0.254   6.554   1.797
 8983TIP3    H226914   0.295   6.450   1.695
 8984TIP3   OH226915   0.759   0.281   2.044
 8984TIP3    H126916   0.816   0.332   1.987
 8984TIP3    H226917   0.779   0.313   2.132
 8985TIP3   OH226918   6.882   4.258   0.150
 8985TIP3    H126919   6.841   4.330   0.101
 8985TIP3    H226920   6.873   4.284   0.242
 8986TIP3   OH226921   6.535   0.906   5.175
 8986TIP3    H126922   6.592   0.904   5.098
 8986TIP3    H226923   6.595   0.909   5.250
 8987TIP3   OH226924   0.050   0.232   2.658
 8987TIP3    H126925  -0.031   0.182   2.666
 8987TIP3    H226926   0.068   0.263   2.747
 8988TIP3   OH226927   4.262   3.353   0.214
 8988TIP3    H126928   4.201   3.295   0.170
 8988TIP3    H226929   4.289   3.305   0.293
 8989TIP3   OH226930   6.290   5.014   2.775
 8989TIP3    H126931   6.370   4.976   2.811
 8989TIP3    H226932   6.319   5.095   2.733
 8990TIP3   OH226933   2.870   0.194   4.524
 8990TIP3    H126934   2.848   0.151   4.442
 8990TIP3    H226935   2.786   0.218   4.563
 8991TIP3   OH226936   1.858   4.075   1.737
 8991TIP3    H126937   1.880   3.993   1.781
 8991TIP3    H226938   1.892   4.065   1.649
 8992TIP3   OH226939   5.532   4.874   2.923
 8992TIP3    H126940   5.472   4.849   2.853
 8992TIP3    H226941   5.575   4.793   2.949
 8993TIP3   OH226942   1.741   6.146   2.925
 8993TIP3    H126943   1.723   6.087   2.998
 8993TIP3    H226944   1.698   6.228   2.950
 8994TIP3   OH226945   1.507   3.793   0.278
 8994TIP3    H126946   1.421   3.762   0.306
 8994TIP3    H226947   1.507   3.886   0.300
 8995TIP3   OH226948   2.385   3.711   2.483
 8995TIP3    H126949   2.453   3.702   2.551
 8995TIP3    H226950   2.434   3.710   2.401
 8996TIP3   OH226951   5.252   0.341   4.325
 8996TIP3    H126952   5.343   0.318   4.307
 8996TIP3    H226953   5.249   0.354   4.420
 8997TIP3   OH226954   5.072   0.970   0.591
 8997TIP3    H126955   5.033   1.025   0.659
 8997TIP3    H226956   5.002   0.910   0.566
 8998TIP3   OH226957   2.688   2.817   2.495
 8998TIP3    H126958   2.662   2.785   2.409
 8998TIP3    H226959   2.730   2.742   2.537
 8999TIP3   OH226960   4.128   0.157   1.593
 8999TIP3    H126961   4.219   0.181   1.576
 8999TIP3    H226962   4.134   0.079   1.648
 9000TIP3   OH226963   3.138   1.332   1.093
 9000TIP3    H126964   3.062   1.297   1.139
 9000TIP3    H226965   3.113   1.330   1.001
 9001TIP3   OH226966   6.065   4.340   2.024
 9001TIP3    H126967   6.155   4.372   2.018
 9001TIP3    H226968   6.072   4.246   2.010
 9002TIP3   OH226969   3.006   1.324   2.390
 9002TIP3    H126970   2.910   1.332   2.394
 9002TIP3    H226971   3.028   1.274   2.469
 9003TIP3   OH226972   2.085   3.310   3.094
 9003TIP3    H126973   2.100   3.333   3.185
 9003TIP3    H226974   2.019   3.372   3.064
 9004TIP3   OH226975   2.244   2.889   4.750
 9004TIP3    H126976   2.192   2.842   4.815
 9004TIP3    H226977   2.283   2.962   4.799
 9005TIP3   OH226978   4.532   3.407   2.018
 9005TIP3    H126979   4.599   3.472   2.035
 9005TIP3    H226980   4.516   3.365   2.103
 9006TIP3   OH226981   0.818   3.322   1.756
 9006TIP3    H126982   0.800   3.398   1.811
 9006TIP3    H226983   0.914   3.318   1.752
 9007TIP3   OH226984   0.871   3.286   2.158
 9007TIP3    H126985   0.862   3.375   2.126
 9007TIP3    H226986   0.957   3.258   2.128
 9008TIP3   OH226987   3.771   3.509   5.533
 9008TIP3    H126988   3.690   3.482   5.576
 9008TIP3    H226989   3.781   3.447   5.460
 9009TIP3   OH226990   6.071   3.200   2.103
 9009TIP3    H126991   6.077   3.207   2.198
 9009TIP3    H226992   6.160   3.218   2.072
 9010TIP3   OH226993   3.604   6.629   1.358
 9010TIP3    H126994   3.585   6.718   1.386
 9010TIP3    H226995   3.700   6.623   1.360
 9011TIP3   OH226996   4.742   2.280   3.946
 9011TIP3    H126997   4.703   2.352   3.897
 9011TIP3    H226998   4.798   2.322   4.011
 9012TIP3   OH226999   3.305   0.787   2.747
 9012TIP3    H127000   3.213   0.775   2.770
 9012TIP3    H227001   3.339   0.698   2.736
 9013TIP3   OH227002   5.345   5.154   0.934
 9013TIP3    H127003   5.299   5.160   0.850
 9013TIP3    H227004   5.399   5.076   0.926
 9014TIP3   OH227005   0.179   4.887   5.088
 9014TIP3    H127006   0.120   4.911   5.159
 9014TIP3    H227007   0.254   4.946   5.099
 9015TIP3   OH227008   6.246   6.241   2.375
 9015TIP3    H127009   6.266   6.311   2.312
 9015TIP3    H227010   6.237   6.287   2.458
 9016TIP3   OH227011   7.021   0.337   5.788
 9016TIP3    H127012   6.944   0.393   5.778
 9016TIP3    H227013   7.091   0.385   5.744
 9017TIP3   OH227014   6.650   4.782   2.193
 9017TIP3    H127015   6.599   4.863   2.193
 9017TIP3    H227016   6.588   4.715   2.224
 9018TIP3   OH227017   0.993   5.984   3.920
 9018TIP3    H127018   0.922   5.991   3.856
 9018TIP3    H227019   1.007   6.075   3.949
 9019TIP3   OH227020   6.969   4.429   4.392
 9019TIP3    H127021   6.959   4.339   4.422
 9019TIP3    H227022   6.890   4.473   4.422
 9020TIP3   OH227023   3.602   6.653   3.191
 9020TIP3    H127024   3.625   6.601   3.114
 9020TIP3    H227025   3.515   6.687   3.172
 9021TIP3   OH227026   1.369   1.051   3.278
 9021TIP3    H127027   1.364   1.114   3.207
 9021TIP3    H227028   1.331   0.971   3.242
 9022TIP3   OH227029   2.654   3.492   2.099
 9022TIP3    H127030   2.578   3.497   2.041
 9022TIP3    H227031   2.669   3.398   2.110
 9023TIP3   OH227032   1.421   3.169   3.150
 9023TIP3    H127033   1.458   3.211   3.228
 9023TIP3    H227034   1.327   3.185   3.157
 9024TIP3   OH227035   5.375   3.839   4.095
 9024TIP3    H127036   5.314   3.913   4.095
 9024TIP3    H227037   5.325   3.768   4.135
 9025TIP3   OH227038   1.336   0.890   5.600
 9025TIP3    H127039   1.332   0.925   5.689
 9025TIP3    H227040   1.370   0.802   5.611
 9026TIP3   OH227041   1.034   3.087   0.287
 9026TIP3    H127042   0.976   3.154   0.323
 9026TIP3    H227043   1.122   3.123   0.301
 9027TIP3   OH227044   0.524   3.448   0.475
 9027TIP3    H127045   0.595   3.502   0.510
 9027TIP3    H227046   0.445   3.479   0.520
 9028TIP3   OH227047   0.400   0.333   3.695
 9028TIP3    H127048   0.306   0.315   3.691
 9028TIP3    H227049   0.418   0.340   3.789
 9029TIP3   OH227050   3.389   5.497   3.887
 9029TIP3    H127051   3.337   5.503   3.967
 9029TIP3    H227052   3.464   5.554   3.904
 9030TIP3   OH227053   6.881   0.147   0.860
 9030TIP3    H127054   6.867   0.155   0.766
 9030TIP3    H227055   6.950   0.210   0.880
 9031TIP3   OH227056   3.473   0.952   5.785
 9031TIP3    H127057   3.430   0.992   5.861
 9031TIP3    H227058   3.468   1.018   5.716
 9032TIP3   OH227059   3.244   5.010   4.798
 9032TIP3    H127060   3.307   5.050   4.858
 9032TIP3    H227061   3.216   5.082   4.741
 9033TIP3   OH227062   6.031   4.780   1.099
 9033TIP3    H127063   5.977   4.792   1.178
 9033TIP3    H227064   5.990   4.837   1.034
 9034TIP3   OH227065   5.896   4.898   4.393
 9034TIP3    H127066   5.832   4.831   4.370
 9034TIP3    H227067   5.946   4.911   4.312
 9035TIP3   OH227068   5.183   0.951   0.251
 9035TIP3    H127069   5.251   0.978   0.314
 9035TIP3    H227070   5.159   0.863   0.280
 9036TIP3   OH227071   3.967   0.361   5.624
 9036TIP3    H127072   4.047   0.402   5.655
 9036TIP3    H227073   3.912   0.353   5.702
 9037TIP3   OH227074   6.913   6.460   0.649
 9037TIP3    H127075   6.831   6.428   0.613
 9037TIP3    H227076   6.965   6.485   0.572
 9038TIP3   OH227077   6.416   3.644   1.679
 9038TIP3    H127078   6.354   3.677   1.614
 9038TIP3    H227079   6.389   3.553   1.694
 9039TIP3   OH227080   4.417   0.919   2.276
 9039TIP3    H127081   4.352   0.851   2.261
 9039TIP3    H227082   4.405   0.944   2.368
 9040TIP3   OH227083   3.893   4.095   5.672
 9040TIP3    H127084   3.913   4.188   5.665
 9040TIP3    H227085   3.976   4.053   5.692
 9041TIP3   OH227086   6.562   1.644   5.834
 9041TIP3    H127087   6.644   1.636   5.882
 9041TIP3    H227088   6.499   1.594   5.886
 9042TIP3   OH227089   6.682   6.196   3.214
 9042TIP3    H127090   6.752   6.140   3.180
 9042TIP3    H227091   6.695   6.195   3.309
 9043TIP3   OH227092   0.838   1.998   5.099
 9043TIP3    H127093   0.780   2.073   5.095
 9043TIP3    H227094   0.837   1.962   5.010
 9044TIP3   OH227095   5.401   1.818   2.431
 9044TIP3    H127096   5.367   1.823   2.520
 9044TIP3    H227097   5.343   1.756   2.386
 9045TIP3   OH227098   6.487   2.003   5.146
 9045TIP3    H127099   6.402   2.043   5.128
 9045TIP3    H227100   6.549   2.053   5.092
 9046TIP3   OH227101   2.315   3.700   1.289
 9046TIP3    H127102   2.372   3.624   1.302
 9046TIP3    H227103   2.342   3.762   1.356
 9047TIP3   OH227104   4.764   5.258   5.862
 9047TIP3    H127105   4.690   5.199   5.849
 9047TIP3    H227106   4.765   5.276   5.956
 9048TIP3   OH227107   4.120   3.365   4.894
 9048TIP3    H127108   4.039   3.321   4.920
 9048TIP3    H227109   4.190   3.310   4.928
 9049TIP3   OH227110   0.433   3.716   0.954
 9049TIP3    H127111   0.407   3.656   0.883
 9049TIP3    H227112   0.490   3.664   1.009
 9050TIP3   OH227113   4.345   1.809   4.786
 9050TIP3    H127114   4.298   1.815   4.703
 9050TIP3    H227115   4.276   1.811   4.853
 9051TIP3   OH227116   3.390   0.313   3.843
 9051TIP3    H127117   3.359   0.401   3.827
 9051TIP3    H227118   3.471   0.306   3.793
 9052TIP3   OH227119   5.387   3.508   5.803
 9052TIP3    H127120   5.431   3.571   5.747
 9052TIP3    H227121   5.331   3.458   5.744
 9053TIP3   OH227122   1.155   1.357   5.368
 9053TIP3    H127123   1.112   1.361   5.454
 9053TIP3    H227124   1.138   1.267   5.338
 9054TIP3   OH227125   1.566   1.876   2.293
 9054TIP3    H127126   1.618   1.878   2.213
 9054TIP3    H227127   1.615   1.929   2.356
 9055TIP3   OH227128   5.842   5.547   5.826
 9055TIP3    H127129   5.785   5.624   5.826
 9055TIP3    H227130   5.809   5.493   5.754
 9056TIP3   OH227131   3.767   4.659   1.315
 9056TIP3    H127132   3.742   4.591   1.252
 9056TIP3    H227133   3.802   4.729   1.261
 9057TIP3   OH227134   0.060   6.573   0.887
 9057TIP3    H127135   0.003   6.498   0.871
 9057TIP3    H227136   0.006   6.635   0.936
 9058TIP3   OH227137   4.768   1.539   5.678
 9058TIP3    H127138   4.804   1.591   5.750
 9058TIP3    H227139   4.675   1.528   5.701
 9059TIP3   OH227140   3.535   1.577   1.823
 9059TIP3    H127141   3.569   1.583   1.912
 9059TIP3    H227142   3.444   1.552   1.833
 9060TIP3   OH227143   0.106   1.459   4.171
 9060TIP3    H127144   0.130   1.369   4.192
 9060TIP3    H227145   0.010   1.460   4.175
 9061TIP3   OH227146   5.543   4.229   3.474
 9061TIP3    H127147   5.476   4.297   3.480
 9061TIP3    H227148   5.603   4.249   3.546
 9062TIP3   OH227149   6.543   5.753   0.817
 9062TIP3    H127150   6.501   5.829   0.776
 9062TIP3    H227151   6.635   5.762   0.795
 9063TIP3   OH227152   2.705   6.332   0.354
 9063TIP3    H127153   2.674   6.306   0.440
 9063TIP3    H227154   2.626   6.355   0.306
 9064TIP3   OH227155   5.869   1.136   0.184
 9064TIP3    H127156   5.944   1.105   0.235
 9064TIP3    H227157   5.908   1.186   0.113
 9065TIP3   OH227158   6.224   4.246   5.671
 9065TIP3    H127159   6.154   4.228   5.733
 9065TIP3    H227160   6.249   4.337   5.688
 9066TIP3   OH227161   1.317   4.005   5.387
 9066TIP3    H127162   1.247   4.061   5.354
 9066TIP3    H227163   1.280   3.965   5.466
 9067TIP3   OH227164   2.455   3.384   2.765
 9067TIP3    H127165   2.545   3.386   2.797
 9067TIP3    H227166   2.442   3.294   2.735
 9068TIP3   OH227167   5.289   2.433   1.012
 9068TIP3    H127168   5.223   2.366   1.031
 9068TIP3    H227169   5.348   2.431   1.087
 9069TIP3   OH227170   2.605   6.042   4.223
 9069TIP3    H127171   2.662   6.086   4.285
 9069TIP3    H227172   2.657   6.035   4.143
 9070TIP3   OH227173   1.740   3.494   1.689
 9070TIP3    H127174   1.664   3.528   1.641
 9070TIP3    H227175   1.812   3.553   1.664
 9071TIP3   OH227176   0.328   4.073   5.504
 9071TIP3    H127177   0.276   4.071   5.585
 9071TIP3    H227178   0.268   4.112   5.439
 9072TIP3   OH227179   3.466   2.519   1.581
 9072TIP3    H127180   3.406   2.483   1.646
 9072TIP3    H227181   3.495   2.602   1.618
 9073TIP3   OH227182   4.269   3.944   4.290
 9073TIP3    H127183   4.303   4.008   4.352
 9073TIP3    H227184   4.277   3.860   4.336
 9074TIP3   OH227185   3.484   3.661   2.100
 9074TIP3    H127186   3.481   3.756   2.117
 9074TIP3    H227187   3.550   3.652   2.032
 9075TIP3   OH227188   0.623   4.177   5.089
 9075TIP3    H127189   0.657   4.130   5.166
 9075TIP3    H227190   0.550   4.229   5.123
 9076TIP3   OH227191   1.445   5.690   3.373
 9076TIP3    H127192   1.451   5.713   3.465
 9076TIP3    H227193   1.525   5.726   3.334
 9077TIP3   OH227194   7.004   6.793   3.684
 9077TIP3    H127195   6.945   6.733   3.639
 9077TIP3    H227196   7.073   6.737   3.719
 9078TIP3   OH227197   2.643   0.220   4.672
 9078TIP3    H127198   2.629   0.247   4.762
 9078TIP3    H227199   2.571   0.161   4.652
 9079TIP3   OH227200   0.254   3.978   4.556
 9079TIP3    H127201   0.166   3.960   4.587
 9079TIP3    H227202   0.265   4.072   4.566
 9080TIP3   OH227203   4.077   3.998   4.802
 9080TIP3    H127204   3.982   3.989   4.809
 9080TIP3    H227205   4.098   3.960   4.716
 9081TIP3   OH227206   3.843   2.477   0.016
 9081TIP3    H127207   3.927   2.457   0.056
 9081TIP3    H227208   3.794   2.395   0.022
 9082TIP3   OH227209   6.972   2.979   3.659
 9082TIP3    H127210   6.890   2.935   3.684
 9082TIP3    H227211   6.958   3.005   3.568
 9083TIP3   OH227212   5.819   5.878   0.266
 9083TIP3    H127213   5.901   5.927   0.258
 9083TIP3    H227214   5.776   5.914   0.343
 9084TIP3   OH227215   6.104   5.644   5.848
 9084TIP3    H127216   6.013   5.618   5.860
 9084TIP3    H227217   6.155   5.567   5.874
 9085TIP3   OH227218   0.372   2.827   1.786
 9085TIP3    H127219   0.436   2.855   1.851
 9085TIP3    H227220   0.292   2.810   1.835
 9086TIP3   OH227221   6.586   1.904   0.412
 9086TIP3    H127222   6.623   1.860   0.489
 9086TIP3    H227223   6.638   1.983   0.403
 9087TIP3   OH227224   0.468   4.741   2.693
 9087TIP3    H127225   0.542   4.786   2.735
 9087TIP3    H227226   0.509   4.670   2.643
 9088TIP3   OH227227   2.391   3.120   2.999
 9088TIP3    H127228   2.475   3.104   2.957
 9088TIP3    H227229   2.406   3.196   3.055
 9089TIP3   OH227230   6.477   4.429   0.321
 9089TIP3    H127231   6.546   4.401   0.261
 9089TIP3    H227232   6.517   4.423   0.408
 9090TIP3   OH227233   1.223   2.152   5.070
 9090TIP3    H127234   1.305   2.126   5.114
 9090TIP3    H227235   1.177   2.070   5.055
 9091TIP3   OH227236   6.287   3.504   5.807
 9091TIP3    H127237   6.234   3.579   5.778
 9091TIP3    H227238   6.306   3.456   5.726
 9092TIP3   OH227239   0.719   0.263   4.372
 9092TIP3    H127240   0.726   0.246   4.278
 9092TIP3    H227241   0.648   0.205   4.402
 9093TIP3   OH227242   1.436   1.398   0.977
 9093TIP3    H127243   1.350   1.385   0.937
 9093TIP3    H227244   1.433   1.347   1.058
 9094TIP3   OH227245   3.538   1.951   5.304
 9094TIP3    H127246   3.491   2.033   5.318
 9094TIP3    H227247   3.469   1.888   5.282
 9095TIP3   OH227248   6.604   1.047   3.984
 9095TIP3    H127249   6.672   0.982   3.966
 9095TIP3    H227250   6.528   1.018   3.935
 9096TIP3   OH227251   6.341   2.550   1.766
 9096TIP3    H127252   6.424   2.574   1.809
 9096TIP3    H227253   6.366   2.523   1.678
 9097TIP3   OH227254   6.783   5.378   0.106
 9097TIP3    H127255   6.740   5.430   0.173
 9097TIP3    H227256   6.852   5.330   0.152
 9098TIP3   OH227257   6.949   0.791   3.889
 9098TIP3    H127258   6.864   0.790   3.845
 9098TIP3    H227259   6.953   0.707   3.934
 9099TIP3   OH227260   2.077   2.879   1.450
 9099TIP3    H127261   2.146   2.882   1.383
 9099TIP3    H227262   2.072   2.969   1.483
 9100TIP3   OH227263   5.412   6.368   0.250
 9100TIP3    H127264   5.375   6.387   0.164
 9100TIP3    H227265   5.419   6.453   0.294
 9101TIP3   OH227266   4.384   5.394   1.671
 9101TIP3    H127267   4.412   5.432   1.754
 9101TIP3    H227268   4.408   5.302   1.677
 9102TIP3   OH227269   6.887   4.638   0.688
 9102TIP3    H127270   6.888   4.584   0.609
 9102TIP3    H227271   6.952   4.707   0.669
 9103TIP3   OH227272   7.215   0.678   1.211
 9103TIP3    H127273   7.137   0.697   1.159
 9103TIP3    H227274   7.240   0.762   1.250
 9104TIP3   OH227275   5.613   6.569   4.263
 9104TIP3    H127276   5.627   6.552   4.356
 9104TIP3    H227277   5.701   6.585   4.229
 9105TIP3   OH227278   4.447   1.660   2.353
 9105TIP3    H127279   4.384   1.641   2.283
 9105TIP3    H227280   4.493   1.577   2.365
 9106TIP3   OH227281   2.259   4.059   5.433
 9106TIP3    H127282   2.307   4.142   5.439
 9106TIP3    H227283   2.325   3.992   5.454
 9107TIP3   OH227284   3.260   0.426   1.215
 9107TIP3    H127285   3.238   0.504   1.165
 9107TIP3    H227286   3.350   0.405   1.188
 9108TIP3   OH227287   2.936   0.305   0.946
 9108TIP3    H127288   3.025   0.317   0.914
 9108TIP3    H227289   2.921   0.379   1.004
 9109TIP3   OH227290   6.465   2.089   2.963
 9109TIP3    H127291   6.387   2.037   2.943
 9109TIP3    H227292   6.486   2.067   3.054
 9110TIP3   OH227293   6.011   0.003   0.611
 9110TIP3    H127294   5.993   0.067   0.680
 9110TIP3    H227295   5.942  -0.062   0.619
 9111TIP3   OH227296   0.956   2.821   5.256
 9111TIP3    H127297   0.976   2.792   5.167
 9111TIP3    H227298   1.010   2.899   5.268
 9112TIP3   OH227299   6.525   0.168   5.023
 9112TIP3    H127300   6.583   0.092   5.029
 9112TIP3    H227301   6.445   0.134   4.984
 9113TIP3   OH227302   3.574   1.485   0.590
 9113TIP3    H127303   3.552   1.513   0.679
 9113TIP3    H227304   3.664   1.515   0.576
 9114TIP3   OH227305   6.718   3.493   0.123
 9114TIP3    H127306   6.765   3.565   0.081
 9114TIP3    H227307   6.753   3.490   0.212
 9115TIP3   OH227308   1.206   5.338   0.119
 9115TIP3    H127309   1.193   5.287   0.039
 9115TIP3    H227310   1.298   5.326   0.140
 9116TIP3   OH227311   0.459   2.388   5.115
 9116TIP3    H127312   0.457   2.475   5.155
 9116TIP3    H227313   0.461   2.404   5.021
 9117TIP3   OH227314   3.361   3.002   4.561
 9117TIP3    H127315   3.287   2.990   4.620
 9117TIP3    H227316   3.435   2.965   4.608
 9118TIP3   OH227317   2.394   5.305   4.825
 9118TIP3    H127318   2.341   5.317   4.746
 9118TIP3    H227319   2.331   5.310   4.897
 9119TIP3   OH227320   1.055   4.794   1.673
 9119TIP3    H127321   0.983   4.846   1.710
 9119TIP3    H227322   1.079   4.841   1.593
 9120TIP3   OH227323   1.329   2.153   2.357
 9120TIP3    H127324   1.296   2.089   2.294
 9120TIP3    H227325   1.259   2.217   2.365
 9121TIP3   OH227326   4.321   0.655   5.456
 9121TIP3    H127327   4.326   0.596   5.380
 9121TIP3    H227328   4.371   0.611   5.524
 9122TIP3   OH227329   6.327   5.129   0.051
 9122TIP3    H127330   6.382   5.168   0.119
 9122TIP3    H227331   6.244   5.175   0.057
 9123TIP3   OH227332   7.126   4.348   0.698
 9123TIP3    H127333   7.075   4.390   0.767
 9123TIP3    H227334   7.062   4.295   0.651
 9124TIP3   OH227335   1.990   4.095   2.330
 9124TIP3    H127336   2.036   4.119   2.249
 9124TIP3    H227337   2.060   4.081   2.394
 9125TIP3   OH227338   3.421   4.021   5.260
 9125TIP3    H127339   3.421   4.036   5.354
 9125TIP3    H227340   3.472   4.093   5.224
 9126TIP3   OH227341   5.271   1.524   0.161
 9126TIP3    H127342   5.234   1.438   0.181
 9126TIP3    H227343   5.226   1.584   0.221
 9127TIP3   OH227344   3.057   2.821   5.651
 9127TIP3    H127345   3.146   2.788   5.664
 9127TIP3    H227346   3.026   2.776   5.573
 9128TIP3   OH227347   2.961   1.479   1.943
 9128TIP3    H127348   2.930   1.555   1.894
 9128TIP3    H227349   3.053   1.471   1.919
 9129TIP3   OH227350   4.013   5.263   1.197
 9129TIP3    H127351   3.933   5.221   1.228
 9129TIP3    H227352   4.068   5.192   1.165
 9130TIP3   OH227353   1.654   6.215   1.820
 9130TIP3    H127354   1.685   6.301   1.793
 9130TIP3    H227355   1.630   6.227   1.912
 9131TIP3   OH227356   4.422   5.427   0.497
 9131TIP3    H127357   4.428   5.452   0.405
 9131TIP3    H227358   4.512   5.430   0.529
 9132TIP3   OH227359   6.910   2.686   2.179
 9132TIP3    H127360   6.816   2.696   2.162
 9132TIP3    H227361   6.932   2.601   2.141
 9133TIP3   OH227362   2.251   2.795   2.819
 9133TIP3    H127363   2.203   2.866   2.862
 9133TIP3    H227364   2.341   2.827   2.814
 9134TIP3   OH227365   4.496   4.506   0.039
 9134TIP3    H127366   4.494   4.601   0.025
 9134TIP3    H227367   4.518   4.496   0.131
 9135TIP3   OH227368   4.734   2.349   0.632
 9135TIP3    H127369   4.728   2.255   0.646
 9135TIP3    H227370   4.671   2.368   0.563
 9136TIP3   OH227371   4.605   5.393   1.483
 9136TIP3    H127372   4.551   5.346   1.547
 9136TIP3    H227373   4.639   5.468   1.532
 9137TIP3   OH227374   3.237   1.623   3.084
 9137TIP3    H127375   3.187   1.559   3.034
 9137TIP3    H227376   3.228   1.704   3.034
 9138TIP3   OH227377   4.631   2.979   0.450
 9138TIP3    H127378   4.705   3.012   0.502
 9138TIP3    H227379   4.557   3.034   0.475
 9139TIP3   OH227380   5.735   3.831   3.815
 9139TIP3    H127381   5.644   3.829   3.842
 9139TIP3    H227382   5.746   3.918   3.775
 9140TIP3   OH227383   5.008   0.073   3.387
 9140TIP3    H127384   5.072   0.040   3.451
 9140TIP3    H227385   5.061   0.097   3.311
 9141TIP3   OH227386   5.281   2.544   3.477
 9141TIP3    H127387   5.304   2.453   3.456
 9141TIP3    H227388   5.365   2.590   3.478
 9142TIP3   OH227389   2.590   2.656   1.812
 9142TIP3    H127390   2.626   2.594   1.876
 9142TIP3    H227391   2.625   2.741   1.838
 9143TIP3   OH227392   5.571   1.510   2.439
 9143TIP3    H127393   5.629   1.501   2.515
 9143TIP3    H227394   5.497   1.561   2.473
 9144TIP3   OH227395   6.822   0.562   1.577
 9144TIP3    H127396   6.841   0.485   1.523
 9144TIP3    H227397   6.836   0.636   1.518
 9145TIP3   OH227398   6.265   2.708   0.939
 9145TIP3    H127399   6.293   2.749   1.021
 9145TIP3    H227400   6.256   2.781   0.878
 9146TIP3   OH227401   4.286   2.117   1.062
 9146TIP3    H127402   4.364   2.125   1.006
 9146TIP3    H227403   4.265   2.206   1.088
 9147TIP3   OH227404   0.361   3.429   2.824
 9147TIP3    H127405   0.314   3.403   2.745
 9147TIP3    H227406   0.404   3.349   2.853
 9148TIP3   OH227407   5.609   4.846   3.322
 9148TIP3    H127408   5.550   4.919   3.301
 9148TIP3    H227409   5.641   4.866   3.410
 9149TIP3   OH227410   4.885   1.898   2.085
 9149TIP3    H127411   4.935   1.951   2.147
 9149TIP3    H227412   4.795   1.928   2.093
 9150TIP3   OH227413   6.683   2.632   5.103
 9150TIP3    H127414   6.596   2.656   5.070
 9150TIP3    H227415   6.744   2.683   5.050
 9151TIP3   OH227416   5.151   0.008   0.800
 9151TIP3    H127417   5.150   0.094   0.758
 9151TIP3    H227418   5.229   0.011   0.857
 9152TIP3   OH227419   3.230   1.820   1.804
 9152TIP3    H127420   3.207   1.885   1.737
 9152TIP3    H227421   3.241   1.738   1.755
 9153TIP3   OH227422   3.353   5.431   5.750
 9153TIP3    H127423   3.378   5.522   5.764
 9153TIP3    H227424   3.290   5.434   5.678
 9154TIP3   OH227425   5.926   2.074   1.936
 9154TIP3    H127426   6.002   2.032   1.976
 9154TIP3    H227427   5.876   2.108   2.011
 9155TIP3   OH227428   0.396   3.505   5.698
 9155TIP3    H127429   0.396   3.421   5.651
 9155TIP3    H227430   0.400   3.480   5.790
 9156TIP3   OH227431   5.214   5.271   2.638
 9156TIP3    H127432   5.253   5.359   2.635
 9156TIP3    H227433   5.165   5.264   2.557
 9157TIP3   OH227434   5.253   6.262   1.726
 9157TIP3    H127435   5.201   6.340   1.709
 9157TIP3    H227436   5.344   6.289   1.712
 9158TIP3   OH227437   3.747   3.645   3.882
 9158TIP3    H127438   3.673   3.628   3.823
 9158TIP3    H227439   3.707   3.671   3.965
 9159TIP3   OH227440   0.530   3.091   0.123
 9159TIP3    H127441   0.508   3.018   0.066
 9159TIP3    H227442   0.579   3.051   0.195
 9160TIP3   OH227443   1.011   4.810   0.952
 9160TIP3    H127444   0.938   4.843   0.901
 9160TIP3    H227445   0.975   4.734   0.998
 9161TIP3   OH227446   5.753   3.938   5.816
 9161TIP3    H127447   5.809   3.932   5.738
 9161TIP3    H227448   5.712   4.024   5.809
 9162TIP3   OH227449   2.743   2.675   1.596
 9162TIP3    H127450   2.661   2.687   1.549
 9162TIP3    H227451   2.717   2.646   1.683
 9163TIP3   OH227452   5.530   0.356   4.672
 9163TIP3    H127453   5.464   0.342   4.604
 9163TIP3    H227454   5.565   0.269   4.690
 9164TIP3   OH227455   0.212   6.207   0.754
 9164TIP3    H127456   0.240   6.273   0.690
 9164TIP3    H227457   0.166   6.142   0.701
 9165TIP3   OH227458   1.323   6.591   3.400
 9165TIP3    H127459   1.299   6.648   3.473
 9165TIP3    H227460   1.409   6.555   3.424
 9166TIP3   OH227461   3.997   2.549   2.384
 9166TIP3    H127462   3.906   2.540   2.412
 9166TIP3    H227463   3.999   2.634   2.340
 9167TIP3   OH227464   4.133   6.797   4.040
 9167TIP3    H127465   4.125   6.878   4.091
 9167TIP3    H227466   4.096   6.729   4.098
 9168TIP3   OH227467   5.947   2.331   1.544
 9168TIP3    H127468   5.984   2.249   1.512
 9168TIP3    H227469   5.878   2.305   1.605
 9169TIP3   OH227470   4.008   6.310   2.230
 9169TIP3    H127471   4.069   6.298   2.158
 9169TIP3    H227472   3.925   6.333   2.188
 9170TIP3   OH227473   1.521   2.472   2.285
 9170TIP3    H127474   1.486   2.519   2.210
 9170TIP3    H227475   1.607   2.512   2.301
 9171TIP3   OH227476   1.009   5.021   5.275
 9171TIP3    H127477   1.030   4.930   5.298
 9171TIP3    H227478   1.027   5.026   5.181
 9172TIP3   OH227479   5.216   2.316   4.535
 9172TIP3    H127480   5.161   2.303   4.613
 9172TIP3    H227481   5.231   2.227   4.502
 9173TIP3   OH227482   6.057   4.447   0.255
 9173TIP3    H127483   6.095   4.371   0.299
 9173TIP3    H227484   6.066   4.519   0.318
 9174TIP3   OH227485   2.708   2.799   0.420
 9174TIP3    H127486   2.786   2.745   0.410
 9174TIP3    H227487   2.742   2.886   0.441
 9175TIP3   OH227488   7.044   3.826   2.979
 9175TIP3    H127489   6.977   3.890   3.006
 9175TIP3    H227490   7.064   3.849   2.889
 9176TIP3   OH227491   2.051   0.179   3.079
 9176TIP3    H127492   2.108   0.256   3.074
 9176TIP3    H227493   2.107   0.110   3.115
 9177TIP3   OH227494   2.886   5.585   2.637
 9177TIP3    H127495   2.938   5.539   2.702
 9177TIP3    H227496   2.819   5.631   2.688
 9178TIP3   OH227497   2.569   5.805   3.590
 9178TIP3    H127498   2.604   5.834   3.674
 9178TIP3    H227499   2.636   5.829   3.526
 9179TIP3   OH227500   1.840   6.496   0.459
 9179TIP3    H127501   1.837   6.415   0.508
 9179TIP3    H227502   1.883   6.473   0.376
 9180TIP3   OH227503   3.080   1.165   4.358
 9180TIP3    H127504   3.172   1.149   4.380
 9180TIP3    H227505   3.050   1.229   4.422
 9181TIP3   OH227506   4.749   1.080   5.172
 9181TIP3    H127507   4.812   1.151   5.158
 9181TIP3    H227508   4.701   1.074   5.089
 9182TIP3   OH227509   6.548   5.698   2.209
 9182TIP3    H127510   6.578   5.710   2.119
 9182TIP3    H227511   6.458   5.668   2.200
 9183TIP3   OH227512   3.148   6.745   0.586
 9183TIP3    H127513   3.105   6.808   0.644
 9183TIP3    H227514   3.096   6.745   0.506
 9184TIP3   OH227515   1.168   5.593   3.488
 9184TIP3    H127516   1.231   5.628   3.424
 9184TIP3    H227517   1.153   5.503   3.460
 9185TIP3   OH227518   1.158   3.953   4.039
 9185TIP3    H127519   1.116   3.867   4.040
 9185TIP3    H227520   1.246   3.937   4.073
 9186TIP3   OH227521   3.516   3.612   2.480
 9186TIP3    H127522   3.527   3.680   2.414
 9186TIP3    H227523   3.599   3.611   2.527
 9187TIP3   OH227524   2.513   3.131   2.684
 9187TIP3    H127525   2.557   3.120   2.600
 9187TIP3    H227526   2.508   3.042   2.719
 9188TIP3   OH227527   5.008   6.114   1.154
 9188TIP3    H127528   4.964   6.098   1.238
 9188TIP3    H227529   5.095   6.075   1.165
 9189TIP3   OH227530   1.016   5.366   1.581
 9189TIP3    H127531   1.106   5.335   1.572
 9189TIP3    H227532   0.987   5.331   1.666
 9190TIP3   OH227533   1.108   6.592   5.235
 9190TIP3    H127534   1.019   6.576   5.267
 9190TIP3    H227535   1.152   6.636   5.307
 9191TIP3   OH227536   3.131   3.348   5.174
 9191TIP3    H127537   3.224   3.366   5.159
 9191TIP3    H227538   3.089   3.434   5.168
 9192TIP3   OH227539   4.072   4.270   2.012
 9192TIP3    H127540   4.122   4.328   1.955
 9192TIP3    H227541   4.000   4.238   1.958
 9193TIP3   OH227542   5.193   0.151   3.878
 9193TIP3    H127543   5.259   0.154   3.808
 9193TIP3    H227544   5.157   0.239   3.882
 9194TIP3   OH227545   7.088   1.292   4.246
 9194TIP3    H127546   7.058   1.325   4.331
 9194TIP3    H227547   7.035   1.214   4.230
 9195TIP3   OH227548   0.521   0.756   2.198
 9195TIP3    H127549   0.607   0.793   2.221
 9195TIP3    H227550   0.537   0.663   2.189
 9196TIP3   OH227551   3.121   6.622   1.217
 9196TIP3    H127552   3.060   6.587   1.152
 9196TIP3    H227553   3.205   6.582   1.195
 9197TIP3   OH227554   5.619   2.052   3.873
 9197TIP3    H127555   5.668   2.126   3.910
 9197TIP3    H227556   5.678   2.015   3.807
 9198TIP3   OH227557   0.855   4.432   2.556
 9198TIP3    H127558   0.862   4.371   2.630
 9198TIP3    H227559   0.942   4.431   2.517
 9199TIP3   OH227560   4.650   5.834   2.812
 9199TIP3    H127561   4.695   5.858   2.893
 9199TIP3    H227562   4.593   5.762   2.838
 9200TIP3   OH227563   0.440   3.190   2.904
 9200TIP3    H127564   0.375   3.156   2.967
 9200TIP3    H227565   0.492   3.113   2.880
 9201TIP3   OH227566   5.747   2.278   2.053
 9201TIP3    H127567   5.691   2.311   1.983
 9201TIP3    H227568   5.690   2.277   2.130
 9202TIP3   OH227569   5.376   4.279   4.710
 9202TIP3    H127570   5.314   4.350   4.695
 9202TIP3    H227571   5.341   4.205   4.660
 9203TIP3   OH227572   4.722   2.554   0.864
 9203TIP3    H127573   4.786   2.506   0.812
 9203TIP3    H227574   4.756   2.643   0.871
 9204TIP3   OH227575   4.879   0.826   4.870
 9204TIP3    H127576   4.790   0.857   4.886
 9204TIP3    H227577   4.935   0.890   4.914
 9205TIP3   OH227578   3.973   5.864   2.451
 9205TIP3    H127579   3.908   5.800   2.421
 9205TIP3    H227580   3.939   5.948   2.419
 9206TIP3   OH227581   3.206   5.879   1.102
 9206TIP3    H127582   3.294   5.856   1.130
 9206TIP3    H227583   3.187   5.962   1.146
 9207TIP3   OH227584   0.600   2.283   4.528
 9207TIP3    H127585   0.587   2.378   4.518
 9207TIP3    H227586   0.695   2.273   4.534
 9208TIP3   OH227587   5.522   2.018   0.056
 9208TIP3    H127588   5.456   2.088   0.049
 9208TIP3    H227589   5.603   2.059   0.026
 9209TIP3   OH227590   0.184   1.169   4.874
 9209TIP3    H127591   0.109   1.111   4.892
 9209TIP3    H227592   0.184   1.178   4.779
 9210TIP3   OH227593   6.197   6.480   4.888
 9210TIP3    H127594   6.176   6.520   4.804
 9210TIP3    H227595   6.214   6.388   4.869
 9211TIP3   OH227596   3.491   5.021   2.231
 9211TIP3    H127597   3.466   5.040   2.140
 9211TIP3    H227598   3.414   5.047   2.282
 9212TIP3   OH227599   1.390   1.086   0.128
 9212TIP3    H127600   1.483   1.073   0.111
 9212TIP3    H227601   1.364   1.155   0.066
 9213TIP3   OH227602   3.848   1.960   0.568
 9213TIP3    H127603   3.790   2.029   0.536
 9213TIP3    H227604   3.858   1.979   0.661
 9214TIP3   OH227605   6.778   0.092   5.327
 9214TIP3    H127606   6.727   0.147   5.386
 9214TIP3    H227607   6.841   0.048   5.385
 9215TIP3   OH227608   1.789   5.706   1.298
 9215TIP3    H127609   1.876   5.710   1.339
 9215TIP3    H227610   1.803   5.741   1.210
 9216TIP3   OH227611   5.715   5.237   1.264
 9216TIP3    H127612   5.683   5.147   1.274
 9216TIP3    H227613   5.643   5.282   1.220
 9217TIP3   OH227614   2.418   5.705   2.396
 9217TIP3    H127615   2.445   5.704   2.488
 9217TIP3    H227616   2.500   5.706   2.346
 9218TIP3   OH227617   0.888   3.635   5.580
 9218TIP3    H127618   0.923   3.708   5.632
 9218TIP3    H227619   0.793   3.651   5.578
 9219TIP3   OH227620   2.765   2.601   2.039
 9219TIP3    H127621   2.811   2.518   2.021
 9219TIP3    H227622   2.796   2.660   1.970
 9220TIP3   OH227623   4.552   2.021   4.739
 9220TIP3    H127624   4.476   1.963   4.741
 9220TIP3    H227625   4.521   2.100   4.695
 9221TIP3   OH227626   2.910   3.274   0.034
 9221TIP3    H127627   2.920   3.312  -0.053
 9221TIP3    H227628   2.883   3.347   0.090
 9222TIP3   OH227629   0.622   6.342   5.766
 9222TIP3    H127630   0.606   6.281   5.838
 9222TIP3    H227631   0.715   6.363   5.773
 9223TIP3   OH227632   4.762   4.730   2.972
 9223TIP3    H127633   4.693   4.782   2.931
 9223TIP3    H227634   4.781   4.776   3.054
 9224TIP3   OH227635   5.770   4.228   5.455
 9224TIP3    H127636   5.828   4.153   5.447
 9224TIP3    H227637   5.827   4.300   5.481
 9225TIP3   OH227638   4.950   0.118   4.888
 9225TIP3    H127639   4.954   0.200   4.839
 9225TIP3    H227640   4.859   0.113   4.917
 9226TIP3   OH227641   7.047   2.374   5.688
 9226TIP3    H127642   7.043   2.443   5.621
 9226TIP3    H227643   6.982   2.400   5.753
 9227TIP3   OH227644   6.689   0.394   0.309
 9227TIP3    H127645   6.778   0.394   0.273
 9227TIP3    H227646   6.701   0.386   0.403
 9228TIP3   OH227647   7.090   1.074   0.858
 9228TIP3    H127648   7.008   1.122   0.863
 9228TIP3    H227649   7.147   1.129   0.804
 9229TIP3   OH227650   5.433   5.771   3.965
 9229TIP3    H127651   5.363   5.834   3.947
 9229TIP3    H227652   5.512   5.824   3.974
 9230TIP3   OH227653   4.446   2.216   5.298
 9230TIP3    H127654   4.502   2.161   5.352
 9230TIP3    H227655   4.358   2.185   5.315
 9231TIP3   OH227656   4.534   2.439   0.486
 9231TIP3    H127657   4.554   2.532   0.485
 9231TIP3    H227658   4.491   2.422   0.402
 9232TIP3   OH227659   5.089   5.062   4.215
 9232TIP3    H127660   5.044   5.146   4.213
 9232TIP3    H227661   5.178   5.083   4.244
 9233TIP3   OH227662   1.510   2.936   3.038
 9233TIP3    H127663   1.571   2.903   3.103
 9233TIP3    H227664   1.492   3.027   3.064
 9234TIP3   OH227665   6.311   4.413   2.154
 9234TIP3    H127666   6.265   4.377   2.230
 9234TIP3    H227667   6.362   4.485   2.188
 9235TIP3   OH227668   0.163   4.608   2.470
 9235TIP3    H127669   0.127   4.678   2.416
 9235TIP3    H227670   0.186   4.650   2.553
 9236TIP3   OH227671   2.245   0.070   1.810
 9236TIP3    H127672   2.168   0.045   1.860
 9236TIP3    H227673   2.252   0.164   1.823
 9237TIP3   OH227674   1.508   0.453   5.231
 9237TIP3    H127675   1.527   0.387   5.165
 9237TIP3    H227676   1.592   0.494   5.250
 9238TIP3   OH227677   1.266   1.437   1.737
 9238TIP3    H127678   1.338   1.500   1.724
 9238TIP3    H227679   1.208   1.480   1.799
 9239TIP3   OH227680   4.781   3.799   5.102
 9239TIP3    H127681   4.845   3.855   5.059
 9239TIP3    H227682   4.729   3.762   5.030
 9240TIP3   OH227683   3.225   0.608   2.422
 9240TIP3    H127684   3.172   0.539   2.463
 9240TIP3    H227685   3.275   0.563   2.354
 9241TIP3   OH227686   3.970   1.552   2.009
 9241TIP3    H127687   3.926   1.533   2.092
 9241TIP3    H227688   4.021   1.473   1.990
 9242TIP3   OH227689   6.722   4.993   1.642
 9242TIP3    H127690   6.665   4.916   1.643
 9242TIP3    H227691   6.808   4.960   1.665
 9243TIP3   OH227692   4.356   3.389   2.577
 9243TIP3    H127693   4.343   3.316   2.638
 9243TIP3    H227694   4.448   3.382   2.551
 9244TIP3   OH227695   6.013   4.136   0.391
 9244TIP3    H127696   6.010   4.051   0.434
 9244TIP3    H227697   6.106   4.160   0.390
 9245TIP3   OH227698   2.879   3.005   5.339
 9245TIP3    H127699   2.811   2.966   5.394
 9245TIP3    H227700   2.959   2.957   5.362
 9246TIP3   OH227701   4.486   3.730   2.048
 9246TIP3    H127702   4.498   3.744   1.954
 9246TIP3    H227703   4.570   3.755   2.087
 9247TIP3   OH227704   0.782   2.955   5.760
 9247TIP3    H127705   0.833   2.876   5.742
 9247TIP3    H227706   0.773   2.957   5.856
 9248TIP3   OH227707   4.601   6.085   1.781
 9248TIP3    H127708   4.640   6.118   1.700
 9248TIP3    H227709   4.510   6.114   1.778
 9249TIP3   OH227710   3.250   1.365   5.778
 9249TIP3    H127711   3.203   1.429   5.724
 9249TIP3    H227712   3.195   1.354   5.856
 9250TIP3   OH227713   5.629   3.478   1.819
 9250TIP3    H127714   5.534   3.486   1.830
 9250TIP3    H227715   5.660   3.568   1.812
 9251TIP3   OH227716   3.257   3.399   4.300
 9251TIP3    H127717   3.227   3.331   4.360
 9251TIP3    H227718   3.318   3.452   4.352
 9252TIP3   OH227719   1.197   2.837   1.091
 9252TIP3    H127720   1.268   2.824   1.029
 9252TIP3    H227721   1.228   2.907   1.148
 9253TIP3   OH227722   0.430   2.704   0.902
 9253TIP3    H127723   0.379   2.763   0.957
 9253TIP3    H227724   0.405   2.727   0.813
 9254TIP3   OH227725   5.966   2.497   3.569
 9254TIP3    H127726   5.971   2.567   3.635
 9254TIP3    H227727   5.877   2.504   3.534
 9255TIP3   OH227728   4.562   2.528   3.849
 9255TIP3    H127729   4.567   2.586   3.925
 9255TIP3    H227730   4.493   2.465   3.871
 9256TIP3   OH227731   4.112   4.782   0.143
 9256TIP3    H127732   4.181   4.717   0.155
 9256TIP3    H227733   4.074   4.795   0.230
 9257TIP3   OH227734   7.038   2.515   2.697
 9257TIP3    H127735   7.071   2.574   2.629
 9257TIP3    H227736   7.115   2.489   2.747
 9258TIP3   OH227737   3.915   2.195   1.128
 9258TIP3    H127738   3.885   2.108   1.102
 9258TIP3    H227739   3.974   2.179   1.201
 9259TIP3   OH227740   4.389   3.786   0.819
 9259TIP3    H127741   4.399   3.697   0.852
 9259TIP3    H227742   4.297   3.793   0.796
 9260TIP3   OH227743   1.432   5.084   3.206
 9260TIP3    H127744   1.523   5.100   3.180
 9260TIP3    H227745   1.382   5.154   3.165
 9261TIP3   OH227746   4.041   5.881   5.649
 9261TIP3    H127747   4.014   5.968   5.679
 9261TIP3    H227748   4.017   5.823   5.722
 9262TIP3   OH227749   3.337   2.561   1.102
 9262TIP3    H127750   3.387   2.497   1.051
 9262TIP3    H227751   3.388   2.572   1.182
 9263TIP3   OH227752   2.606   5.328   2.080
 9263TIP3    H127753   2.512   5.346   2.076
 9263TIP3    H227754   2.639   5.355   1.995
 9264TIP3   OH227755   0.713   6.305   4.843
 9264TIP3    H127756   0.769   6.321   4.767
 9264TIP3    H227757   0.760   6.343   4.917
 9265TIP3   OH227758   2.461   5.870   1.831
 9265TIP3    H127759   2.399   5.934   1.867
 9265TIP3    H227760   2.456   5.795   1.890
 9266TIP3   OH227761   3.590   0.847   3.644
 9266TIP3    H127762   3.618   0.891   3.563
 9266TIP3    H227763   3.588   0.917   3.709
 9267TIP3   OH227764   1.168   6.819   1.152
 9267TIP3    H127765   1.219   6.773   1.085
 9267TIP3    H227766   1.134   6.750   1.208
 9268TIP3   OH227767   3.638   0.236   0.813
 9268TIP3    H127768   3.716   0.217   0.864
 9268TIP3    H227769   3.604   0.151   0.786
 9269TIP3   OH227770   5.501   3.319   4.878
 9269TIP3    H127771   5.582   3.285   4.842
 9269TIP3    H227772   5.496   3.282   4.967
 9270TIP3   OH227773   0.835   2.948   3.459
 9270TIP3    H127774   0.816   2.868   3.409
 9270TIP3    H227775   0.792   3.018   3.409
 9271TIP3   OH227776   2.381   4.425   3.805
 9271TIP3    H127777   2.308   4.433   3.866
 9271TIP3    H227778   2.390   4.331   3.789
 9272TIP3   OH227779   0.278   0.901   0.449
 9272TIP3    H127780   0.344   0.859   0.394
 9272TIP3    H227781   0.312   0.892   0.538
 9273TIP3   OH227782   3.193   4.944   5.682
 9273TIP3    H127783   3.262   5.010   5.691
 9273TIP3    H227784   3.211   4.903   5.597
 9274TIP3   OH227785   1.866   5.666   5.786
 9274TIP3    H127786   1.890   5.575   5.767
 9274TIP3    H227787   1.946   5.715   5.772
 9275TIP3   OH227788   2.284   6.559   1.714
 9275TIP3    H127789   2.197   6.597   1.705
 9275TIP3    H227790   2.269   6.469   1.744
 9276TIP3   OH227791   7.050   0.180   3.139
 9276TIP3    H127792   7.122   0.221   3.091
 9276TIP3    H227793   6.988   0.154   3.071
 9277TIP3   OH227794   4.925   0.627   5.116
 9277TIP3    H127795   4.950   0.617   5.024
 9277TIP3    H227796   4.968   0.555   5.161
 9278TIP3   OH227797   6.535   3.267   0.292
 9278TIP3    H127798   6.623   3.232   0.278
 9278TIP3    H227799   6.516   3.319   0.214
 9279TIP3   OH227800   3.780   1.021   3.541
 9279TIP3    H127801   3.833   1.016   3.621
 9279TIP3    H227802   3.724   1.097   3.554
 9280TIP3   OH227803   5.438   6.094   5.835
 9280TIP3    H127804   5.495   6.162   5.800
 9280TIP3    H227805   5.355   6.107   5.789
 9281TIP3   OH227806   1.917   5.836   4.970
 9281TIP3    H127807   1.869   5.867   5.047
 9281TIP3    H227808   1.968   5.762   5.003
 9282TIP3   OH227809   6.571   1.239   4.566
 9282TIP3    H127810   6.628   1.281   4.502
 9282TIP3    H227811   6.546   1.309   4.626
 9283TIP3   OH227812   5.830   0.272   0.651
 9283TIP3    H127813   5.819   0.293   0.744
 9283TIP3    H227814   5.901   0.330   0.622
 9284TIP3   OH227815   6.317   4.982   3.100
 9284TIP3    H127816   6.324   5.060   3.046
 9284TIP3    H227817   6.225   4.979   3.127
 9285TIP3   OH227818   1.553   0.997   2.652
 9285TIP3    H127819   1.549   1.024   2.744
 9285TIP3    H227820   1.632   1.039   2.618
 9286TIP3   OH227821   6.514   2.567   3.497
 9286TIP3    H127822   6.566   2.596   3.572
 9286TIP3    H227823   6.446   2.511   3.535
 9287TIP3   OH227824   6.092   5.836   2.032
 9287TIP3    H127825   6.154   5.800   1.969
 9287TIP3    H227826   6.106   5.785   2.112
 9288TIP3   OH227827   6.709   3.340   1.131
 9288TIP3    H127828   6.632   3.354   1.075
 9288TIP3    H227829   6.773   3.297   1.074
 9289TIP3   OH227830   5.656   1.459   3.652
 9289TIP3    H127831   5.694   1.371   3.659
 9289TIP3    H227832   5.685   1.504   3.732
 9290TIP3   OH227833   2.237   0.978   3.165
 9290TIP3    H127834   2.195   1.011   3.086
 9290TIP3    H227835   2.168   0.978   3.231
 9291TIP3   OH227836   2.014   1.832   2.748
 9291TIP3    H127837   2.097   1.787   2.766
 9291TIP3    H227838   2.040   1.923   2.729
 9292TIP3   OH227839   5.074   1.015   4.932
 9292TIP3    H127840   5.110   1.067   4.860
 9292TIP3    H227841   5.145   1.011   4.996
 9293TIP3   OH227842   4.619   4.398   0.792
 9293TIP3    H127843   4.671   4.390   0.712
 9293TIP3    H227844   4.670   4.457   0.848
 9294TIP3   OH227845   5.995   6.045   4.802
 9294TIP3    H127846   6.023   5.954   4.790
 9294TIP3    H227847   6.075   6.096   4.791
 9295TIP3   OH227848   5.303   3.920   5.494
 9295TIP3    H127849   5.337   3.971   5.421
 9295TIP3    H227850   5.304   3.980   5.568
 9296TIP3   OH227851   1.235   6.147   4.907
 9296TIP3    H127852   1.226   6.220   4.846
 9296TIP3    H227853   1.174   6.166   4.977
 9297TIP3   OH227854   2.766   1.912   4.353
 9297TIP3    H127855   2.852   1.945   4.328
 9297TIP3    H227856   2.758   1.828   4.309
 9298TIP3   OH227857   7.089   0.838   3.561
 9298TIP3    H127858   7.107   0.910   3.621
 9298TIP3    H227859   7.114   0.871   3.475
 9299TIP3   OH227860   5.404   5.814   3.219
 9299TIP3    H127861   5.318   5.792   3.254
 9299TIP3    H227862   5.395   5.904   3.187
 9300TIP3   OH227863   0.896   1.504   3.411
 9300TIP3    H127864   0.984   1.538   3.428
 9300TIP3    H227865   0.890   1.501   3.315
 9301TIP3   OH227866   0.011   0.417   1.295
 9301TIP3    H127867   0.001   0.363   1.217
 9301TIP3    H227868   0.012   0.507   1.262
 9302TIP3   OH227869   6.661   0.845   4.559
 9302TIP3    H127870   6.751   0.818   4.577
 9302TIP3    H227871   6.646   0.920   4.617
 9303TIP3   OH227872   0.567   4.642   5.164
 9303TIP3    H127873   0.577   4.737   5.154
 9303TIP3    H227874   0.547   4.611   5.076
 9304TIP3   OH227875   5.939   2.043   2.591
 9304TIP3    H127876   5.895   2.035   2.675
 9304TIP3    H227877   5.985   1.960   2.580
 9305TIP3   OH227878   2.520   2.681   3.107
 9305TIP3    H127879   2.487   2.600   3.069
 9305TIP3    H227880   2.593   2.707   3.051
 9306TIP3   OH227881   6.561   3.338   2.887
 9306TIP3    H127882   6.651   3.326   2.915
 9306TIP3    H227883   6.527   3.249   2.876
 9307TIP3   OH227884   4.294   3.631   4.889
 9307TIP3    H127885   4.264   3.642   4.798
 9307TIP3    H227886   4.272   3.541   4.910
 9308TIP3   OH227887   5.355   3.579   3.326
 9308TIP3    H127888   5.354   3.484   3.318
 9308TIP3    H227889   5.325   3.611   3.241
 9309TIP3   OH227890   6.218   1.499   2.661
 9309TIP3    H127891   6.199   1.418   2.614
 9309TIP3    H227892   6.294   1.535   2.617
 9310TIP3   OH227893   3.569   1.769   0.211
 9310TIP3    H127894   3.553   1.768   0.306
 9310TIP3    H227895   3.601   1.857   0.192
 9311TIP3   OH227896   5.793   0.233   0.193
 9311TIP3    H127897   5.822   0.219   0.283
 9311TIP3    H227898   5.874   0.247   0.144
 9312TIP3   OH227899   6.026   2.368   4.404
 9312TIP3    H127900   5.976   2.297   4.446
 9312TIP3    H227901   5.970   2.445   4.413
 9313TIP3   OH227902   1.769   3.790   0.158
 9313TIP3    H127903   1.679   3.809   0.184
 9313TIP3    H227904   1.823   3.830   0.226
 9314TIP3   OH227905   1.637   4.343   0.090
 9314TIP3    H127906   1.695   4.411   0.121
 9314TIP3    H227907   1.549   4.373   0.113
 9315TIP3   OH227908   5.875   5.701   4.220
 9315TIP3    H127909   5.790   5.658   4.227
 9315TIP3    H227910   5.902   5.685   4.129
 9316TIP3   OH227911   4.572   5.473   0.969
 9316TIP3    H127912   4.657   5.477   0.926
 9316TIP3    H227913   4.573   5.390   1.018
 9317TIP3   OH227914   4.679   3.423   0.961
 9317TIP3    H127915   4.672   3.502   1.015
 9317TIP3    H227916   4.597   3.376   0.976
 9318TIP3   OH227917   2.019   2.373   5.158
 9318TIP3    H127918   2.003   2.467   5.165
 9318TIP3    H227919   2.052   2.348   5.245
 9319TIP3   OH227920   1.201   3.654   5.065
 9319TIP3    H127921   1.247   3.619   5.141
 9319TIP3    H227922   1.226   3.746   5.062
 9320TIP3   OH227923   0.984   0.490   4.803
 9320TIP3    H127924   0.894   0.458   4.816
 9320TIP3    H227925   1.002   0.471   4.711
 9321TIP3   OH227926   0.649   2.833   5.475
 9321TIP3    H127927   0.679   2.772   5.542
 9321TIP3    H227928   0.678   2.919   5.506
 9322TIP3   OH227929   5.230   5.358   4.646
 9322TIP3    H127930   5.295   5.316   4.703
 9322TIP3    H227931   5.266   5.349   4.558
 9323TIP3   OH227932   2.778   3.937   0.350
 9323TIP3    H127933   2.792   3.995   0.425
 9323TIP3    H227934   2.865   3.928   0.310
 9324TIP3   OH227935   5.210   6.043   3.636
 9324TIP3    H127936   5.293   5.997   3.649
 9324TIP3    H227937   5.180   6.015   3.550
 9325TIP3   OH227938   3.804   4.033   4.826
 9325TIP3    H127939   3.826   4.112   4.777
 9325TIP3    H227940   3.722   4.054   4.870
 9326TIP3   OH227941   3.555   4.215   0.531
 9326TIP3    H127942   3.487   4.173   0.478
 9326TIP3    H227943   3.588   4.145   0.587
 9327TIP3   OH227944   2.604   2.710   5.373
 9327TIP3    H127945   2.604   2.644   5.303
 9327TIP3    H227946   2.614   2.658   5.453
 9328TIP3   OH227947   1.140   6.590   1.278
 9328TIP3    H127948   1.196   6.593   1.356
 9328TIP3    H227949   1.070   6.529   1.301
 9329TIP3   OH227950   3.862   2.190   5.846
 9329TIP3    H127951   3.844   2.117   5.787
 9329TIP3    H227952   3.814   2.168   5.926
 9330TIP3   OH227953   2.531   6.505   2.850
 9330TIP3    H127954   2.450   6.473   2.810
 9330TIP3    H227955   2.501   6.560   2.923
 9331TIP3   OH227956   5.489   1.140   0.830
 9331TIP3    H127957   5.430   1.115   0.759
 9331TIP3    H227958   5.442   1.117   0.910
 9332TIP3   OH227959   1.573   4.148   5.287
 9332TIP3    H127960   1.630   4.213   5.326
 9332TIP3    H227961   1.602   4.065   5.325
 9333TIP3   OH227962   3.613   5.786   3.549
 9333TIP3    H127963   3.688   5.818   3.599
 9333TIP3    H227964   3.555   5.862   3.540
 9334TIP3   OH227965   1.868   1.796   2.404
 9334TIP3    H127966   1.824   1.881   2.399
 9334TIP3    H227967   1.818   1.748   2.471
 9335TIP3   OH227968   1.914   5.403   5.760
 9335TIP3    H127969   1.986   5.371   5.706
 9335TIP3    H227970   1.935   5.372   5.848
 9336TIP3   OH227971   2.484   4.398   1.029
 9336TIP3    H127972   2.402   4.353   1.050
 9336TIP3    H227973   2.544   4.374   1.099
 9337TIP3   OH227974   1.230   2.447   4.226
 9337TIP3    H127975   1.276   2.460   4.309
 9337TIP3    H227976   1.138   2.438   4.250
 9338TIP3   OH227977   3.118   6.346   1.969
 9338TIP3    H127978   3.138   6.278   1.905
 9338TIP3    H227979   3.162   6.317   2.049
 9339TIP3   OH227980   5.796   4.780   5.100
 9339TIP3    H127981   5.843   4.843   5.046
 9339TIP3    H227982   5.809   4.696   5.056
 9340TIP3   OH227983   0.356   5.073   1.848
 9340TIP3    H127984   0.363   4.994   1.795
 9340TIP3    H227985   0.309   5.136   1.793
 9341TIP3   OH227986   4.537   0.900   4.695
 9341TIP3    H127987   4.613   0.857   4.656
 9341TIP3    H227988   4.484   0.829   4.731
 9342TIP3   OH227989   0.170   0.775   2.659
 9342TIP3    H127990   0.215   0.796   2.577
 9342TIP3    H227991   0.212   0.695   2.690
 9343TIP3   OH227992   1.580   0.298   4.736
 9343TIP3    H127993   1.636   0.313   4.660
 9343TIP3    H227994   1.514   0.367   4.732
 9344TIP3   OH227995   1.523   1.846   0.043
 9344TIP3    H127996   1.551   1.885   0.126
 9344TIP3    H227997   1.435   1.813   0.061
 9345TIP3   OH227998   4.227   1.056   1.259
 9345TIP3    H127999   4.149   1.092   1.301
 9345TIP3    H228000   4.217   1.079   1.166
 9346TIP3   OH228001   2.538   4.778   3.764
 9346TIP3    H128002   2.486   4.799   3.842
 9346TIP3    H228003   2.534   4.857   3.711
 9347TIP3   OH228004   6.656   6.072   4.699
 9347TIP3    H128005   6.569   6.106   4.681
 9347TIP3    H228006   6.716   6.142   4.674
 9348TIP3   OH228007   1.792   3.821   3.475
 9348TIP3    H128008   1.825   3.876   3.404
 9348TIP3    H228009   1.870   3.804   3.529
 9349TIP3   OH228010   0.111   2.212   5.302
 9349TIP3    H128011   0.108   2.307   5.290
 9349TIP3    H228012   0.070   2.177   5.223
 9350TIP3   OH228013   1.903   1.992   1.541
 9350TIP3    H128014   1.988   2.013   1.501
 9350TIP3    H228015   1.839   2.021   1.477
 9351TIP3   OH228016   3.241   5.853   0.037
 9351TIP3    H128017   3.194   5.838   0.119
 9351TIP3    H228018   3.219   5.943   0.012
 9352TIP3   OH228019   1.228   2.634   4.875
 9352TIP3    H128020   1.263   2.705   4.822
 9352TIP3    H228021   1.181   2.578   4.812
 9353TIP3   OH228022   5.284   1.263   4.542
 9353TIP3    H128023   5.378   1.270   4.522
 9353TIP3    H228024   5.240   1.281   4.459
 9354TIP3   OH228025   2.005   1.112   0.361
 9354TIP3    H128026   1.975   1.115   0.270
 9354TIP3    H228027   2.055   1.193   0.374
 9355TIP3   OH228028   4.131   1.323   4.275
 9355TIP3    H128029   4.219   1.295   4.250
 9355TIP3    H228030   4.135   1.332   4.371
 9356TIP3   OH228031   5.605   0.498   5.648
 9356TIP3    H128032   5.533   0.440   5.672
 9356TIP3    H228033   5.667   0.441   5.602
 9357TIP3   OH228034   0.889   5.139   3.064
 9357TIP3    H128035   0.925   5.125   3.152
 9357TIP3    H228036   0.864   5.232   3.063
 9358TIP3   OH228037   1.909   1.464   5.104
 9358TIP3    H128038   1.927   1.371   5.121
 9358TIP3    H228039   1.991   1.499   5.070
 9359TIP3   OH228040   5.766   1.147   5.371
 9359TIP3    H128041   5.733   1.120   5.457
 9359TIP3    H228042   5.780   1.065   5.324
 9360TIP3   OH228043   3.739   0.693   3.437
 9360TIP3    H128044   3.674   0.717   3.371
 9360TIP3    H228045   3.687   0.674   3.515
 9361TIP3   OH228046   2.956   6.394   2.505
 9361TIP3    H128047   3.029   6.453   2.520
 9361TIP3    H228048   2.996   6.308   2.493
 9362TIP3   OH228049   6.255   2.746   0.658
 9362TIP3    H128050   6.316   2.722   0.728
 9362TIP3    H228051   6.204   2.667   0.642
 9363TIP3   OH228052   6.325   4.807   2.584
 9363TIP3    H128053   6.305   4.889   2.628
 9363TIP3    H228054   6.345   4.832   2.494
 9364TIP3   OH228055   5.648   5.306   2.236
 9364TIP3    H128056   5.721   5.270   2.285
 9364TIP3    H228057   5.630   5.241   2.168
 9365TIP3   OH228058   0.789   3.432   5.862
 9365TIP3    H128059   0.810   3.408   5.772
 9365TIP3    H228060   0.774   3.527   5.859
 9366TIP3   OH228061   3.480   5.920   0.870
 9366TIP3    H128062   3.409   5.953   0.815
 9366TIP3    H228063   3.469   5.967   0.953
 9367TIP3   OH228064   3.085   1.507   2.197
 9367TIP3    H128065   3.030   1.482   2.122
 9367TIP3    H228066   3.063   1.442   2.264
 9368TIP3   OH228067   6.499   5.988   0.651
 9368TIP3    H128068   6.418   6.019   0.611
 9368TIP3    H228069   6.564   6.056   0.630
 9369TIP3   OH228070   3.949   5.493   0.579
 9369TIP3    H128071   4.039   5.507   0.606
 9369TIP3    H228072   3.902   5.472   0.660
 9370TIP3   OH228073   2.300   5.535   5.561
 9370TIP3    H128074   2.377   5.510   5.612
 9370TIP3    H228075   2.335   5.583   5.486
 9371TIP3   OH228076   2.213   2.496   4.046
 9371TIP3    H128077   2.151   2.559   4.082
 9371TIP3    H228078   2.231   2.435   4.118
 9372TIP3   OH228079   5.322   5.499   0.584
 9372TIP3    H128080   5.239   5.454   0.564
 9372TIP3    H228081   5.350   5.534   0.499
 9373TIP3   OH228082   3.677   3.567   5.223
 9373TIP3    H128083   3.762   3.523   5.226
 9373TIP3    H228084   3.698   3.660   5.230
 9374TIP3   OH228085   5.191   6.306   1.378
 9374TIP3    H128086   5.243   6.226   1.378
 9374TIP3    H228087   5.109   6.282   1.422
 9375TIP3   OH228088   6.636   4.739   4.950
 9375TIP3    H128089   6.641   4.759   5.043
 9375TIP3    H228090   6.721   4.698   4.930
 9376TIP3   OH228091   6.226   1.142   5.477
 9376TIP3    H128092   6.195   1.051   5.479
 9376TIP3    H228093   6.320   1.135   5.463
 9377TIP3   OH228094   3.556   5.335   0.620
 9377TIP3    H128095   3.473   5.381   0.606
 9377TIP3    H228096   3.598   5.335   0.534
 9378TIP3   OH228097   5.520   6.439   1.895
 9378TIP3    H128098   5.551   6.351   1.917
 9378TIP3    H228099   5.536   6.447   1.801
 9379TIP3   OH228100   0.980   0.987   3.348
 9379TIP3    H128101   0.912   0.933   3.308
 9379TIP3    H228102   1.012   1.042   3.276
 9380TIP3   OH228103   0.709   4.346   0.633
 9380TIP3    H128104   0.722   4.323   0.725
 9380TIP3    H228105   0.624   4.390   0.631
 9381TIP3   OH228106   4.078   3.082   4.080
 9381TIP3    H128107   4.143   3.135   4.126
 9381TIP3    H228108   4.122   3.056   3.999
 9382TIP3   OH228109   2.742   0.760   3.762
 9382TIP3    H128110   2.777   0.811   3.836
 9382TIP3    H228111   2.796   0.785   3.688
 9383TIP3   OH228112   6.476   1.631   2.606
 9383TIP3    H128113   6.565   1.666   2.596
 9383TIP3    H228114   6.424   1.706   2.636
 9384TIP3   OH228115   3.926   0.103   3.770
 9384TIP3    H128116   3.890   0.126   3.684
 9384TIP3    H228117   3.891   0.015   3.788
 9385TIP3   OH228118   2.625   2.286   3.871
 9385TIP3    H128119   2.571   2.218   3.830
 9385TIP3    H228120   2.581   2.368   3.849
 9386TIP3   OH228121   2.407   2.090   2.288
 9386TIP3    H128122   2.363   2.175   2.291
 9386TIP3    H228123   2.339   2.027   2.314
 9387TIP3   OH228124   3.504   6.295   4.736
 9387TIP3    H128125   3.584   6.246   4.717
 9387TIP3    H228126   3.490   6.350   4.659
 9388TIP3   OH228127   5.617   6.756   1.696
 9388TIP3    H128128   5.673   6.713   1.630
 9388TIP3    H228129   5.650   6.845   1.701
 9389TIP3   OH228130   3.665   4.407   3.795
 9389TIP3    H128131   3.704   4.334   3.747
 9389TIP3    H228132   3.635   4.368   3.877
 9390TIP3   OH228133   6.913   3.288   2.963
 9390TIP3    H128134   6.952   3.375   2.962
 9390TIP3    H228135   6.904   3.266   3.056
 9391TIP3   OH228136   2.098   2.368   3.130
 9391TIP3    H128137   2.005   2.391   3.126
 9391TIP3    H228138   2.100   2.273   3.114
 9392TIP3   OH228139   6.877   3.693   3.607
 9392TIP3    H128140   6.943   3.756   3.636
 9392TIP3    H228141   6.820   3.744   3.549
 9393TIP3   OH228142   0.218   2.928   1.561
 9393TIP3    H128143   0.261   2.901   1.643
 9393TIP3    H228144   0.207   3.023   1.570
 9394TIP3   OH228145   1.115   3.206   1.767
 9394TIP3    H128146   1.071   3.235   1.687
 9394TIP3    H228147   1.150   3.119   1.745
 9395TIP3   OH228148   2.473   0.482   2.403
 9395TIP3    H128149   2.523   0.549   2.449
 9395TIP3    H228150   2.522   0.401   2.418
 9396TIP3   OH228151   6.410   6.273   5.445
 9396TIP3    H128152   6.446   6.209   5.383
 9396TIP3    H228153   6.323   6.293   5.410
 9397TIP3   OH228154   0.516   1.461   4.933
 9397TIP3    H128155   0.550   1.547   4.959
 9397TIP3    H228156   0.593   1.405   4.930
 9398TIP3   OH228157   1.822   1.314   4.874
 9398TIP3    H128158   1.801   1.365   4.795
 9398TIP3    H228159   1.840   1.380   4.941
 9399TIP3   OH228160   6.140   5.386   4.333
 9399TIP3    H128161   6.139   5.307   4.386
 9399TIP3    H228162   6.068   5.440   4.367
 9400TIP3   OH228163   6.658   6.495   4.549
 9400TIP3    H128164   6.605   6.539   4.615
 9400TIP3    H228165   6.730   6.554   4.532
 9401TIP3   OH228166   3.383   6.521   1.226
 9401TIP3    H128167   3.460   6.553   1.273
 9401TIP3    H228168   3.394   6.555   1.137
 9402TIP3   OH228169   2.500   1.406   3.297
 9402TIP3    H128170   2.499   1.311   3.311
 9402TIP3    H228171   2.506   1.442   3.385
 9403TIP3   OH228172   6.208   3.728   5.628
 9403TIP3    H128173   6.289   3.760   5.589
 9403TIP3    H228174   6.139   3.764   5.573
 9404TIP3   OH228175   2.145   5.147   2.645
 9404TIP3    H128176   2.067   5.140   2.590
 9404TIP3    H228177   2.190   5.224   2.612
 9405TIP3   OH228178   2.650   4.030   3.601
 9405TIP3    H128179   2.741   4.001   3.590
 9405TIP3    H228180   2.657   4.118   3.637
 9406TIP3   OH228181   5.869   4.809   0.057
 9406TIP3    H128182   5.867   4.753   0.134
 9406TIP3    H228183   5.794   4.782   0.004
 9407TIP3   OH228184   1.569   6.760   4.311
 9407TIP3    H128185   1.635   6.799   4.369
 9407TIP3    H228186   1.590   6.666   4.309
 9408TIP3   OH228187   0.809   6.471   5.059
 9408TIP3    H128188   0.854   6.506   5.135
 9408TIP3    H228189   0.733   6.528   5.047
 9409TIP3   OH228190   1.602   5.858   0.149
 9409TIP3    H128191   1.697   5.846   0.151
 9409TIP3    H228192   1.586   5.912   0.071
 9410TIP3   OH228193   1.069   4.280   1.759
 9410TIP3    H128194   1.065   4.344   1.687
 9410TIP3    H228195   1.155   4.293   1.798
 9411TIP3   OH228196   1.337   6.141   2.781
 9411TIP3    H128197   1.353   6.075   2.848
 9411TIP3    H228198   1.357   6.224   2.823
 9412TIP3   OH228199   2.037   3.295   5.633
 9412TIP3    H128200   2.034   3.236   5.709
 9412TIP3    H228201   2.092   3.368   5.662
 9413TIP3   OH228202   1.093   2.898   4.461
 9413TIP3    H128203   1.111   2.870   4.551
 9413TIP3    H228204   1.167   2.953   4.437
 9414TIP3   OH228205   5.327   2.506   5.670
 9414TIP3    H128206   5.347   2.415   5.691
 9414TIP3    H228207   5.246   2.500   5.618
 9415TIP3   OH228208   3.710   0.121   2.781
 9415TIP3    H128209   3.727   0.040   2.829
 9415TIP3    H228210   3.788   0.174   2.797
 9416TIP3   OH228211   1.331   2.246   0.647
 9416TIP3    H128212   1.302   2.273   0.734
 9416TIP3    H228213   1.404   2.306   0.627
 9417TIP3   OH228214   1.702   6.381   2.699
 9417TIP3    H128215   1.715   6.291   2.671
 9417TIP3    H228216   1.789   6.413   2.722
 9418TIP3   OH228217   1.872   3.931   5.086
 9418TIP3    H128218   1.830   4.010   5.051
 9418TIP3    H228219   1.831   3.859   5.038
 9419TIP3   OH228220   1.283   4.355   5.069
 9419TIP3    H128221   1.239   4.421   5.122
 9419TIP3    H228222   1.298   4.398   4.984
 9420TIP3   OH228223   0.699   2.787   5.185
 9420TIP3    H128224   0.647   2.868   5.194
 9420TIP3    H228225   0.789   2.815   5.200
 9421TIP3   OH228226   7.058   2.382   3.972
 9421TIP3    H128227   6.992   2.440   4.010
 9421TIP3    H228228   7.026   2.294   3.992
 9422TIP3   OH228229   2.285   3.721   3.649
 9422TIP3    H128230   2.285   3.809   3.687
 9422TIP3    H228231   2.369   3.714   3.604
 9423TIP3   OH228232   4.488   4.716   3.695
 9423TIP3    H128233   4.479   4.726   3.789
 9423TIP3    H228234   4.406   4.675   3.667
 9424TIP3   OH228235   4.873   6.550   3.024
 9424TIP3    H128236   4.900   6.478   2.966
 9424TIP3    H228237   4.824   6.609   2.967
 9425TIP3   OH228238   0.054   3.835   5.212
 9425TIP3    H128239  -0.031   3.880   5.213
 9425TIP3    H228240   0.050   3.775   5.286
 9426TIP3   OH228241   3.242   3.683   1.037
 9426TIP3    H128242   3.319   3.716   0.991
 9426TIP3    H228243   3.238   3.591   1.013
 9427TIP3   OH228244   5.955   4.539   5.311
 9427TIP3    H128245   5.881   4.479   5.303
 9427TIP3    H228246   5.914   4.624   5.328
 9428TIP3   OH228247   3.412   3.803   1.511
 9428TIP3    H128248   3.393   3.889   1.473
 9428TIP3    H228249   3.466   3.758   1.445
 9429TIP3   OH228250   0.924   4.671   3.041
 9429TIP3    H128251   0.869   4.706   3.111
 9429TIP3    H228252   0.867   4.612   2.992
 9430TIP3   OH228253   4.739   4.608   3.713
 9430TIP3    H128254   4.663   4.661   3.689
 9430TIP3    H228255   4.790   4.600   3.632
 9431TIP3   OH228256   1.195   0.850   4.117
 9431TIP3    H128257   1.127   0.789   4.147
 9431TIP3    H228258   1.208   0.827   4.025
 9432TIP3   OH228259   4.397   3.951   2.924
 9432TIP3    H128260   4.484   3.933   2.958
 9432TIP3    H228261   4.411   3.969   2.831
 9433TIP3   OH228262   1.141   5.859   1.951
 9433TIP3    H128263   1.139   5.771   1.915
 9433TIP3    H228264   1.234   5.882   1.954
 9434TIP3   OH228265   6.739   5.822   4.752
 9434TIP3    H128266   6.745   5.816   4.847
 9434TIP3    H228267   6.703   5.909   4.736
 9435TIP3   OH228268   1.999   1.094   5.556
 9435TIP3    H128269   2.047   1.097   5.638
 9435TIP3    H228270   2.007   1.183   5.521
 9436TIP3   OH228271   5.916   3.992   5.577
 9436TIP3    H128272   5.976   3.950   5.514
 9436TIP3    H228273   5.973   4.040   5.636
 9437TIP3   OH228274   3.805   5.446   2.701
 9437TIP3    H128275   3.768   5.378   2.644
 9437TIP3    H228276   3.842   5.398   2.775
 9438TIP3   OH228277   4.910   0.916   3.711
 9438TIP3    H128278   4.921   0.914   3.806
 9438TIP3    H228279   4.816   0.910   3.697
 9439TIP3   OH228280   6.730   1.139   2.790
 9439TIP3    H128281   6.780   1.220   2.786
 9439TIP3    H228282   6.639   1.167   2.780
 9440TIP3   OH228283   1.577   2.036   3.747
 9440TIP3    H128284   1.482   2.027   3.756
 9440TIP3    H228285   1.596   2.003   3.659
 9441TIP3   OH228286   5.252   5.530   1.793
 9441TIP3    H128287   5.332   5.512   1.743
 9441TIP3    H228288   5.254   5.466   1.864
 9442TIP3   OH228289   4.335   3.272   5.069
 9442TIP3    H128290   4.372   3.301   5.152
 9442TIP3    H228291   4.357   3.179   5.063
 9443TIP3   OH228292   2.542   5.590   2.910
 9443TIP3    H128293   2.567   5.500   2.929
 9443TIP3    H228294   2.607   5.643   2.956
 9444TIP3   OH228295   3.116   3.880   5.640
 9444TIP3    H128296   3.172   3.858   5.714
 9444TIP3    H228297   3.031   3.898   5.679
 9445TIP3   OH228298   1.964   0.912   0.903
 9445TIP3    H128299   1.952   0.857   0.826
 9445TIP3    H228300   1.892   0.975   0.899
 9446TIP3   OH228301   5.908   2.622   1.533
 9446TIP3    H128302   5.851   2.572   1.474
 9446TIP3    H228303   5.955   2.556   1.584
 9447TIP3   OH228304   0.565   6.668   0.363
 9447TIP3    H128305   0.621   6.688   0.288
 9447TIP3    H228306   0.616   6.695   0.439
 9448TIP3   OH228307   1.207   2.857   0.052
 9448TIP3    H128308   1.288   2.823   0.012
 9448TIP3    H228309   1.202   2.948   0.022
 9449TIP3   OH228310   5.497   3.246   5.134
 9449TIP3    H128311   5.502   3.157   5.169
 9449TIP3    H228312   5.499   3.302   5.212
 9450TIP3   OH228313   0.924   2.735   5.625
 9450TIP3    H128314   0.925   2.688   5.541
 9450TIP3    H228315   0.855   2.692   5.675
 9451TIP3   OH228316   5.570   4.722   1.318
 9451TIP3    H128317   5.501   4.660   1.294
 9451TIP3    H228318   5.632   4.718   1.245
 9452TIP3   OH228319   4.572   3.101   5.502
 9452TIP3    H128320   4.509   3.170   5.520
 9452TIP3    H228321   4.532   3.049   5.433
 9453TIP3   OH228322   6.171   2.621   1.243
 9453TIP3    H128323   6.224   2.543   1.226
 9453TIP3    H228324   6.081   2.591   1.229
 9454TIP3   OH228325   1.616   5.564   5.057
 9454TIP3    H128326   1.680   5.542   5.125
 9454TIP3    H228327   1.663   5.623   4.998
 9455TIP3   OH228328   3.202   5.643   1.343
 9455TIP3    H128329   3.135   5.709   1.358
 9455TIP3    H228330   3.180   5.606   1.257
 9456TIP3   OH228331   2.595   1.249   4.741
 9456TIP3    H128332   2.607   1.163   4.701
 9456TIP3    H228333   2.589   1.232   4.834
 9457TIP3   OH228334   6.465   2.266   2.506
 9457TIP3    H128335   6.439   2.336   2.566
 9457TIP3    H228336   6.493   2.194   2.563
 9458TIP3   OH228337   4.959   0.391   4.765
 9458TIP3    H128338   4.877   0.437   4.751
 9458TIP3    H228339   5.004   0.441   4.833
 9459TIP3   OH228340   4.351   5.202   3.646
 9459TIP3    H128341   4.306   5.207   3.730
 9459TIP3    H228342   4.444   5.206   3.668
 9460TIP3   OH228343   2.887   1.756   3.932
 9460TIP3    H128344   2.937   1.830   3.899
 9460TIP3    H228345   2.797   1.774   3.907
 9461TIP3   OH228346   5.524   5.889   1.816
 9461TIP3    H128347   5.460   5.939   1.867
 9461TIP3    H228348   5.569   5.836   1.881
 9462TIP3   OH228349   4.042   5.670   1.477
 9462TIP3    H128350   4.046   5.641   1.385
 9462TIP3    H228351   4.040   5.589   1.527
 9463TIP3   OH228352   0.192   2.609   4.837
 9463TIP3    H128353   0.120   2.607   4.901
 9463TIP3    H228354   0.150   2.590   4.753
 9464TIP3   OH228355   1.746   0.856   4.830
 9464TIP3    H128356   1.791   0.802   4.895
 9464TIP3    H228357   1.761   0.811   4.747
 9465TIP3   OH228358   6.652   2.531   2.657
 9465TIP3    H128359   6.693   2.593   2.597
 9465TIP3    H228360   6.709   2.454   2.655
 9466TIP3   OH228361   4.139   0.107   4.506
 9466TIP3    H128362   4.226   0.083   4.536
 9466TIP3    H228363   4.138   0.202   4.504
 9467TIP3   OH228364   0.125   4.934   4.463
 9467TIP3    H128365   0.165   4.925   4.549
 9467TIP3    H228366   0.196   4.963   4.406
 9468TIP3   OH228367   0.473   5.992   3.973
 9468TIP3    H128368   0.481   5.974   4.067
 9468TIP3    H228369   0.379   6.003   3.959
 9469TIP3   OH228370   5.420   5.995   1.577
 9469TIP3    H128371   5.324   5.997   1.586
 9469TIP3    H228372   5.452   5.977   1.665
 9470TIP3   OH228373   5.573   3.950   2.399
 9470TIP3    H128374   5.586   3.881   2.463
 9470TIP3    H228375   5.478   3.966   2.399
 9471TIP3   OH228376   3.438   6.163   3.007
 9471TIP3    H128377   3.475   6.145   3.094
 9471TIP3    H228378   3.344   6.161   3.020
 9472TIP3   OH228379   5.286   1.356   0.639
 9472TIP3    H128380   5.257   1.349   0.729
 9472TIP3    H228381   5.277   1.449   0.618
 9473TIP3   OH228382   1.880   3.203   4.507
 9473TIP3    H128383   1.818   3.180   4.576
 9473TIP3    H228384   1.938   3.267   4.548
 9474TIP3   OH228385   6.123   6.601   5.799
 9474TIP3    H128386   6.162   6.613   5.713
 9474TIP3    H228387   6.170   6.661   5.856
 9475TIP3   OH228388   6.615   4.206   5.835
 9475TIP3    H128389   6.563   4.192   5.914
 9475TIP3    H228390   6.704   4.180   5.860
 9476TIP3   OH228391   0.458   2.629   5.215
 9476TIP3    H128392   0.381   2.683   5.235
 9476TIP3    H228393   0.523   2.691   5.183
 9477TIP3   OH228394   5.420   3.193   2.078
 9477TIP3    H128395   5.459   3.179   1.991
 9477TIP3    H228396   5.351   3.257   2.063
 9478TIP3   OH228397   1.796   5.002   5.818
 9478TIP3    H128398   1.765   4.942   5.751
 9478TIP3    H228399   1.890   5.010   5.801
 9479TIP3   OH228400   2.672   6.316   2.201
 9479TIP3    H128401   2.709   6.398   2.168
 9479TIP3    H228402   2.614   6.287   2.130
 9480TIP3   OH228403   1.555   4.048   0.626
 9480TIP3    H128404   1.620   4.118   0.619
 9480TIP3    H228405   1.478   4.082   0.579
 9481TIP3   OH228406   7.050   5.344   3.142
 9481TIP3    H128407   6.978   5.289   3.172
 9481TIP3    H228408   7.128   5.304   3.179
 9482TIP3   OH228409   0.626   5.365   5.528
 9482TIP3    H128410   0.667   5.342   5.612
 9482TIP3    H228411   0.587   5.451   5.543
 9483TIP3   OH228412   0.509   3.829   0.237
 9483TIP3    H128413   0.562   3.872   0.170
 9483TIP3    H228414   0.484   3.746   0.197
 9484TIP3   OH228415   1.469   6.197   0.890
 9484TIP3    H128416   1.519   6.278   0.898
 9484TIP3    H228417   1.536   6.128   0.880
 9485TIP3   OH228418   3.125   2.123   3.816
 9485TIP3    H128419   3.036   2.131   3.851
 9485TIP3    H228420   3.154   2.213   3.804
 9486TIP3   OH228421   3.158   6.200   0.989
 9486TIP3    H128422   3.128   6.178   1.077
 9486TIP3    H228423   3.121   6.287   0.972
 9487TIP3   OH228424   4.392   1.316   4.164
 9487TIP3    H128425   4.395   1.325   4.260
 9487TIP3    H228426   4.484   1.319   4.137
 9488TIP3   OH228427   2.585   4.188   0.667
 9488TIP3    H128428   2.676   4.196   0.694
 9488TIP3    H228429   2.558   4.101   0.699
 9489TIP3   OH228430   0.826   1.949   5.756
 9489TIP3    H128431   0.900   1.894   5.781
 9489TIP3    H228432   0.864   2.019   5.703
 9490TIP3   OH228433   0.410   4.437   0.471
 9490TIP3    H128434   0.375   4.438   0.560
 9490TIP3    H228435   0.464   4.516   0.466
 9491TIP3   OH228436   5.635   3.966   0.032
 9491TIP3    H128437   5.682   3.966  -0.051
 9491TIP3    H228438   5.678   3.898   0.085
 9492TIP3   OH228439   3.768   2.064   5.181
 9492TIP3    H128440   3.688   2.023   5.213
 9492TIP3    H228441   3.836   1.999   5.196
 9493TIP3   OH228442   0.235   0.055   1.036
 9493TIP3    H128443   0.222   0.009   1.120
 9493TIP3    H228444   0.263   0.143   1.061
 9494TIP3   OH228445   1.189   2.009   2.131
 9494TIP3    H128446   1.128   2.082   2.125
 9494TIP3    H228447   1.271   2.043   2.094
 9495TIP3   OH228448   5.545   1.255   0.486
 9495TIP3    H128449   5.477   1.268   0.552
 9495TIP3    H228450   5.579   1.343   0.469
 9496TIP3   OH228451   0.830   6.710   2.859
 9496TIP3    H128452   0.842   6.621   2.894
 9496TIP3    H228453   0.916   6.732   2.822
 9497TIP3   OH228454   0.921   1.964   1.737
 9497TIP3    H128455   0.992   2.024   1.714
 9497TIP3    H228456   0.958   1.876   1.725
 9498TIP3   OH228457   3.011   0.020   5.636
 9498TIP3    H128458   2.993   0.069   5.716
 9498TIP3    H228459   3.077   0.072   5.590
 9499TIP3   OH228460   1.471   4.653   3.320
 9499TIP3    H128461   1.532   4.579   3.318
 9499TIP3    H228462   1.523   4.727   3.288
 9500TIP3   OH228463   1.468   5.232   2.544
 9500TIP3    H128464   1.507   5.213   2.459
 9500TIP3    H228465   1.499   5.161   2.600
 9501TIP3   OH228466   6.616   2.221   5.803
 9501TIP3    H128467   6.641   2.198   5.892
 9501TIP3    H228468   6.698   2.239   5.758
 9502TIP3   OH228469   0.341   4.499   0.977
 9502TIP3    H128470   0.270   4.464   0.924
 9502TIP3    H228471   0.300   4.569   1.028
 9503TIP3   OH228472   2.342   3.266   1.941
 9503TIP3    H128473   2.409   3.232   1.999
 9503TIP3    H228474   2.285   3.191   1.924
 9504TIP3   OH228475   2.064   3.092   2.025
 9504TIP3    H128476   2.137   3.050   2.071
 9504TIP3    H228477   2.062   3.052   1.939
 9505TIP3   OH228478   0.382   5.067   3.205
 9505TIP3    H128479   0.472   5.088   3.229
 9505TIP3    H228480   0.343   5.034   3.286
 9506TIP3   OH228481   3.271   5.112   0.214
 9506TIP3    H128482   3.237   5.200   0.198
 9506TIP3    H228483   3.336   5.098   0.146
 9507TIP3   OH228484   5.136   0.637   0.722
 9507TIP3    H128485   5.128   0.566   0.785
 9507TIP3    H228486   5.054   0.686   0.729
 9508TIP3   OH228487   6.035   5.060   3.166
 9508TIP3    H128488   5.969   5.003   3.204
 9508TIP3    H228489   5.985   5.133   3.129
 9509TIP3   OH228490   1.911   2.671   1.357
 9509TIP3    H128491   1.968   2.736   1.398
 9509TIP3    H228492   1.936   2.673   1.265
 9510TIP3   OH228493   1.534   0.701   3.674
 9510TIP3    H128494   1.500   0.761   3.740
 9510TIP3    H228495   1.572   0.759   3.607
 9511TIP3   OH228496   4.215   0.186   1.898
 9511TIP3    H128497   4.281   0.154   1.960
 9511TIP3    H228498   4.160   0.245   1.949
 9512TIP3   OH228499   2.851   4.101   1.006
 9512TIP3    H128500   2.925   4.045   1.029
 9512TIP3    H228501   2.776   4.061   1.049
 9513TIP3   OH228502   6.829   6.676   4.448
 9513TIP3    H128503   6.893   6.744   4.424
 9513TIP3    H228504   6.837   6.611   4.378
 9514TIP3   OH228505   2.057   3.878   4.843
 9514TIP3    H128506   1.983   3.828   4.876
 9514TIP3    H228507   2.095   3.919   4.921
 9515TIP3   OH228508   4.314   2.260   1.537
 9515TIP3    H128509   4.233   2.311   1.529
 9515TIP3    H228510   4.374   2.302   1.476
 9516TIP3   OH228511   3.425   1.978   0.939
 9516TIP3    H128512   3.460   1.914   1.001
 9516TIP3    H228513   3.348   2.014   0.983
 9517TIP3   OH228514   3.140   4.851   1.306
 9517TIP3    H128515   3.127   4.756   1.297
 9517TIP3    H228516   3.124   4.868   1.399
 9518TIP3   OH228517   0.796   0.860   3.203
 9518TIP3    H128518   0.720   0.802   3.203
 9518TIP3    H228519   0.857   0.821   3.141
 9519TIP3   OH228520   3.927   1.854   1.597
 9519TIP3    H128521   3.914   1.810   1.513
 9519TIP3    H228522   3.927   1.783   1.661
 9520TIP3   OH228523   0.001   2.767   0.034
 9520TIP3    H128524   0.013   2.814  -0.048
 9520TIP3    H228525   0.067   2.697   0.031
 9521TIP3   OH228526   5.641   6.175   1.815
 9521TIP3    H128527   5.709   6.228   1.774
 9521TIP3    H228528   5.687   6.123   1.880
 9522TIP3   OH228529   1.276   1.378   4.117
 9522TIP3    H128530   1.254   1.287   4.139
 9522TIP3    H228531   1.197   1.413   4.077
 9523TIP3   OH228532   3.619   0.509   1.729
 9523TIP3    H128533   3.681   0.581   1.741
 9523TIP3    H228534   3.547   0.546   1.678
 9524TIP3   OH228535   3.861   6.457   0.380
 9524TIP3    H128536   3.788   6.517   0.399
 9524TIP3    H228537   3.821   6.386   0.330
 9525TIP3   OH228538   1.052   0.898   0.837
 9525TIP3    H128539   0.999   0.828   0.800
 9525TIP3    H228540   1.100   0.934   0.763
 9526TIP3   OH228541   0.890   2.304   0.633
 9526TIP3    H128542   0.893   2.384   0.685
 9526TIP3    H228543   0.944   2.241   0.680
 9527TIP3   OH228544   4.745   3.448   2.716
 9527TIP3    H128545   4.676   3.502   2.754
 9527TIP3    H228546   4.723   3.444   2.623
 9528TIP3   OH228547   0.480   0.711   5.293
 9528TIP3    H128548   0.394   0.709   5.335
 9528TIP3    H228549   0.539   0.740   5.362
 9529TIP3   OH228550   2.143   0.888   1.339
 9529TIP3    H128551   2.144   0.968   1.392
 9529TIP3    H228552   2.053   0.882   1.306
 9530TIP3   OH228553   3.610   0.244   4.362
 9530TIP3    H128554   3.686   0.270   4.415
 9530TIP3    H228555   3.641   0.168   4.312
 9531TIP3   OH228556   3.176   4.432   2.212
 9531TIP3    H128557   3.268   4.456   2.201
 9531TIP3    H228558   3.131   4.477   2.141
 9532TIP3   OH228559   4.293   5.042   1.986
 9532TIP3    H128560   4.208   5.005   1.962
 9532TIP3    H228561   4.278   5.137   1.987
 9533TIP3   OH228562   5.765   2.124   1.347
 9533TIP3    H128563   5.688   2.148   1.400
 9533TIP3    H228564   5.731   2.115   1.258
 9534TIP3   OH228565   4.362   0.285   2.335
 9534TIP3    H128566   4.378   0.369   2.378
 9534TIP3    H228567   4.275   0.295   2.296
 9535TIP3   OH228568   3.178   2.943   4.821
 9535TIP3    H128569   3.132   3.026   4.816
 9535TIP3    H228570   3.113   2.877   4.796
 9536TIP3   OH228571   5.656   3.362   0.265
 9536TIP3    H128572   5.675   3.298   0.196
 9536TIP3    H228573   5.670   3.315   0.346
 9537TIP3   OH228574   1.757   5.909   1.108
 9537TIP3    H128575   1.799   5.928   1.024
 9537TIP3    H228576   1.665   5.933   1.095
 9538TIP3   OH228577   4.695   1.178   2.862
 9538TIP3    H128578   4.710   1.237   2.936
 9538TIP3    H228579   4.780   1.173   2.818
 9539TIP3   OH228580   5.085   5.417   0.489
 9539TIP3    H128581   5.020   5.417   0.419
 9539TIP3    H228582   5.095   5.325   0.512
 9540TIP3   OH228583   0.169   5.428   1.819
 9540TIP3    H128584   0.243   5.389   1.772
 9540TIP3    H228585   0.100   5.363   1.812
 9541TIP3   OH228586   3.176   0.970   1.319
 9541TIP3    H128587   3.143   1.044   1.371
 9541TIP3    H228588   3.187   0.899   1.382
 9542TIP3   OH228589   5.967   2.383   3.903
 9542TIP3    H128590   5.915   2.441   3.959
 9542TIP3    H228591   6.039   2.355   3.960
 9543TIP3   OH228592   0.676   4.002   3.550
 9543TIP3    H128593   0.619   4.065   3.506
 9543TIP3    H228594   0.680   3.927   3.491
 9544TIP3   OH228595   4.017   2.986   4.898
 9544TIP3    H128596   3.996   3.044   4.825
 9544TIP3    H228597   4.112   2.972   4.891
 9545TIP3   OH228598   3.488   6.763   2.603
 9545TIP3    H128599   3.492   6.681   2.651
 9545TIP3    H228600   3.405   6.803   2.628
 9546TIP3   OH228601   2.111   6.550   4.351
 9546TIP3    H128602   2.050   6.624   4.356
 9546TIP3    H228603   2.188   6.580   4.399
 9547TIP3   OH228604   1.386   1.669   1.818
 9547TIP3    H128605   1.364   1.659   1.910
 9547TIP3    H228606   1.475   1.704   1.818
 9548TIP3   OH228607   6.205   4.049   5.498
 9548TIP3    H128608   6.209   4.125   5.555
 9548TIP3    H228609   6.252   3.980   5.545
 9549TIP3   OH228610   5.667   3.217   0.508
 9549TIP3    H128611   5.722   3.138   0.513
 9549TIP3    H228612   5.682   3.261   0.592
 9550TIP3   OH228613   5.564   2.603   5.559
 9550TIP3    H128614   5.604   2.642   5.637
 9550TIP3    H228615   5.473   2.587   5.585
 9551TIP3   OH228616   4.741   2.445   5.568
 9551TIP3    H128617   4.780   2.438   5.480
 9551TIP3    H228618   4.813   2.426   5.627
 9552TIP3   OH228619   2.543   0.422   5.231
 9552TIP3    H128620   2.467   0.481   5.235
 9552TIP3    H228621   2.617   0.480   5.214
 9553TIP3   OH228622   0.768   3.259   0.680
 9553TIP3    H128623   0.754   3.230   0.590
 9553TIP3    H228624   0.855   3.297   0.679
 9554TIP3   OH228625   3.904   2.122   3.337
 9554TIP3    H128626   3.952   2.176   3.400
 9554TIP3    H228627   3.889   2.179   3.262
 9555TIP3   OH228628   0.629   3.778   4.930
 9555TIP3    H128629   0.552   3.804   4.981
 9555TIP3    H228630   0.697   3.763   4.996
 9556TIP3   OH228631   4.135   1.382   5.239
 9556TIP3    H128632   4.056   1.425   5.271
 9556TIP3    H228633   4.188   1.453   5.202
 9557TIP3   OH228634   3.984   0.492   5.381
 9557TIP3    H128635   3.931   0.449   5.313
 9557TIP3    H228636   3.974   0.436   5.458
 9558TIP3   OH228637   3.083   4.674   0.901
 9558TIP3    H128638   3.147   4.729   0.856
 9558TIP3    H228639   3.066   4.602   0.841
 9559TIP3   OH228640   2.195   4.631   2.341
 9559TIP3    H128641   2.168   4.657   2.253
 9559TIP3    H228642   2.112   4.611   2.386
 9560TIP3   OH228643   2.147   0.525   1.048
 9560TIP3    H128644   2.055   0.501   1.042
 9560TIP3    H228645   2.177   0.528   0.957
 9561TIP3   OH228646   0.636   4.222   4.151
 9561TIP3    H128647   0.731   4.230   4.147
 9561TIP3    H228648   0.620   4.151   4.213
 9562TIP3   OH228649   5.226   1.340   5.146
 9562TIP3    H128650   5.268   1.271   5.095
 9562TIP3    H228651   5.192   1.294   5.224
 9563TIP3   OH228652   1.331   6.313   3.336
 9563TIP3    H128653   1.331   6.403   3.368
 9563TIP3    H228654   1.280   6.316   3.255
 9564TIP3   OH228655   3.705   4.910   5.159
 9564TIP3    H128656   3.707   4.893   5.065
 9564TIP3    H228657   3.787   4.955   5.177
 9565TIP3   OH228658   3.925   2.003   4.436
 9565TIP3    H128659   3.984   2.022   4.364
 9565TIP3    H228660   3.886   1.919   4.413
 9566TIP3   OH228661   0.923   3.649   3.047
 9566TIP3    H128662   0.879   3.627   2.965
 9566TIP3    H228663   0.854   3.642   3.113
 9567TIP3   OH228664   5.766   0.882   5.313
 9567TIP3    H128665   5.746   0.834   5.394
 9567TIP3    H228666   5.861   0.874   5.303
 9568TIP3   OH228667   7.146   1.056   2.904
 9568TIP3    H128668   7.070   1.026   2.954
 9568TIP3    H228669   7.110   1.106   2.832
 9569TIP3   OH228670   6.868   3.188   2.242
 9569TIP3    H128671   6.844   3.130   2.315
 9569TIP3    H228672   6.964   3.190   2.243
 9570TIP3   OH228673   6.408   3.399   1.155
 9570TIP3    H128674   6.398   3.389   1.250
 9570TIP3    H228675   6.421   3.493   1.142
 9571TIP3   OH228676   5.719   3.942   0.951
 9571TIP3    H128677   5.759   3.893   1.023
 9571TIP3    H228678   5.626   3.918   0.955
 9572TIP3   OH228679   2.550   5.777   2.629
 9572TIP3    H128680   2.606   5.748   2.701
 9572TIP3    H228681   2.569   5.870   2.619
 9573TIP3   OH228682   0.918   1.590   5.797
 9573TIP3    H128683   0.862   1.600   5.720
 9573TIP3    H228684   0.957   1.677   5.810
 9574TIP3   OH228685   5.876   1.918   4.769
 9574TIP3    H128686   5.955   1.932   4.820
 9574TIP3    H228687   5.839   2.006   4.757
 9575TIP3   OH228688   7.188   0.995   4.821
 9575TIP3    H128689   7.231   0.913   4.843
 9575TIP3    H228690   7.190   0.998   4.725
 9576TIP3   OH228691   3.875   4.275   1.259
 9576TIP3    H128692   3.803   4.336   1.239
 9576TIP3    H228693   3.884   4.222   1.180
 9577TIP3   OH228694   3.541   5.675   0.136
 9577TIP3    H128695   3.478   5.620   0.181
 9577TIP3    H228696   3.622   5.666   0.187
 9578TIP3   OH228697   3.876   4.849   1.151
 9578TIP3    H128698   3.887   4.926   1.094
 9578TIP3    H228699   3.953   4.795   1.133
 9579TIP3   OH228700   0.999   5.604   1.336
 9579TIP3    H128701   1.062   5.605   1.408
 9579TIP3    H228702   0.973   5.696   1.326
 9580TIP3   OH228703   2.218   4.974   3.693
 9580TIP3    H128704   2.137   5.012   3.727
 9580TIP3    H228705   2.279   5.048   3.687
 9581TIP3   OH228706   3.375   3.404   2.590
 9581TIP3    H128707   3.423   3.450   2.521
 9581TIP3    H228708   3.328   3.473   2.637
 9582TIP3   OH228709   7.208   5.011   3.595
 9582TIP3    H128710   7.130   5.014   3.539
 9582TIP3    H228711   7.184   4.954   3.667
 9583TIP3   OH228712   0.819   3.482   4.451
 9583TIP3    H128713   0.731   3.490   4.488
 9583TIP3    H228714   0.836   3.566   4.409
 9584TIP3   OH228715   0.796   0.928   3.553
 9584TIP3    H128716   0.869   0.957   3.497
 9584TIP3    H228717   0.720   0.928   3.494
 9585TIP3   OH228718   4.753   2.337   1.023
 9585TIP3    H128719   4.777   2.384   1.103
 9585TIP3    H228720   4.750   2.404   0.955
 9586TIP3   OH228721   6.225   4.583   3.178
 9586TIP3    H128722   6.189   4.515   3.236
 9586TIP3    H228723   6.149   4.632   3.149
 9587TIP3   OH228724   2.666   6.759   1.160
 9587TIP3    H128725   2.596   6.810   1.201
 9587TIP3    H228726   2.663   6.674   1.205
 9588TIP3   OH228727   0.699   0.262   2.959
 9588TIP3    H128728   0.714   0.251   3.053
 9588TIP3    H228729   0.719   0.354   2.942
 9589TIP3   OH228730   2.709   1.907   2.904
 9589TIP3    H128731   2.774   1.947   2.962
 9589TIP3    H228732   2.732   1.938   2.816
 9590TIP3   OH228733   1.443   5.633   0.145
 9590TIP3    H128734   1.431   5.628   0.050
 9590TIP3    H228735   1.500   5.709   0.157
 9591TIP3   OH228736   4.223   3.339   3.562
 9591TIP3    H128737   4.172   3.410   3.523
 9591TIP3    H228738   4.314   3.365   3.549
 9592TIP3   OH228739   5.296   2.069   1.195
 9592TIP3    H128740   5.234   2.065   1.123
 9592TIP3    H228741   5.256   2.128   1.259
 9593TIP3   OH228742   3.184   5.434   4.895
 9593TIP3    H128743   3.094   5.408   4.917
 9593TIP3    H228744   3.205   5.504   4.957
 9594TIP3   OH228745   5.153   2.223   3.564
 9594TIP3    H128746   5.232   2.225   3.510
 9594TIP3    H228747   5.081   2.229   3.501
 9595TIP3   OH228748   0.462   1.116   1.159
 9595TIP3    H128749   0.506   1.170   1.225
 9595TIP3    H228750   0.390   1.171   1.128
 9596TIP3   OH228751   3.938   5.817   0.096
 9596TIP3    H128752   3.882   5.894   0.098
 9596TIP3    H228753   4.023   5.849   0.066
 9597TIP3   OH228754   4.507   2.690   0.700
 9597TIP3    H128755   4.569   2.624   0.731
 9597TIP3    H228756   4.538   2.772   0.738
 9598TIP3   OH228757   5.331   1.564   2.643
 9598TIP3    H128758   5.364   1.526   2.724
 9598TIP3    H228759   5.290   1.647   2.669
 9599TIP3   OH228760   1.680   6.191   0.542
 9599TIP3    H128761   1.620   6.266   0.537
 9599TIP3    H228762   1.632   6.125   0.592
 9600TIP3   OH228763   6.184   3.176   5.797
 9600TIP3    H128764   6.262   3.221   5.764
 9600TIP3    H228765   6.146   3.134   5.720
 9601TIP3   OH228766   4.031   2.840   5.162
 9601TIP3    H128767   4.017   2.929   5.128
 9601TIP3    H228768   4.052   2.788   5.085
 9602TIP3   OH228769   1.667   5.587   3.972
 9602TIP3    H128770   1.616   5.665   3.949
 9602TIP3    H228771   1.614   5.542   4.037
 9603TIP3   OH228772   4.616   1.387   0.416
 9603TIP3    H128773   4.675   1.337   0.472
 9603TIP3    H228774   4.664   1.397   0.334
 9604TIP3   OH228775   4.498   1.397   3.792
 9604TIP3    H128776   4.578   1.358   3.757
 9604TIP3    H228777   4.527   1.481   3.827
 9605TIP3   OH228778   1.129   6.635   4.164
 9605TIP3    H128779   1.194   6.704   4.175
 9605TIP3    H228780   1.045   6.679   4.177
 9606TIP3   OH228781   6.767   1.883   2.777
 9606TIP3    H128782   6.784   1.965   2.824
 9606TIP3    H228783   6.801   1.815   2.836
 9607TIP3   OH228784   6.156   1.067   1.029
 9607TIP3    H128785   6.231   1.087   1.085
 9607TIP3    H228786   6.088   1.039   1.089
 9608TIP3   OH228787   0.817   5.244   4.674
 9608TIP3    H128788   0.788   5.193   4.598
 9608TIP3    H228789   0.746   5.234   4.738
 9609TIP3   OH228790   2.169   4.470   5.630
 9609TIP3    H128791   2.091   4.492   5.580
 9609TIP3    H228792   2.235   4.533   5.601
 9610TIP3   OH228793   2.176   2.385   3.777
 9610TIP3    H128794   2.093   2.346   3.749
 9610TIP3    H228795   2.165   2.397   3.871
 9611TIP3   OH228796   1.811   5.389   5.176
 9611TIP3    H128797   1.840   5.359   5.089
 9611TIP3    H228798   1.755   5.318   5.208
 9612TIP3   OH228799   6.940   0.494   4.513
 9612TIP3    H128800   6.985   0.409   4.519
 9612TIP3    H228801   6.956   0.535   4.598
 9613TIP3   OH228802   2.312   1.947   1.854
 9613TIP3    H128803   2.366   2.001   1.913
 9613TIP3    H228804   2.239   2.003   1.830
 9614TIP3   OH228805   5.782   4.491   0.156
 9614TIP3    H128806   5.869   4.474   0.191
 9614TIP3    H228807   5.734   4.409   0.170
 9615TIP3   OH228808   5.432   5.157   2.479
 9615TIP3    H128809   5.494   5.086   2.496
 9615TIP3    H228810   5.398   5.181   2.565
 9616TIP3   OH228811   5.858   5.369   1.484
 9616TIP3    H128812   5.829   5.457   1.511
 9616TIP3    H228813   5.809   5.350   1.405
 9617TIP3   OH228814   2.428   5.611   4.918
 9617TIP3    H128815   2.412   5.703   4.938
 9617TIP3    H228816   2.363   5.590   4.850
 9618TIP3   OH228817   2.189   0.104   4.377
 9618TIP3    H128818   2.172   0.197   4.363
 9618TIP3    H228819   2.231   0.075   4.296
 9619TIP3   OH228820   1.982   2.485   1.012
 9619TIP3    H128821   2.051   2.549   1.032
 9619TIP3    H228822   2.029   2.403   1.000
 9620TIP3   OH228823   4.106   1.924   0.775
 9620TIP3    H128824   4.159   1.992   0.734
 9620TIP3    H228825   4.086   1.863   0.704
 9621TIP3   OH228826   6.984   5.579   5.237
 9621TIP3    H128827   6.958   5.669   5.218
 9621TIP3    H228828   7.077   5.585   5.259
 9622TIP3   OH228829   7.098   0.607   4.724
 9622TIP3    H128830   7.104   0.611   4.819
 9622TIP3    H228831   7.185   0.631   4.693
 9623TIP3   OH228832   1.554   0.789   2.985
 9623TIP3    H128833   1.474   0.738   2.986
 9623TIP3    H228834   1.607   0.751   3.056
 9624TIP3   OH228835   3.614   2.905   4.202
 9624TIP3    H128836   3.618   2.933   4.293
 9624TIP3    H228837   3.626   2.985   4.151
 9625TIP3   OH228838   3.170   1.065   3.694
 9625TIP3    H128839   3.217   1.121   3.633
 9625TIP3    H228840   3.084   1.053   3.654
 9626TIP3   OH228841   6.843   4.097   5.595
 9626TIP3    H128842   6.756   4.103   5.556
 9626TIP3    H228843   6.831   4.118   5.687
 9627TIP3   OH228844   1.556   0.522   2.593
 9627TIP3    H128845   1.488   0.458   2.576
 9627TIP3    H228846   1.594   0.496   2.677
 9628TIP3   OH228847   2.483   3.939   3.344
 9628TIP3    H128848   2.395   3.978   3.340
 9628TIP3    H228849   2.525   3.983   3.418
 9629TIP3   OH228850   2.735   2.890   5.544
 9629TIP3    H128851   2.671   2.834   5.501
 9629TIP3    H228852   2.745   2.852   5.631
 9630TIP3   OH228853   5.957   5.450   4.589
 9630TIP3    H128854   5.908   5.531   4.575
 9630TIP3    H228855   6.041   5.479   4.623
 9631TIP3   OH228856   3.281   6.358   3.692
 9631TIP3    H128857   3.324   6.274   3.681
 9631TIP3    H228858   3.349   6.423   3.673
 9632TIP3   OH228859   6.024   1.890   1.160
 9632TIP3    H128860   5.940   1.867   1.199
 9632TIP3    H228861   6.006   1.891   1.066
 9633TIP3   OH228862   1.456   3.605   2.477
 9633TIP3    H128863   1.388   3.546   2.444
 9633TIP3    H228864   1.502   3.554   2.543
 9634TIP3   OH228865   2.082   2.231   0.988
 9634TIP3    H128866   2.137   2.152   0.988
 9634TIP3    H228867   2.016   2.215   1.055
 9635TIP3   OH228868   4.235   1.424   3.696
 9635TIP3    H128869   4.298   1.402   3.765
 9635TIP3    H228870   4.191   1.341   3.676
 9636TIP3   OH228871   2.459   6.420   0.233
 9636TIP3    H128872   2.409   6.340   0.215
 9636TIP3    H228873   2.408   6.466   0.300
 9637TIP3   OH228874   2.772   1.319   4.474
 9637TIP3    H128875   2.727   1.272   4.545
 9637TIP3    H228876   2.864   1.321   4.501
 9638TIP3   OH228877   6.178   5.546   1.371
 9638TIP3    H128878   6.208   5.526   1.282
 9638TIP3    H228879   6.088   5.575   1.360
 9639TIP3   OH228880   1.998   3.399   2.770
 9639TIP3    H128881   2.086   3.386   2.805
 9639TIP3    H228882   1.960   3.467   2.826
 9640TIP3   OH228883   1.711   1.648   2.842
 9640TIP3    H128884   1.750   1.638   2.756
 9640TIP3    H228885   1.786   1.667   2.900
 9641TIP3   OH228886   5.076   3.030   3.607
 9641TIP3    H128887   5.090   2.936   3.618
 9641TIP3    H228888   5.070   3.042   3.512
 9642TIP3   OH228889   7.149   3.631   3.211
 9642TIP3    H128890   7.119   3.697   3.149
 9642TIP3    H228891   7.203   3.572   3.158
 9643TIP3   OH228892   7.088   4.932   0.627
 9643TIP3    H128893   7.046   4.984   0.696
 9643TIP3    H228894   7.181   4.949   0.639
 9644TIP3   OH228895   0.548   4.388   5.319
 9644TIP3    H128896   0.587   4.391   5.406
 9644TIP3    H228897   0.582   4.465   5.274
 9645TIP3   OH228898   4.187   4.186   1.299
 9645TIP3    H128899   4.093   4.205   1.303
 9645TIP3    H228900   4.225   4.261   1.253
 9646TIP3   OH228901   3.465   5.021   5.304
 9646TIP3    H128902   3.513   4.993   5.226
 9646TIP3    H228903   3.465   4.945   5.362
 9647TIP3   OH228904   5.373   0.186   2.824
 9647TIP3    H128905   5.337   0.266   2.785
 9647TIP3    H228906   5.386   0.127   2.750
 9648TIP3   OH228907   6.999   1.463   3.064
 9648TIP3    H128908   7.066   1.493   3.126
 9648TIP3    H228909   6.941   1.408   3.117
 9649TIP3   OH228910   4.694   2.924   3.357
 9649TIP3    H128911   4.696   3.017   3.377
 9649TIP3    H228912   4.739   2.882   3.430
 9650TIP3   OH228913   5.675   3.579   0.969
 9650TIP3    H128914   5.701   3.641   1.037
 9650TIP3    H228915   5.716   3.613   0.889
 9651TIP3   OH228916   4.031   4.301   4.209
 9651TIP3    H128917   4.031   4.364   4.137
 9651TIP3    H228918   3.996   4.221   4.171
 9652TIP3   OH228919   4.610   4.451   5.307
 9652TIP3    H128920   4.686   4.504   5.331
 9652TIP3    H228921   4.567   4.502   5.238
 9653TIP3   OH228922   2.753   6.318   2.712
 9653TIP3    H128923   2.825   6.289   2.656
 9653TIP3    H228924   2.757   6.414   2.709
 9654TIP3   OH228925   4.766   3.990   3.531
 9654TIP3    H128926   4.818   4.010   3.453
 9654TIP3    H228927   4.826   3.944   3.590
 9655TIP3   OH228928   3.889   4.391   4.440
 9655TIP3    H128929   3.905   4.348   4.356
 9655TIP3    H228930   3.917   4.482   4.427
 9656TIP3   OH228931   1.487   1.033   2.923
 9656TIP3    H128932   1.499   0.942   2.952
 9656TIP3    H228933   1.393   1.048   2.928
 9657TIP3   OH228934   6.296   1.026   5.200
 9657TIP3    H128935   6.376   0.973   5.190
 9657TIP3    H228936   6.323   1.114   5.171
 9658TIP3   OH228937   5.404   4.392   5.444
 9658TIP3    H128938   5.340   4.384   5.374
 9658TIP3    H228939   5.353   4.420   5.520
 9659TIP3   OH228940   1.872   0.972   5.071
 9659TIP3    H128941   1.903   0.882   5.074
 9659TIP3    H228942   1.806   0.973   5.001
 9660TIP3   OH228943   6.862   1.220   0.875
 9660TIP3    H128944   6.769   1.224   0.896
 9660TIP3    H228945   6.875   1.287   0.808
 9661TIP3   OH228946   0.209   2.272   5.855
 9661TIP3    H128947   0.239   2.334   5.789
 9661TIP3    H228948   0.150   2.213   5.809
 9662TIP3   OH228949   3.771   2.833   4.738
 9662TIP3    H128950   3.855   2.875   4.753
 9662TIP3    H228951   3.781   2.745   4.774
 9663TIP3   OH228952   3.203   5.995   5.914
 9663TIP3    H128953   3.241   5.908   5.919
 9663TIP3    H228954   3.261   6.044   5.856
 9664TIP3   OH228955   3.250   0.451   5.042
 9664TIP3    H128956   3.164   0.490   5.053
 9664TIP3    H228957   3.282   0.485   4.959
 9665TIP3   OH228958   4.591   3.453   3.973
 9665TIP3    H128959   4.647   3.503   3.913
 9665TIP3    H228960   4.652   3.416   4.037
 9666TIP3   OH228961   7.159   2.460   3.721
 9666TIP3    H128962   7.193   2.516   3.651
 9666TIP3    H228963   7.064   2.460   3.706
 9667TIP3   OH228964   5.551   6.593   5.451
 9667TIP3    H128965   5.536   6.686   5.433
 9667TIP3    H228966   5.532   6.548   5.368
 9668TIP3   OH228967   2.664   4.206   2.683
 9668TIP3    H128968   2.671   4.299   2.704
 9668TIP3    H228969   2.574   4.183   2.706
 9669TIP3   OH228970   0.706   2.288   0.192
 9669TIP3    H128971   0.697   2.322   0.281
 9669TIP3    H228972   0.780   2.227   0.198
 9670TIP3   OH228973   3.757   0.240   3.063
 9670TIP3    H128974   3.814   0.164   3.056
 9670TIP3    H228975   3.668   0.204   3.065
 9671TIP3   OH228976   0.068   6.398   2.699
 9671TIP3    H128977   0.032   6.440   2.621
 9671TIP3    H228978   0.020   6.316   2.706
 9672TIP3   OH228979   2.989   2.947   3.834
 9672TIP3    H128980   3.023   3.034   3.856
 9672TIP3    H228981   2.966   2.908   3.919
 9673TIP3   OH228982   6.037   4.527   3.368
 9673TIP3    H128983   5.965   4.464   3.365
 9673TIP3    H228984   6.082   4.508   3.451
 9674TIP3   OH228985   7.079   0.087   5.479
 9674TIP3    H128986   7.149   0.109   5.419
 9674TIP3    H228987   7.100   0.136   5.559
 9675TIP3   OH228988   4.004   0.052   0.623
 9675TIP3    H128989   4.020   0.016   0.536
 9675TIP3    H228990   3.909   0.061   0.629
 9676TIP3   OH228991   1.579   5.078   1.026
 9676TIP3    H128992   1.629   5.150   1.065
 9676TIP3    H228993   1.645   5.017   0.994
 9677TIP3   OH228994   5.752   0.841   0.398
 9677TIP3    H128995   5.778   0.759   0.356
 9677TIP3    H228996   5.659   0.851   0.375
 9678TIP3   OH228997   6.093   4.728   4.920
 9678TIP3    H128998   6.107   4.641   4.885
 9678TIP3    H228999   6.124   4.724   5.010
 9679TIP3   OH229000   6.024   2.357   0.359
 9679TIP3    H129001   6.026   2.399   0.445
 9679TIP3    H229002   6.025   2.430   0.297
 9680TIP3   OH229003   7.108   1.713   3.522
 9680TIP3    H129004   7.128   1.724   3.429
 9680TIP3    H229005   7.162   1.778   3.567
 9681TIP3   OH229006   1.364   2.788   2.883
 9681TIP3    H129007   1.405   2.858   2.934
 9681TIP3    H229008   1.270   2.802   2.894
 9682TIP3   OH229009   2.574   6.624   1.825
 9682TIP3    H129010   2.628   6.703   1.835
 9682TIP3    H229011   2.484   6.658   1.816
 9683TIP3   OH229012   2.402   2.586   4.427
 9683TIP3    H129013   2.443   2.506   4.460
 9683TIP3    H229014   2.408   2.648   4.500
 9684TIP3   OH229015   0.919   2.599   5.404
 9684TIP3    H129016   0.932   2.663   5.334
 9684TIP3    H229017   0.834   2.560   5.385
 9685TIP3   OH229018   5.988   2.243   5.030
 9685TIP3    H129019   5.955   2.234   5.119
 9685TIP3    H229020   5.998   2.153   4.999
 9686TIP3   OH229021   6.037   2.113   0.949
 9686TIP3    H129022   5.974   2.185   0.943
 9686TIP3    H229023   6.073   2.121   1.037
 9687TIP3   OH229024   4.976   2.119   3.875
 9687TIP3    H129025   4.896   2.082   3.913
 9687TIP3    H229026   4.945   2.198   3.829
 9688TIP3   OH229027   3.275   3.799   5.181
 9688TIP3    H129028   3.346   3.863   5.178
 9688TIP3    H229029   3.291   3.749   5.261
 9689TIP3   OH229030   0.299   1.256   2.398
 9689TIP3    H129031   0.269   1.280   2.310
 9689TIP3    H229032   0.231   1.198   2.432
 9690TIP3   OH229033   2.272   5.359   2.549
 9690TIP3    H129034   2.247   5.420   2.479
 9690TIP3    H229035   2.364   5.378   2.566
 9691TIP3   OH229036   5.181   4.633   4.872
 9691TIP3    H129037   5.183   4.568   4.803
 9691TIP3    H229038   5.155   4.714   4.828
 9692TIP3   OH229039   2.799   1.105   1.734
 9692TIP3    H129040   2.850   1.185   1.753
 9692TIP3    H229041   2.713   1.137   1.708
 9693TIP3   OH229042   6.651   5.927   0.234
 9693TIP3    H129043   6.682   5.980   0.308
 9693TIP3    H229044   6.730   5.908   0.183
 9694TIP3   OH229045   3.724   1.414   4.827
 9694TIP3    H129046   3.782   1.366   4.768
 9694TIP3    H229047   3.773   1.421   4.909
 9695TIP3   OH229048   2.949   4.833   0.271
 9695TIP3    H129049   2.969   4.748   0.233
 9695TIP3    H229050   2.901   4.813   0.352
 9696TIP3   OH229051   1.826   6.676   0.983
 9696TIP3    H129052   1.919   6.653   0.982
 9696TIP3    H229053   1.818   6.748   0.920
 9697TIP3   OH229054   4.091   0.229   3.270
 9697TIP3    H129055   4.155   0.165   3.240
 9697TIP3    H229056   4.137   0.313   3.268
 9698TIP3   OH229057   2.790   5.344   5.802
 9698TIP3    H129058   2.732   5.351   5.878
 9698TIP3    H229059   2.855   5.412   5.814
 9699TIP3   OH229060   0.400   2.357   2.950
 9699TIP3    H129061   0.459   2.305   2.897
 9699TIP3    H229062   0.419   2.448   2.926
 9700TIP3   OH229063   1.649   5.403   3.763
 9700TIP3    H129064   1.594   5.410   3.685
 9700TIP3    H229065   1.616   5.469   3.823
 9701TIP3   OH229066   0.542   1.847   4.868
 9701TIP3    H129067   0.527   1.939   4.850
 9701TIP3    H229068   0.531   1.803   4.784
 9702TIP3   OH229069   2.276   5.133   4.571
 9702TIP3    H129070   2.257   5.221   4.601
 9702TIP3    H229071   2.332   5.146   4.493
 9703TIP3   OH229072   1.040   1.101   4.928
 9703TIP3    H129073   0.961   1.046   4.930
 9703TIP3    H229074   1.051   1.125   4.836
 9704TIP3   OH229075   5.743   3.783   3.422
 9704TIP3    H129076   5.665   3.831   3.393
 9704TIP3    H229077   5.800   3.850   3.458
 9705TIP3   OH229078   2.945   3.836   2.180
 9705TIP3    H129079   3.010   3.865   2.244
 9705TIP3    H229080   2.864   3.878   2.210
 9706TIP3   OH229081   3.911   4.518   4.036
 9706TIP3    H129082   3.830   4.469   4.047
 9706TIP3    H229083   3.954   4.477   3.962
 9707TIP3   OH229084   1.665   4.536   2.912
 9707TIP3    H129085   1.580   4.539   2.956
 9707TIP3    H229086   1.720   4.481   2.967
 9708TIP3   OH229087   6.011   0.138   2.128
 9708TIP3    H129088   6.038   0.079   2.199
 9708TIP3    H229089   6.039   0.225   2.158
 9709TIP3   OH229090   6.222   4.404   1.406
 9709TIP3    H129091   6.192   4.470   1.343
 9709TIP3    H229092   6.306   4.436   1.437
 9710TIP3   OH229093   6.305   5.810   3.275
 9710TIP3    H129094   6.218   5.773   3.284
 9710TIP3    H229095   6.364   5.735   3.274
 9711TIP3   OH229096   1.339   4.702   4.324
 9711TIP3    H129097   1.248   4.675   4.309
 9711TIP3    H229098   1.388   4.620   4.324
 9712TIP3   OH229099   6.558   1.365   5.316
 9712TIP3    H129100   6.605   1.378   5.233
 9712TIP3    H229101   6.498   1.439   5.321
 9713TIP3   OH229102   4.284   3.708   3.449
 9713TIP3    H129103   4.364   3.752   3.476
 9713TIP3    H229104   4.249   3.671   3.530
 9714TIP3   OH229105   3.966   4.367   5.625
 9714TIP3    H129106   3.966   4.399   5.535
 9714TIP3    H229107   4.049   4.395   5.662
 9715TIP3   OH229108   2.293   2.530   5.643
 9715TIP3    H129109   2.208   2.536   5.599
 9715TIP3    H229110   2.313   2.436   5.644
 9716TIP3   OH229111   4.404   4.710   4.802
 9716TIP3    H129112   4.350   4.632   4.809
 9716TIP3    H229113   4.344   4.782   4.820
 9717TIP3   OH229114   1.098   0.630   2.835
 9717TIP3    H129115   1.125   0.686   2.762
 9717TIP3    H229116   1.172   0.633   2.896
 9718TIP3   OH229117   2.290   4.460   4.958
 9718TIP3    H129118   2.323   4.374   4.981
 9718TIP3    H229119   2.359   4.499   4.905
 9719TIP3   OH229120   1.190   3.176   5.703
 9719TIP3    H129121   1.152   3.247   5.755
 9719TIP3    H229122   1.218   3.111   5.767
 9720TIP3   OH229123   3.283   1.679   2.374
 9720TIP3    H129124   3.349   1.616   2.402
 9720TIP3    H229125   3.290   1.751   2.436
 9721TIP3   OH229126   0.947   6.272   3.769
 9721TIP3    H129127   0.948   6.355   3.817
 9721TIP3    H229128   0.862   6.232   3.791
 9722TIP3   OH229129   0.997   3.764   4.243
 9722TIP3    H129130   1.025   3.851   4.272
 9722TIP3    H229131   0.910   3.753   4.280
 9723TIP3   OH229132   2.570   3.285   4.920
 9723TIP3    H129133   2.617   3.335   4.987
 9723TIP3    H229134   2.634   3.276   4.849
 9724TIP3   OH229135   5.987   1.059   2.604
 9724TIP3    H129136   5.892   1.056   2.593
 9724TIP3    H229137   6.007   1.152   2.616
 9725TIP3   OH229138   3.453   1.810   4.737
 9725TIP3    H129139   3.510   1.880   4.707
 9725TIP3    H229140   3.480   1.733   4.688
 9726TIP3   OH229141   2.586   1.451   4.170
 9726TIP3    H129142   2.604   1.361   4.197
 9726TIP3    H229143   2.514   1.480   4.226
 9727TIP3   OH229144   3.265   2.713   4.375
 9727TIP3    H129145   3.202   2.784   4.370
 9727TIP3    H229146   3.339   2.749   4.424
 9728TIP3   OH229147   3.004   1.515   3.859
 9728TIP3    H129148   2.932   1.451   3.863
 9728TIP3    H229149   2.963   1.598   3.881
 9729TIP3   OH229150   4.844   4.807   1.635
 9729TIP3    H129151   4.788   4.730   1.625
 9729TIP3    H229152   4.814   4.867   1.566
 9730TIP3   OH229153   3.085   1.685   3.348
 9730TIP3    H129154   3.119   1.721   3.265
 9730TIP3    H229155   3.141   1.723   3.415
 9731TIP3   OH229156   3.687   3.935   5.754
 9731TIP3    H129157   3.712   3.876   5.683
 9731TIP3    H229158   3.753   4.004   5.754
 9732TIP3   OH229159   0.265   5.287   3.914
 9732TIP3    H129160   0.306   5.208   3.949
 9732TIP3    H229161   0.212   5.257   3.840
 9733TIP3   OH229162   5.372   1.075   1.068
 9733TIP3    H129163   5.312   1.001   1.072
 9733TIP3    H229164   5.343   1.133   1.139
 9734TIP3   OH229165   4.879   2.595   0.517
 9734TIP3    H129166   4.830   2.544   0.581
 9734TIP3    H229167   4.877   2.542   0.437
 9735TIP3   OH229168   1.277   2.216   3.741
 9735TIP3    H129169   1.347   2.174   3.691
 9735TIP3    H229170   1.219   2.253   3.674
 9736TIP3   OH229171   4.994   5.106   5.343
 9736TIP3    H129172   5.051   5.182   5.353
 9736TIP3    H229173   5.051   5.037   5.309
 9737TIP3   OH229174   5.407   0.076   2.322
 9737TIP3    H129175   5.488   0.092   2.274
 9737TIP3    H229176   5.344   0.050   2.256
 9738TIP3   OH229177   1.923   5.351   1.780
 9738TIP3    H129178   1.898   5.292   1.709
 9738TIP3    H229179   1.892   5.307   1.859
 9739TIP3   OH229180   4.896   5.881   0.006
 9739TIP3    H129181   4.938   5.943   0.066
 9739TIP3    H229182   4.818   5.927  -0.025
 9740TIP3   OH229183   0.103   6.469   3.530
 9740TIP3    H129184   0.057   6.434   3.606
 9740TIP3    H229185   0.074   6.560   3.523
 9741TIP3   OH229186   1.987   1.600   5.646
 9741TIP3    H129187   1.978   1.506   5.658
 9741TIP3    H229188   2.062   1.624   5.700
 9742TIP3   OH229189   3.391   3.263   0.793
 9742TIP3    H129190   3.403   3.208   0.716
 9742TIP3    H229191   3.430   3.213   0.865
 9743TIP3   OH229192   0.193   0.817   2.349
 9743TIP3    H129193   0.208   0.850   2.261
 9743TIP3    H229194   0.130   0.745   2.339
 9744TIP3   OH229195   4.728   0.584   4.730
 9744TIP3    H129196   4.748   0.565   4.638
 9744TIP3    H229197   4.757   0.675   4.742
 9745TIP3   OH229198   0.072   2.674   1.557
 9745TIP3    H129199   0.153   2.720   1.537
 9745TIP3    H229200   0.012   2.743   1.587
 9746TIP3   OH229201   5.086   3.689   0.083
 9746TIP3    H129202   5.165   3.639   0.103
 9746TIP3    H229203   5.025   3.624   0.048
 9747TIP3   OH229204   4.782   1.142   0.544
 9747TIP3    H129205   4.805   1.121   0.635
 9747TIP3    H229206   4.715   1.079   0.520
 9748TIP3   OH229207   4.063   2.664   1.947
 9748TIP3    H129208   4.038   2.748   1.987
 9748TIP3    H229209   3.982   2.612   1.949
 9749TIP3   OH229210   4.916   2.572   1.249
 9749TIP3    H129211   4.961   2.610   1.324
 9749TIP3    H229212   4.951   2.619   1.174
   7.21359   6.80104   5.88986   0.00000   0.00000  -2.40453   0.00000  -2.40453  -3.40051
