* SET NIONTYPES = 1
* SET NPOSTOT = 68
* SET NNEGTOT = 65
* SET NIONTOT = 133
*  DATE:     6/13/26      8:42:57      CREATED BY USER: charmm-gui
*
       133  EXT
         1         1  LIT       LIT            -8.0286059981      -12.7070741704       44.9751544034  IONS      1               1.0000000000
         2         2  LIT       LIT            -8.8852018289      -27.8533014853      -42.7983910006  IONS      2               1.0000000000
         3         3  LIT       LIT            35.9131071450       19.4288386632        5.9432818062  IONS      3               1.0000000000
         4         4  LIT       LIT            15.7815347222      -21.2292231546       -7.4578030058  IONS      4               1.0000000000
         5         5  LIT       LIT           -25.1175114826      -20.9140915821      -15.9137017715  IONS      5               1.0000000000
         6         6  LIT       LIT           -30.7367047849       18.8273316182      -31.9785965621  IONS      6               1.0000000000
         7         7  LIT       LIT            13.1458274775       30.0787282087       30.7902670069  IONS      7               1.0000000000
         8         8  LIT       LIT           -26.6449341384      -16.3173129773      -21.4709210214  IONS      8               1.0000000000
         9         9  LIT       LIT            -1.0515037399      -15.4340201490       22.7027022303  IONS      9               1.0000000000
        10        10  LIT       LIT            41.5403019067       -1.4803593495       33.4585357888  IONS      10              1.0000000000
        11        11  LIT       LIT            -7.8607293977      -48.2314638718        4.9002159524  IONS      11              1.0000000000
        12        12  LIT       LIT            31.1686876909        6.0020286667       27.8065898155  IONS      12              1.0000000000
        13        13  LIT       LIT            35.8492685501      -30.1592461884       -6.3217050809  IONS      13              1.0000000000
        14        14  LIT       LIT            52.9027135735       -1.8494586122       19.3413794153  IONS      14              1.0000000000
        15        15  LIT       LIT           -30.6148997797      -10.3295350291      -38.2302341470  IONS      15              1.0000000000
        16        16  LIT       LIT           -44.8349149172       33.4871932078      -15.8130581398  IONS      16              1.0000000000
        17        17  LIT       LIT             9.2602566812      -39.0090616638      -27.9573948986  IONS      17              1.0000000000
        18        18  LIT       LIT           -10.4727643840       -3.4188697656       25.0635516082  IONS      18              1.0000000000
        19        19  LIT       LIT           -12.3403640740       25.8845771247       -6.9002295968  IONS      19              1.0000000000
        20        20  LIT       LIT            -2.0692807567       -2.0155967096      -12.8200483295  IONS      20              1.0000000000
        21        21  LIT       LIT            16.8186777912        5.5799097093       30.7468470058  IONS      21              1.0000000000
        22        22  LIT       LIT           -29.1021615377      -30.6920570006        3.3931073844  IONS      22              1.0000000000
        23        23  LIT       LIT             2.0653286809        3.0277254500      -36.6222921398  IONS      23              1.0000000000
        24        24  LIT       LIT           -37.4818093836        7.8547452084      -38.8207981182  IONS      24              1.0000000000
        25        25  LIT       LIT           -23.3620174257       23.3786292695        2.6095189926  IONS      25              1.0000000000
        26        26  LIT       LIT           -17.9047950385       46.6614486511        9.9078767308  IONS      26              1.0000000000
        27        27  LIT       LIT            25.5227426309        1.9601773500      -19.7209802229  IONS      27              1.0000000000
        28        28  LIT       LIT            24.6672370874       10.5541408867       38.9109420294  IONS      28              1.0000000000
        29        29  LIT       LIT           -24.5144262067       14.3758315787      -34.7311459208  IONS      29              1.0000000000
        30        30  LIT       LIT           -11.6715530481       -2.1213466366      -45.4195145853  IONS      30              1.0000000000
        31        31  LIT       LIT           -18.2339211054       -7.4429475207      -33.4138974643  IONS      31              1.0000000000
        32        32  LIT       LIT           -23.0126067847       26.2173671220      -22.2276794259  IONS      32              1.0000000000
        33        33  LIT       LIT            11.1084781407       33.6356928117       11.5462012216  IONS      33              1.0000000000
        34        34  LIT       LIT           -21.2102519376        6.0335054958      -40.5967166762  IONS      34              1.0000000000
        35        35  LIT       LIT           -10.7790155908      -17.4771386683      -31.0910736342  IONS      35              1.0000000000
        36        36  LIT       LIT            28.3720678725      -27.6509362058       37.2678782582  IONS      36              1.0000000000
        37        37  LIT       LIT           -12.3318961493      -12.6480129348      -41.6918970034  IONS      37              1.0000000000
        38        38  LIT       LIT           -30.3995377520        4.6072175555       20.5153229966  IONS      38              1.0000000000
        39        39  LIT       LIT           -20.6352756555       37.6509956757       33.9242480638  IONS      39              1.0000000000
        40        40  LIT       LIT           -33.0974574823       -7.3376839704      -23.5849010963  IONS      40              1.0000000000
        41        41  LIT       LIT            11.2519761230       41.9599115492       -3.3957514254  IONS      41              1.0000000000
        42        42  LIT       LIT           -52.9414259833      -22.7722694863        5.8021803084  IONS      42              1.0000000000
        43        43  LIT       LIT            36.9086105899       19.4424831554      -35.8612984843  IONS      43              1.0000000000
        44        44  LIT       LIT           -45.7765825236        8.9934759115      -32.3660697897  IONS      44              1.0000000000
        45        45  LIT       LIT           -10.2813946967       -9.5270743383      -23.3984062775  IONS      45              1.0000000000
        46        46  LIT       LIT           -17.8609240715      -46.4521939912      -12.3759008795  IONS      46              1.0000000000
        47        47  LIT       LIT            42.5149807997       -1.8750063720        7.4972356602  IONS      47              1.0000000000
        48        48  LIT       LIT            36.4860704219      -11.1161919694      -10.5416956754  IONS      48              1.0000000000
        49        49  LIT       LIT           -35.8500510769       30.6858433181       -1.1296632690  IONS      49              1.0000000000
        50        50  LIT       LIT            14.5351051253       -6.9582930568       24.8910721263  IONS      50              1.0000000000
        51        51  LIT       LIT            28.9524826782       27.5210933735       25.3495709767  IONS      51              1.0000000000
        52        52  LIT       LIT            34.9680343773      -30.5939208231        7.7863110671  IONS      52              1.0000000000
        53        53  LIT       LIT            -1.0762563304       14.4880074110       32.9327857207  IONS      53              1.0000000000
        54        54  LIT       LIT            12.3716404555       19.5333774835       41.3395200626  IONS      54              1.0000000000
        55        55  LIT       LIT            12.4954029147       -7.9638080215        3.7698775177  IONS      55              1.0000000000
        56        56  LIT       LIT             8.4872705308       49.5745871143       19.5279529086  IONS      56              1.0000000000
        57        57  LIT       LIT            11.5310908508       -7.8510808933       51.1921959838  IONS      57              1.0000000000
        58        58  LIT       LIT            33.3601744135       24.4359643032      -14.6120621199  IONS      58              1.0000000000
        59        59  LIT       LIT           -19.1015228030        8.8407092009       21.4371923902  IONS      59              1.0000000000
        60        60  LIT       LIT            -1.6872883165       20.1176100111       53.1890195332  IONS      60              1.0000000000
        61        61  LIT       LIT             1.1699730333      -15.8625454782       36.7441574496  IONS      61              1.0000000000
        62        62  LIT       LIT           -18.0641725985      -24.1575872648      -27.3774746113  IONS      62              1.0000000000
        63        63  LIT       LIT           -36.6377434662       15.5380291055       18.5274562279  IONS      63              1.0000000000
        64        64  LIT       LIT           -46.6877601797      -17.2806678018       26.6241542018  IONS      64              1.0000000000
        65        65  LIT       LIT            41.6684322350       13.8327465385       23.8008050525  IONS      65              1.0000000000
        66        66  LIT       LIT            30.9566551398       17.1384780934       16.8994773583  IONS      66              1.0000000000
        67        67  LIT       LIT            22.8090771765      -24.3022112950      -31.3215617762  IONS      67              1.0000000000
        68        68  LIT       LIT            15.5287480543      -33.9917899485       11.1459389032  IONS      68              1.0000000000
        69        69  CLA       CLA            30.4799618488      -31.0220494956       16.5901245386  IONS      69             -1.0000000000
        70        70  CLA       CLA             9.1475584744       14.6773529003       47.7571780143  IONS      70             -1.0000000000
        71        71  CLA       CLA           -13.8543183923       -4.3108588984      -30.8122591164  IONS      71             -1.0000000000
        72        72  CLA       CLA            48.3046644450       24.9755760311       -7.1403112540  IONS      72             -1.0000000000
        73        73  CLA       CLA            17.6589540488       18.0813636130       41.9405879916  IONS      73             -1.0000000000
        74        74  CLA       CLA            37.6514862735       26.4426723137       18.8219557336  IONS      74             -1.0000000000
        75        75  CLA       CLA            48.5480609280        2.5079091090       14.2991258273  IONS      75             -1.0000000000
        76        76  CLA       CLA           -16.6394625029      -39.2947584688       -8.8030933389  IONS      76             -1.0000000000
        77        77  CLA       CLA            -9.9531728901      -10.2190976988      -48.1604952041  IONS      77             -1.0000000000
        78        78  CLA       CLA           -26.2834747256       29.9199758033       20.8371691698  IONS      78             -1.0000000000
        79        79  CLA       CLA           -42.5878193348       36.6255567199      -13.4130830925  IONS      79             -1.0000000000
        80        80  CLA       CLA            -9.8835054226       31.4017177238       19.1078357572  IONS      80             -1.0000000000
        81        81  CLA       CLA            13.3039200169      -29.8229657020      -17.9238151676  IONS      81             -1.0000000000
        82        82  CLA       CLA            28.7689658290       37.1650116381       16.8569163813  IONS      82             -1.0000000000
        83        83  CLA       CLA            24.9022354559       -8.1493606375      -15.9150194138  IONS      83             -1.0000000000
        84        84  CLA       CLA             7.5876131482      -17.7972486553       11.6641011337  IONS      84             -1.0000000000
        85        85  CLA       CLA            41.7411248733       -1.0186438942      -27.8754555233  IONS      85             -1.0000000000
        86        86  CLA       CLA            37.7257349325       18.1721868755       10.6418856205  IONS      86             -1.0000000000
        87        87  CLA       CLA            12.4392721377       15.9446674910       35.5128706518  IONS      87             -1.0000000000
        88        88  CLA       CLA           -32.0343385538      -13.0178410792      -25.2392688988  IONS      88             -1.0000000000
        89        89  CLA       CLA           -14.8292631919      -11.4732311692       15.9032415055  IONS      89             -1.0000000000
        90        90  CLA       CLA            29.7659743398      -29.1266016386      -28.8376527348  IONS      90             -1.0000000000
        91        91  CLA       CLA             3.3815038540       -0.8388527042      -12.5289839945  IONS      91             -1.0000000000
        92        92  CLA       CLA            23.5895100347      -27.9765865664      -40.2921864619  IONS      92             -1.0000000000
        93        93  CLA       CLA           -26.8318269403      -24.2680689261      -17.7008320740  IONS      93             -1.0000000000
        94        94  CLA       CLA            -9.5068729617       42.2406835861        4.2853212794  IONS      94             -1.0000000000
        95        95  CLA       CLA           -31.7690526799      -28.8300843344       30.0751186281  IONS      95             -1.0000000000
        96        96  CLA       CLA            37.1479594246       27.3141733835        9.4607082475  IONS      96             -1.0000000000
        97        97  CLA       CLA           -20.1897906111      -15.9492232847      -28.9313905856  IONS      97             -1.0000000000
        98        98  CLA       CLA            43.3317206992       14.6970927762       16.0644519318  IONS      98             -1.0000000000
        99        99  CLA       CLA             1.3029103889      -33.9794545788       -9.0138484061  IONS      99             -1.0000000000
       100       100  CLA       CLA           -36.8118199384       -7.7640759261       13.6143363307  IONS      100            -1.0000000000
       101       101  CLA       CLA           -25.0618797016        9.9301919409      -28.8247915789  IONS      101            -1.0000000000
       102       102  CLA       CLA            -4.7891567035      -28.9594090618       21.9010947103  IONS      102            -1.0000000000
       103       103  CLA       CLA             9.2823137712       28.6480439890       11.9632226574  IONS      103            -1.0000000000
       104       104  CLA       CLA             6.2892546207       37.8723114977       25.9329007860  IONS      104            -1.0000000000
       105       105  CLA       CLA           -19.2523969911      -39.5068137790       29.7836734692  IONS      105            -1.0000000000
       106       106  CLA       CLA           -49.6246201269       23.5093541304      -23.4564892101  IONS      106            -1.0000000000
       107       107  CLA       CLA             9.1347995747       -7.9961627739      -35.9728416167  IONS      107            -1.0000000000
       108       108  CLA       CLA            12.1406074150       31.9514537842       32.7278221631  IONS      108            -1.0000000000
       109       109  CLA       CLA           -31.6882646745      -24.0988437756        9.0838982321  IONS      109            -1.0000000000
       110       110  CLA       CLA            31.2299459518      -34.2066535669       30.9016759679  IONS      110            -1.0000000000
       111       111  CLA       CLA           -33.4356826294       -4.9626594528      -29.2241505126  IONS      111            -1.0000000000
       112       112  CLA       CLA            44.7033969763       -4.6163403388       29.9525620642  IONS      112            -1.0000000000
       113       113  CLA       CLA            40.4648742485       28.6647379628       -8.3021742464  IONS      113            -1.0000000000
       114       114  CLA       CLA           -10.6905449075       50.2472606107       16.3385071163  IONS      114            -1.0000000000
       115       115  CLA       CLA            -4.9832248084       23.1353423671      -10.1588402296  IONS      115            -1.0000000000
       116       116  CLA       CLA            29.7295990672        1.3181076529      -41.0553479088  IONS      116            -1.0000000000
       117       117  CLA       CLA            -0.0169388247      -36.3572032168      -29.6869936316  IONS      117            -1.0000000000
       118       118  CLA       CLA            36.3807970796      -36.5902531642      -10.4952109152  IONS      118            -1.0000000000
       119       119  CLA       CLA            -9.6544885162      -29.6345790473      -29.9769138658  IONS      119            -1.0000000000
       120       120  CLA       CLA            26.5412990939       29.9187968761       -4.9043286648  IONS      120            -1.0000000000
       121       121  CLA       CLA            42.8419165204      -16.6706002524       27.5092332038  IONS      121            -1.0000000000
       122       122  CLA       CLA            33.4889966764       10.2600378642       17.4200974781  IONS      122            -1.0000000000
       123       123  CLA       CLA            17.9407976478       25.4685670200      -20.1583360441  IONS      123            -1.0000000000
       124       124  CLA       CLA           -19.4880010543       41.9358645602       26.4720926549  IONS      124            -1.0000000000
       125       125  CLA       CLA           -31.4592213024       10.2890741329      -41.2871928683  IONS      125            -1.0000000000
       126       126  CLA       CLA            -7.4989546541       -7.6265977920      -18.0172276508  IONS      126            -1.0000000000
       127       127  CLA       CLA             5.6013418844      -11.3645992927       22.8521621382  IONS      127            -1.0000000000
       128       128  CLA       CLA           -24.2882546995       16.7569273410      -42.6270546393  IONS      128            -1.0000000000
       129       129  CLA       CLA            -3.1767563759        0.0095950754       30.7786352733  IONS      129            -1.0000000000
       130       130  CLA       CLA             3.1549262180      -43.4146688229      -37.0888399939  IONS      130            -1.0000000000
       131       131  CLA       CLA            -2.3475673712       29.5594164074       45.4799089182  IONS      131            -1.0000000000
       132       132  CLA       CLA           -23.4517000091       36.8362058969       34.3385865608  IONS      132            -1.0000000000
       133       133  CLA       CLA            -6.7649137401      -11.7682442144      -37.0354795024  IONS      133            -1.0000000000
