Title
19942
    1ASP      N    1   2.739   3.137   2.758  0.1959  0.2525 -0.0172
    1ASP    HT1    2   2.711   3.160   2.856 -0.4138  0.6418 -0.2759
    1ASP    HT2    3   2.822   3.075   2.766 -1.2679 -1.9986 -1.2269
    1ASP    HT3    4   2.664   3.075   2.721 -0.6497  2.0990 -1.6018
    1ASP     CA    5   2.746   3.252   2.660 -1.1155  0.0321  0.2281
    1ASP     HA    6   2.762   3.209   2.562  3.1742  0.9008  0.3456
    1ASP     CB    7   2.608   3.315   2.659  0.0368  0.6337 -0.0880
    1ASP    HB1    8   2.577   3.369   2.752  1.1733 -1.4361  1.5951
    1ASP    HB2    9   2.535   3.232   2.651  0.2106  0.1543  2.3441
    1ASP     CG   10   2.596   3.400   2.538  0.3235 -0.3713  0.3417
    1ASP    OD1   11   2.679   3.381   2.442 -0.0489  0.4196  0.3009
    1ASP    OD2   12   2.499   3.479   2.527 -0.4958  0.3427  0.0618
    1ASP      C   13   2.871   3.336   2.705  0.9493  0.0257  0.5090
    1ASP      O   14   2.967   3.283   2.763 -0.2948 -0.1967  0.2924
    2ALA      N   15   2.859   3.474   2.679 -0.6849  0.3809  0.5372
    2ALA     HN   16   2.794   3.510   2.613  0.9401 -0.6725 -1.8104
    2ALA     CA   17   2.936   3.567   2.747 -0.3335  0.4918 -0.1772
    2ALA     HA   18   3.040   3.557   2.719 -1.0780 -0.6429 -2.7609
    2ALA     CB   19   2.898   3.714   2.706  0.9702 -0.1447 -0.0488
    2ALA    HB1   20   2.800   3.745   2.749 -0.2993 -0.0094 -2.8492
    2ALA    HB2   21   2.885   3.720   2.596  2.9811 -0.4329 -0.3328
    2ALA    HB3   22   2.974   3.790   2.734  1.0268 -0.4596  0.6781
    2ALA      C   23   2.926   3.559   2.901  0.1755  0.0840  0.2569
    2ALA      O   24   2.821   3.541   2.966 -0.0435  0.0896  0.2528
    3ASP      N   25   3.044   3.568   2.977  0.6179  0.0024  0.1862
    3ASP     HN   26   3.136   3.573   2.940  0.5707 -1.6054 -0.2326
    3ASP     CA   27   3.050   3.576   3.124 -0.5267 -0.0411 -0.2358
    3ASP     HA   28   2.959   3.536   3.166  0.1906  0.1770  1.5963
    3ASP     CB   29   3.160   3.480   3.162 -0.5638 -0.1756 -0.0571
    3ASP    HB1   30   3.259   3.527   3.145 -0.6206 -0.1953 -0.4465
    3ASP    HB2   31   3.148   3.394   3.093  2.7220 -2.0834  1.5426
    3ASP     CG   32   3.140   3.429   3.309  0.2028  0.0499  0.5074
    3ASP    OD1   33   3.034   3.452   3.370 -0.4580  0.0199  0.2635
    3ASP    OD2   34   3.238   3.372   3.365 -0.0987  0.2459  1.0655
    3ASP      C   35   3.080   3.715   3.194  0.0833 -0.2687  0.3309
    3ASP      O   36   3.177   3.778   3.162 -0.5180 -0.1301  0.0059
    4GLY      N   37   2.990   3.742   3.290 -0.3263 -0.1831  0.0229
    4GLY     HN   38   2.914   3.682   3.312 -0.2560 -1.1776 -2.1540
    4GLY     CA   39   3.001   3.852   3.385 -0.0863 -0.0895  0.0525
    4GLY    HA1   40   2.918   3.833   3.452 -1.3630  2.5208 -0.6600
    4GLY    HA2   41   2.979   3.948   3.340 -0.5866  0.3843  1.2519
    4GLY      C   42   3.123   3.851   3.471  0.9831  0.4509  0.2318
    4GLY      O   43   3.200   3.754   3.474  0.5657  0.8144  0.0324
    5PRO      N   44   3.150   3.955   3.549  0.1348  0.2143 -0.2707
    5PRO     CD   45   3.086   4.088   3.533 -0.6659  0.8401 -0.4202
    5PRO    HD1   46   2.977   4.079   3.550 -0.9824  1.7215 -1.8195
    5PRO    HD2   47   3.106   4.127   3.431  2.2045 -0.1585 -0.3249
    5PRO     CA   48   3.235   3.948   3.671  0.2473 -0.6930  0.8280
    5PRO     HA   49   3.341   3.946   3.650  0.5286 -1.2367  2.1961
    5PRO     CB   50   3.175   4.062   3.755 -0.0500 -0.1228  0.0947
    5PRO    HB1   51   3.247   4.094   3.834  0.1514  0.7771 -0.4353
    5PRO    HB2   52   3.077   4.033   3.799 -0.4884 -1.8350 -1.8907
    5PRO     CG   53   3.154   4.164   3.644  0.1033 -0.0575 -0.2854
    5PRO    HG1   54   3.089   4.242   3.687  0.1038 -1.0246  1.5711
    5PRO    HG2   55   3.241   4.214   3.597 -0.9796  1.9739 -0.2114
    5PRO      C   56   3.221   3.818   3.752 -0.0014 -0.0941 -0.5255
    5PRO      O   57   3.110   3.774   3.762  0.1514  0.3671  0.0562
    6GLY      N   58   3.333   3.761   3.799  0.3404 -0.3882 -0.2836
    6GLY     HN   59   3.423   3.798   3.777  0.7338  1.0101  3.1149
    6GLY     CA   60   3.345   3.643   3.877  0.0531  0.0218 -0.1606
    6GLY    HA1   61   3.446   3.637   3.914  1.0653 -0.8780 -2.8021
    6GLY    HA2   62   3.347   3.562   3.805 -0.6064 -1.4859  1.4317
    6GLY      C   63   3.253   3.614   3.990  0.4723 -0.0042 -1.0102
    6GLY      O   64   3.188   3.701   4.057 -0.3486  0.9146  0.0096
    7ASP      N   65   3.242   3.482   4.027  0.0499  0.7046  0.3359
    7ASP     HN   66   3.287   3.416   3.966 -2.6906  0.0055 -1.1555
    7ASP     CA   67   3.176   3.416   4.142  0.2329 -0.5748  0.0409
    7ASP     HA   68   3.071   3.442   4.149  0.4925  0.2646  1.1444
    7ASP     CB   69   3.197   3.267   4.131  0.5340 -0.6049  0.4634
    7ASP    HB1   70   3.150   3.208   4.212 -0.0587  0.4786  0.9246
    7ASP    HB2   71   3.305   3.243   4.120  0.8886 -0.4845  3.1591
    7ASP     CG   72   3.126   3.218   4.012  1.0220 -0.0396  0.1899
    7ASP    OD1   73   3.173   3.120   3.950  0.5424  0.5029 -0.3288
    7ASP    OD2   74   3.023   3.273   3.974  0.2340  0.5665  0.2988
    7ASP      C   75   3.235   3.460   4.278 -0.0027 -0.1223  0.0898
    7ASP      O   76   3.345   3.521   4.276 -0.1362  0.2580 -0.4806
    8PRO      N   77   3.178   3.429   4.398  0.1102 -0.2607 -0.0267
    8PRO     CD   78   3.033   3.394   4.414  0.0147  0.3452 -0.3326
    8PRO    HD1   79   3.016   3.293   4.456 -0.3244  1.1897  1.6997
    8PRO    HD2   80   2.975   3.403   4.319 -0.8240 -1.8220 -0.0678
    8PRO     CA   81   3.237   3.478   4.523 -0.0098  1.0158  0.5934
    8PRO     HA   82   3.276   3.577   4.504 -1.8252  1.7274  0.3082
    8PRO     CB   83   3.114   3.484   4.613  0.1162 -0.4293 -0.1054
    8PRO    HB1   84   3.110   3.569   4.684 -3.3650 -0.2634 -0.3334
    8PRO    HB2   85   3.103   3.393   4.675  1.5483  0.0763  0.9412
    8PRO     CG   86   2.990   3.492   4.520  0.5208 -0.3632  0.4577
    8PRO    HG1   87   2.892   3.471   4.566  0.3873 -0.8303 -0.0187
    8PRO    HG2   88   2.993   3.596   4.481  1.5503 -0.4999  0.1297
    8PRO      C   89   3.348   3.390   4.573  0.5681  0.6066 -0.5790
    8PRO      O   90   3.403   3.428   4.676 -0.1348  0.2143  0.2024
    9ASP      N   91   3.372   3.281   4.507  0.1518  0.1043 -0.2608
    9ASP     HN   92   3.314   3.264   4.428  2.4721 -0.7861 -1.8870
    9ASP     CA   93   3.480   3.188   4.532 -0.0813 -0.0441 -0.3184
    9ASP     HA   94   3.448   3.104   4.594  0.7171  0.2525  0.5279
    9ASP     CB   95   3.528   3.117   4.402  0.1121  0.3657  0.6594
    9ASP    HB1   96   3.622   3.057   4.404  0.1945  0.3082 -1.6694
    9ASP    HB2   97   3.560   3.208   4.347  0.0091 -0.6388 -1.1561
    9ASP     CG   98   3.421   3.039   4.333 -0.0598  0.3102 -0.8745
    9ASP    OD1   99   3.446   2.999   4.218  0.6157 -0.3325  0.2980
    9ASP    OD2  100   3.320   3.000   4.398  0.1452 -0.5718 -0.6414
    9ASP      C  101   3.603   3.238   4.606  0.2001  0.3140 -0.2091
    9ASP      O  102   3.684   3.321   4.559 -0.7249 -0.1141  0.3598
   10ALA      N  103   3.628   3.188   4.726  0.6324  0.1918 -0.7324
   10ALA     HN  104   3.565   3.116   4.754  2.7750 -0.6613  2.5247
   10ALA     CA  105   3.744   3.226   4.805 -0.5890  0.2632 -0.5152
   10ALA     HA  106   3.782   3.322   4.775  0.0833  0.4459  0.8327
   10ALA     CB  107   3.700   3.227   4.952  0.2102  0.0063 -0.3176
   10ALA    HB1  108   3.660   3.131   4.989  0.4549  0.7668  2.1120
   10ALA    HB2  109   3.625   3.309   4.946  1.0516  0.8493  0.3557
   10ALA    HB3  110   3.787   3.255   5.015  0.3352  0.0550 -0.5108
   10ALA      C  111   3.858   3.123   4.790  0.5840  0.1562 -0.0331
   10ALA      O  112   3.969   3.133   4.846 -0.1259  0.2712  0.3895
   11GLY      N  113   3.838   3.014   4.709 -0.4409 -0.5809 -0.2053
   11GLY     HN  114   3.751   3.006   4.661 -0.1444  0.8041 -1.0149
   11GLY     CA  115   3.947   2.918   4.691 -0.2616 -0.4645 -0.1116
   11GLY    HA1  116   3.969   2.875   4.788  2.9455  2.1991  0.5550
   11GLY    HA2  117   4.038   2.959   4.650 -0.7456  1.0717  0.2997
   11GLY      C  118   3.895   2.807   4.598  0.4101  0.1894  0.2241
   11GLY    OT1  119   3.862   2.696   4.649  0.4694 -0.1120  0.5483
   11GLY    OT2  120   3.874   2.827   4.477 -0.0732  0.6411 -0.3383
   12LIT    LIT  121   5.876   3.710   3.772 -0.6364 -0.2743  0.3056
   13LIT    LIT  122   4.876   4.089   5.137  0.6107 -0.3698  0.2493
   14LIT    LIT  123   1.249   3.564   4.309 -0.6496 -1.0190  0.1842
   15LIT    LIT  124   3.556   3.225   3.598 -0.6043 -0.6936  0.2511
   16LIT    LIT  125   2.953   0.451   4.842 -0.5713 -0.8567  0.0618
   17LIT    LIT  126   1.627   1.993   1.810  0.8277 -0.9685  0.6593
   18LIT    LIT  127   3.290   2.209   1.323  0.3156 -0.4002  0.6458
   19LIT    LIT  128   3.742   2.685   4.475  0.8669 -0.2131  0.0192
   20LIT    LIT  129   0.816   2.160   3.945 -0.1661 -0.2202 -0.3079
   21LIT    LIT  130   1.101   4.453   3.204  0.6971 -0.0020  0.1220
   22LIT    LIT  131   3.297   4.706   4.880 -0.4767  0.5416 -0.0278
   23LIT    LIT  132   1.456   5.389   0.827  0.4188  1.0259 -0.1722
   24LIT    LIT  133   2.917   2.417   4.612  0.6777 -0.4268  0.4141
   25LIT    LIT  134   3.959   0.874   1.009  1.4051  0.5016 -1.0444
   26LIT    LIT  135   1.861   4.437   4.140  0.1822 -0.7823  0.0213
   27LIT    LIT  136   2.379   3.688   4.175  0.3113  0.5642  0.2287
   28LIT    LIT  137   5.959   0.913   4.931  0.0914  0.4210  1.3106
   29LIT    LIT  138   5.023   2.764   1.825 -0.3318  0.3556  0.3285
   30LIT    LIT  139   4.705   5.088   2.575  0.3538  0.1174  0.2664
   31LIT    LIT  140   3.284   2.878   4.250  0.0481  1.1059  0.0768
   32LIT    LIT  141   1.937   1.772   3.625 -0.5280  0.2348  0.6300
   33LIT    LIT  142   0.517   5.046   1.444  0.2760 -0.8191 -0.7214
   34CLA    CLA  143   1.915   3.654   2.319  0.1235 -0.2420  0.0954
   35CLA    CLA  144   5.975   3.451   2.596 -0.4542 -0.1642  0.1054
   36CLA    CLA  145   6.177   5.288   2.018 -0.1154  0.0904 -0.1848
   37CLA    CLA  146   4.739   4.863   2.508 -0.1276 -0.2343  0.3161
   38CLA    CLA  147   0.126   3.872   4.042 -0.4920 -0.2322 -0.2118
   39CLA    CLA  148   1.493   2.994   0.680  0.3590 -0.3023 -0.0425
   40CLA    CLA  149   2.389   2.389   3.707  0.1328 -0.6413 -0.1575
   41CLA    CLA  150   2.602   0.644   1.706  0.4967 -0.0651 -0.5274
   42CLA    CLA  151   5.220   0.547   0.755 -0.3535 -0.1464  0.3278
   43CLA    CLA  152   0.770   2.729   4.190 -0.1760 -0.0070 -0.3869
   44CLA    CLA  153   5.804   1.577   5.132  0.1840  0.4254  0.0809
   45CLA    CLA  154   3.261   2.000   1.270  0.1333 -0.0661  0.0991
   46CLA    CLA  155   2.332   3.896   4.247 -0.0649 -0.0286  0.3598
   47CLA    CLA  156   5.045   2.880   1.443  0.3318  0.3907  0.0940
   48CLA    CLA  157   3.205   3.874   0.402 -0.1567 -0.0409  0.0627
   49CLA    CLA  158   2.904   0.579   4.658  0.0385  0.2480  0.3112
   50CLA    CLA  159   4.163   3.211   3.864  0.3077 -0.5389 -0.0202
   51CLA    CLA  160   3.581   2.479   4.907  0.2178 -0.0522 -0.0768
   52TIP3   OH2  161   4.757   3.208   3.466  0.4148 -0.3150  0.1297
   52TIP3    H1  162   4.708   3.284   3.435  0.1602 -0.0774  1.0562
   52TIP3    H2  163   4.730   3.136   3.409  0.9988  0.3726 -1.0455
   53TIP3   OH2  164   5.358   2.985   2.544  0.3561  0.0186  0.1410
   53TIP3    H1  165   5.398   2.909   2.502 -0.0436  0.3963 -0.9574
   53TIP3    H2  166   5.432   3.036   2.577  0.7681  0.2506 -1.0685
   54TIP3   OH2  167   2.033   3.228   0.129 -0.6771 -0.3732 -0.0976
   54TIP3    H1  168   1.996   3.179   0.202 -0.7084  3.0804  2.4295
   54TIP3    H2  169   1.957   3.260   0.080 -0.6650 -2.0208 -1.2830
   55TIP3   OH2  170   6.303   5.095   2.236  0.8401 -0.2966  0.4520
   55TIP3    H1  171   6.229   5.132   2.188 -0.8345 -1.2624  2.1796
   55TIP3    H2  172   6.335   5.166   2.291  3.0257  0.9422 -2.1894
   56TIP3   OH2  173   5.929   2.602   2.824 -0.2372 -0.1058  0.1330
   56TIP3    H1  174   6.010   2.552   2.836 -0.8538 -0.8232  1.6057
   56TIP3    H2  175   5.939   2.677   2.884  1.5442  2.8424 -3.4340
   57TIP3   OH2  176   5.669   3.308   2.176 -0.1187  0.2431 -0.6662
   57TIP3    H1  177   5.689   3.358   2.256 -2.1674  0.8730 -0.5088
   57TIP3    H2  178   5.733   3.236   2.177  0.7946  1.0200  0.8056
   58TIP3   OH2  179   0.346   2.058   2.240 -0.0266  0.1430  0.2654
   58TIP3    H1  180   0.405   2.076   2.313  1.2548 -0.4959 -0.5857
   58TIP3    H2  181   0.319   1.967   2.252  0.6432 -0.1416 -0.3667
   59TIP3   OH2  182   2.958   1.132   3.961  0.0633 -0.1083 -0.0553
   59TIP3    H1  183   2.947   1.177   4.045  0.1759 -1.1697  0.5386
   59TIP3    H2  184   2.887   1.067   3.959 -0.1761  0.1690 -0.9603
   60TIP3   OH2  185   3.817   4.471   1.613  0.0368 -0.1084 -0.0365
   60TIP3    H1  186   3.724   4.475   1.590 -0.1647 -2.7057  0.0295
   60TIP3    H2  187   3.819   4.420   1.694  1.4620  0.7252  0.4712
   61TIP3   OH2  188   3.957   4.851   0.216  0.5024  0.5901  0.2274
   61TIP3    H1  189   3.885   4.792   0.196  2.0734 -1.0112 -1.0408
   61TIP3    H2  190   4.021   4.796   0.263  0.4719  2.2409  2.3899
   62TIP3   OH2  191   5.595   4.818   2.497  0.0599 -0.0665 -0.3164
   62TIP3    H1  192   5.541   4.815   2.419 -0.9684  0.4029  0.3491
   62TIP3    H2  193   5.685   4.820   2.465 -0.3663  1.3055 -1.5397
   63TIP3   OH2  194   1.344   1.585   1.599  0.8848  0.2769  0.2930
   63TIP3    H1  195   1.306   1.611   1.683 -1.3659  1.7127 -1.0637
   63TIP3    H2  196   1.387   1.502   1.617 -0.1258  0.1937  2.7244
   64TIP3   OH2  197   3.625   2.610   0.992  0.2397 -0.4426 -0.7681
   64TIP3    H1  198   3.668   2.526   0.978 -0.9488 -0.8506 -2.2597
   64TIP3    H2  199   3.681   2.656   1.054  2.0612 -1.4841 -1.5730
   65TIP3   OH2  200   4.458   2.270   0.886 -0.1354 -0.0709  0.3485
   65TIP3    H1  201   4.462   2.323   0.807  0.4464 -1.0408 -0.2940
   65TIP3    H2  202   4.381   2.214   0.874 -0.2561  0.0290  0.6398
   66TIP3   OH2  203   3.838   5.872   2.376 -0.5034 -0.1206  0.1086
   66TIP3    H1  204   3.756   5.913   2.405 -0.5694 -0.1941  0.0270
   66TIP3    H2  205   3.862   5.921   2.297 -1.2108 -0.9937 -0.6827
   67TIP3   OH2  206   0.948   5.170   2.615  0.3507  0.3295 -0.3059
   67TIP3    H1  207   1.012   5.129   2.674 -0.1398  0.4498  0.3212
   67TIP3    H2  208   1.001   5.224   2.557  1.0524 -1.4005 -1.3601
   68TIP3   OH2  209   2.913   3.674   4.212 -0.6840 -0.3183  0.5431
   68TIP3    H1  210   2.923   3.679   4.116  0.3317 -0.6176  0.6239
   68TIP3    H2  211   2.989   3.721   4.246 -1.2731  0.1692  1.2198
   69TIP3   OH2  212   3.692   1.549   2.745  0.4356 -1.1910  0.4686
   69TIP3    H1  213   3.705   1.527   2.837  0.5668 -0.2978  0.6745
   69TIP3    H2  214   3.624   1.616   2.746  0.7301 -0.8767 -0.0406
   70TIP3   OH2  215   0.672   5.345   5.126 -0.4185 -0.1840  0.2512
   70TIP3    H1  216   0.755   5.314   5.090  0.8101  1.1032  1.8029
   70TIP3    H2  217   0.618   5.266   5.132  0.7869 -1.1157 -0.5145
   71TIP3   OH2  218   0.155   3.302   0.539 -0.3878  0.4727  0.0481
   71TIP3    H1  219   0.086   3.251   0.581 -0.4938 -0.2766 -0.9967
   71TIP3    H2  220   0.117   3.328   0.455  1.1332 -1.4072 -1.3166
   72TIP3   OH2  221   1.714   1.398   3.483  0.2524  0.6285  0.2517
   72TIP3    H1  222   1.740   1.472   3.537  0.5738  0.4153  0.3917
   72TIP3    H2  223   1.797   1.361   3.452  0.3659 -1.7768  2.9766
   73TIP3   OH2  224   4.543   4.669   0.305 -0.2469  0.4065  0.0028
   73TIP3    H1  225   4.485   4.675   0.381 -0.3329  0.9764 -0.1033
   73TIP3    H2  226   4.488   4.637   0.235  0.3261 -2.3675  0.6961
   74TIP3   OH2  227   5.209   4.131   4.518  0.4864 -0.1737 -0.4869
   74TIP3    H1  228   5.250   4.044   4.517  0.2380 -0.3019 -1.6372
   74TIP3    H2  229   5.158   4.134   4.437 -0.0524  0.7953 -0.1245
   75TIP3   OH2  230   3.735   3.988   4.798 -0.0150  0.2210  0.4720
   75TIP3    H1  231   3.755   3.945   4.715  2.0833  0.7135  0.6626
   75TIP3    H2  232   3.771   3.930   4.864 -1.6221 -0.1345  1.0915
   76TIP3   OH2  233   0.246   0.484   1.074 -0.0553 -0.0723  0.1836
   76TIP3    H1  234   0.224   0.573   1.100  1.8369  0.8305 -1.1173
   76TIP3    H2  235   0.161   0.442   1.060 -1.0061  1.9749 -0.6124
   77TIP3   OH2  236   2.398   5.350   3.156  0.2655 -0.1089 -0.5012
   77TIP3    H1  237   2.345   5.417   3.112 -0.0339  0.4577  0.6846
   77TIP3    H2  238   2.378   5.361   3.249  1.9670 -0.3317 -0.0801
   78TIP3   OH2  239   6.168   3.594   1.680 -0.0117  0.5472  0.0723
   78TIP3    H1  240   6.116   3.674   1.692  0.4029  0.6882  0.9162
   78TIP3    H2  241   6.173   3.554   1.767 -0.0340 -0.2960 -0.2999
   79TIP3   OH2  242   1.518   2.247   3.218  0.0916  0.1189  0.0173
   79TIP3    H1  243   1.609   2.236   3.243  1.9216  3.7542 -3.8082
   79TIP3    H2  244   1.478   2.293   3.292  1.0716 -1.9032  1.9388
   80TIP3   OH2  245   4.592   4.470   4.408 -0.0132  0.4416 -0.2948
   80TIP3    H1  246   4.643   4.398   4.446  0.7032  0.7107 -0.7329
   80TIP3    H2  247   4.593   4.538   4.475 -0.8155  0.0014  0.1812
   81TIP3   OH2  248   5.757   0.293   1.733  0.1531  0.4558  0.0632
   81TIP3    H1  249   5.733   0.265   1.645 -1.2731 -0.6365  0.7563
   81TIP3    H2  250   5.846   0.259   1.746  0.1589  0.1391 -0.7412
   82TIP3   OH2  251   0.146   3.326   1.185  0.3918  0.0297  0.0541
   82TIP3    H1  252   0.201   3.397   1.218 -0.5075  0.7341  0.0907
   82TIP3    H2  253   0.057   3.361   1.188  0.2644  0.3836 -3.5738
   83TIP3   OH2  254   1.286   5.720   2.590  0.0216 -0.3895  0.3129
   83TIP3    H1  255   1.195   5.732   2.561 -0.4326 -1.0812  1.4124
   83TIP3    H2  256   1.318   5.646   2.539 -0.1648 -0.4064  0.2212
   84TIP3   OH2  257   0.662   3.498   2.222  0.2144  0.0011 -0.4372
   84TIP3    H1  258   0.655   3.552   2.143 -1.0229 -0.5129 -0.7002
   84TIP3    H2  259   0.755   3.503   2.246  0.4626  0.7808 -1.4825
   85TIP3   OH2  260   0.158   4.603   3.039  0.1414 -0.0359 -0.1026
   85TIP3    H1  261   0.082   4.635   3.088 -0.8670 -0.8572 -1.0758
   85TIP3    H2  262   0.161   4.658   2.961  1.2715  0.7556  0.4737
   86TIP3   OH2  263   0.121   5.186   2.557 -0.0159  0.2518 -0.4658
   86TIP3    H1  264   0.211   5.155   2.547 -0.7699 -1.7737 -1.6474
   86TIP3    H2  265   0.095   5.211   2.468 -0.5128  1.1774 -0.0649
   87TIP3   OH2  266   0.439   0.534   2.237 -0.1188  0.0086 -0.2098
   87TIP3    H1  267   0.365   0.493   2.194 -0.1331  0.6655 -0.8360
   87TIP3    H2  268   0.498   0.462   2.259 -1.3632 -0.6188  1.1662
   88TIP3   OH2  269   5.649   2.327   3.714 -0.1980 -0.3042 -0.1710
   88TIP3    H1  270   5.738   2.294   3.707 -1.0241 -2.7237 -0.2131
   88TIP3    H2  271   5.625   2.312   3.805 -1.0995 -1.2999 -0.5452
   89TIP3   OH2  272   5.914   5.249   3.943 -0.1003 -0.5128  0.2295
   89TIP3    H1  273   5.846   5.295   3.993 -0.0145 -0.3928  0.2363
   89TIP3    H2  274   5.912   5.290   3.857  0.9211  0.4538  0.6489
   90TIP3   OH2  275   4.039   1.036   3.478  0.4208 -0.0666  0.6261
   90TIP3    H1  276   4.004   1.044   3.566  0.0405 -0.1899  0.4876
   90TIP3    H2  277   4.104   1.107   3.472 -0.9975  1.2670  0.3268
   91TIP3   OH2  278   2.068   1.071   1.356 -0.4066  0.1577 -0.2347
   91TIP3    H1  279   2.077   1.131   1.281  0.7173 -0.2222 -0.4115
   91TIP3    H2  280   2.131   1.001   1.339  0.0734  0.2054  1.2128
   92TIP3   OH2  281   4.641   2.026   4.377  0.1521 -0.0563 -0.7038
   92TIP3    H1  282   4.696   2.001   4.451 -1.5863 -0.5580  0.4762
   92TIP3    H2  283   4.572   2.080   4.416 -0.2219  0.5197 -2.1260
   93TIP3   OH2  284   4.106   3.786   4.940  0.5924 -0.0763  0.0830
   93TIP3    H1  285   4.151   3.739   5.010  0.8045  1.5728  1.1016
   93TIP3    H2  286   4.175   3.811   4.879  0.5529 -0.5440 -0.1642
   94TIP3   OH2  287   4.882   1.655   3.173 -0.0371 -0.2146  0.0549
   94TIP3    H1  288   4.792   1.681   3.192 -0.2445  0.0918 -1.2441
   94TIP3    H2  289   4.891   1.668   3.078  1.6400  0.6225  0.2967
   95TIP3   OH2  290   0.565   4.867   1.501 -0.1513  0.1501 -0.0648
   95TIP3    H1  291   0.621   4.814   1.444 -0.1524 -0.4760  0.5133
   95TIP3    H2  292   0.571   4.825   1.587 -0.0572  1.1522  0.4379
   96TIP3   OH2  293   0.843   5.246   0.729  0.0742  0.0377  0.3492
   96TIP3    H1  294   0.757   5.204   0.738 -0.2146  0.8451  1.5830
   96TIP3    H2  295   0.855   5.294   0.811  0.7013  1.7677 -0.6934
   97TIP3   OH2  296   0.441   5.472   4.818  0.3940 -0.0865  0.2324
   97TIP3    H1  297   0.487   5.494   4.737  0.3090 -0.2171  0.1488
   97TIP3    H2  298   0.485   5.525   4.885 -0.1093  0.6910 -0.0325
   98TIP3   OH2  299   0.345   3.503   4.093  0.4532  0.1750  0.1508
   98TIP3    H1  300   0.329   3.562   4.166 -0.3668  0.1117  0.0298
   98TIP3    H2  301   0.403   3.436   4.129 -0.6836 -0.3788  1.0221
   99TIP3   OH2  302   6.184   0.961   1.034  0.0582  0.1943  0.6574
   99TIP3    H1  303   6.145   0.896   1.092 -1.3117  0.2831 -0.1092
   99TIP3    H2  304   6.130   1.039   1.045 -0.4944  0.0853 -1.0008
  100TIP3   OH2  305   0.077   0.159   0.035 -0.2543 -0.4007 -0.2726
  100TIP3    H1  306  -0.011   0.156  -0.004  0.4296 -0.7242 -1.8893
  100TIP3    H2  307   0.126   0.218  -0.023  1.1124 -1.7764 -0.5588
  101TIP3   OH2  308   2.927   2.217   1.675 -0.3218  0.6604 -0.2455
  101TIP3    H1  309   3.017   2.240   1.700 -0.0235  0.3814 -1.0435
  101TIP3    H2  310   2.890   2.298   1.640  0.0844  0.4445 -1.2112
  102TIP3   OH2  311   0.588   5.438   2.125  0.1520  0.3935  0.6340
  102TIP3    H1  312   0.676   5.427   2.162  0.3705  1.2939  0.4227
  102TIP3    H2  313   0.563   5.528   2.148 -0.4254  0.3784  0.1124
  103TIP3   OH2  314   1.594   0.980   0.244 -0.6609  0.0976 -0.2501
  103TIP3    H1  315   1.564   1.039   0.314 -0.5139 -0.6537  0.4616
  103TIP3    H2  316   1.644   1.036   0.185  0.5566  0.4777  1.0788
  104TIP3   OH2  317   5.215   1.686   1.040 -0.2428  0.3507  0.6303
  104TIP3    H1  318   5.310   1.688   1.043 -0.2421  0.1572  0.7144
  104TIP3    H2  319   5.190   1.779   1.037  0.0058  0.4032 -1.4085
  105TIP3   OH2  320   4.850   2.749   1.758  0.4341  0.2717  0.8515
  105TIP3    H1  321   4.795   2.674   1.780 -0.3209  0.7725  0.7083
  105TIP3    H2  322   4.795   2.803   1.701  1.5244  0.1457 -0.3538
  106TIP3   OH2  323   0.301   1.975   4.236 -0.2058 -0.2307  0.1471
  106TIP3    H1  324   0.301   1.882   4.212 -2.3957 -0.5788  1.2533
  106TIP3    H2  325   0.340   1.978   4.323  0.6837  0.0244 -0.2511
  107TIP3   OH2  326   3.579   2.333   3.115  0.2075  0.2617 -0.3207
  107TIP3    H1  327   3.649   2.309   3.175 -0.2547  1.1949  0.6255
  107TIP3    H2  328   3.597   2.425   3.093  0.0843  0.0789 -1.2144
  108TIP3   OH2  329   1.763   4.197   4.972  0.6260  0.6566  0.0776
  108TIP3    H1  330   1.730   4.174   5.059  0.4586  0.8923  0.0788
  108TIP3    H2  331   1.806   4.117   4.941  1.0769  0.7086  0.5569
  109TIP3   OH2  332   0.031   3.495   3.636 -0.0011  0.1061 -0.3375
  109TIP3    H1  333   0.037   3.399   3.639 -0.0263  0.1091 -0.1608
  109TIP3    H2  334   0.038   3.522   3.728  0.8328  0.3234 -0.4503
  110TIP3   OH2  335   3.691   0.218   2.114  0.1149  0.4115 -0.1425
  110TIP3    H1  336   3.620   0.273   2.080 -0.8094 -1.6614 -1.8166
  110TIP3    H2  337   3.745   0.198   2.038  1.5934  0.6196  0.8187
  111TIP3   OH2  338   1.449   5.099   5.115 -0.3570 -0.0906 -0.9941
  111TIP3    H1  339   1.512   5.038   5.153  0.5842 -0.1832 -2.6129
  111TIP3    H2  340   1.458   5.178   5.169  0.2412 -0.5258 -0.4352
  112TIP3   OH2  341   5.015   1.486   1.030  0.1679 -0.1157  0.0127
  112TIP3    H1  342   4.981   1.458   1.114  1.0655 -0.2339  0.3491
  112TIP3    H2  343   5.095   1.534   1.051  1.1845 -1.3629 -0.8502
  113TIP3   OH2  344   1.862   0.784   3.159  0.6405 -0.0585  0.0035
  113TIP3    H1  345   1.831   0.717   3.097 -0.4094 -0.9065  1.3895
  113TIP3    H2  346   1.929   0.739   3.210  0.3187  0.1077  0.5750
  114TIP3   OH2  347   4.732   5.874   2.402 -0.2279 -0.4779  0.4741
  114TIP3    H1  348   4.669   5.935   2.439 -0.1039 -0.6411  0.9624
  114TIP3    H2  349   4.818   5.910   2.425 -0.1532 -0.8007  0.7072
  115TIP3   OH2  350   2.718   1.819   1.870  0.5639 -0.4108 -0.9103
  115TIP3    H1  351   2.792   1.803   1.928  0.4332  0.7652 -0.3987
  115TIP3    H2  352   2.756   1.864   1.795  0.2427  1.1570 -0.1710
  116TIP3   OH2  353   5.962   2.598   4.301  0.6929  0.0296 -0.0204
  116TIP3    H1  354   6.034   2.535   4.300  1.0691  0.4295 -1.4172
  116TIP3    H2  355   5.922   2.589   4.214 -0.1951  0.6569  0.3096
  117TIP3   OH2  356   1.358   5.581   1.219 -0.8874  0.1474 -0.5509
  117TIP3    H1  357   1.329   5.670   1.239 -2.1691 -0.5803  1.0886
  117TIP3    H2  358   1.374   5.541   1.304  2.2678 -0.4546 -1.2821
  118TIP3   OH2  359   0.460   5.007   3.465  0.6543 -0.0622 -0.3369
  118TIP3    H1  360   0.423   4.923   3.438 -0.9333  0.5071 -0.0075
  118TIP3    H2  361   0.417   5.072   3.410  0.3957  0.7231  0.7532
  119TIP3   OH2  362   5.917   0.557   2.403 -0.3051 -0.2130 -0.5689
  119TIP3    H1  363   5.996   0.586   2.449 -0.6766  0.8583 -0.5916
  119TIP3    H2  364   5.939   0.565   2.310 -0.5388  0.3969 -0.5776
  120TIP3   OH2  365   3.805   2.487   2.596 -0.4064 -0.1012 -0.5235
  120TIP3    H1  366   3.874   2.499   2.662  0.6252 -2.1599 -1.1397
  120TIP3    H2  367   3.815   2.562   2.538  1.6799 -0.5622 -0.8625
  121TIP3   OH2  368   5.912   5.499   0.301  0.5771  0.2634 -0.0829
  121TIP3    H1  369   5.978   5.552   0.255 -1.7694  2.0252 -1.6733
  121TIP3    H2  370   5.860   5.460   0.230 -0.1745 -1.0069  1.1245
  122TIP3   OH2  371   2.120   0.863   4.110  0.1585  0.4357 -0.8058
  122TIP3    H1  372   2.082   0.886   4.025  0.7011  1.5726 -0.7625
  122TIP3    H2  373   2.199   0.917   4.117  0.3376  0.0726  0.2571
  123TIP3   OH2  374   2.721   5.923   2.695 -0.0702 -0.2786  0.6321
  123TIP3    H1  375   2.689   5.883   2.775 -0.6564 -2.7060 -0.7216
  123TIP3    H2  376   2.817   5.919   2.703 -0.1201 -0.1600  1.3457
  124TIP3   OH2  377   0.731   0.401   4.075  0.3075 -0.2325  0.6668
  124TIP3    H1  378   0.756   0.316   4.111  1.1152 -0.4524 -0.3323
  124TIP3    H2  379   0.772   0.465   4.133 -0.7248 -0.5000  1.7133
  125TIP3   OH2  380   4.668   2.969   4.619 -0.2062 -0.2914  0.4450
  125TIP3    H1  381   4.620   3.027   4.678 -0.2562  1.4172 -1.1856
  125TIP3    H2  382   4.600   2.931   4.563 -0.1435 -1.7984  1.3309
  126TIP3   OH2  383   4.451   1.143   2.135 -0.0187 -0.0101  0.2045
  126TIP3    H1  384   4.377   1.088   2.108  0.2499 -0.1523 -0.2625
  126TIP3    H2  385   4.465   1.202   2.061 -1.5296  2.0295  1.4366
  127TIP3   OH2  386   2.423   4.216   1.993 -0.1927  0.1893  0.2764
  127TIP3    H1  387   2.418   4.173   2.079  0.7985  0.6791  0.6000
  127TIP3    H2  388   2.476   4.156   1.940 -0.6004  0.0043  0.0718
  128TIP3   OH2  389   4.666   1.255   1.278  0.0626 -0.4230 -0.1075
  128TIP3    H1  390   4.625   1.297   1.203  3.3234  1.9443 -0.7538
  128TIP3    H2  391   4.733   1.197   1.241  0.0676 -1.1277  0.9472
  129TIP3   OH2  392   3.932   0.685   0.299 -0.3496 -0.0492  0.1024
  129TIP3    H1  393   4.019   0.722   0.281 -0.3001 -0.5310 -0.6863
  129TIP3    H2  394   3.917   0.704   0.392  0.0592  1.1452 -0.0489
  130TIP3   OH2  395   2.644   0.382   2.362 -0.0849  0.6949 -0.1245
  130TIP3    H1  396   2.634   0.345   2.449 -1.7084  1.6090  0.1321
  130TIP3    H2  397   2.738   0.378   2.344  0.2559  0.3275  1.5883
  131TIP3   OH2  398   2.447   0.943   2.894 -0.2109  0.3738  0.2195
  131TIP3    H1  399   2.394   0.940   2.974  0.3613  1.5740  0.6596
  131TIP3    H2  400   2.383   0.948   2.823 -0.7059  0.4617  0.6677
  132TIP3   OH2  401   0.379   3.019   4.076  0.2501  0.1568 -0.0225
  132TIP3    H1  402   0.430   2.953   4.028 -0.5634 -0.6781  0.2150
  132TIP3    H2  403   0.428   3.033   4.157  0.2176 -0.5128  0.1269
  133TIP3   OH2  404   5.009   5.973   3.042  0.3061  0.1461  0.2072
  133TIP3    H1  405   5.097   5.975   3.004  0.2455  0.1371  0.0634
  133TIP3    H2  406   4.957   5.925   2.977  0.1192  0.4474  0.1330
  134TIP3   OH2  407   0.244   1.586   3.123  0.0747 -0.0007 -0.1485
  134TIP3    H1  408   0.292   1.505   3.105 -0.7569 -0.0339 -2.4842
  134TIP3    H2  409   0.181   1.560   3.192 -0.4865 -1.5024 -1.1673
  135TIP3   OH2  410   0.703   0.350   3.771  0.0544 -0.5037  0.0770
  135TIP3    H1  411   0.632   0.411   3.751 -0.0349 -0.7655 -0.4370
  135TIP3    H2  412   0.735   0.377   3.857 -1.3979 -1.0633  0.8349
  136TIP3   OH2  413   5.018   1.804   2.963  0.5833  0.4248  0.5020
  136TIP3    H1  414   5.038   1.897   2.968  0.4815  0.4348  0.8124
  136TIP3    H2  415   5.100   1.760   2.985  1.1452  0.3974 -1.5084
  137TIP3   OH2  416   1.871   0.948   1.499  0.1163 -0.4537  0.3490
  137TIP3    H1  417   1.925   0.988   1.430 -0.2079 -1.0153 -0.2369
  137TIP3    H2  418   1.907   0.861   1.511 -0.5790 -0.7941  0.0331
  138TIP3   OH2  419   4.883   5.227   1.793 -0.1320 -0.0983  0.2600
  138TIP3    H1  420   4.896   5.276   1.874 -1.1820  1.0795 -0.2523
  138TIP3    H2  421   4.849   5.142   1.822  1.3234 -0.3979  1.1356
  139TIP3   OH2  422   0.810   3.448   4.143 -0.3661  0.4343 -0.1513
  139TIP3    H1  423   0.789   3.528   4.095 -0.6441 -0.3569 -1.4066
  139TIP3    H2  424   0.726   3.405   4.156 -0.0910 -0.2886 -0.6773
  140TIP3   OH2  425   3.613   1.072   3.333  0.0406  0.0743 -0.2323
  140TIP3    H1  426   3.696   1.049   3.291  0.7486  1.3272  0.4185
  140TIP3    H2  427   3.564   1.118   3.265  0.2141  0.0604 -0.3691
  141TIP3   OH2  428   5.682   1.334   1.574 -0.0835 -0.0126 -0.2570
  141TIP3    H1  429   5.602   1.383   1.557 -0.0752 -0.5269 -1.9381
  141TIP3    H2  430   5.701   1.350   1.666 -0.5686  2.4214 -0.5081
  142TIP3   OH2  431   0.408   5.220   2.132 -0.2721  0.0576  0.4682
  142TIP3    H1  432   0.322   5.226   2.091 -0.6532 -0.8620  1.0818
  142TIP3    H2  433   0.443   5.308   2.128 -0.1355 -0.0420 -2.0901
  143TIP3   OH2  434   2.631   1.704   0.523 -0.1225  0.4864 -0.4059
  143TIP3    H1  435   2.684   1.625   0.526 -0.3177  0.3685 -0.0013
  143TIP3    H2  436   2.567   1.693   0.593 -0.5321  0.7296 -0.7342
  144TIP3   OH2  437   1.386   1.825   3.558 -0.7698 -0.1562 -0.1363
  144TIP3    H1  438   1.442   1.789   3.627 -1.2734  0.4634  0.6043
  144TIP3    H2  439   1.432   1.804   3.477 -0.3366 -1.1950  0.3582
  145TIP3   OH2  440   1.662   3.673   2.533  0.3834 -0.3583 -0.1872
  145TIP3    H1  441   1.597   3.722   2.484 -0.7163 -1.5806 -0.0256
  145TIP3    H2  442   1.741   3.674   2.478  0.3456  1.3871 -0.2545
  146TIP3   OH2  443   0.468   4.730   2.605 -0.3328  0.3191  0.2953
  146TIP3    H1  444   0.378   4.760   2.597 -0.7121 -1.0573 -0.9254
  146TIP3    H2  445   0.463   4.647   2.653  0.2433  0.0539 -0.0854
  147TIP3   OH2  446   4.796   3.527   5.145 -0.2389  0.2354  0.0291
  147TIP3    H1  447   4.875   3.576   5.168 -0.7641  1.4171 -0.5991
  147TIP3    H2  448   4.727   3.567   5.198 -1.2286  2.1929 -2.5225
  148TIP3   OH2  449   0.798   1.726   5.187  0.6138  0.0100 -0.5935
  148TIP3    H1  450   0.734   1.740   5.118  2.0432  1.3881 -1.7334
  148TIP3    H2  451   0.795   1.807   5.240  0.3608 -0.5473  0.2676
  149TIP3   OH2  452   6.052   0.199   1.811  0.2496  0.0785  0.1979
  149TIP3    H1  453   6.135   0.153   1.801  0.6928  0.7346  0.7398
  149TIP3    H2  454   6.031   0.191   1.904 -0.5077 -0.4289 -0.0079
  150TIP3   OH2  455   2.051   1.857   0.753  0.1864  0.4077 -0.3278
  150TIP3    H1  456   2.112   1.867   0.826  1.1730 -1.6582 -0.7792
  150TIP3    H2  457   2.036   1.946   0.721  2.3942  1.0599  0.2689
  151TIP3   OH2  458   5.334   2.399   3.088 -0.5299  0.2758 -0.0814
  151TIP3    H1  459   5.384   2.448   3.023  0.5227  0.6743  0.9883
  151TIP3    H2  460   5.282   2.465   3.134 -0.8714  0.0710 -0.1685
  152TIP3   OH2  461   2.672   3.596   2.278 -0.2715 -0.0599 -0.0121
  152TIP3    H1  462   2.577   3.598   2.267 -0.5286 -0.7984  1.7227
  152TIP3    H2  463   2.686   3.546   2.359  1.6572 -0.8468 -0.7705
  153TIP3   OH2  464   1.968   5.191   3.973 -0.1590 -0.6427  0.4926
  153TIP3    H1  465   1.935   5.116   4.022 -2.0391  0.0102  0.3074
  153TIP3    H2  466   1.923   5.185   3.888  1.1726 -0.3855 -0.2475
  154TIP3   OH2  467   1.010   1.323   1.621 -0.5494  0.1994 -0.1219
  154TIP3    H1  468   0.994   1.240   1.576  2.0496 -0.6967  0.4509
  154TIP3    H2  469   1.069   1.371   1.562  0.3236  0.3558  0.8373
  155TIP3   OH2  470   3.794   1.518   1.043 -0.5366 -0.3319 -0.0385
  155TIP3    H1  471   3.769   1.610   1.048 -1.1781 -0.4661 -0.5725
  155TIP3    H2  472   3.814   1.504   0.950  1.0035 -0.3747  0.2778
  156TIP3   OH2  473   0.581   4.218   0.072 -0.1528  0.5520  0.1327
  156TIP3    H1  474   0.575   4.225   0.167 -0.6798  1.9761  0.0232
  156TIP3    H2  475   0.605   4.127   0.056 -1.1244 -0.0048  1.5888
  157TIP3   OH2  476   2.178   2.739   1.970 -0.6930 -0.0044 -0.2306
  157TIP3    H1  477   2.145   2.649   1.968 -1.5005  0.2990 -1.1179
  157TIP3    H2  478   2.159   2.770   2.059 -0.2925 -0.7391  0.1240
  158TIP3   OH2  479   4.626   1.396   1.021  0.1850 -0.2160 -0.0864
  158TIP3    H1  480   4.666   1.363   0.940  0.6850 -0.0589  0.0943
  158TIP3    H2  481   4.651   1.488   1.026 -2.3414  0.6408 -1.2947
  159TIP3   OH2  482   2.009   5.409   2.114  0.0899 -0.5931  0.0484
  159TIP3    H1  483   2.010   5.409   2.210  0.0216 -1.3402  0.0583
  159TIP3    H2  484   2.077   5.471   2.089 -0.2603  0.0153  0.5802
  160TIP3   OH2  485   5.637   4.306   1.182  0.1253 -0.4571  0.3956
  160TIP3    H1  486   5.564   4.256   1.146 -0.1148 -0.7659  1.2944
  160TIP3    H2  487   5.712   4.247   1.176  0.4013 -0.0101 -0.8666
  161TIP3   OH2  488   3.130   3.697   1.874  0.2383  0.0661 -0.3735
  161TIP3    H1  489   3.213   3.696   1.827  0.2385 -2.6848 -0.4763
  161TIP3    H2  490   3.150   3.654   1.958 -0.9225 -0.0650 -0.1441
  162TIP3   OH2  491   5.854   2.699   1.886  0.3246 -0.4100 -0.7433
  162TIP3    H1  492   5.910   2.719   1.962 -1.7729 -0.4199  0.8875
  162TIP3    H2  493   5.808   2.781   1.868  0.4426 -0.5494 -1.7491
  163TIP3   OH2  494   4.584   3.908   0.749  0.3909 -0.0179 -0.2467
  163TIP3    H1  495   4.559   3.818   0.769  0.3418 -0.0672 -0.5249
  163TIP3    H2  496   4.529   3.961   0.807  0.1036 -0.1489 -0.3981
  164TIP3   OH2  497   1.850   5.672   1.171  0.0420 -0.4735 -0.8529
  164TIP3    H1  498   1.872   5.588   1.130 -1.7977 -1.6005  0.3239
  164TIP3    H2  499   1.775   5.652   1.227  0.1064  1.7946  0.1380
  165TIP3   OH2  500   3.168   3.837   2.522  0.0058 -0.2842 -0.0890
  165TIP3    H1  501   3.097   3.902   2.514 -1.4950 -2.0230 -2.5639
  165TIP3    H2  502   3.248   3.889   2.517 -1.1212  1.4655 -1.5485
  166TIP3   OH2  503   1.491   0.079   2.986 -0.2034  0.2541 -0.1536
  166TIP3    H1  504   1.405   0.121   2.983 -1.1191 -1.5518 -1.0988
  166TIP3    H2  505   1.472  -0.014   2.998  1.6924 -0.0396  1.0512
  167TIP3   OH2  506   1.949   2.120   3.334  0.6364  0.1294 -0.0292
  167TIP3    H1  507   1.902   2.199   3.359  0.2572  0.0845 -0.5882
  167TIP3    H2  508   2.041   2.139   3.354  0.5326  0.6646 -0.0591
  168TIP3   OH2  509   3.207   4.794   0.617  0.4385 -0.2555  0.0636
  168TIP3    H1  510   3.134   4.733   0.604  1.0197 -1.2194  1.1011
  168TIP3    H2  511   3.285   4.739   0.607  0.9688  0.2702  1.1823
  169TIP3   OH2  512   4.650   1.943   1.215 -0.2759  0.1269 -0.0233
  169TIP3    H1  513   4.651   1.982   1.302 -1.1343 -0.8484  0.4491
  169TIP3    H2  514   4.736   1.963   1.179 -0.3570  1.6343  0.5416
  170TIP3   OH2  515   1.574   0.522   2.689 -0.6235  0.2340  0.3935
  170TIP3    H1  516   1.662   0.489   2.669 -0.6194  0.7362 -0.4642
  170TIP3    H2  517   1.527   0.446   2.723 -0.9980 -1.0714 -2.7310
  171TIP3   OH2  518   4.276   0.128   3.903  0.2272  0.2609 -0.3166
  171TIP3    H1  519   4.371   0.134   3.897  0.2978 -0.4258  0.0083
  171TIP3    H2  520   4.255   0.041   3.870 -0.5036  1.2050 -2.5060
  172TIP3   OH2  521   2.531   0.655   2.901 -0.0773 -0.0356 -0.0689
  172TIP3    H1  522   2.464   0.605   2.855  0.2381 -0.5141 -0.0195
  172TIP3    H2  523   2.505   0.746   2.890 -1.1556 -0.2370  0.5941
  173TIP3   OH2  524   3.309   5.719   1.158 -0.4202 -0.0347  0.0591
  173TIP3    H1  525   3.330   5.788   1.221 -0.4605  1.5290 -1.5695
  173TIP3    H2  526   3.215   5.730   1.142 -1.3862 -3.0437  2.6814
  174TIP3   OH2  527   1.292   1.639   4.143  0.4184 -0.1806 -0.7093
  174TIP3    H1  528   1.237   1.712   4.172  0.9253 -0.0087 -0.1729
  174TIP3    H2  529   1.256   1.614   4.058  1.1279  1.6155 -1.5715
  175TIP3   OH2  530   1.257   2.421   4.886 -0.0893 -0.4680  0.3680
  175TIP3    H1  531   1.216   2.505   4.910 -0.4470 -0.7143  0.6391
  175TIP3    H2  532   1.300   2.438   4.803  0.4029  0.1698  0.7418
  176TIP3   OH2  533   4.211   1.755   4.697 -1.0790  0.6911 -0.0277
  176TIP3    H1  534   4.138   1.812   4.672 -3.5665 -2.7639 -1.3398
  176TIP3    H2  535   4.190   1.727   4.786 -0.3379  1.0893  0.2794
  177TIP3   OH2  536   5.866   0.568   4.291  0.2273  0.3612 -0.4939
  177TIP3    H1  537   5.789   0.578   4.235 -1.8370  1.5678  2.3020
  177TIP3    H2  538   5.929   0.631   4.255 -0.9359  0.9752 -1.5672
  178TIP3   OH2  539   6.015   2.487   0.572 -0.1537  0.3019 -0.2449
  178TIP3    H1  540   5.976   2.425   0.512  0.5768 -0.0519 -0.3651
  178TIP3    H2  541   6.002   2.449   0.659  1.0247 -0.4544 -0.3761
  179TIP3   OH2  542   2.704   0.332   4.637 -0.2357  0.5900  0.3484
  179TIP3    H1  543   2.776   0.395   4.645  0.9854 -0.6388 -0.5039
  179TIP3    H2  544   2.626   0.380   4.666  0.6097  2.5575 -0.5080
  180TIP3   OH2  545   1.571   0.198   1.813 -0.4893  0.5060 -0.0268
  180TIP3    H1  546   1.620   0.260   1.867 -0.9764  0.3144  0.6487
  180TIP3    H2  547   1.482   0.204   1.846 -0.8566  0.5801 -1.0007
  181TIP3   OH2  548   4.128   0.549   2.998  0.7254 -0.4363 -0.2537
  181TIP3    H1  549   4.105   0.576   2.909 -0.4924 -0.2295  0.1143
  181TIP3    H2  550   4.184   0.620   3.031 -1.6338  1.2830  0.3535
  182TIP3   OH2  551   3.829   3.220   1.559 -0.5680 -0.1137  0.0252
  182TIP3    H1  552   3.811   3.141   1.611  1.5632 -0.8297 -0.2141
  182TIP3    H2  553   3.803   3.197   1.470  0.8452 -0.8947 -0.2067
  183TIP3   OH2  554   2.966   2.635   2.820  0.2699 -0.0886  0.7821
  183TIP3    H1  555   2.945   2.694   2.748 -0.6160  0.1972  1.2536
  183TIP3    H2  556   3.019   2.566   2.780 -1.6226 -0.8700 -0.5421
  184TIP3   OH2  557   1.736   5.342   4.428 -0.0483 -0.5989  0.1530
  184TIP3    H1  558   1.789   5.345   4.507 -0.7453 -0.3789  0.6201
  184TIP3    H2  559   1.669   5.409   4.441 -2.0030 -2.5539  0.7037
  185TIP3   OH2  560   0.854   0.754   1.895  0.3575  0.0430 -0.8585
  185TIP3    H1  561   0.839   0.728   1.804 -0.9383 -0.8803 -0.4253
  185TIP3    H2  562   0.904   0.835   1.889  1.7904 -0.8827 -2.3530
  186TIP3   OH2  563   1.516   3.265   0.830 -0.0618 -0.3621 -0.4751
  186TIP3    H1  564   1.447   3.325   0.801  1.1793  1.2872 -0.1916
  186TIP3    H2  565   1.541   3.217   0.751  0.3134  0.9948 -1.2185
  187TIP3   OH2  566   3.248   5.393   3.432 -0.1618 -0.1791 -0.0124
  187TIP3    H1  567   3.273   5.334   3.503 -0.3224  1.9456  1.9362
  187TIP3    H2  568   3.327   5.446   3.416 -0.9643  1.3002  0.6807
  188TIP3   OH2  569   1.836   0.894   3.643 -0.1171 -0.3771  0.4683
  188TIP3    H1  570   1.811   0.981   3.611  1.1017 -0.2462 -0.1875
  188TIP3    H2  571   1.803   0.834   3.576 -0.2844 -0.3554  0.5311
  189TIP3   OH2  572   0.089   1.923   0.532  0.6254  0.1767  0.2179
  189TIP3    H1  573   0.070   2.015   0.515 -0.5856  0.1972  1.5379
  189TIP3    H2  574   0.148   1.924   0.607  1.6644 -0.0953 -0.5766
  190TIP3   OH2  575   1.710   1.011   0.983 -0.2345  0.2237 -0.3058
  190TIP3    H1  576   1.776   1.052   1.039  0.9520 -0.6991 -0.9554
  190TIP3    H2  577   1.731   1.043   0.895 -0.6823 -0.0562 -0.5183
  191TIP3   OH2  578   1.921   2.060   0.513  0.0464 -0.6525 -0.1886
  191TIP3    H1  579   1.831   2.086   0.493  0.5693  1.0590 -0.4689
  191TIP3    H2  580   1.923   2.048   0.608 -0.4192 -0.4399 -0.1535
  192TIP3   OH2  581   0.067   0.611   3.797  0.3676  0.8655  0.5808
  192TIP3    H1  582   0.030   0.584   3.712  1.0688  1.5585  0.0352
  192TIP3    H2  583  -0.000   0.668   3.835 -0.3726 -0.2245  0.9553
  193TIP3   OH2  584   1.214   0.577   3.790  0.3405  0.1143 -0.3884
  193TIP3    H1  585   1.179   0.652   3.744  0.4241  0.1760 -0.3512
  193TIP3    H2  586   1.160   0.503   3.761 -1.0876  0.5135  1.1166
  194TIP3   OH2  587   4.266   1.098   3.758 -0.0130  0.3001  0.1366
  194TIP3    H1  588   4.172   1.101   3.746 -0.0913  1.6699  0.8633
  194TIP3    H2  589   4.278   1.100   3.853  0.7526  2.0449  0.0416
  195TIP3   OH2  590   3.339   1.131   1.783 -0.3273  0.0228  0.1624
  195TIP3    H1  591   3.270   1.065   1.777 -1.8324  1.4071  1.4831
  195TIP3    H2  592   3.305   1.197   1.843  2.4449  0.4345  1.4303
  196TIP3   OH2  593   0.212   4.892   2.242  0.4793 -1.0440  0.0600
  196TIP3    H1  594   0.283   4.897   2.177 -0.5760 -0.1928 -1.0771
  196TIP3    H2  595   0.145   4.953   2.209 -0.6517 -1.5842  1.2713
  197TIP3   OH2  596   2.722   5.340   4.154 -0.4497  0.1063  0.1037
  197TIP3    H1  597   2.719   5.361   4.247 -1.9829  0.3521  0.0226
  197TIP3    H2  598   2.722   5.425   4.110 -1.3336 -0.0014 -0.1304
  198TIP3   OH2  599   3.459   1.295   2.371  0.0350 -0.1834  0.3783
  198TIP3    H1  600   3.483   1.387   2.364 -1.2817  0.5165  3.4825
  198TIP3    H2  601   3.363   1.295   2.373  0.0233 -1.5680  0.8910
  199TIP3   OH2  602   1.371   1.530   4.522 -0.0092  0.3745  0.0289
  199TIP3    H1  603   1.460   1.564   4.522 -0.1661  0.7957  0.4825
  199TIP3    H2  604   1.377   1.447   4.570 -0.1227  1.1478  1.4476
  200TIP3   OH2  605   2.096   0.452   4.978 -0.3559 -0.7023  0.1602
  200TIP3    H1  606   2.174   0.400   4.996 -0.6189 -0.7650  1.1505
  200TIP3    H2  607   2.123   0.512   4.908  0.5381 -0.8109  0.4042
  201TIP3   OH2  608   5.593   2.547   2.026  0.2782 -0.4397  0.5056
  201TIP3    H1  609   5.682   2.542   1.993 -0.2309 -0.6128 -0.9390
  201TIP3    H2  610   5.587   2.479   2.092  0.6956 -1.7436 -0.7537
  202TIP3   OH2  611   0.271   5.183   0.008 -0.2856 -0.9276  0.1292
  202TIP3    H1  612   0.219   5.152   0.082 -0.2945 -0.8421  0.1583
  202TIP3    H2  613   0.237   5.271  -0.011 -1.7470 -1.7370 -1.3083
  203TIP3   OH2  614   4.034  -0.027   2.108  0.1253  0.5037 -0.4609
  203TIP3    H1  615   3.987   0.001   2.186 -0.2736 -0.1761 -0.4490
  203TIP3    H2  616   4.043   0.053   2.055  0.3158  0.9471  0.2291
  204TIP3   OH2  617   0.802   2.157   4.557  0.8706 -0.5300 -0.1098
  204TIP3    H1  618   0.802   2.225   4.624  0.1230 -2.3295  1.8332
  204TIP3    H2  619   0.748   2.193   4.486  2.1350  1.6386 -0.0489
  205TIP3   OH2  620   4.688   3.217   4.432 -0.2976 -0.1654  0.7273
  205TIP3    H1  621   4.611   3.161   4.424 -1.4728  1.2868  1.3925
  205TIP3    H2  622   4.738   3.203   4.351 -1.4207 -0.8834  0.1471
  206TIP3   OH2  623   2.918   5.419   2.682  0.0840  0.1507 -0.0471
  206TIP3    H1  624   2.832   5.458   2.666  0.0861 -0.3939 -1.5270
  206TIP3    H2  625   2.904   5.325   2.674  0.6049 -0.0250  0.8746
  207TIP3   OH2  626   3.443   2.342   1.702 -0.6186  0.0637 -0.1566
  207TIP3    H1  627   3.416   2.389   1.781  1.3623 -0.8342  1.1379
  207TIP3    H2  628   3.538   2.334   1.711 -0.2222  0.6361 -3.0499
  208TIP3   OH2  629   1.873   3.816   4.090  0.4379 -0.2177  0.8657
  208TIP3    H1  630   1.957   3.828   4.045 -0.0186 -1.1800 -0.2929
  208TIP3    H2  631   1.825   3.897   4.073 -0.1403 -0.9637 -1.3614
  209TIP3   OH2  632   3.971   0.718   3.634  0.4946  0.0311  0.6577
  209TIP3    H1  633   3.941   0.644   3.580 -0.8093  0.7913  0.2963
  209TIP3    H2  634   4.066   0.714   3.629  0.5075 -2.2136  1.4613
  210TIP3   OH2  635   4.952   0.940   3.165  0.1406  0.5353 -0.7480
  210TIP3    H1  636   4.943   0.868   3.103  1.8696 -0.2188 -0.1832
  210TIP3    H2  637   4.958   0.897   3.250  0.4140  1.4034 -0.3232
  211TIP3   OH2  638   6.327   1.004   0.290 -0.5222 -0.5153  0.2645
  211TIP3    H1  639   6.407   0.954   0.307 -0.1584  0.0183  0.1376
  211TIP3    H2  640   6.261   0.938   0.267  0.6126 -0.7803 -2.5713
  212TIP3   OH2  641   2.980   2.768   1.494  0.1872  0.3800 -0.2214
  212TIP3    H1  642   2.957   2.685   1.452  0.4857  0.4028 -0.4308
  212TIP3    H2  643   3.061   2.748   1.542  0.9187  0.8572 -1.2387
  213TIP3   OH2  644   2.910   0.860   4.125  0.1836 -0.1327  0.3056
  213TIP3    H1  645   2.894   0.949   4.156 -2.0829 -0.5751  0.5364
  213TIP3    H2  646   2.918   0.868   4.030  2.3179  0.5648  0.4756
  214TIP3   OH2  647   4.071   4.498   1.446 -0.4951 -0.3814 -0.3150
  214TIP3    H1  648   3.989   4.491   1.496 -0.6793 -2.5731 -0.8014
  214TIP3    H2  649   4.120   4.420   1.471  0.5799 -0.1198 -1.5496
  215TIP3   OH2  650   5.521   1.710   1.685 -0.5413 -0.4298  0.0997
  215TIP3    H1  651   5.473   1.629   1.669  0.6753 -1.4329  1.2038
  215TIP3    H2  652   5.478   1.749   1.761  0.0233 -1.0367  0.7415
  216TIP3   OH2  653   5.475   1.870   2.191  0.3887  0.2323  0.1524
  216TIP3    H1  654   5.436   1.932   2.252  1.8018  0.1847  1.1415
  216TIP3    H2  655   5.567   1.866   2.216  0.9635  0.0216 -1.8293
  217TIP3   OH2  656   2.082   5.868   3.776 -0.2068 -0.1963 -0.2298
  217TIP3    H1  657   2.037   5.783   3.781 -1.2368  0.2455 -1.4002
  217TIP3    H2  658   2.012   5.931   3.757  0.8139  0.5881 -1.5910
  218TIP3   OH2  659   5.124   5.098   2.196  0.0241  0.1291 -0.3714
  218TIP3    H1  660   5.062   5.057   2.136  0.9652 -0.2845 -1.0826
  218TIP3    H2  661   5.179   5.026   2.227  0.9401  0.6579 -0.7194
  219TIP3   OH2  662   1.403   1.355   2.067  1.0755  0.2972  0.0821
  219TIP3    H1  663   1.391   1.444   2.101 -3.7941  0.5461 -1.4561
  219TIP3    H2  664   1.367   1.298   2.135 -0.1727  0.0154 -0.7712
  220TIP3   OH2  665   1.800   2.021   4.665 -0.2430 -0.8831 -0.0360
  220TIP3    H1  666   1.827   2.081   4.735  1.6949 -0.0414 -1.4260
  220TIP3    H2  667   1.721   2.061   4.628  1.0219  0.9035 -0.9498
  221TIP3   OH2  668   4.657   4.576   2.390  0.1297 -0.1535 -0.1017
  221TIP3    H1  669   4.582   4.542   2.438 -0.0088 -0.9101 -0.8439
  221TIP3    H2  670   4.676   4.660   2.432 -0.8365 -0.1731  0.3921
  222TIP3   OH2  671   1.144   4.329   4.305  0.2228 -0.5565  0.1217
  222TIP3    H1  672   1.190   4.387   4.365 -0.2208  0.0528 -0.1183
  222TIP3    H2  673   1.138   4.378   4.223  1.2907 -1.5868 -0.5952
  223TIP3   OH2  674   4.134   3.253   3.537  0.5935  0.0839  0.6348
  223TIP3    H1  675   4.138   3.235   3.631  0.8118  0.7105  0.7533
  223TIP3    H2  676   4.225   3.273   3.513  0.3283  1.2577  0.5682
  224TIP3   OH2  677   1.528   3.825   0.378 -0.0978 -0.3179  0.3243
  224TIP3    H1  678   1.487   3.755   0.428 -0.1445 -0.2009  0.4490
  224TIP3    H2  679   1.589   3.866   0.439  0.0276 -0.3348  0.2122
  225TIP3   OH2  680   4.589   4.039   1.670  0.4984 -0.0576 -0.1200
  225TIP3    H1  681   4.617   3.947   1.672  1.3085  0.1929  1.0685
  225TIP3    H2  682   4.495   4.034   1.654  0.6767 -1.0588 -0.9662
  226TIP3   OH2  683   5.672   5.179   3.728  0.4521  0.1843 -0.2931
  226TIP3    H1  684   5.660   5.274   3.731  0.8005  0.2129  1.5275
  226TIP3    H2  685   5.650   5.154   3.638  0.0270  1.9360 -0.7033
  227TIP3   OH2  686   1.902   2.452   0.215 -0.7127  0.5834  0.0755
  227TIP3    H1  687   1.897   2.543   0.244  0.7368  0.6892  0.0572
  227TIP3    H2  688   1.995   2.429   0.224 -1.3832 -1.6456  2.3199
  228TIP3   OH2  689   6.290   2.572   4.762  0.5671  0.4855 -0.0952
  228TIP3    H1  690   6.203   2.581   4.801  0.0568  2.1781 -1.4983
  228TIP3    H2  691   6.309   2.479   4.768 -0.9744  0.1949  0.9899
  229TIP3   OH2  692   6.248   4.605   2.483  0.0611  0.2531  0.2115
  229TIP3    H1  693   6.237   4.680   2.424  0.3837 -2.7221 -4.1418
  229TIP3    H2  694   6.343   4.591   2.487 -0.0450 -0.6264 -0.0879
  230TIP3   OH2  695   4.950   0.230   1.690  0.4928  0.5574 -0.2872
  230TIP3    H1  696   5.003   0.223   1.611  0.9556  1.0319 -0.0235
  230TIP3    H2  697   4.971   0.151   1.740 -1.0984 -0.6412 -1.3910
  231TIP3   OH2  698   5.514   4.437   4.002  0.3732 -0.4257 -0.1884
  231TIP3    H1  699   5.529   4.505   4.068  0.2058  0.3903 -0.9865
  231TIP3    H2  700   5.526   4.355   4.050 -0.0700  0.1466  0.9484
  232TIP3   OH2  701   2.299   3.309   2.494 -0.1712  0.0705 -0.0484
  232TIP3    H1  702   2.215   3.355   2.485 -0.3867  0.8126  3.8971
  232TIP3    H2  703   2.363   3.378   2.509  0.8507 -0.6083 -1.0849
  233TIP3   OH2  704   5.583   0.804   4.952  0.1635  0.6767  0.8628
  233TIP3    H1  705   5.549   0.773   5.035  2.8606  0.1213  1.8796
  233TIP3    H2  706   5.608   0.895   4.969  1.4064  0.3448  0.9490
  234TIP3   OH2  707   0.278   2.636   2.433  0.1335  0.1358 -0.2248
  234TIP3    H1  708   0.334   2.611   2.360  1.9126  0.6781  0.8882
  234TIP3    H2  709   0.189   2.627   2.399  0.7634 -2.7621 -1.4380
  235TIP3   OH2  710   5.431   3.576   2.846 -0.3428 -0.2102 -0.0472
  235TIP3    H1  711   5.503   3.541   2.898 -1.4929 -0.5874  1.3893
  235TIP3    H2  712   5.441   3.536   2.760  0.5680 -1.0675  0.4403
  236TIP3   OH2  713   0.618   5.914   4.927 -0.5519  0.5086  0.4026
  236TIP3    H1  714   0.681   5.850   4.895 -1.4022  0.0023 -0.3104
  236TIP3    H2  715   0.637   5.922   5.021 -1.3990 -1.9733  0.8538
  237TIP3   OH2  716   3.658   5.483   2.140 -0.2315  0.4492 -0.3993
  237TIP3    H1  717   3.573   5.473   2.182 -0.4321 -0.3403 -0.9696
  237TIP3    H2  718   3.644   5.452   2.050  0.8040 -0.2715 -0.3302
  238TIP3   OH2  719   1.223   0.663   5.122 -0.2013  0.1293  0.5019
  238TIP3    H1  720   1.179   0.691   5.203  1.3812 -0.6768  1.7100
  238TIP3    H2  721   1.195   0.572   5.110  0.0920  0.0304  0.5483
  239TIP3   OH2  722   1.672   5.609   4.579 -0.4961  0.1994  0.2502
  239TIP3    H1  723   1.704   5.698   4.568  0.3196 -0.0406  0.5972
  239TIP3    H2  724   1.622   5.591   4.500  3.0916 -0.6179 -2.0426
  240TIP3   OH2  725   0.330   3.780   3.802 -0.1003  0.3040  0.6518
  240TIP3    H1  726   0.351   3.687   3.795 -0.3540  0.3241 -0.5180
  240TIP3    H2  727   0.308   3.793   3.894  1.0458 -0.5569  1.0661
  241TIP3   OH2  728   3.299   1.013   1.090  0.3663  0.2437  0.1182
  241TIP3    H1  729   3.288   1.061   1.172  0.0605  0.0791  0.1751
  241TIP3    H2  730   3.292   1.080   1.022  2.5228  0.7104  0.2673
  242TIP3   OH2  731   3.446   5.944   4.460  0.2613 -0.0156  0.0817
  242TIP3    H1  732   3.471   5.905   4.544 -0.1057  1.0732  0.7226
  242TIP3    H2  733   3.528   5.977   4.424  0.6855 -1.8556 -0.7691
  243TIP3   OH2  734   4.515   2.127   0.549 -0.1625  0.1782  0.2526
  243TIP3    H1  735   4.591   2.071   0.537 -1.2491 -1.7640  1.8703
  243TIP3    H2  736   4.520   2.190   0.477  2.5495 -0.3118 -0.0968
  244TIP3   OH2  737   4.151   5.084   4.055 -0.1279 -0.2776  0.5774
  244TIP3    H1  738   4.152   5.108   3.963 -0.7965  0.0600  0.6478
  244TIP3    H2  739   4.138   5.167   4.102  1.5126 -0.2617  1.0663
  245TIP3   OH2  740   1.295   3.112   4.995 -0.1335  0.3708  0.6805
  245TIP3    H1  741   1.291   3.208   5.003 -0.8913  0.2675  1.5751
  245TIP3    H2  742   1.252   3.079   5.073  0.8809 -0.7215  0.8020
  246TIP3   OH2  743   3.863   5.097   4.207  0.4235  0.3228 -0.1697
  246TIP3    H1  744   3.897   5.016   4.243  1.7148  1.3058  0.9286
  246TIP3    H2  745   3.815   5.071   4.128  1.4873 -1.4014 -0.2712
  247TIP3   OH2  746   2.450   0.412   1.149 -0.2248 -0.0599  0.8106
  247TIP3    H1  747   2.355   0.418   1.159 -0.1836  2.0200  0.5022
  247TIP3    H2  748   2.484   0.468   1.219  0.8277 -1.3379  1.3595
  248TIP3   OH2  749   1.560   4.225   4.320  0.0332  0.1780  0.3679
  248TIP3    H1  750   1.602   4.310   4.332 -0.4908  0.5410 -0.2562
  248TIP3    H2  751   1.480   4.245   4.271 -1.5845 -0.2883  2.6299
  249TIP3   OH2  752   6.150   4.738   4.874 -0.4584  0.4763  1.2110
  249TIP3    H1  753   6.230   4.689   4.856 -0.8574  0.7988 -2.3194
  249TIP3    H2  754   6.180   4.828   4.889 -0.0929  0.5768 -0.0019
  250TIP3   OH2  755   0.503   3.050   3.427 -0.1227  0.2913  0.5926
  250TIP3    H1  756   0.540   3.085   3.346  1.6975  0.8982  1.6207
  250TIP3    H2  757   0.432   3.110   3.448  0.6413  1.2889  0.4347
  251TIP3   OH2  758   2.662   4.898   4.088 -0.2691  0.4407  0.2037
  251TIP3    H1  759   2.664   4.900   3.992 -3.6065  0.0029 -0.0032
  251TIP3    H2  760   2.685   4.808   4.110 -0.1076  0.3687 -0.2484
  252TIP3   OH2  761   5.086   0.501   5.134 -0.1594  0.1549  0.1715
  252TIP3    H1  762   5.075   0.422   5.080 -3.5945 -0.0488  0.9914
  252TIP3    H2  763   5.073   0.471   5.223 -1.2220  1.5831  0.5222
  253TIP3   OH2  764   4.490   2.122   1.699 -0.0783  0.4704 -0.7489
  253TIP3    H1  765   4.456   2.127   1.788 -0.8029 -0.6516 -0.9552
  253TIP3    H2  766   4.424   2.074   1.650  1.0071 -0.2497 -1.5545
  254TIP3   OH2  767   5.187   1.512   1.626 -0.7625 -0.0229  0.0533
  254TIP3    H1  768   5.150   1.555   1.550  0.9798  0.8607 -0.3387
  254TIP3    H2  769   5.155   1.562   1.701 -0.5165  0.6157 -0.2648
  255TIP3   OH2  770   4.487   0.916   0.050 -0.0763  0.0014  0.0371
  255TIP3    H1  771   4.485   0.903   0.145  0.9929  1.3973  0.2818
  255TIP3    H2  772   4.408   0.966   0.031 -1.3765 -2.0105 -0.1455
  256TIP3   OH2  773   1.482   5.030   3.784  0.9200  0.0655  0.1490
  256TIP3    H1  774   1.537   5.091   3.832  2.2857 -1.1749  0.2273
  256TIP3    H2  775   1.542   4.987   3.723 -0.0596 -0.9965 -0.0981
  257TIP3   OH2  776   6.198   0.442   2.279  0.1594 -0.4265  0.1138
  257TIP3    H1  777   6.119   0.435   2.225  0.7662  1.6486 -1.1830
  257TIP3    H2  778   6.238   0.355   2.274 -0.8896 -0.8817 -1.0789
  258TIP3   OH2  779   5.789   4.682   0.104  0.0617 -0.1626 -0.2146
  258TIP3    H1  780   5.762   4.758   0.054  3.8091  0.8324 -1.0295
  258TIP3    H2  781   5.811   4.716   0.191  0.5721 -0.5220 -0.1942
  259TIP3   OH2  782   3.180   2.894   4.086  0.7738 -0.0153  0.1976
  259TIP3    H1  783   3.114   2.829   4.062  2.1046 -0.9471 -1.0106
  259TIP3    H2  784   3.160   2.969   4.031 -0.3882  0.4323  1.1640
  260TIP3   OH2  785   3.676   1.509   3.017 -0.4338  0.0519 -0.4966
  260TIP3    H1  786   3.704   1.573   3.082 -1.1478 -0.3032  0.1754
  260TIP3    H2  787   3.718   1.427   3.044  0.9018  0.3211 -1.6498
  261TIP3   OH2  788   6.068   4.201   4.534  0.0824  0.0928  0.6096
  261TIP3    H1  789   6.091   4.293   4.542 -1.0079  0.4434 -0.1740
  261TIP3    H2  790   6.069   4.184   4.439 -0.3969 -0.5152  0.7058
  262TIP3   OH2  791   2.548   0.932   3.547  0.4804 -0.3161  0.8772
  262TIP3    H1  792   2.618   0.988   3.579 -0.3650 -0.3443  2.9340
  262TIP3    H2  793   2.584   0.889   3.469  2.1232  0.9087  0.9254
  263TIP3   OH2  794   5.740   2.513   0.353 -0.3080 -0.0668  0.2528
  263TIP3    H1  795   5.724   2.550   0.440 -0.2921  1.1228 -0.2371
  263TIP3    H2  796   5.818   2.459   0.365 -0.8262 -0.6418  1.1718
  264TIP3   OH2  797   1.161   4.510   2.088  0.3380  0.0325  0.5000
  264TIP3    H1  798   1.165   4.581   2.023 -0.7049 -0.3975 -0.0767
  264TIP3    H2  799   1.250   4.501   2.120  0.5567  1.3798  0.3424
  265TIP3   OH2  800   5.429   2.769   5.171  0.2833 -0.6810  0.0352
  265TIP3    H1  801   5.443   2.731   5.084 -1.1241  1.5609 -1.2682
  265TIP3    H2  802   5.409   2.695   5.227 -0.8395 -2.0266 -2.0317
  266TIP3   OH2  803   5.856   5.058   4.947 -0.3079 -0.1734  0.5853
  266TIP3    H1  804   5.929   5.097   4.900 -1.2936 -0.1679 -1.0260
  266TIP3    H2  805   5.826   5.127   5.007  0.1670  0.2825  0.3052
  267TIP3   OH2  806   5.809   5.089   0.760  0.4150  0.1608 -0.4793
  267TIP3    H1  807   5.800   5.163   0.699  3.9789  0.5637 -0.7472
  267TIP3    H2  808   5.890   5.108   0.808 -0.7801 -1.5490  2.4863
  268TIP3   OH2  809   5.197   5.025   0.970  0.1978  0.1924  0.3239
  268TIP3    H1  810   5.106   5.000   0.956  0.1717  1.1211 -1.4886
  268TIP3    H2  811   5.200   5.057   1.060 -1.2733  0.1864  0.3931
  269TIP3   OH2  812   3.821   5.304   2.852  0.5172  0.1460  0.3981
  269TIP3    H1  813   3.811   5.209   2.861  1.2123  0.0107 -0.1451
  269TIP3    H2  814   3.758   5.341   2.913  2.0515 -0.6560  2.5870
  270TIP3   OH2  815   1.795   4.423   1.326 -0.3196  0.5423 -0.2289
  270TIP3    H1  816   1.822   4.484   1.258 -0.5985 -0.2369 -1.0506
  270TIP3    H2  817   1.759   4.479   1.395 -0.2171  1.3282 -0.7991
  271TIP3   OH2  818   5.062   2.462   0.179 -0.5413 -0.0158 -0.9658
  271TIP3    H1  819   4.981   2.456   0.230 -0.3900  3.8770  0.0242
  271TIP3    H2  820   5.032   2.472   0.089 -0.8857 -3.4313 -1.3755
  272TIP3   OH2  821   3.232   2.078   4.306  0.6366  0.0168 -0.0993
  272TIP3    H1  822   3.273   2.148   4.256 -0.3929  0.0047 -0.9888
  272TIP3    H2  823   3.146   2.066   4.266  1.6053 -3.3392 -1.5614
  273TIP3   OH2  824   1.753   1.608   1.612 -0.2789 -0.4722 -0.0676
  273TIP3    H1  825   1.707   1.647   1.686  1.0013 -1.8805  1.5264
  273TIP3    H2  826   1.795   1.530   1.647  0.1088 -1.3780 -2.3647
  274TIP3   OH2  827   2.596   5.241   0.262  0.0988 -0.2507 -0.0329
  274TIP3    H1  828   2.550   5.317   0.225 -1.4908 -0.2008  1.8499
  274TIP3    H2  829   2.601   5.179   0.189 -2.2230  0.1061 -0.6098
  275TIP3   OH2  830   0.050   4.252   2.039  0.7817 -0.3594 -0.1397
  275TIP3    H1  831   0.100   4.174   2.015  0.7689 -0.3610 -0.1611
  275TIP3    H2  832   0.020   4.234   2.128  2.6955  0.5826  0.7529
  276TIP3   OH2  833   0.094   3.583   3.912 -0.3796  0.3828  0.0496
  276TIP3    H1  834   0.120   3.537   3.992  1.3292  1.7607  0.3579
  276TIP3    H2  835   0.094   3.675   3.936 -0.9024  0.7553 -1.2650
  277TIP3   OH2  836   3.360   2.735   5.068  0.1663 -0.0088 -0.0804
  277TIP3    H1  837   3.336   2.683   4.991 -1.2181  1.6462 -0.8171
  277TIP3    H2  838   3.279   2.741   5.119  0.3992  1.1021  0.1747
  278TIP3   OH2  839   6.139   5.403   1.472 -0.3848 -0.0294 -1.0479
  278TIP3    H1  840   6.108   5.330   1.419 -4.3893  0.6428  0.0164
  278TIP3    H2  841   6.161   5.364   1.557 -1.0427 -0.2324 -0.9644
  279TIP3   OH2  842   0.720   0.074   2.424 -0.2019 -0.0534  0.4601
  279TIP3    H1  843   0.788   0.008   2.412 -1.2313 -0.7183 -2.5463
  279TIP3    H2  844   0.734   0.136   2.352 -2.0176  0.4553  0.4997
  280TIP3   OH2  845   0.544   0.273   0.484 -0.0376  0.2775 -0.3951
  280TIP3    H1  846   0.624   0.254   0.533 -0.0939  0.0644 -0.3843
  280TIP3    H2  847   0.546   0.368   0.471 -0.4663  0.4804  0.8116
  281TIP3   OH2  848   4.419   4.116   1.971  0.5843  0.3088  0.2992
  281TIP3    H1  849   4.338   4.155   2.006  1.4228  3.6710 -1.0794
  281TIP3    H2  850   4.396   4.089   1.882  0.7524  0.4326  0.2181
  282TIP3   OH2  851   5.769   3.313   4.650  0.1928  0.1522  0.8624
  282TIP3    H1  852   5.737   3.309   4.740 -0.7452 -0.1731  0.5333
  282TIP3    H2  853   5.797   3.224   4.630 -0.6714 -0.0433  0.4732
  283TIP3   OH2  854   0.663   5.778   2.301  0.3227 -0.2939  0.2911
  283TIP3    H1  855   0.627   5.764   2.213 -0.0450  0.5558  0.2964
  283TIP3    H2  856   0.645   5.870   2.319  0.8855 -0.3274  1.0406
  284TIP3   OH2  857   5.677   3.795   3.054 -0.2020  0.6727  0.1530
  284TIP3    H1  858   5.683   3.827   2.964 -0.8410  2.8176  0.8253
  284TIP3    H2  859   5.767   3.777   3.079  0.1602  1.6511 -0.3930
  285TIP3   OH2  860   2.113   5.765   4.059  0.0544 -0.2221 -0.0295
  285TIP3    H1  861   2.198   5.723   4.042  0.0025 -0.8305  1.1309
  285TIP3    H2  862   2.098   5.820   3.982  1.9008  0.5454  0.0863
  286TIP3   OH2  863   3.832   1.544   5.116 -0.1542 -0.4593  0.7395
  286TIP3    H1  864   3.786   1.609   5.168 -0.2204  1.1782 -1.2706
  286TIP3    H2  865   3.830   1.578   5.026  3.5029 -1.0974  0.2567
  287TIP3   OH2  866   5.373   4.084   0.701  0.6474  0.6288 -0.0278
  287TIP3    H1  867   5.447   4.059   0.645  0.7682  1.2183 -0.1352
  287TIP3    H2  868   5.348   4.002   0.744  1.2286  0.3777 -0.1478
  288TIP3   OH2  869   2.586   3.664   3.085  0.1766  0.7492 -0.4683
  288TIP3    H1  870   2.524   3.627   3.149 -0.2612  1.3329 -0.5485
  288TIP3    H2  871   2.638   3.589   3.057 -0.5610  0.2231 -0.4780
  289TIP3   OH2  872   2.304   0.796   2.621 -0.5430  0.4524 -0.3472
  289TIP3    H1  873   2.261   0.861   2.565 -2.6970 -1.2500 -0.8356
  289TIP3    H2  874   2.383   0.772   2.572  0.5370  2.9134  0.0485
  290TIP3   OH2  875   4.258   0.654   3.625 -0.1584  0.4228 -0.5495
  290TIP3    H1  876   4.217   0.569   3.608  2.3265 -0.6925 -1.4667
  290TIP3    H2  877   4.242   0.705   3.546 -1.1257  0.6009 -0.2481
  291TIP3   OH2  878   2.648   5.420   2.265  0.2366  0.0511 -0.1172
  291TIP3    H1  879   2.744   5.426   2.266  0.1919  1.0203 -0.3398
  291TIP3    H2  880   2.623   5.450   2.178 -0.3003  0.6060  0.2162
  292TIP3   OH2  881   6.139   3.080   2.745 -0.1839 -0.3347 -0.7319
  292TIP3    H1  882   6.153   3.162   2.793  0.9302 -1.6343  1.3310
  292TIP3    H2  883   6.224   3.060   2.706 -0.0612 -1.1330 -0.0940
  293TIP3   OH2  884   4.566   3.808   1.389 -0.1398 -0.1512  0.3148
  293TIP3    H1  885   4.598   3.797   1.478  0.1578  0.3892  0.2751
  293TIP3    H2  886   4.641   3.790   1.333 -0.7019 -2.0069  0.1072
  294TIP3   OH2  887   0.727   5.418  -0.011 -0.0167 -0.0221 -0.0334
  294TIP3    H1  888   0.773   5.359   0.049  1.4593  1.3150  0.2032
  294TIP3    H2  889   0.732   5.504   0.031  0.9282  0.9238 -1.9370
  295TIP3   OH2  890   4.796   2.798   3.025 -0.3149 -0.5985  0.4942
  295TIP3    H1  891   4.837   2.861   3.084  0.5953 -1.2196  0.5520
  295TIP3    H2  892   4.825   2.823   2.938 -1.9806  0.5606  0.2186
  296TIP3   OH2  893   3.544   0.579   4.438 -0.1115  0.3647  0.0565
  296TIP3    H1  894   3.588   0.573   4.353  1.1804 -0.7788  0.7735
  296TIP3    H2  895   3.489   0.658   4.431 -0.7234 -0.1884 -2.1271
  297TIP3   OH2  896   5.216   5.592   3.883 -0.3037  0.2913 -0.2790
  297TIP3    H1  897   5.248   5.677   3.915  0.5009 -0.8510  2.2766
  297TIP3    H2  898   5.174   5.553   3.959 -0.5988 -1.6378 -1.3799
  298TIP3   OH2  899   1.478   2.268   1.264  0.1743  0.1950 -0.0435
  298TIP3    H1  900   1.458   2.318   1.185 -0.8404  0.3553  0.3070
  298TIP3    H2  901   1.399   2.216   1.280  0.8114 -0.7219  0.2035
  299TIP3   OH2  902   3.842   1.815   2.567  0.1521 -0.3941 -0.3150
  299TIP3    H1  903   3.934   1.822   2.541 -0.0583 -0.3623 -1.0709
  299TIP3    H2  904   3.838   1.859   2.651  0.3725  1.7333 -1.3507
  300TIP3   OH2  905   0.547   5.525   4.562  0.4167 -0.3120  0.0857
  300TIP3    H1  906   0.592   5.582   4.500  0.1415  0.3381  0.4735
  300TIP3    H2  907   0.460   5.512   4.523 -0.5805  1.9479  1.3774
  301TIP3   OH2  908   3.514   3.803   0.297 -0.4767 -0.7885 -0.2565
  301TIP3    H1  909   3.435   3.838   0.340 -0.9525  0.2751 -1.8919
  301TIP3    H2  910   3.586   3.828   0.355 -0.9651  1.6922 -0.5994
  302TIP3   OH2  911   2.397   4.380   4.123  0.0962  0.1639 -0.5003
  302TIP3    H1  912   2.486   4.353   4.099  0.7767  1.5083  0.3901
  302TIP3    H2  913   2.341   4.336   4.059  1.6792  2.2454 -3.5818
  303TIP3   OH2  914   2.362   1.175   5.018  0.0910  0.1662 -0.8672
  303TIP3    H1  915   2.366   1.270   5.029 -0.0251 -0.1504  2.9768
  303TIP3    H2  916   2.269   1.155   5.019  0.0459  0.0241 -2.9610
  304TIP3   OH2  917   2.162   5.451   4.406 -0.4430  0.4646 -0.2566
  304TIP3    H1  918   2.088   5.431   4.349 -0.7556 -0.4775  0.4585
  304TIP3    H2  919   2.149   5.542   4.431  1.2878  1.9366 -3.9937
  305TIP3   OH2  920   5.318   4.537   1.423 -0.4782 -0.9032  0.3977
  305TIP3    H1  921   5.285   4.533   1.332  1.9889  1.7796 -0.7670
  305TIP3    H2  922   5.386   4.470   1.427  2.3386  1.5962 -1.2583
  306TIP3   OH2  923   0.691   1.719   4.103 -0.5366  0.3656 -0.0999
  306TIP3    H1  924   0.653   1.741   4.018  0.0484  0.7423 -0.2687
  306TIP3    H2  925   0.677   1.797   4.157  0.2673  0.6366 -0.2632
  307TIP3   OH2  926   1.822   3.044   0.773  0.1168  0.1284 -0.3571
  307TIP3    H1  927   1.726   3.039   0.774  0.0509  1.0932  0.4245
  307TIP3    H2  928   1.844   3.077   0.860  0.9869  2.3100 -1.3242
  308TIP3   OH2  929   5.893   0.962   0.588 -0.2421  0.0360  0.0748
  308TIP3    H1  930   5.910   1.009   0.669 -0.5552 -0.9702  0.7496
  308TIP3    H2  931   5.803   0.929   0.597  1.0709 -3.6905  1.2533
  309TIP3   OH2  932   4.138   3.023   1.425  0.0143  0.1262 -0.1616
  309TIP3    H1  933   4.092   3.090   1.374 -0.2434  0.3830  0.4030
  309TIP3    H2  934   4.070   2.958   1.445 -0.3069  0.8883  1.3357
  310TIP3   OH2  935   4.829   1.016   3.900  0.0845 -0.1098 -0.1125
  310TIP3    H1  936   4.804   1.105   3.925  3.1416  0.2118  2.5599
  310TIP3    H2  937   4.871   1.026   3.814  0.0641  0.9826 -0.0109
  311TIP3   OH2  938   1.487   2.718   4.710 -0.1808  0.3602 -0.3443
  311TIP3    H1  939   1.417   2.781   4.732  1.5781  2.2622  0.1261
  311TIP3    H2  940   1.533   2.704   4.793  0.6691 -0.0110 -0.8746
  312TIP3   OH2  941   0.894   2.601   3.298 -0.0273  0.7645 -0.0504
  312TIP3    H1  942   0.886   2.694   3.275  1.9076  1.1191  0.5262
  312TIP3    H2  943   0.975   2.572   3.256 -1.1510 -0.9877 -1.1253
  313TIP3   OH2  944   2.254   3.906   3.023 -0.0570  0.4530 -0.3433
  313TIP3    H1  945   2.170   3.953   3.032  0.5487  1.4563  0.3729
  313TIP3    H2  946   2.262   3.855   3.104 -0.8642 -1.1989 -1.2610
  314TIP3   OH2  947   1.511   5.545   0.166  0.3437 -0.1934 -0.4550
  314TIP3    H1  948   1.528   5.639   0.165  0.2129 -0.0885  1.7547
  314TIP3    H2  949   1.416   5.538   0.161  0.2786 -0.1276  0.4791
  315TIP3   OH2  950   0.806   4.963   3.984 -0.8635 -0.1191 -0.0795
  315TIP3    H1  951   0.762   4.962   3.899  0.9708 -1.0859 -1.0795
  315TIP3    H2  952   0.762   4.894   4.034 -0.2980 -1.3296 -1.1844
  316TIP3   OH2  953   3.478   2.853   0.478 -0.3028  0.5363  0.0229
  316TIP3    H1  954   3.417   2.912   0.434 -2.7579 -0.6354  1.5933
  316TIP3    H2  955   3.421   2.793   0.526  2.0840 -2.0786 -0.1781
  317TIP3   OH2  956   2.716   3.808   1.848 -0.5909 -0.4066  0.2212
  317TIP3    H1  957   2.751   3.747   1.913 -0.6707  0.3928  1.0267
  317TIP3    H2  958   2.687   3.752   1.776 -1.4251 -1.4076  1.2950
  318TIP3   OH2  959   2.811   0.993   4.924  0.2783  0.4716 -0.6427
  318TIP3    H1  960   2.779   0.998   5.014 -0.9400  0.1156 -1.0302
  318TIP3    H2  961   2.747   0.938   4.879  1.9712 -1.0659 -1.2700
  319TIP3   OH2  962   0.145   4.412   4.997 -0.1406 -0.0783 -0.6374
  319TIP3    H1  963   0.241   4.402   4.998 -0.0878  0.4166 -0.6091
  319TIP3    H2  964   0.124   4.443   5.085 -0.3319 -0.1938 -0.6418
  320TIP3   OH2  965   5.766   2.151   1.281  0.0562 -0.2793 -0.1064
  320TIP3    H1  966   5.828   2.150   1.208  0.6700  0.3730  0.3955
  320TIP3    H2  967   5.768   2.241   1.314 -1.9102  0.0428 -0.6997
  321TIP3   OH2  968   3.591   2.049   1.752 -0.4633 -0.3183  0.0436
  321TIP3    H1  969   3.569   2.114   1.818 -1.2224 -0.4282 -0.0970
  321TIP3    H2  970   3.535   1.974   1.771 -2.7386  0.6194 -2.3159
  322TIP3   OH2  971   0.993   4.725   0.952 -0.0091  0.3403 -0.2844
  322TIP3    H1  972   0.950   4.707   0.869 -1.5567  0.0674  0.5421
  322TIP3    H2  973   1.043   4.806   0.937  0.7295 -0.3696 -1.8012
  323TIP3   OH2  974   3.802   4.271   3.450  0.4314 -0.2370  0.0032
  323TIP3    H1  975   3.817   4.268   3.545  0.2823 -1.2324  0.0039
  323TIP3    H2  976   3.837   4.188   3.418 -1.6604 -0.9914 -0.4827
  324TIP3   OH2  977   3.469   3.630   1.593 -0.1590  0.7774 -0.1096
  324TIP3    H1  978   3.453   3.700   1.656  0.6038 -0.0096  1.0100
  324TIP3    H2  979   3.531   3.668   1.530 -0.7900  1.5142 -0.3015
  325TIP3   OH2  980   5.725   2.499   0.981  0.2040 -0.4964  0.0409
  325TIP3    H1  981   5.632   2.485   0.996 -0.1269  1.1465 -0.2695
  325TIP3    H2  982   5.747   2.442   0.907 -0.3487 -1.5258  0.6613
  326TIP3   OH2  983   5.309   3.589   3.502  0.2051  0.0631 -0.1289
  326TIP3    H1  984   5.365   3.577   3.425  0.1459  0.2893 -0.2059
  326TIP3    H2  985   5.313   3.504   3.547 -0.4317 -0.3408 -0.8166
  327TIP3   OH2  986   4.692   1.437   1.964  0.2432  0.0838  0.1582
  327TIP3    H1  987   4.648   1.521   1.976 -0.8030 -0.1499 -1.6880
  327TIP3    H2  988   4.623   1.377   1.938  1.3279 -0.7867 -0.8467
  328TIP3   OH2  989   4.490   4.349   1.745 -0.9203  0.2962 -0.1768
  328TIP3    H1  990   4.401   4.344   1.709 -0.9673 -1.9820  0.0568
  328TIP3    H2  991   4.546   4.321   1.673 -0.6158 -0.2505  0.2606
  329TIP3   OH2  992   0.802   2.575   2.720  0.5763  0.8639 -0.2091
  329TIP3    H1  993   0.761   2.607   2.800  0.4941 -0.4673  0.3193
  329TIP3    H2  994   0.728   2.555   2.663  0.3461 -1.9220  0.8939
  330TIP3   OH2  995   0.306   3.221   0.981 -0.3407 -0.1110 -0.4483
  330TIP3    H1  996   0.239   3.253   1.042  0.2301  0.0242  0.1155
  330TIP3    H2  997   0.349   3.149   1.027 -0.2058 -0.3048 -0.8725
  331TIP3   OH2  998   6.251   1.106   3.960 -0.9216 -0.0317 -0.3741
  331TIP3    H1  999   6.345   1.113   3.945 -0.8525 -1.0441 -0.4821
  331TIP3    H2 1000   6.236   1.014   3.979 -1.9630  0.0170 -0.8580
  332TIP3   OH2 1001   3.625   0.276   2.382  0.7450  0.1651  0.2301
  332TIP3    H1 1002   3.653   0.273   2.290  0.7964 -1.0670  0.2741
  332TIP3    H2 1003   3.536   0.243   2.381  0.6832  0.3194  0.5996
  333TIP3   OH2 1004   0.836   0.239   2.882  0.4994  0.0513 -0.2722
  333TIP3    H1 1005   0.801   0.164   2.835 -0.8002  0.7739 -0.5074
  333TIP3    H2 1006   0.785   0.241   2.964 -1.3813  2.1579 -1.3870
  334TIP3   OH2 1007   3.208   4.540   3.412 -0.2634 -0.2886  0.2654
  334TIP3    H1 1008   3.301   4.537   3.388 -0.2650 -0.6317  0.2926
  334TIP3    H2 1009   3.169   4.468   3.363 -0.4314 -0.4287  0.6033
  335TIP3   OH2 1010   1.233   0.838   1.592 -0.5136 -0.1047  0.4052
  335TIP3    H1 1011   1.257   0.930   1.605 -0.8928 -0.1408  1.4441
  335TIP3    H2 1012   1.251   0.796   1.676  2.8729 -1.7540 -0.9698
  336TIP3   OH2 1013   1.289   4.470   0.002  0.2021 -0.5526  0.1934
  336TIP3    H1 1014   1.306   4.419   0.081  0.2732 -1.4193 -0.3591
  336TIP3    H2 1015   1.374   4.508  -0.021  0.4328 -1.2144 -0.0756
  337TIP3   OH2 1016   3.757   0.895   2.136 -0.1916  0.2092  0.1148
  337TIP3    H1 1017   3.825   0.883   2.069 -0.0045  0.3835  0.2709
  337TIP3    H2 1018   3.746   0.808   2.174 -1.1585 -0.1589 -0.9481
  338TIP3   OH2 1019   6.269   2.860   0.339  0.4595  0.7389 -0.2187
  338TIP3    H1 1020   6.261   2.929   0.273 -0.3432  0.9299  0.0726
  338TIP3    H2 1021   6.295   2.906   0.419 -0.4279  0.7732  0.0676
  339TIP3   OH2 1022   3.310   1.486   0.083  0.0693  0.4764 -0.3531
  339TIP3    H1 1023   3.406   1.487   0.087  0.0779 -0.9957  0.5480
  339TIP3    H2 1024   3.284   1.432   0.157 -1.3743 -0.7596 -1.7013
  340TIP3   OH2 1025   3.125   4.945   4.580  0.2633 -0.4717 -0.3902
  340TIP3    H1 1026   3.038   4.942   4.542  0.0754  1.5629 -0.2243
  340TIP3    H2 1027   3.175   4.879   4.532 -0.9794 -0.6349 -1.5096
  341TIP3   OH2 1028   3.072   2.963   0.467 -0.4128 -0.4502  0.1095
  341TIP3    H1 1029   3.035   3.028   0.527 -0.4305 -1.8946  1.7443
  341TIP3    H2 1030   3.159   2.996   0.446  0.2922 -0.7088  2.3520
  342TIP3   OH2 1031   0.942   2.437   0.649 -0.4725  0.4959 -0.6557
  342TIP3    H1 1032   0.997   2.499   0.602  1.5953 -0.8927 -0.2343
  342TIP3    H2 1033   0.911   2.377   0.582  2.4820 -1.4912 -0.4476
  343TIP3   OH2 1034   5.005   3.319   3.913  0.0969 -0.1321  0.0212
  343TIP3    H1 1035   4.912   3.317   3.890 -0.3317 -1.2052  1.6453
  343TIP3    H2 1036   5.018   3.406   3.951 -0.1818  0.1066 -0.4237
  344TIP3   OH2 1037   5.840   3.772   4.644 -0.4204 -0.5560 -0.0992
  344TIP3    H1 1038   5.921   3.816   4.619  0.3185 -1.4655  0.6211
  344TIP3    H2 1039   5.778   3.796   4.576  0.7662 -0.7450 -1.2931
  345TIP3   OH2 1040   3.224   0.162   1.594 -0.3318  0.4520  0.1864
  345TIP3    H1 1041   3.231   0.125   1.506  1.7708  0.3575  0.3354
  345TIP3    H2 1042   3.152   0.113   1.635 -1.0824  0.2422 -1.3431
  346TIP3   OH2 1043   2.904   3.708   3.934  0.7133  0.5389 -0.6382
  346TIP3    H1 1044   2.970   3.743   3.875  0.2941  0.3599 -1.2212
  346TIP3    H2 1045   2.893   3.617   3.907  1.2636  0.1504  0.3918
  347TIP3   OH2 1046   6.068   3.378   1.038 -0.7987 -0.0781 -0.3071
  347TIP3    H1 1047   6.109   3.347   1.118 -0.8879  1.5434  0.4078
  347TIP3    H2 1048   6.138   3.419   0.988 -0.8855 -0.4219 -0.7184
  348TIP3   OH2 1049   6.205   3.745   2.898 -0.3320  0.3377 -0.2934
  348TIP3    H1 1050   6.231   3.663   2.940 -1.4675 -0.1712 -0.5359
  348TIP3    H2 1051   6.285   3.797   2.895  0.2368 -0.4595  0.5589
  349TIP3   OH2 1052   3.991   0.168   3.156  0.2777  0.0187 -0.0689
  349TIP3    H1 1053   3.906   0.130   3.132  0.7413  0.0579 -1.9227
  349TIP3    H2 1054   3.976   0.263   3.152  0.9529  0.0921 -2.8483
  350TIP3   OH2 1055   5.230   2.104   2.122  0.0933 -0.5297  0.1525
  350TIP3    H1 1056   5.196   2.185   2.085 -0.6553 -1.6539 -1.8151
  350TIP3    H2 1057   5.253   2.051   2.045 -1.7203 -3.1328  1.2452
  351TIP3   OH2 1058   2.204   4.149   3.640 -0.1076 -0.4444 -0.1177
  351TIP3    H1 1059   2.183   4.222   3.582 -0.2416  1.2641  1.9641
  351TIP3    H2 1060   2.288   4.117   3.608  0.9176  1.8990 -0.0014
  352TIP3   OH2 1061   0.247   2.108   1.030 -0.1930 -0.8281  0.3261
  352TIP3    H1 1062   0.318   2.046   1.046  0.8178  0.0015 -0.6891
  352TIP3    H2 1063   0.260   2.177   1.095  1.0638  0.2019 -0.9306
  353TIP3   OH2 1064   1.065   4.069   2.841 -0.0119 -0.0232 -0.0042
  353TIP3    H1 1065   0.988   4.040   2.889  0.0481 -1.2487 -0.5973
  353TIP3    H2 1066   1.136   4.068   2.905 -0.0428 -1.1118  0.0328
  354TIP3   OH2 1067   4.347   3.683   5.129 -0.1078  0.2581  0.6890
  354TIP3    H1 1068   4.342   3.596   5.091  1.3363  0.8059 -0.9180
  354TIP3    H2 1069   4.302   3.676   5.213 -0.8654 -1.7659  0.1614
  355TIP3   OH2 1070   0.344   0.407   2.002  0.1256 -0.5207 -0.0151
  355TIP3    H1 1071   0.256   0.371   2.013  0.1773 -0.8623 -0.6795
  355TIP3    H2 1072   0.403   0.333   2.011  0.2620 -0.5316 -0.8552
  356TIP3   OH2 1073   5.696   0.108   1.032 -0.3775 -0.0320 -0.1510
  356TIP3    H1 1074   5.752   0.183   1.014 -1.1686  0.5522 -0.2732
  356TIP3    H2 1075   5.743   0.033   0.996 -0.4317  0.6688 -1.7931
  357TIP3   OH2 1076   3.041   0.102   0.312 -0.1314 -0.2267  0.0047
  357TIP3    H1 1077   2.986   0.092   0.234  0.1191 -0.1867 -0.1770
  357TIP3    H2 1078   2.982   0.081   0.385 -0.6510  0.7289 -0.1252
  358TIP3   OH2 1079   6.312   5.205   0.591  0.0490 -0.5755 -0.7735
  358TIP3    H1 1080   6.332   5.171   0.503 -0.6960 -0.7586 -0.8742
  358TIP3    H2 1081   6.377   5.162   0.648  1.0750  0.1697 -1.3390
  359TIP3   OH2 1082   2.643   1.681   3.549 -0.4587  0.3928  0.0998
  359TIP3    H1 1083   2.682   1.661   3.634 -1.5818  0.0780  0.5537
  359TIP3    H2 1084   2.549   1.668   3.561 -0.5008 -1.6093 -1.6886
  360TIP3   OH2 1085   3.690   0.111   4.573  0.7394 -0.4396  0.1272
  360TIP3    H1 1086   3.681   0.191   4.626 -1.9688 -0.8052  0.3448
  360TIP3    H2 1087   3.728   0.047   4.633 -0.9501 -0.4415  1.2785
  361TIP3   OH2 1088   0.295   5.666   2.668 -0.8690 -0.0169 -0.4477
  361TIP3    H1 1089   0.361   5.647   2.601 -2.0653 -0.9767 -1.3898
  361TIP3    H2 1090   0.332   5.629   2.749  0.7937  1.5540 -0.4258
  362TIP3   OH2 1091   3.247   4.444   3.953  0.1991  0.3049  0.0292
  362TIP3    H1 1092   3.259   4.530   3.913  0.3943 -0.1528 -0.9447
  362TIP3    H2 1093   3.335   4.417   3.979 -0.0455  1.0126  1.7086
  363TIP3   OH2 1094   4.105   0.999   1.033 -0.4138  0.3930 -0.0236
  363TIP3    H1 1095   4.084   1.093   1.035 -0.5356  0.3609  0.3510
  363TIP3    H2 1096   4.200   0.996   1.027 -0.3485  0.5438  0.8198
  364TIP3   OH2 1097   4.278   2.077   4.818 -0.2931 -0.3360  0.1569
  364TIP3    H1 1098   4.269   2.164   4.781  0.3643 -0.0673  0.5968
  364TIP3    H2 1099   4.188   2.046   4.829 -0.5171  0.0106 -0.6233
  365TIP3   OH2 1100   5.790   3.399   5.222  0.2407 -0.1706  1.2407
  365TIP3    H1 1101   5.834   3.464   5.167  0.7478  1.1540  3.0916
  365TIP3    H2 1102   5.760   3.331   5.161 -2.6635  2.9713 -1.2809
  366TIP3   OH2 1103   5.506   0.592   4.406  0.1703  0.0459 -0.8879
  366TIP3    H1 1104   5.600   0.584   4.421  0.0169 -0.6243 -0.1665
  366TIP3    H2 1105   5.490   0.685   4.398  0.8112  0.2103 -0.3642
  367TIP3   OH2 1106   4.056   4.040   4.489  0.1744 -0.2962 -0.7323
  367TIP3    H1 1107   4.024   4.064   4.577  0.6766  1.7020 -1.0582
  367TIP3    H2 1108   4.148   4.065   4.490  0.0829  0.1319 -1.9489
  368TIP3   OH2 1109   5.130   0.903   4.159 -0.2244 -0.1809 -0.2097
  368TIP3    H1 1110   5.223   0.902   4.133  0.4803 -0.9349  2.0942
  368TIP3    H2 1111   5.113   0.995   4.179  0.7175 -0.3222  1.4403
  369TIP3   OH2 1112   5.799   5.835   4.806  0.5632  0.1226  0.3158
  369TIP3    H1 1113   5.730   5.827   4.872 -0.1389  0.2513 -0.3829
  369TIP3    H2 1114   5.871   5.782   4.839  0.6745  1.1150  1.7519
  370TIP3   OH2 1115   1.734   1.474   0.720  0.1874  0.2156  0.3063
  370TIP3    H1 1116   1.799   1.434   0.778  0.4145  2.1363  1.4335
  370TIP3    H2 1117   1.784   1.538   0.669 -0.6519  1.1141  0.5880
  371TIP3   OH2 1118   0.731   1.618   1.365 -0.1200 -0.0884 -0.2799
  371TIP3    H1 1119   0.758   1.707   1.387  0.6390  0.0202 -1.5317
  371TIP3    H2 1120   0.656   1.629   1.306 -1.8050 -0.3614  1.7018
  372TIP3   OH2 1121   0.808   1.298   2.321  0.2412  0.0104  0.0939
  372TIP3    H1 1122   0.793   1.380   2.369  3.4900  1.8822 -1.7022
  372TIP3    H2 1123   0.886   1.261   2.362 -0.8917 -2.0298  0.5352
  373TIP3   OH2 1124   1.784   3.126   4.249 -0.1294  0.3232 -0.1321
  373TIP3    H1 1125   1.714   3.157   4.191  1.6132  0.6633 -2.1605
  373TIP3    H2 1126   1.861   3.177   4.224  1.4474 -1.6805  0.3480
  374TIP3   OH2 1127   3.166   5.638   0.597  0.6309  0.0743  0.2889
  374TIP3    H1 1128   3.196   5.656   0.686  0.8258 -0.3639  0.3130
  374TIP3    H2 1129   3.114   5.715   0.574 -0.0423 -0.1282  1.0569
  375TIP3   OH2 1130   4.940   1.982   5.097  0.0074 -0.2084 -0.6256
  375TIP3    H1 1131   4.941   1.897   5.142  0.6968 -0.3664 -0.9229
  375TIP3    H2 1132   4.884   2.037   5.151 -1.5221 -1.2117 -1.1123
  376TIP3   OH2 1133   5.816   5.864   4.524  0.0874  0.1515  0.5505
  376TIP3    H1 1134   5.856   5.779   4.510 -0.1816  0.1593 -0.3216
  376TIP3    H2 1135   5.785   5.861   4.614 -0.3479 -0.8610  0.3812
  377TIP3   OH2 1136   4.678   0.602   3.151  0.0750  0.1126  0.4791
  377TIP3    H1 1137   4.760   0.641   3.119 -0.0397  1.5049  1.7653
  377TIP3    H2 1138   4.705   0.521   3.193  0.9251  0.9307  1.5654
  378TIP3   OH2 1139   3.062   2.289   4.631 -0.2536  0.2623 -0.2983
  378TIP3    H1 1140   3.052   2.195   4.649 -0.1478  0.5742  1.5823
  378TIP3    H2 1141   3.149   2.310   4.666 -0.0516  0.9639 -1.2042
  379TIP3   OH2 1142   2.866   5.761   0.270 -0.3504  0.0781 -0.1688
  379TIP3    H1 1143   2.939   5.701   0.252  1.8566  2.0599  1.4870
  379TIP3    H2 1144   2.813   5.758   0.190 -0.7503 -4.3848  0.0192
  380TIP3   OH2 1145   1.985   4.739   0.180 -0.1506 -0.0200  0.1601
  380TIP3    H1 1146   1.941   4.760   0.262  1.6086  1.4880  0.7773
  380TIP3    H2 1147   2.075   4.768   0.192  0.3893 -0.6042 -1.9803
  381TIP3   OH2 1148   3.363   5.673   2.408  0.1754 -0.0437  0.2511
  381TIP3    H1 1149   3.356   5.584   2.442  1.6691  0.0017  0.7278
  381TIP3    H2 1150   3.456   5.687   2.395 -0.1528  0.8565 -1.4825
  382TIP3   OH2 1151   1.890   5.230   4.800 -0.4877  0.4526 -0.6306
  382TIP3    H1 1152   1.804   5.271   4.795 -0.1776  1.0496 -1.1172
  382TIP3    H2 1153   1.898   5.181   4.719 -0.5955 -0.0772 -0.3298
  383TIP3   OH2 1154   2.985   4.425   4.045 -0.3569  0.1989 -0.0235
  383TIP3    H1 1155   3.072   4.424   4.006 -0.6492  2.1195 -0.8524
  383TIP3    H2 1156   2.974   4.338   4.082  1.6339 -0.3083 -0.5061
  384TIP3   OH2 1157   4.244   2.702   3.080 -0.2722  0.0641  0.1163
  384TIP3    H1 1158   4.338   2.714   3.068 -0.4349  4.5187  1.3968
  384TIP3    H2 1159   4.234   2.688   3.174 -0.9184  0.2955  0.0877
  385TIP3   OH2 1160   1.167   0.175   2.902 -0.0797  0.2823  0.3800
  385TIP3    H1 1161   1.137   0.246   2.959  1.3150  0.7145  0.6274
  385TIP3    H2 1162   1.097   0.109   2.906 -0.1067  0.3742  2.4685
  386TIP3   OH2 1163   0.779   4.166   3.948  0.3469 -0.1301 -0.1759
  386TIP3    H1 1164   0.779   4.156   4.043 -1.4045  0.6698 -0.0677
  386TIP3    H2 1165   0.849   4.229   3.931  0.8756 -0.4998  0.5244
  387TIP3   OH2 1166   4.589   0.911   2.587  0.4099 -0.4651 -0.9551
  387TIP3    H1 1167   4.511   0.942   2.633  1.5339  2.2927 -0.7093
  387TIP3    H2 1168   4.562   0.828   2.547 -2.1743 -0.3351  0.3031
  388TIP3   OH2 1169   6.341   3.848   2.341 -0.7269  0.0781  0.3492
  388TIP3    H1 1170   6.273   3.860   2.407 -0.9509 -0.9923  0.3299
  388TIP3    H2 1171   6.296   3.807   2.267 -0.4502  1.1312 -0.4246
  389TIP3   OH2 1172   5.181   3.650   0.430 -0.1698 -0.2299 -0.2068
  389TIP3    H1 1173   5.194   3.726   0.487 -2.4901 -1.1211  1.6790
  389TIP3    H2 1174   5.182   3.575   0.489  1.4026 -1.6566 -1.9382
  390TIP3   OH2 1175   2.587   1.356   2.088 -0.4108  0.3654 -0.5690
  390TIP3    H1 1176   2.672   1.391   2.114 -0.8401  0.8753  0.1918
  390TIP3    H2 1177   2.607   1.272   2.047  0.4469  0.4207 -0.2845
  391TIP3   OH2 1178   6.180   3.468   3.892  0.3629 -0.2086 -0.0800
  391TIP3    H1 1179   6.229   3.550   3.891  1.9381 -1.1056  0.6680
  391TIP3    H2 1180   6.133   3.470   3.976 -1.0800  0.7240 -0.8677
  392TIP3   OH2 1181   6.283   1.445   0.140  0.6329 -0.2900 -0.1725
  392TIP3    H1 1182   6.260   1.436   0.233 -0.4798 -1.4028 -0.5363
  392TIP3    H2 1183   6.353   1.382   0.127  1.7780  0.8636  0.2093
  393TIP3   OH2 1184   3.493   0.813  -0.016  0.0328 -0.1760  0.2072
  393TIP3    H1 1185   3.586   0.826   0.006 -0.5102  0.0286  2.6530
  393TIP3    H2 1186   3.450   0.800   0.069 -2.1377 -0.6623 -0.9014
  394TIP3   OH2 1187   5.675   4.672   4.693 -0.2530  0.3014 -0.2339
  394TIP3    H1 1188   5.625   4.597   4.726  1.5195 -0.5421  0.6472
  394TIP3    H2 1189   5.671   4.737   4.763 -1.4174  0.9111 -0.8224
  395TIP3   OH2 1190   4.949   4.394   0.163  0.1595 -0.1779  0.8297
  395TIP3    H1 1191   4.863   4.420   0.128  0.0060 -0.4949  0.9663
  395TIP3    H2 1192   4.937   4.397   0.258  0.3336 -0.1204  0.8494
  396TIP3   OH2 1193   2.774   2.013   2.838  0.6661 -0.2968  0.7212
  396TIP3    H1 1194   2.753   1.979   2.925  2.3738 -1.9378  0.5829
  396TIP3    H2 1195   2.693   2.003   2.788  0.1280 -0.9147  1.6804
  397TIP3   OH2 1196   5.268   0.999   0.955 -0.3223  0.2198  0.3417
  397TIP3    H1 1197   5.178   1.005   0.923 -0.6733  0.6975  1.3848
  397TIP3    H2 1198   5.293   1.089   0.974  0.9054  0.2571 -1.2961
  398TIP3   OH2 1199   2.791   1.465   1.057  0.1633 -0.1079 -0.0745
  398TIP3    H1 1200   2.813   1.467   1.150 -0.9658 -0.2932  0.2165
  398TIP3    H2 1201   2.841   1.537   1.019  0.8485 -0.2035  0.6249
  399TIP3   OH2 1202   2.612   3.524   0.716  0.6613 -0.1684  0.0148
  399TIP3    H1 1203   2.537   3.468   0.697 -0.3860  0.3344  2.3495
  399TIP3    H2 1204   2.668   3.471   0.773  0.7591  0.3775  0.4375
  400TIP3   OH2 1205   1.699   4.079   1.752  0.0327  0.0391  0.1668
  400TIP3    H1 1206   1.740   4.162   1.728  0.7118 -0.2760  0.2083
  400TIP3    H2 1207   1.713   4.023   1.675 -0.9527  0.1451 -0.1006
  401TIP3   OH2 1208   2.016   4.649   2.658  0.1239  0.5774  0.3639
  401TIP3    H1 1209   1.973   4.722   2.615 -0.6660 -0.9229 -1.5376
  401TIP3    H2 1210   2.070   4.609   2.590 -0.6241 -1.4665  0.8829
  402TIP3   OH2 1211   1.335   4.111   1.228 -0.7125 -0.0120 -0.1317
  402TIP3    H1 1212   1.353   4.045   1.296 -0.9905  0.2689  0.2173
  402TIP3    H2 1213   1.416   4.161   1.221 -0.7353  0.0587  0.1057
  403TIP3   OH2 1214   2.910   5.803   4.603 -0.0155  0.6897 -0.0100
  403TIP3    H1 1215   2.941   5.834   4.688  1.5417  2.2125 -1.0680
  403TIP3    H2 1216   2.952   5.718   4.592 -0.3156  0.4260  0.7463
  404TIP3   OH2 1217   5.860   4.440   1.805 -0.7669 -0.2973  0.4404
  404TIP3    H1 1218   5.890   4.435   1.896  0.2402 -0.3421  0.1141
  404TIP3    H2 1219   5.939   4.458   1.755 -1.2513 -0.6602 -0.4700
  405TIP3   OH2 1220   2.062   2.319   0.499  0.1755  0.3890  0.6268
  405TIP3    H1 1221   2.053   2.356   0.411 -0.4740  2.0349  1.3428
  405TIP3    H2 1222   2.030   2.230   0.492 -0.5425  0.7372 -0.6533
  406TIP3   OH2 1223   2.686   0.800   4.764  0.0338 -0.5434  0.1650
  406TIP3    H1 1224   2.604   0.813   4.717  1.4704  2.4265 -1.8540
  406TIP3    H2 1225   2.735   0.738   4.710  0.8386  1.2680 -1.3593
  407TIP3   OH2 1226   2.530   1.374   1.053  0.1439  0.3851 -0.0248
  407TIP3    H1 1227   2.622   1.397   1.040  0.0653  0.6351 -0.1363
  407TIP3    H2 1228   2.482   1.456   1.041 -0.3042 -0.1353 -2.2151
  408TIP3   OH2 1229   1.213   3.208   1.066  0.0510  0.0142  0.3599
  408TIP3    H1 1230   1.267   3.136   1.034 -0.7465 -0.6610  0.4863
  408TIP3    H2 1231   1.192   3.259   0.988 -0.8681 -0.9235 -0.0378
  409TIP3   OH2 1232   0.710   2.305   2.851 -0.0735  0.2046 -0.0173
  409TIP3    H1 1233   0.644   2.270   2.911 -0.4958 -0.5525 -0.9081
  409TIP3    H2 1234   0.659   2.348   2.782  0.4054  0.8578  0.0244
  410TIP3   OH2 1235   3.121   5.069   0.515 -0.3124  0.0950  0.3845
  410TIP3    H1 1236   3.139   4.979   0.541 -2.0795  0.6392  4.1501
  410TIP3    H2 1237   3.028   5.069   0.491 -0.1390  0.7803 -0.3360
  411TIP3   OH2 1238   2.083   4.563   3.131 -1.0496  0.2382  0.0411
  411TIP3    H1 1239   2.068   4.609   3.213 -0.5820  1.2882 -0.4441
  411TIP3    H2 1240   2.050   4.621   3.063  1.1675  0.7230 -0.7220
  412TIP3   OH2 1241   0.882   3.237   2.139 -0.7109  0.0331 -0.3347
  412TIP3    H1 1242   0.923   3.311   2.183 -0.1580  0.7129 -1.9414
  412TIP3    H2 1243   0.879   3.168   2.206 -1.3775  1.5107  1.2421
  413TIP3   OH2 1244   3.010   1.927   2.724  0.1769  0.0267  0.9010
  413TIP3    H1 1245   3.041   1.892   2.807  0.3513 -3.3446 -0.4072
  413TIP3    H2 1246   2.919   1.952   2.741  0.5013  0.3165  2.3119
  414TIP3   OH2 1247   6.147   1.058   1.709 -0.1384 -0.5901 -0.1884
  414TIP3    H1 1248   6.109   1.141   1.738  1.0928 -0.3440  0.8117
  414TIP3    H2 1249   6.072   1.006   1.682 -0.8405  1.4929 -2.7102
  415TIP3   OH2 1250   0.754   3.332   3.413 -0.2895  0.3926  0.2518
  415TIP3    H1 1251   0.695   3.279   3.466 -0.2350  0.1880  0.1062
  415TIP3    H2 1252   0.700   3.366   3.342  0.0786 -0.9718 -0.7151
  416TIP3   OH2 1253   4.947   4.002   2.094  0.1694  0.1488  0.1197
  416TIP3    H1 1254   5.009   3.941   2.053 -0.9837 -2.0673  1.4931
  416TIP3    H2 1255   4.866   3.992   2.043  0.7884  2.9746 -1.6229
  417TIP3   OH2 1256   2.280   0.435   3.999 -0.4355 -0.5908 -0.0068
  417TIP3    H1 1257   2.331   0.386   3.934  1.2261 -1.4719  1.8548
  417TIP3    H2 1258   2.286   0.383   4.079 -0.3285  1.6233  1.5248
  418TIP3   OH2 1259   1.870   0.850   2.266 -0.1203  0.2128  0.4431
  418TIP3    H1 1260   1.931   0.913   2.227 -1.3474  2.2417  1.5772
  418TIP3    H2 1261   1.827   0.808   2.192  0.2649  1.2241 -0.3750
  419TIP3   OH2 1262   1.491   2.943   1.868  0.0068 -0.0780 -0.7275
  419TIP3    H1 1263   1.498   2.871   1.930 -0.1313 -0.9906 -1.7446
  419TIP3    H2 1264   1.412   2.990   1.893  1.7695  1.6987  1.9493
  420TIP3   OH2 1265   2.546   1.151   2.734  0.5669 -0.0515  0.1950
  420TIP3    H1 1266   2.486   1.210   2.779 -1.0776 -1.8143  0.4733
  420TIP3    H2 1267   2.540   1.069   2.784  1.3402 -1.0154 -1.2299
  421TIP3   OH2 1268   4.129   4.609   4.553  0.2849  0.4590  0.0837
  421TIP3    H1 1269   4.146   4.687   4.500  1.2856  0.2421  0.0588
  421TIP3    H2 1270   4.154   4.634   4.642 -0.7080  0.5906  0.3406
  422TIP3   OH2 1271   2.897   4.899   5.156  0.1658 -0.5493 -0.1711
  422TIP3    H1 1272   2.816   4.949   5.155 -0.4954 -1.5761  0.2674
  422TIP3    H2 1273   2.893   4.848   5.238  1.0004 -0.9965 -0.3932
  423TIP3   OH2 1274   4.410   4.655   3.982 -0.2848 -0.9663 -0.3618
  423TIP3    H1 1275   4.470   4.637   3.909 -1.8469  1.4545 -2.4030
  423TIP3    H2 1276   4.354   4.726   3.950 -0.9529  0.3608  3.3131
  424TIP3   OH2 1277   4.181   3.146   3.013 -0.2016  0.0635  0.1264
  424TIP3    H1 1278   4.268   3.110   2.992 -1.0204 -1.2521 -1.2310
  424TIP3    H2 1279   4.196   3.240   3.022  1.7447 -0.3491  2.1229
  425TIP3   OH2 1280   5.986   1.298   1.997  0.3771  0.4022 -0.0605
  425TIP3    H1 1281   5.968   1.389   2.023  0.9903  1.2502 -2.3834
  425TIP3    H2 1282   6.067   1.303   1.947 -0.1751 -1.2257 -1.2114
  426TIP3   OH2 1283   4.396   1.306   1.108  0.3475 -0.2201 -0.0413
  426TIP3    H1 1284   4.470   1.350   1.067 -0.9145  0.7557 -1.4046
  426TIP3    H2 1285   4.393   1.219   1.069  0.8666 -0.3279  0.1563
  427TIP3   OH2 1286   6.314   5.334   2.386  0.0540 -0.2041 -0.3129
  427TIP3    H1 1287   6.275   5.376   2.462 -1.2037 -0.2681 -0.9059
  427TIP3    H2 1288   6.280   5.383   2.311 -0.5416 -1.5492 -0.9547
  428TIP3   OH2 1289   4.421   3.817   3.770 -0.1824 -0.3076 -0.1888
  428TIP3    H1 1290   4.349   3.759   3.747  0.0508  0.0967 -2.1085
  428TIP3    H2 1291   4.426   3.879   3.697  1.7807 -0.0109  0.1434
  429TIP3   OH2 1292   5.377   2.804   1.443 -0.6706 -0.5532  0.1717
  429TIP3    H1 1293   5.395   2.825   1.352 -0.3569 -1.5849 -0.0135
  429TIP3    H2 1294   5.282   2.808   1.451 -0.6992 -0.4805 -0.2049
  430TIP3   OH2 1295   1.920   1.556   1.052 -0.1807 -0.0577 -0.0836
  430TIP3    H1 1296   1.838   1.599   1.077 -0.1501 -1.2473  2.2671
  430TIP3    H2 1297   1.989   1.615   1.083 -0.1219  0.2332 -0.7434
  431TIP3   OH2 1298   3.835   5.703   2.055  0.4092  0.8134 -0.3158
  431TIP3    H1 1299   3.789   5.621   2.074  1.3709  0.1312 -0.8467
  431TIP3    H2 1300   3.927   5.682   2.067  0.8902  1.0820 -2.9338
  432TIP3   OH2 1301   0.927   5.176   4.287  0.1070  0.9669 -0.0895
  432TIP3    H1 1302   0.981   5.105   4.252 -0.8995  0.0710  0.0899
  432TIP3    H2 1303   0.845   5.170   4.237  0.2791  2.5266 -0.6226
  433TIP3   OH2 1304   4.965   2.310   2.701  0.1494 -0.7333  0.2921
  433TIP3    H1 1305   4.966   2.322   2.796  0.1417  0.2434  0.1712
  433TIP3    H2 1306   5.056   2.324   2.674  0.9687 -4.4582  0.5288
  434TIP3   OH2 1307   4.144   1.987   1.295  0.1267 -0.4068  0.1322
  434TIP3    H1 1308   4.054   1.974   1.265 -0.2206  0.9884  0.4889
  434TIP3    H2 1309   4.179   2.054   1.237  0.0610  0.9559  1.6076
  435TIP3   OH2 1310   2.017   1.788   4.758 -0.3960  0.7498 -0.0940
  435TIP3    H1 1311   1.981   1.773   4.670 -1.6318 -1.4092  0.7014
  435TIP3    H2 1312   2.025   1.883   4.765 -1.6536  1.0551 -2.0225
  436TIP3   OH2 1313   0.273   3.511   4.812  0.4754  0.1026 -0.3747
  436TIP3    H1 1314   0.186   3.525   4.777  1.4441  0.8441 -2.6568
  436TIP3    H2 1315   0.262   3.442   4.878 -1.4652 -1.3688 -2.1261
  437TIP3   OH2 1316   3.291   3.512   5.016  0.1524  0.6171  0.1028
  437TIP3    H1 1317   3.331   3.596   4.994 -1.1797  1.0992 -0.5299
  437TIP3    H2 1318   3.309   3.501   5.109  1.3191  1.0493 -0.0543
  438TIP3   OH2 1319   4.371   4.672   2.490  0.4092  0.2188  0.5379
  438TIP3    H1 1320   4.329   4.684   2.575 -0.4233  2.6615 -0.1218
  438TIP3    H2 1321   4.299   4.658   2.429  0.8748  0.1519 -0.0045
  439TIP3   OH2 1322   6.032   3.672   2.374  0.0454  0.1126  0.0944
  439TIP3    H1 1323   6.022   3.595   2.431 -3.1873 -0.2710 -0.7879
  439TIP3    H2 1324   6.074   3.737   2.429 -0.9567 -0.9600  2.2636
  440TIP3   OH2 1325   4.997   0.447   0.112 -0.2745 -0.3649 -0.4225
  440TIP3    H1 1326   4.990   0.358   0.078  1.6162 -0.8023  0.2262
  440TIP3    H2 1327   4.915   0.489   0.086 -1.1375 -2.2334 -0.8790
  441TIP3   OH2 1328   5.711   3.419   0.707 -0.2383  0.3320 -0.0763
  441TIP3    H1 1329   5.680   3.397   0.794  0.3678  0.3647  0.1515
  441TIP3    H2 1330   5.691   3.342   0.653 -0.3948  0.2171  0.1483
  442TIP3   OH2 1331   3.897   2.373   3.724  0.1966 -0.3198 -0.3807
  442TIP3    H1 1332   3.854   2.422   3.655 -1.8353  2.0609  2.3072
  442TIP3    H2 1333   3.850   2.289   3.727  0.5767 -0.6242 -2.0373
  443TIP3   OH2 1334   3.740   0.889   1.637  0.1579  0.2478  0.6239
  443TIP3    H1 1335   3.796   0.963   1.659  0.2285  0.4127 -0.0655
  443TIP3    H2 1336   3.797   0.829   1.589  0.2781 -0.5895  1.7985
  444TIP3   OH2 1337   4.600   0.622   1.936  0.0759  0.6027 -0.0244
  444TIP3    H1 1338   4.623   0.712   1.958  0.2769  0.4239  0.5121
  444TIP3    H2 1339   4.684   0.579   1.922 -0.0207  0.5045 -0.3128
  445TIP3   OH2 1340   3.993   1.044   3.762  0.3625  1.2830 -0.4837
  445TIP3    H1 1341   3.941   1.119   3.792 -0.3647  1.7347 -2.7040
  445TIP3    H2 1342   3.975   0.976   3.827 -1.1878  2.1573  0.0745
  446TIP3   OH2 1343   4.378   4.314   3.000  0.0634 -0.9974 -0.2825
  446TIP3    H1 1344   4.320   4.239   3.007 -2.4547  0.7696 -0.8008
  446TIP3    H2 1345   4.439   4.291   2.930 -2.0609 -1.7348 -2.0095
  447TIP3   OH2 1346   3.288   2.254   0.670  0.3599 -0.5169 -0.5440
  447TIP3    H1 1347   3.336   2.299   0.602  0.0568 -2.6498 -2.2787
  447TIP3    H2 1348   3.226   2.319   0.703  1.6531  1.0526 -1.0986
  448TIP3   OH2 1349   4.667   0.493   1.257 -0.1082 -0.3306  0.5968
  448TIP3    H1 1350   4.727   0.541   1.314 -0.7865 -0.6922  1.6365
  448TIP3    H2 1351   4.690   0.401   1.268  0.5928 -0.3330 -0.7052
  449TIP3   OH2 1352   0.060   5.890   3.367  0.1099  0.3966  0.5228
  449TIP3    H1 1353   0.098   5.955   3.426 -1.8686  0.8780  1.3731
  449TIP3    H2 1354  -0.035   5.903   3.375 -0.2975 -1.3718 -0.6963
  450TIP3   OH2 1355   3.417   0.598   2.243 -0.3388 -0.2633 -0.2772
  450TIP3    H1 1356   3.485   0.606   2.310 -0.9766  1.0831  0.2391
  450TIP3    H2 1357   3.448   0.528   2.185  0.8739 -0.5166  0.6474
  451TIP3   OH2 1358   5.448   2.403   0.998 -0.0094  0.1150 -0.1742
  451TIP3    H1 1359   5.418   2.467   1.063  1.0237 -0.3274  0.7874
  451TIP3    H2 1360   5.414   2.319   1.031 -0.1692 -0.0096 -0.6558
  452TIP3   OH2 1361   2.542   0.806   2.495  0.6927  0.1850 -0.3549
  452TIP3    H1 1362   2.578   0.756   2.421  0.4839 -0.4976 -0.0023
  452TIP3    H2 1363   2.509   0.887   2.455  1.4666  0.2623 -0.8632
  453TIP3   OH2 1364   0.074   4.315   1.580  0.2104  0.0344  0.3282
  453TIP3    H1 1365   0.042   4.226   1.571  0.1476  0.1018 -0.1289
  453TIP3    H2 1366   0.165   4.311   1.551  0.1313  0.1694  0.0587
  454TIP3   OH2 1367   0.509   1.025   2.174 -0.3675  0.5171  0.0218
  454TIP3    H1 1368   0.594   0.982   2.166  0.2335  1.8499 -1.1822
  454TIP3    H2 1369   0.460   0.971   2.235  0.7852 -1.1638 -0.4884
  455TIP3   OH2 1370   3.591   5.049   3.054  0.2830  0.6584 -0.1391
  455TIP3    H1 1371   3.572   5.142   3.042 -1.0807  0.4721  0.3648
  455TIP3    H2 1372   3.641   5.024   2.976 -0.5874  1.4846 -0.9867
  456TIP3   OH2 1373   2.317   0.028   4.440  0.3651 -0.0336 -0.2261
  456TIP3    H1 1374   2.246  -0.017   4.394  0.5524  0.8753 -1.4517
  456TIP3    H2 1375   2.288   0.032   4.531  1.1058 -4.1522  0.3693
  457TIP3   OH2 1376   5.241   0.614   4.060  0.1218  0.7472 -0.0258
  457TIP3    H1 1377   5.155   0.574   4.046  0.4337  0.9988 -3.9491
  457TIP3    H2 1378   5.286   0.555   4.120 -1.6163 -1.3148 -0.6224
  458TIP3   OH2 1379   4.337   5.617   4.745 -0.3802 -0.2355  0.3123
  458TIP3    H1 1380   4.344   5.525   4.718  0.0619 -0.1108 -0.0245
  458TIP3    H2 1381   4.253   5.623   4.789 -1.4557 -0.3129 -1.6384
  459TIP3   OH2 1382   1.461   4.069   2.389  0.2619  0.4270 -0.0709
  459TIP3    H1 1383   1.539   4.025   2.421 -2.0575 -1.5073  3.5593
  459TIP3    H2 1384   1.444   4.029   2.304  1.8350 -0.9017  0.1929
  460TIP3   OH2 1385   1.513   5.460   1.643  0.4067  0.0821 -0.4496
  460TIP3    H1 1386   1.546   5.547   1.621  0.5675 -0.0090 -0.5737
  460TIP3    H2 1387   1.543   5.445   1.733  0.4780  0.1064 -0.4694
  461TIP3   OH2 1388   3.133   2.007   5.068  0.4827 -0.8604  0.3765
  461TIP3    H1 1389   3.147   2.049   4.983 -1.2323  1.3711  1.0835
  461TIP3    H2 1390   3.218   2.011   5.111  1.0602 -0.8379 -0.7352
  462TIP3   OH2 1391   0.625   3.637   3.762 -0.0203  1.0082  0.5687
  462TIP3    H1 1392   0.565   3.600   3.826 -0.2241 -0.1254 -0.2647
  462TIP3    H2 1393   0.674   3.563   3.728 -0.2741  1.4985 -0.9704
  463TIP3   OH2 1394   2.292   1.437   5.047  0.0173  0.4062 -0.5531
  463TIP3    H1 1395   2.283   1.524   5.085  0.1206 -0.2811  1.1317
  463TIP3    H2 1396   2.208   1.421   5.003 -0.9651  0.4141  1.2248
  464TIP3   OH2 1397   2.437   1.540   1.897 -0.0923 -0.7528 -0.2545
  464TIP3    H1 1398   2.354   1.493   1.905  0.2376 -1.7897 -2.2876
  464TIP3    H2 1399   2.502   1.481   1.935 -0.0424 -0.7242 -0.2948
  465TIP3   OH2 1400   4.739   5.856   4.716 -0.6533 -0.2160  0.4667
  465TIP3    H1 1401   4.729   5.831   4.625 -2.0726  1.7350  0.0298
  465TIP3    H2 1402   4.805   5.796   4.750 -0.1356 -1.0317 -1.8108
  466TIP3   OH2 1403   2.457   4.769   2.097 -0.0805 -0.1298  0.4801
  466TIP3    H1 1404   2.511   4.735   2.168 -0.5469 -1.6247  0.1658
  466TIP3    H2 1405   2.367   4.748   2.123 -0.3724  0.6273  0.1210
  467TIP3   OH2 1406   2.699   3.236   0.407 -0.2217 -0.1885  0.1940
  467TIP3    H1 1407   2.743   3.284   0.477 -0.0513  0.9268 -0.6453
  467TIP3    H2 1408   2.608   3.230   0.436  0.1044 -0.9451  1.1195
  468TIP3   OH2 1409   4.411   4.351   3.603 -0.2098  0.0150 -0.3428
  468TIP3    H1 1410   4.381   4.265   3.576 -0.3658  0.4714 -1.6959
  468TIP3    H2 1411   4.466   4.382   3.530  0.9151  0.5277  0.6735
  469TIP3   OH2 1412   4.962   3.768   0.300  0.2253 -0.2583  0.9215
  469TIP3    H1 1413   4.941   3.816   0.380  1.6510  0.6541  0.7775
  469TIP3    H2 1414   5.029   3.705   0.327  0.9140  0.2469  0.3838
  470TIP3   OH2 1415   1.685   1.128   3.292 -0.1910 -0.3158  0.3019
  470TIP3    H1 1416   1.710   1.184   3.365  0.8539 -0.7376  0.2833
  470TIP3    H2 1417   1.620   1.179   3.243  0.5001  0.7359  0.4601
  471TIP3   OH2 1418   0.919   3.103   2.402 -0.4104  0.1547  0.4522
  471TIP3    H1 1419   0.969   3.023   2.392 -0.7209 -0.0512  0.5366
  471TIP3    H2 1420   0.834   3.075   2.436 -0.1819  0.6085  1.4370
  472TIP3   OH2 1421   5.808   3.907   0.115 -0.0343 -0.0195  0.1452
  472TIP3    H1 1422   5.737   3.955   0.158  1.0345  0.7803  1.0537
  472TIP3    H2 1423   5.883   3.917   0.173  0.7148 -1.2706 -0.5580
  473TIP3   OH2 1424   2.390   0.759   4.354  0.0944 -0.5063  0.6793
  473TIP3    H1 1425   2.309   0.708   4.352  0.5776 -1.2759  0.0892
  473TIP3    H2 1426   2.441   0.726   4.280  0.4365  0.8378  0.2920
  474TIP3   OH2 1427   3.931   0.233   3.576  0.1850 -0.7244  0.2311
  474TIP3    H1 1428   3.966   0.146   3.558  0.6321  0.0023 -2.9085
  474TIP3    H2 1429   3.837   0.224   3.560  0.2718 -0.5858 -0.3795
  475TIP3   OH2 1430   0.529   4.476   3.125  0.8320  0.6203 -0.4220
  475TIP3    H1 1431   0.447   4.506   3.163 -0.0514 -1.4445 -0.5745
  475TIP3    H2 1432   0.514   4.478   3.031  0.3092 -1.3149 -0.4190
  476TIP3   OH2 1433   5.995   3.889   1.221 -0.7691  0.0696 -0.0946
  476TIP3    H1 1434   5.942   3.818   1.260  0.4812 -0.9730 -0.2377
  476TIP3    H2 1435   6.015   3.858   1.133  0.5629  0.1786  0.1545
  477TIP3   OH2 1436   4.174   1.196   3.131  0.4327 -1.3375 -0.1843
  477TIP3    H1 1437   4.132   1.186   3.046  0.8391 -3.2326 -0.1965
  477TIP3    H2 1438   4.183   1.291   3.142 -2.1844 -0.9295 -0.9561
  478TIP3   OH2 1439   3.935   5.680   1.656 -0.1003  0.5969  0.3464
  478TIP3    H1 1440   3.888   5.598   1.639  0.5101  0.3198 -0.0452
  478TIP3    H2 1441   4.012   5.675   1.599 -1.0855  2.3678 -1.2366
  479TIP3   OH2 1442   2.849   1.457   4.182 -0.4444 -0.0875 -0.5318
  479TIP3    H1 1443   2.811   1.402   4.113 -2.0273 -1.4555  1.3307
  479TIP3    H2 1444   2.855   1.400   4.258  0.4964  1.5832  0.7192
  480TIP3   OH2 1445   0.730   1.528   2.493 -0.3583  0.0810  0.1024
  480TIP3    H1 1446   0.676   1.518   2.572 -1.8313  2.2703 -0.5405
  480TIP3    H2 1447   0.783   1.606   2.510 -0.5549  0.4688 -0.9657
  481TIP3   OH2 1448   0.961   4.613   3.729 -0.1447 -0.0420 -0.6064
  481TIP3    H1 1449   0.901   4.567   3.671 -0.8303 -0.2877  0.2713
  481TIP3    H2 1450   0.979   4.696   3.686  0.5824 -0.8285 -1.9034
  482TIP3   OH2 1451   5.705   2.861   0.361 -0.5459  0.2297 -0.0067
  482TIP3    H1 1452   5.733   2.790   0.419 -1.4729  0.7643  1.1417
  482TIP3    H2 1453   5.763   2.934   0.383  0.0764 -0.0111 -0.8258
  483TIP3   OH2 1454   1.213   5.400   2.549  0.0911  0.3010  0.3072
  483TIP3    H1 1455   1.290   5.444   2.511 -0.3258 -0.4952 -1.5809
  483TIP3    H2 1456   1.151   5.394   2.477 -1.2015 -0.3572  1.4271
  484TIP3   OH2 1457   5.397   5.781   3.751 -0.0738 -0.5016 -0.9231
  484TIP3    H1 1458   5.383   5.703   3.697 -1.3719 -1.3934  0.6077
  484TIP3    H2 1459   5.310   5.818   3.763  0.3022  0.1731 -0.1671
  485TIP3   OH2 1460   5.635   4.314   2.380 -0.0637  0.0956 -0.1831
  485TIP3    H1 1461   5.715   4.290   2.333  0.3181  0.0909  0.4609
  485TIP3    H2 1462   5.635   4.259   2.458 -0.5705  0.2727 -0.0527
  486TIP3   OH2 1463   5.416   0.950   3.702  0.5362 -0.3542 -0.1750
  486TIP3    H1 1464   5.491   0.999   3.666  0.7911  0.1996  1.0605
  486TIP3    H2 1465   5.363   1.016   3.746 -0.3583 -0.8495 -0.4908
  487TIP3   OH2 1466   1.011   0.242   1.215  0.1367 -0.4124  0.1097
  487TIP3    H1 1467   0.990   0.329   1.183 -0.3241  0.6177  2.9435
  487TIP3    H2 1468   0.926   0.201   1.231  0.3351 -0.5962  0.7177
  488TIP3   OH2 1469   4.673   3.210   1.403  0.7193  0.3237  0.7072
  488TIP3    H1 1470   4.752   3.172   1.441 -0.0673 -0.4909  1.5948
  488TIP3    H2 1471   4.696   3.301   1.386  1.7291  0.1921  1.2971
  489TIP3   OH2 1472   4.227   3.720   4.672 -0.6584 -0.2247  0.3596
  489TIP3    H1 1473   4.217   3.637   4.717 -1.8700  0.0614  0.6488
  489TIP3    H2 1474   4.148   3.729   4.619 -1.7163  1.7760  2.1025
  490TIP3   OH2 1475   4.133   2.211   3.613 -0.3161  0.1324  0.0388
  490TIP3    H1 1476   4.099   2.299   3.631 -0.6006 -0.1256  0.7783
  490TIP3    H2 1477   4.056   2.155   3.608 -0.1102 -0.1501 -0.0491
  491TIP3   OH2 1478   2.996   4.167   1.948  0.3077  0.0875  0.0010
  491TIP3    H1 1479   2.978   4.224   2.022 -2.1555 -1.0881  0.3859
  491TIP3    H2 1480   2.950   4.086   1.968  0.5566 -0.6823 -2.2845
  492TIP3   OH2 1481   2.687   5.053   1.083  1.2016 -0.2366 -0.3416
  492TIP3    H1 1482   2.692   5.118   1.013 -1.8293 -0.0725 -0.5426
  492TIP3    H2 1483   2.643   4.978   1.042 -0.0635 -0.3733  1.1746
  493TIP3   OH2 1484   4.730   3.326   3.064 -0.0886  0.1802  0.0695
  493TIP3    H1 1485   4.741   3.301   2.973 -0.3784 -0.8623  0.3084
  493TIP3    H2 1486   4.805   3.382   3.084  0.7668 -0.7814 -0.3901
  494TIP3   OH2 1487   0.474   3.949   0.470 -0.7209  0.2831  0.6169
  494TIP3    H1 1488   0.464   3.981   0.380 -0.9281 -1.4206  0.0001
  494TIP3    H2 1489   0.407   3.881   0.480 -0.2358 -0.0572  1.8133
  495TIP3   OH2 1490   6.298   4.740   1.257  0.1828  0.8329  0.6201
  495TIP3    H1 1491   6.233   4.729   1.326  0.3677 -2.8165  0.4407
  495TIP3    H2 1492   6.248   4.727   1.176  0.7551  0.0908  0.3772
  496TIP3   OH2 1493   2.419   0.498   0.380  0.3947 -0.2035  0.6872
  496TIP3    H1 1494   2.415   0.407   0.349 -0.6716  0.2764 -0.7113
  496TIP3    H2 1495   2.360   0.501   0.454  1.5736 -0.9647  1.6957
  497TIP3   OH2 1496   0.804   4.945   0.857 -0.4062  0.6298 -0.2582
  497TIP3    H1 1497   0.757   5.028   0.864 -0.4539  0.5699  0.1267
  497TIP3    H2 1498   0.890   4.969   0.822 -0.0124  0.9818  0.9029
  498TIP3   OH2 1499   6.157   4.859   3.938 -0.1603  0.4823 -0.0051
  498TIP3    H1 1500   6.165   4.934   3.998 -0.8587 -0.9172  1.9533
  498TIP3    H2 1501   6.101   4.797   3.985  1.0580 -1.6214 -1.1824
  499TIP3   OH2 1502   3.369   2.261   2.611 -0.0944 -0.3239 -0.8716
  499TIP3    H1 1503   3.426   2.210   2.554  2.1540  2.0015 -0.8589
  499TIP3    H2 1504   3.347   2.339   2.560 -0.5219  0.3803  0.3539
  500TIP3   OH2 1505   4.126   0.079   1.213 -0.0314  0.4121  0.4640
  500TIP3    H1 1506   4.069   0.055   1.286  1.0958  1.5740  1.7911
  500TIP3    H2 1507   4.077   0.054   1.134 -1.5133 -0.3764  1.5943
  501TIP3   OH2 1508   3.294   0.483   5.110 -0.6270 -0.2877 -0.5767
  501TIP3    H1 1509   3.233   0.545   5.149 -0.8350 -0.9379  0.1503
  501TIP3    H2 1510   3.303   0.413   5.175 -0.1307 -0.8523 -1.2330
  502TIP3   OH2 1511   5.661   4.165   2.648  0.3536 -0.0673  0.2508
  502TIP3    H1 1512   5.569   4.183   2.666  0.3473  0.9063 -0.6410
  502TIP3    H2 1513   5.685   4.095   2.709 -1.4144 -1.4715 -0.5947
  503TIP3   OH2 1514   3.613   3.050   2.786  0.0270 -0.3603 -0.2321
  503TIP3    H1 1515   3.660   3.026   2.706 -0.2427  1.0457 -0.8336
  503TIP3    H2 1516   3.670   3.019   2.857 -0.0266 -2.1952 -0.9306
  504TIP3   OH2 1517   4.914   1.708   1.981  0.1875 -0.4668 -0.1326
  504TIP3    H1 1518   4.972   1.674   1.913 -1.0667 -0.8505 -1.0641
  504TIP3    H2 1519   4.831   1.662   1.966 -0.3933  0.1624  1.0576
  505TIP3   OH2 1520   2.789   0.186   0.708 -0.3612 -0.2852  0.3550
  505TIP3    H1 1521   2.734   0.251   0.750 -3.1843 -2.8496  0.9725
  505TIP3    H2 1522   2.763   0.187   0.616 -2.4560 -2.2633  0.8420
  506TIP3   OH2 1523   4.949   3.250   0.620  0.2198  0.3680  0.2569
  506TIP3    H1 1524   5.003   3.199   0.559 -0.1853  0.9794 -0.6437
  506TIP3    H2 1525   4.861   3.214   0.610 -0.3280  1.9722 -1.3060
  507TIP3   OH2 1526   2.376   3.375   0.726  0.4247 -0.4207 -0.3624
  507TIP3    H1 1527   2.283   3.388   0.706  0.3339 -0.1697  0.1878
  507TIP3    H2 1528   2.406   3.312   0.661 -0.1599 -0.5867 -0.4807
  508TIP3   OH2 1529   0.437   5.807   0.070 -0.0166 -0.1166  0.4350
  508TIP3    H1 1530   0.361   5.772   0.117 -1.9639  1.4478 -1.3607
  508TIP3    H2 1531   0.439   5.900   0.095  0.4671  0.1600 -0.6097
  509TIP3   OH2 1532   5.413   5.419   3.805  0.4846  0.9132  0.5582
  509TIP3    H1 1533   5.334   5.467   3.829 -0.3729 -1.4293  2.8480
  509TIP3    H2 1534   5.384   5.329   3.793  2.5445  0.2958 -0.2445
  510TIP3   OH2 1535   2.576   3.950   0.944 -0.2536 -0.2970  0.0416
  510TIP3    H1 1536   2.629   3.969   0.867 -0.6418  0.2240 -0.1013
  510TIP3    H2 1537   2.639   3.932   1.013  0.1241 -3.0143 -0.9101
  511TIP3   OH2 1538   1.544   3.786   3.251  0.7355 -0.0414  0.7481
  511TIP3    H1 1539   1.585   3.855   3.304  0.0715  1.5249 -0.6635
  511TIP3    H2 1540   1.604   3.712   3.257  2.0684  1.0437  1.4032
  512TIP3   OH2 1541   0.824   2.797   1.778 -0.2417  0.1370  0.5646
  512TIP3    H1 1542   0.741   2.779   1.822 -0.4863  0.1260  0.1041
  512TIP3    H2 1543   0.807   2.875   1.725 -0.2490 -0.4300 -0.2861
  513TIP3   OH2 1544   2.557   3.200   1.211  0.7136 -0.3109  0.6138
  513TIP3    H1 1545   2.583   3.288   1.239  0.9171 -0.9335  2.4964
  513TIP3    H2 1546   2.639   3.157   1.187  0.6011  0.0233 -0.4335
  514TIP3   OH2 1547   1.098   1.708   4.833  0.2042  0.1707  0.0401
  514TIP3    H1 1548   1.101   1.612   4.824  0.7868  0.1298  0.5955
  514TIP3    H2 1549   1.090   1.722   4.927  2.8459  0.6948  0.2704
  515TIP3   OH2 1550   3.892   4.581   0.676 -0.2292 -0.1288  0.0821
  515TIP3    H1 1551   3.960   4.607   0.738  0.9558 -0.3092 -1.1101
  515TIP3    H2 1552   3.907   4.488   0.661 -1.3022 -0.3831  0.4565
  516TIP3   OH2 1553   0.707   2.631   5.043 -0.5651 -0.0673 -0.6537
  516TIP3    H1 1554   0.708   2.704   5.105 -0.1556 -0.7237  0.1403
  516TIP3    H2 1555   0.621   2.636   5.000 -1.2509 -0.1624  0.6620
  517TIP3   OH2 1556   3.419   5.386   4.194 -0.2736 -0.2330  0.0242
  517TIP3    H1 1557   3.487   5.329   4.231 -0.1109  0.4032  0.7092
  517TIP3    H2 1558   3.347   5.381   4.256 -0.7340 -0.6389 -0.5330
  518TIP3   OH2 1559   4.469   3.246   3.805 -0.1322 -0.1388  0.6250
  518TIP3    H1 1560   4.375   3.253   3.823 -0.0150 -0.5911  1.4961
  518TIP3    H2 1561   4.478   3.171   3.747 -0.4070  0.5771 -0.3577
  519TIP3   OH2 1562   5.285   3.738   4.089  0.2058  0.0726 -0.3693
  519TIP3    H1 1563   5.194   3.719   4.107  0.6366 -2.3696 -0.5121
  519TIP3    H2 1564   5.287   3.760   3.995 -0.3252  1.1352 -0.1556
  520TIP3   OH2 1565   0.566   0.546   0.742 -0.0234  0.1606  0.0365
  520TIP3    H1 1566   0.506   0.472   0.734  2.0842 -1.4437 -2.8402
  520TIP3    H2 1567   0.643   0.511   0.786  0.2789  1.1773  0.3597
  521TIP3   OH2 1568   0.194   2.987   3.646  0.0498 -0.5358 -0.3209
  521TIP3    H1 1569   0.139   2.942   3.710  1.5150 -1.0605  0.6334
  521TIP3    H2 1570   0.216   2.919   3.582 -0.0099 -0.4537 -0.4288
  522TIP3   OH2 1571   6.287   2.991   2.041 -0.0342  0.5189 -0.2248
  522TIP3    H1 1572   6.334   3.001   2.124  1.6385 -0.9697 -0.9309
  522TIP3    H2 1573   6.195   2.983   2.066  0.4718 -0.2567  1.5181
  523TIP3   OH2 1574   4.333   0.275   4.265  0.0871  0.1834 -0.3722
  523TIP3    H1 1575   4.258   0.232   4.223  1.3825 -1.1732 -1.4032
  523TIP3    H2 1576   4.382   0.203   4.305  0.4194  1.1499  1.0020
  524TIP3   OH2 1577   6.256   1.586   3.138  0.5159 -0.1549  0.5239
  524TIP3    H1 1578   6.299   1.503   3.118  0.2770 -0.3165  0.6755
  524TIP3    H2 1579   6.300   1.650   3.082  1.2731 -0.2367  1.0101
  525TIP3   OH2 1580   5.258   1.223   0.748 -0.9575  0.0446 -0.6863
  525TIP3    H1 1581   5.200   1.232   0.824 -0.6937  0.0040 -0.4789
  525TIP3    H2 1582   5.204   1.180   0.682 -0.3011 -2.8064  0.5093
  526TIP3   OH2 1583   4.410   1.295   3.581 -0.4096  0.1093 -0.4761
  526TIP3    H1 1584   4.331   1.307   3.528 -0.6422 -0.1155 -0.1907
  526TIP3    H2 1585   4.383   1.232   3.649  0.5672 -1.5830 -1.5687
  527TIP3   OH2 1586   5.323   1.546   1.288  0.0857  0.5806  0.6081
  527TIP3    H1 1587   5.405   1.595   1.279 -0.2657  1.2185  0.8341
  527TIP3    H2 1588   5.255   1.607   1.261 -0.2561 -0.2677 -0.5628
  528TIP3   OH2 1589   5.173   0.138   1.380 -0.6645  0.2532 -0.4356
  528TIP3    H1 1590   5.242   0.074   1.361  0.1241  1.1179 -0.5377
  528TIP3    H2 1591   5.216   0.223   1.372 -0.4182  0.8288  4.0770
  529TIP3   OH2 1592   2.476   0.178   1.827  0.0764 -0.4747 -0.2553
  529TIP3    H1 1593   2.515   0.091   1.817  0.5411 -0.1963 -0.9522
  529TIP3    H2 1594   2.527   0.217   1.899  0.7270 -0.3192 -0.7880
  530TIP3   OH2 1595   1.523   4.878   0.301  0.1880  0.3771 -0.1304
  530TIP3    H1 1596   1.445   4.920   0.337  0.4309  0.3082  0.4923
  530TIP3    H2 1597   1.596   4.919   0.349  0.3870 -1.4390  1.2051
  531TIP3   OH2 1598   5.511   0.534   2.091 -0.2720 -0.6267 -0.1473
  531TIP3    H1 1599   5.456   0.599   2.134 -0.2560 -1.0718  0.5688
  531TIP3    H2 1600   5.571   0.504   2.160 -1.4230 -2.6607  0.0399
  532TIP3   OH2 1601   2.490   5.231   4.718 -0.2666  1.0694 -0.4360
  532TIP3    H1 1602   2.431   5.229   4.793  0.8902 -2.1095  0.5613
  532TIP3    H2 1603   2.577   5.220   4.756  0.5258  0.9722 -2.1592
  533TIP3   OH2 1604   3.551   1.441   5.104 -0.3674 -0.1059  0.3409
  533TIP3    H1 1605   3.469   1.409   5.141 -0.5607  0.0041  0.0116
  533TIP3    H2 1606   3.578   1.511   5.163  0.0137 -0.8115  1.0132
  534TIP3   OH2 1607   2.377   1.392   2.272 -0.2507  0.1317  0.1200
  534TIP3    H1 1608   2.459   1.383   2.223 -0.9511  0.3796 -1.1626
  534TIP3    H2 1609   2.402   1.434   2.354  0.7851  1.0319 -0.6251
  535TIP3   OH2 1610   4.194   4.803   1.326 -0.1383 -0.3161  0.2979
  535TIP3    H1 1611   4.222   4.874   1.269  0.2601 -0.2593  0.5556
  535TIP3    H2 1612   4.098   4.808   1.327 -0.1328 -0.1180 -0.1017
  536TIP3   OH2 1613   1.872   4.152   1.336 -0.2047 -0.4589 -0.0759
  536TIP3    H1 1614   1.854   4.245   1.350  0.0020 -0.5284  0.6836
  536TIP3    H2 1615   1.919   4.149   1.252 -0.3008  0.1097 -0.1523
  537TIP3   OH2 1616   4.420   5.192   0.818  0.0738  0.2011  0.0872
  537TIP3    H1 1617   4.377   5.263   0.770 -0.6852  0.1587  0.6829
  537TIP3    H2 1618   4.410   5.216   0.910 -1.1731 -1.1969  0.3514
  538TIP3   OH2 1619   3.347   3.026   5.063 -0.0003  0.1826 -0.1599
  538TIP3    H1 1620   3.392   3.077   4.995 -0.9697  0.4668 -0.6160
  538TIP3    H2 1621   3.353   2.936   5.032  1.1186  0.0833  0.2977
  539TIP3   OH2 1622   6.212   2.266   3.994 -0.2519  0.3042  0.0897
  539TIP3    H1 1623   6.257   2.193   4.037 -1.5020 -1.0697 -0.8325
  539TIP3    H2 1624   6.129   2.229   3.965 -1.5215  2.4586  0.7533
  540TIP3   OH2 1625   3.242   2.680   1.546 -0.0944 -0.7547  0.3685
  540TIP3    H1 1626   3.285   2.679   1.631  2.2215 -0.6607 -0.7167
  540TIP3    H2 1627   3.303   2.634   1.488 -1.0245  0.2374 -1.4906
  541TIP3   OH2 1628   3.275   3.931   5.046 -0.9051  0.0847 -0.2410
  541TIP3    H1 1629   3.346   3.871   5.022  0.7344  2.4549 -1.7182
  541TIP3    H2 1630   3.226   3.943   4.965 -2.3722 -0.6455  0.5008
  542TIP3   OH2 1631   3.348   4.934   4.192 -0.3167 -0.3882 -0.2093
  542TIP3    H1 1632   3.338   5.028   4.181  0.4575 -0.3713 -0.8994
  542TIP3    H2 1633   3.275   4.896   4.143  0.7130 -0.1865 -1.9845
  543TIP3   OH2 1634   1.703   5.723   0.493  0.5887 -0.4202  0.6388
  543TIP3    H1 1635   1.701   5.627   0.487  2.6851 -0.5134  0.5890
  543TIP3    H2 1636   1.683   5.753   0.405  1.0090 -0.8609  0.3834
  544TIP3   OH2 1637   4.009   0.477   4.071 -0.4188  0.7075 -0.2104
  544TIP3    H1 1638   4.004   0.430   3.988  0.0319 -1.6491  1.0331
  544TIP3    H2 1639   4.102   0.476   4.094 -0.7057  0.0467  0.9948
  545TIP3   OH2 1640   1.901   2.843   2.121  0.4153  0.2332 -0.5842
  545TIP3    H1 1641   1.821   2.872   2.164  0.7457  0.5694 -0.1796
  545TIP3    H2 1642   1.876   2.830   2.029 -0.0660  0.4689 -0.4911
  546TIP3   OH2 1643   5.945   1.480   1.357  0.3992  0.0176 -0.0600
  546TIP3    H1 1644   5.992   1.402   1.385 -0.6168 -0.3900  0.5287
  546TIP3    H2 1645   5.929   1.465   1.263  0.2710 -0.4436  0.0331
  547TIP3   OH2 1646   3.449   5.152   1.418  0.0687  0.0748  0.1415
  547TIP3    H1 1647   3.491   5.113   1.495  1.1184 -0.8143 -0.8481
  547TIP3    H2 1648   3.393   5.083   1.384  1.0677 -0.2101 -0.9738
  548TIP3   OH2 1649   1.465   3.178   0.134  0.0738  0.6867  0.1832
  548TIP3    H1 1650   1.539   3.233   0.157  0.2843  0.6746 -0.4391
  548TIP3    H2 1651   1.425   3.154   0.218  0.2646  1.3884  0.4825
  549TIP3   OH2 1652   3.249   2.085   2.224  0.0921 -0.3978 -0.3396
  549TIP3    H1 1653   3.241   2.159   2.284 -0.2451  0.0483 -0.9262
  549TIP3    H2 1654   3.343   2.064   2.224  0.2049  0.1116 -0.2677
  550TIP3   OH2 1655   1.793   1.405   0.135  0.1160 -0.1622  0.5041
  550TIP3    H1 1656   1.762   1.482   0.086 -0.6519 -0.0434  1.1526
  550TIP3    H2 1657   1.860   1.440   0.193  0.8240 -0.2522 -0.2455
  551TIP3   OH2 1658   3.612   3.130   3.748 -0.0788  0.1890 -0.1056
  551TIP3    H1 1659   3.696   3.102   3.785 -0.2426  0.1101  0.2117
  551TIP3    H2 1660   3.547   3.090   3.805 -0.3267  0.5002 -0.1682
  552TIP3   OH2 1661   4.671   4.740   0.841 -0.0028 -0.6708 -0.1803
  552TIP3    H1 1662   4.692   4.820   0.793 -1.2227 -0.5477 -0.5393
  552TIP3    H2 1663   4.730   4.674   0.804  1.9462  0.2960  1.0060
  553TIP3   OH2 1664   2.364   1.109   3.605 -0.3164  0.2536  0.3157
  553TIP3    H1 1665   2.427   1.171   3.640 -0.3809  0.4449  0.0940
  553TIP3    H2 1666   2.417   1.043   3.561 -0.2697  0.4141  0.1294
  554TIP3   OH2 1667   4.426   2.643   2.622 -0.3307  0.1798  0.1131
  554TIP3    H1 1668   4.460   2.587   2.692 -1.1510  0.0770  0.4391
  554TIP3    H2 1669   4.492   2.637   2.552  0.3498  0.0468  0.7528
  555TIP3   OH2 1670   1.431   3.748   1.636  0.1676  0.3523 -0.2021
  555TIP3    H1 1671   1.410   3.734   1.728 -0.6880 -2.3794 -0.7189
  555TIP3    H2 1672   1.365   3.697   1.589  0.4338  1.8795 -2.3700
  556TIP3   OH2 1673   6.074   5.867   0.404 -0.0972 -0.0599 -0.0300
  556TIP3    H1 1674   6.153   5.842   0.355 -0.8698  0.2709 -1.5237
  556TIP3    H2 1675   6.009   5.885   0.336 -1.1531  0.7130  1.1436
  557TIP3   OH2 1676   0.809   2.081   3.765  0.6663 -0.3069 -0.0335
  557TIP3    H1 1677   0.840   1.990   3.769 -0.7107 -0.7528  2.3614
  557TIP3    H2 1678   0.725   2.074   3.720  0.0846 -0.4070  1.0376
  558TIP3   OH2 1679   5.592   0.413   0.831  0.4169 -0.2576  0.0409
  558TIP3    H1 1680   5.589   0.491   0.777  1.1264  0.2498  0.7187
  558TIP3    H2 1681   5.684   0.405   0.858  0.4456 -1.5697 -0.3716
  559TIP3   OH2 1682   3.610   4.317   3.224 -0.3784  0.4967 -0.3898
  559TIP3    H1 1683   3.625   4.240   3.169 -0.7951 -0.3812  0.6841
  559TIP3    H2 1684   3.688   4.323   3.279 -0.4615  0.6975 -0.2916
  560TIP3   OH2 1685   1.479   2.897   2.395 -0.1496  0.6330  0.4211
  560TIP3    H1 1686   1.442   2.810   2.412 -1.1568  1.0684  0.5304
  560TIP3    H2 1687   1.407   2.947   2.358  0.5746  1.2729 -0.1590
  561TIP3   OH2 1688   0.980   4.838   3.029 -0.2840 -0.1537 -0.6013
  561TIP3    H1 1689   0.939   4.920   2.999  0.4999 -0.4713 -2.6842
  561TIP3    H2 1690   0.997   4.853   3.122 -2.0005  1.2707 -0.4522
  562TIP3   OH2 1691   2.909   0.451   3.944 -0.1686 -0.2767  0.7408
  562TIP3    H1 1692   2.995   0.416   3.922 -0.1991  0.0673  0.0429
  562TIP3    H2 1693   2.907   0.452   4.040  0.0245 -1.6883  0.7888
  563TIP3   OH2 1694   4.271   0.617   2.523  0.1008  0.2727 -0.1221
  563TIP3    H1 1695   4.226   0.693   2.560 -0.6738 -0.4179  0.3889
  563TIP3    H2 1696   4.204   0.573   2.471 -0.0848 -1.2464  1.3416
  564TIP3   OH2 1697   1.445   1.735   0.140  0.7096  0.3083 -0.0993
  564TIP3    H1 1698   1.490   1.819   0.131 -2.3285  2.0767 -0.0980
  564TIP3    H2 1699   1.485   1.695   0.217 -0.1177  3.4851  2.1856
  565TIP3   OH2 1700   1.303   0.747   0.811  0.0340  0.7329 -0.5348
  565TIP3    H1 1701   1.253   0.738   0.893 -0.2592 -3.0909 -0.9721
  565TIP3    H2 1702   1.266   0.826   0.770 -0.7862  1.9681  2.3070
  566TIP3   OH2 1703   4.243   3.620   3.881  0.4340 -0.1740  0.1030
  566TIP3    H1 1704   4.148   3.629   3.888  0.4331  0.1022 -0.2901
  566TIP3    H2 1705   4.275   3.643   3.968  0.1345 -0.4048  0.2790
  567TIP3   OH2 1706   1.924   0.737   4.903 -0.0594 -0.0727 -0.5179
  567TIP3    H1 1707   1.900   0.772   4.817  0.6355  0.8454 -0.3458
  567TIP3    H2 1708   1.841   0.707   4.941 -0.3093 -0.9464 -1.6997
  568TIP3   OH2 1709   5.083   0.638   3.670  0.8129 -0.3929 -0.3450
  568TIP3    H1 1710   5.135   0.561   3.693 -0.7939 -1.9442 -1.5924
  568TIP3    H2 1711   4.997   0.620   3.708  0.1289  0.3130 -1.5003
  569TIP3   OH2 1712   4.922   4.955   0.922  0.5369 -0.4198 -0.1311
  569TIP3    H1 1713   4.833   4.986   0.935  1.3993  2.3284 -0.2201
  569TIP3    H2 1714   4.928   4.937   0.828  0.5691  1.1369 -0.4394
  570TIP3   OH2 1715   5.116   4.678   0.793 -0.8281 -0.9310 -0.2165
  570TIP3    H1 1716   5.206   4.654   0.814 -0.2998  1.9915  1.3583
  570TIP3    H2 1717   5.122   4.768   0.761 -3.3314 -0.0358  1.5354
  571TIP3   OH2 1718   0.067   3.881   2.926 -0.4960  0.1231  0.3893
  571TIP3    H1 1719   0.048   3.885   3.020  1.5761 -0.2155  0.8593
  571TIP3    H2 1720   0.091   3.971   2.903 -2.8662  0.6411 -0.2942
  572TIP3   OH2 1721   1.725   4.200   1.073  0.2057 -0.4929 -0.0162
  572TIP3    H1 1722   1.672   4.125   1.097  1.6463 -1.5120  0.1366
  572TIP3    H2 1723   1.809   4.162   1.045  1.1063  1.0587  0.4470
  573TIP3   OH2 1724   5.679   1.574   1.397  0.0074 -0.4764 -0.3012
  573TIP3    H1 1725   5.669   1.612   1.484 -0.1090  1.2288 -1.0167
  573TIP3    H2 1726   5.773   1.557   1.390  0.7720  3.0990 -1.1959
  574TIP3   OH2 1727   0.110   0.613   1.586  0.1041 -0.2917 -0.1555
  574TIP3    H1 1728   0.039   0.552   1.565  0.3416 -0.3957 -0.6493
  574TIP3    H2 1729   0.143   0.642   1.502  0.8467 -0.4638  0.0695
  575TIP3   OH2 1730   3.669   4.478   4.981 -0.0075  0.2371 -0.1417
  575TIP3    H1 1731   3.587   4.492   5.028  0.6740 -0.6178  1.3897
  575TIP3    H2 1732   3.661   4.389   4.945  0.3389  0.0534  0.2294
  576TIP3   OH2 1733   1.247   2.092   1.361 -0.6084 -0.4373  0.5578
  576TIP3    H1 1734   1.228   2.053   1.276 -0.8549 -0.2046  0.5048
  576TIP3    H2 1735   1.268   2.018   1.417 -0.6976 -0.6149  0.3597
  577TIP3   OH2 1736   3.835   0.486   4.936  0.4492 -0.2426 -0.5097
  577TIP3    H1 1737   3.878   0.437   4.866 -0.0275  1.3507 -2.0000
  577TIP3    H2 1738   3.907   0.530   4.982  0.6439  0.3781 -1.3731
  578TIP3   OH2 1739   1.515   4.050   4.527  0.1987 -0.2213 -0.7867
  578TIP3    H1 1740   1.513   4.114   4.456 -0.0800  1.1040  0.3703
  578TIP3    H2 1741   1.599   4.065   4.570 -0.2327 -0.0217  0.0100
  579TIP3   OH2 1742   5.184   1.101   3.108  0.4444  0.6117 -0.4162
  579TIP3    H1 1743   5.134   1.119   3.029 -0.3265  0.2338 -0.0316
  579TIP3    H2 1744   5.146   1.019   3.142  1.5856  0.0966 -0.3230
  580TIP3   OH2 1745   0.222   0.991   3.771 -0.6810  0.8165 -0.1306
  580TIP3    H1 1746   0.143   1.044   3.756 -0.5571  0.6181 -1.6202
  580TIP3    H2 1747   0.219   0.971   3.865  0.1965  4.9186  0.9862
  581TIP3   OH2 1748   4.838   4.265   2.141 -0.2338 -0.1972  1.1477
  581TIP3    H1 1749   4.744   4.271   2.127 -0.0652  0.9495  0.3615
  581TIP3    H2 1750   4.860   4.175   2.115 -0.7027  0.3705 -1.5275
  582TIP3   OH2 1751   0.513   4.937   2.819  0.5343 -0.1341  0.4075
  582TIP3    H1 1752   0.575   5.001   2.783  0.2814 -0.3598 -0.4585
  582TIP3    H2 1753   0.538   4.854   2.778  0.2608 -0.4126  0.7953
  583TIP3   OH2 1754   5.230   2.390   2.635  0.2635  0.5213  0.5193
  583TIP3    H1 1755   5.294   2.364   2.569  0.1263  1.4022  0.0154
  583TIP3    H2 1756   5.259   2.478   2.662 -0.9131  1.0783  0.0336
  584TIP3   OH2 1757   2.677   4.878   4.786  0.2179 -0.7163  0.2380
  584TIP3    H1 1758   2.599   4.823   4.780  0.3844 -0.9075 -0.1953
  584TIP3    H2 1759   2.745   4.829   4.739  0.4057 -0.2089 -0.0291
  585TIP3   OH2 1760   0.045   1.197   3.736 -0.4027  0.1945 -0.1343
  585TIP3    H1 1761  -0.017   1.264   3.767  0.3838  1.5698 -1.4011
  585TIP3    H2 1762   0.000   1.154   3.664 -1.8399 -2.3364  2.0888
  586TIP3   OH2 1763   1.274   1.540   1.871  0.2129  1.1852 -0.6104
  586TIP3    H1 1764   1.296   1.614   1.929  0.4876  0.9989 -0.4730
  586TIP3    H2 1765   1.347   1.478   1.883 -1.6113 -0.6670  1.8764
  587TIP3   OH2 1766   3.331   4.508   1.150  0.4029  0.0952 -0.3431
  587TIP3    H1 1767   3.329   4.598   1.183  0.0487  0.6255 -1.7304
  587TIP3    H2 1768   3.420   4.496   1.118  1.0948 -0.8232  1.7961
  588TIP3   OH2 1769   3.482   4.884   2.798 -0.0228 -0.5450  0.0869
  588TIP3    H1 1770   3.557   4.824   2.798  0.2678 -0.2753 -1.7366
  588TIP3    H2 1771   3.522   4.970   2.782 -0.6160 -0.1859  0.5138
  589TIP3   OH2 1772   3.644   3.707   3.386 -0.4508 -0.6370 -0.0164
  589TIP3    H1 1773   3.673   3.671   3.470 -1.4001  0.3790  0.7748
  589TIP3    H2 1774   3.556   3.673   3.374 -0.2414 -0.9672 -0.7472
  590TIP3   OH2 1775   0.524   4.963   0.236  0.3243 -0.1223 -0.0438
  590TIP3    H1 1776   0.591   4.896   0.228 -0.0920 -0.4714 -0.7955
  590TIP3    H2 1777   0.554   5.035   0.180  0.4348  0.0254  0.2071
  591TIP3   OH2 1778   4.376   4.093   2.429  0.1630 -0.0588  0.0267
  591TIP3    H1 1779   4.448   4.030   2.431  0.3903  0.2002  0.2149
  591TIP3    H2 1780   4.376   4.132   2.517  0.3818  0.5952 -0.2554
  592TIP3   OH2 1781   3.394   1.654   1.437 -0.2155  0.5117 -0.1344
  592TIP3    H1 1782   3.421   1.743   1.459  1.2747  0.1237 -0.3231
  592TIP3    H2 1783   3.298   1.656   1.444 -0.5560  2.9890 -3.2713
  593TIP3   OH2 1784   0.833   0.777   0.317 -0.5294  0.5216 -0.1037
  593TIP3    H1 1785   0.744   0.811   0.325 -1.1625 -0.0255 -3.2520
  593TIP3    H2 1786   0.879   0.844   0.265 -0.1879 -0.7630 -1.5325
  594TIP3   OH2 1787   6.246   1.451   0.423  0.0025 -0.0484  0.9696
  594TIP3    H1 1788   6.154   1.427   0.419 -0.2253  0.8495  0.2244
  594TIP3    H2 1789   6.246   1.546   0.438  0.7194  0.3812 -1.2952
  595TIP3   OH2 1790   0.174   1.547   4.651  0.2908 -0.2489  0.3309
  595TIP3    H1 1791   0.127   1.506   4.724  0.3119  0.5052  0.7791
  595TIP3    H2 1792   0.252   1.492   4.638  0.5616 -0.0879  1.2259
  596TIP3   OH2 1793   2.974   1.623   4.391  0.0835 -0.9815 -0.1038
  596TIP3    H1 1794   2.933   1.626   4.478 -1.4873  2.1190 -0.8224
  596TIP3    H2 1795   2.901   1.606   4.331  0.2425  1.6063 -1.1420
  597TIP3   OH2 1796   2.637   1.925   2.496  0.9630 -0.2964 -0.0854
  597TIP3    H1 1797   2.696   1.871   2.550  0.7720  0.2724  0.7159
  597TIP3    H2 1798   2.578   1.862   2.455  0.4788 -0.6877  1.1600
  598TIP3   OH2 1799   4.158   0.016   2.882  0.4547  0.0026  0.1321
  598TIP3    H1 1800   4.227   0.035   2.946  1.0038 -0.6798 -0.2451
  598TIP3    H2 1801   4.181   0.069   2.806  0.8401 -0.5763 -0.1657
  599TIP3   OH2 1802   0.900   3.229   0.679 -0.0522 -0.4302 -0.0553
  599TIP3    H1 1803   0.942   3.176   0.746  2.1333  2.5470  1.1684
  599TIP3    H2 1804   0.894   3.172   0.603  3.4406 -2.0764  0.7037
  600TIP3   OH2 1805   3.139   4.644   1.468  0.4828  0.1714  0.4879
  600TIP3    H1 1806   3.122   4.575   1.532 -1.4224  1.1883  1.1649
  600TIP3    H2 1807   3.149   4.724   1.521  0.7951  0.7171 -0.3734
  601TIP3   OH2 1808   2.865   2.752   1.898 -0.0654  0.2735  0.1093
  601TIP3    H1 1809   2.797   2.820   1.901  0.0276  0.3471  0.8183
  601TIP3    H2 1810   2.896   2.746   1.989 -0.4579 -1.1112  0.1746
  602TIP3   OH2 1811   4.521   5.118   2.486  0.2468 -0.1036 -0.4759
  602TIP3    H1 1812   4.466   5.053   2.444 -1.6658  1.5320 -0.6428
  602TIP3    H2 1813   4.502   5.199   2.439  2.0275  0.7392  0.1752
  603TIP3   OH2 1814   5.235   3.032   1.091 -0.2200 -0.2617 -0.2512
  603TIP3    H1 1815   5.238   3.045   0.996 -1.3520 -0.5905 -0.3468
  603TIP3    H2 1816   5.146   3.003   1.108 -0.4653  1.1497  1.0852
  604TIP3   OH2 1817   5.384   4.038   0.359  0.2138 -0.1675 -0.3550
  604TIP3    H1 1818   5.430   4.121   0.349 -0.0089 -0.0459 -0.3822
  604TIP3    H2 1819   5.328   4.032   0.282  1.9579 -1.4684 -1.6193
  605TIP3   OH2 1820   0.396   4.203   3.133  0.2844  0.0422 -0.0328
  605TIP3    H1 1821   0.472   4.261   3.121  0.3032 -0.2389 -1.4081
  605TIP3    H2 1822   0.320   4.261   3.124  0.3051 -0.1057 -1.2391
  606TIP3   OH2 1823   6.139   3.670   1.418  0.1925 -0.0824  0.5530
  606TIP3    H1 1824   6.196   3.741   1.448 -0.3158  0.1465  1.0032
  606TIP3    H2 1825   6.135   3.609   1.492 -0.8190  0.3310  0.8613
  607TIP3   OH2 1826   3.093   0.631   0.968  0.1786  0.3799  0.3586
  607TIP3    H1 1827   3.084   0.539   0.944  0.8683  0.8035 -1.7673
  607TIP3    H2 1828   3.004   0.665   0.967  0.1126  0.2405 -1.2620
  608TIP3   OH2 1829   1.692   4.788   1.692  0.2858  0.4859 -0.3634
  608TIP3    H1 1830   1.782   4.781   1.725  1.1705  0.6271 -2.6237
  608TIP3    H2 1831   1.664   4.877   1.715  1.5117  1.1779 -1.4572
  609TIP3   OH2 1832   5.902   4.770   5.014  0.3690  0.2433 -0.3158
  609TIP3    H1 1833   5.893   4.865   5.005  2.1973  0.2823 -2.9031
  609TIP3    H2 1834   5.996   4.755   5.012  0.1069 -1.6588 -0.2206
  610TIP3   OH2 1835   4.158   2.436   2.404  0.2720 -0.4142  0.2637
  610TIP3    H1 1836   4.106   2.517   2.404  1.1511  0.1627 -0.0797
  610TIP3    H2 1837   4.195   2.432   2.493 -1.2334 -1.4293  0.8942
  611TIP3   OH2 1838   4.589   0.543   4.199  0.4315 -0.0578  0.0929
  611TIP3    H1 1839   4.538   0.566   4.121 -3.1857 -3.0049  1.2795
  611TIP3    H2 1840   4.555   0.601   4.267  0.1045 -0.6406  0.4358
  612TIP3   OH2 1841   4.793   3.900   5.074 -0.2974  0.2775  0.0696
  612TIP3    H1 1842   4.734   3.887   5.000 -2.6251  1.9375  1.5024
  612TIP3    H2 1843   4.764   3.836   5.140  0.1877  0.4137  0.4208
  613TIP3   OH2 1844   6.254   1.358   1.018  0.0497  0.3539 -0.4354
  613TIP3    H1 1845   6.185   1.298   1.048  0.4136  0.3121  0.3456
  613TIP3    H2 1846   6.247   1.356   0.923 -0.9114  0.2113 -0.3747
  614TIP3   OH2 1847   1.364   1.444   0.277  0.1992 -0.3818  0.2920
  614TIP3    H1 1848   1.341   1.445   0.370  0.6888  0.9534  0.4163
  614TIP3    H2 1849   1.442   1.388   0.272  0.9266  0.5493  0.8901
  615TIP3   OH2 1850   5.966   1.410   3.404 -0.0137 -0.0191  0.0259
  615TIP3    H1 1851   5.895   1.347   3.393  0.2789 -0.2196 -0.7870
  615TIP3    H2 1852   5.984   1.441   3.316  2.5472 -1.7661 -0.1747
  616TIP3   OH2 1853   4.986   3.537   4.084  0.1660  0.6637 -0.0955
  616TIP3    H1 1854   5.021   3.527   4.172 -0.2911 -0.1798  0.0011
  616TIP3    H2 1855   4.892   3.521   4.093  0.4075 -1.8146 -1.0729
  617TIP3   OH2 1856   2.110   3.898   3.995 -0.5823 -0.4732  0.4343
  617TIP3    H1 1857   2.145   3.916   4.083 -3.0112  2.3407  1.0085
  617TIP3    H2 1858   2.186   3.901   3.938  0.7148  0.6482  2.1135
  618TIP3   OH2 1859   1.510   5.916   4.375 -0.1928 -0.0849 -0.5204
  618TIP3    H1 1860   1.501   5.832   4.420  1.0400 -0.6238 -1.2217
  618TIP3    H2 1861   1.540   5.976   4.443 -0.5174 -0.3461 -0.1414
  619TIP3   OH2 1862   2.201   3.799   0.905  0.3334  0.5483 -0.0903
  619TIP3    H1 1863   2.138   3.747   0.856 -0.0472  0.0127  0.9534
  619TIP3    H2 1864   2.284   3.752   0.895  0.2677  0.4613 -0.2399
  620TIP3   OH2 1865   3.247   5.933   1.423  0.1639  0.3282  0.1261
  620TIP3    H1 1866   3.270   5.937   1.330  1.5318  0.2366  0.4433
  620TIP3    H2 1867   3.319   5.884   1.464  0.2850  1.5435  1.4402
  621TIP3   OH2 1868   0.794   4.082   2.536 -0.5158 -0.4865 -0.5750
  621TIP3    H1 1869   0.710   4.124   2.516 -0.7357 -0.2927  0.7107
  621TIP3    H2 1870   0.798   4.008   2.475 -2.0596 -1.0585 -0.0253
  622TIP3   OH2 1871   2.264   5.277   3.930 -0.0072  0.0501  0.0167
  622TIP3    H1 1872   2.181   5.234   3.952  0.2977 -1.6658 -1.8998
  622TIP3    H2 1873   2.238   5.360   3.891 -0.7587  0.1124  0.6172
  623TIP3   OH2 1874   2.206   5.606   0.784  0.1521 -0.5886  0.5350
  623TIP3    H1 1875   2.247   5.519   0.783 -1.9835 -1.6670  0.3781
  623TIP3    H2 1876   2.218   5.639   0.696  2.2085 -0.0708  0.9700
  624TIP3   OH2 1877   1.592   3.995   0.156  0.4910  0.2483 -0.4321
  624TIP3    H1 1878   1.618   3.962   0.242  2.6692  2.1238 -0.2718
  624TIP3    H2 1879   1.497   3.993   0.158  0.4903 -1.3459  1.3519
  625TIP3   OH2 1880   3.774   0.074   0.597  0.4288 -0.0919  0.7763
  625TIP3    H1 1881   3.798   0.080   0.689  0.4111 -0.3349  0.7958
  625TIP3    H2 1882   3.712   0.146   0.584  0.6475  0.1176  0.8858
  626TIP3   OH2 1883   1.676   3.314   0.498  0.2189 -0.2577 -0.0790
  626TIP3    H1 1884   1.674   3.220   0.479 -0.6630 -0.3292  0.2886
  626TIP3    H2 1885   1.648   3.355   0.417 -0.2250 -0.3671  0.0156
  627TIP3   OH2 1886   6.179   4.619   2.827 -0.0843  0.3319 -0.1693
  627TIP3    H1 1887   6.139   4.687   2.882 -1.3267 -0.3454 -0.1993
  627TIP3    H2 1888   6.118   4.609   2.754 -0.3154 -1.3344  0.2151
  628TIP3   OH2 1889   2.529   5.673   5.069  0.1228 -0.4349 -0.0072
  628TIP3    H1 1890   2.617   5.637   5.055 -0.4754 -1.1202 -2.4718
  628TIP3    H2 1891   2.503   5.706   4.983 -3.2618 -3.1002 -0.2283
  629TIP3   OH2 1892   2.735   4.747   4.384  0.2460  0.2198  0.1951
  629TIP3    H1 1893   2.647   4.774   4.408  0.1362 -0.5708  0.6916
  629TIP3    H2 1894   2.744   4.658   4.418  0.0694 -1.0277 -2.7143
  630TIP3   OH2 1895   2.118   3.139   0.987 -0.3327 -0.1736  0.2275
  630TIP3    H1 1896   2.028   3.137   1.019 -1.0942 -0.6034 -1.8191
  630TIP3    H2 1897   2.150   3.226   1.011 -2.4828  1.3535 -1.9575
  631TIP3   OH2 1898   3.087   5.079   4.150 -0.2226 -0.3458  0.1869
  631TIP3    H1 1899   2.995   5.090   4.171 -0.1534  1.6645 -0.4368
  631TIP3    H2 1900   3.096   4.985   4.132 -1.8274 -0.8126  1.5855
  632TIP3   OH2 1901   2.368   0.082   4.933  0.4555  0.3474  0.0177
  632TIP3    H1 1902   2.442   0.122   4.888  0.8296  0.2225  0.5136
  632TIP3    H2 1903   2.341   0.147   4.997 -0.9068  1.0705 -1.2265
  633TIP3   OH2 1904   5.850   4.494   0.724 -0.3213  0.3167 -0.5480
  633TIP3    H1 1905   5.762   4.458   0.738 -0.4883 -0.5338 -3.2638
  633TIP3    H2 1906   5.906   4.418   0.717  0.5803  0.8467  0.5287
  634TIP3   OH2 1907   2.725   3.275   3.020 -0.3333  0.2215  0.5960
  634TIP3    H1 1908   2.764   3.361   3.003  0.8545 -0.4283 -0.1867
  634TIP3    H2 1909   2.740   3.260   3.113 -1.4128  1.2526  0.9544
  635TIP3   OH2 1910   1.025   5.748   2.487  0.8880 -0.2636  0.1581
  635TIP3    H1 1911   0.949   5.689   2.494  0.8703 -0.5165 -1.5964
  635TIP3    H2 1912   0.998   5.814   2.423  0.5933  2.2565  2.6849
  636TIP3   OH2 1913   5.618   5.819   0.231 -0.2045 -0.0676  0.4647
  636TIP3    H1 1914   5.657   5.775   0.155  2.9851  1.0814  1.2818
  636TIP3    H2 1915   5.566   5.751   0.274 -0.8471 -1.1494 -1.8801
  637TIP3   OH2 1916   1.368   2.644   0.771  0.5637 -0.3625 -0.2520
  637TIP3    H1 1917   1.351   2.734   0.799 -0.5959 -1.0024  1.2150
  637TIP3    H2 1918   1.451   2.622   0.814  0.6284 -0.1412 -0.2607
  638TIP3   OH2 1919   3.562   0.095   1.036  0.1626 -0.7409 -0.2904
  638TIP3    H1 1920   3.581   0.001   1.026 -0.1900 -0.7461 -1.0342
  638TIP3    H2 1921   3.648   0.137   1.037  0.3173 -1.0554 -0.1883
  639TIP3   OH2 1922   2.474   3.633   1.354 -0.3246  0.0216  0.3185
  639TIP3    H1 1923   2.418   3.678   1.418 -1.7023 -1.4300  0.1902
  639TIP3    H2 1924   2.418   3.622   1.277  1.1439  1.2779 -0.9991
  640TIP3   OH2 1925   1.602   1.523   1.827  0.3033 -0.8135  0.6481
  640TIP3    H1 1926   1.533   1.475   1.781 -0.6428 -1.2086  2.3783
  640TIP3    H2 1927   1.668   1.456   1.848  0.4192 -0.7618  0.4514
  641TIP3   OH2 1928   1.768   3.107   1.322 -0.1806 -0.1187 -0.3207
  641TIP3    H1 1929   1.849   3.157   1.330 -0.2220 -0.0609 -0.2667
  641TIP3    H2 1930   1.702   3.159   1.369  0.1680 -1.1112  1.3405
  642TIP3   OH2 1931   2.509   3.671   4.027 -0.0759  0.0478 -0.4650
  642TIP3    H1 1932   2.595   3.650   4.064  0.0622  0.5364 -0.5102
  642TIP3    H2 1933   2.527   3.728   3.953 -0.5236  1.4094  0.4401
  643TIP3   OH2 1934   3.530   1.551   2.253 -0.6297 -0.4111  0.1826
  643TIP3    H1 1935   3.599   1.589   2.308  0.0992 -0.9707 -0.3471
  643TIP3    H2 1936   3.479   1.627   2.224  1.8710  0.4423 -2.3295
  644TIP3   OH2 1937   6.240   4.669   0.755 -0.0550  0.2230 -0.1939
  644TIP3    H1 1938   6.266   4.578   0.772 -1.4928 -0.2556 -0.3385
  644TIP3    H2 1939   6.307   4.722   0.797  0.9577 -0.9091 -0.3355
  645TIP3   OH2 1940   2.890   3.265   1.072  0.2077  0.7735  0.3466
  645TIP3    H1 1941   2.920   3.280   1.162  1.2617  0.8085 -0.0014
  645TIP3    H2 1942   2.843   3.182   1.076  1.2712  0.1775  0.6981
  646TIP3   OH2 1943   3.552   1.186   4.730 -0.7944  0.1427 -0.5276
  646TIP3    H1 1944   3.639   1.225   4.724 -1.0986  0.8014 -0.7645
  646TIP3    H2 1945   3.534   1.181   4.824 -0.9798  1.1047 -0.5026
  647TIP3   OH2 1946   1.471   1.516   3.397  0.2050 -0.0090  0.5058
  647TIP3    H1 1947   1.551   1.481   3.435  1.1401  2.2645  0.8010
  647TIP3    H2 1948   1.472   1.487   3.306  0.4614 -1.4154  0.9381
  648TIP3   OH2 1949   2.437   4.001   3.582  0.1424  0.1307 -0.0975
  648TIP3    H1 1950   2.458   3.998   3.489  0.2256  0.5637 -0.0932
  648TIP3    H2 1951   2.520   3.986   3.627 -0.0143 -0.7867 -0.0900
  649TIP3   OH2 1952   1.381   0.802   2.845  0.5105  0.2463 -0.1537
  649TIP3    H1 1953   1.473   0.803   2.871  0.5418  1.1569 -0.2658
  649TIP3    H2 1954   1.340   0.870   2.899 -0.6676 -1.8645  1.8299
  650TIP3   OH2 1955   6.212   3.105   1.307 -0.1408  0.0045 -0.6224
  650TIP3    H1 1956   6.149   3.172   1.333 -0.1079 -0.4297  0.6479
  650TIP3    H2 1957   6.272   3.098   1.381 -0.1100 -1.3723 -0.7534
  651TIP3   OH2 1958   2.259   2.930   4.032  0.0955  0.0702 -0.1769
  651TIP3    H1 1959   2.276   2.881   3.952 -0.3547  0.7889 -0.7193
  651TIP3    H2 1960   2.203   2.872   4.084 -0.6461  0.1027 -0.9221
  652TIP3   OH2 1961   1.163   2.175   0.919  0.2710  0.9726  0.2596
  652TIP3    H1 1962   1.149   2.265   0.888 -1.0418  1.0412  0.9754
  652TIP3    H2 1963   1.136   2.177   1.011  0.4199 -0.1122  0.3358
  653TIP3   OH2 1964   5.881   4.804   1.700 -0.2278  0.1324 -0.0587
  653TIP3    H1 1965   5.831   4.885   1.687 -0.5278 -0.1648 -0.7554
  653TIP3    H2 1966   5.823   4.749   1.753 -0.7127 -0.2598 -0.9671
  654TIP3   OH2 1967   4.186   5.392   1.466  0.7520  0.2222  0.4640
  654TIP3    H1 1968   4.179   5.311   1.517 -0.2459  1.0481  1.7026
  654TIP3    H2 1969   4.128   5.378   1.391 -0.6806  0.3601  1.5079
  655TIP3   OH2 1970   2.471   4.114   3.164  0.9134  0.1643  0.2826
  655TIP3    H1 1971   2.380   4.126   3.137  0.8070  1.7269  1.2197
  655TIP3    H2 1972   2.508   4.203   3.164  2.9481 -0.5870 -1.7075
  656TIP3   OH2 1973   4.964   3.451   0.850  0.5316 -0.3571  0.1081
  656TIP3    H1 1974   4.903   3.428   0.780  0.2578  0.1197  0.1825
  656TIP3    H2 1975   4.963   3.375   0.908  1.5225 -1.1674 -0.8984
  657TIP3   OH2 1976   6.202   1.355   0.757  0.0452  0.3098  0.3442
  657TIP3    H1 1977   6.106   1.348   0.755 -0.2141  0.9810  3.9152
  657TIP3    H2 1978   6.230   1.313   0.676 -3.2982  1.4207 -1.6223
  658TIP3   OH2 1979   3.177   5.234   3.045 -0.1472 -0.2855  0.7476
  658TIP3    H1 1980   3.151   5.197   2.960  1.2653 -2.9977  1.3762
  658TIP3    H2 1981   3.216   5.318   3.023  1.3915 -1.4783 -1.5105
  659TIP3   OH2 1982   3.221   3.465   1.590 -0.0524 -0.1488 -0.4420
  659TIP3    H1 1983   3.278   3.468   1.512  1.0091 -0.7198  0.2889
  659TIP3    H2 1984   3.281   3.474   1.664 -1.1345  1.1945  0.3151
  660TIP3   OH2 1985   5.497   3.412   3.386 -0.1412 -0.1204  0.1734
  660TIP3    H1 1986   5.547   3.382   3.462  1.1383  2.2460  0.3772
  660TIP3    H2 1987   5.554   3.478   3.346 -1.2594 -0.5281 -2.2297
  661TIP3   OH2 1988   2.177   4.671   1.911 -0.7316 -0.2312  0.3146
  661TIP3    H1 1989   2.105   4.711   1.960 -0.2815  0.2772  0.5817
  661TIP3    H2 1990   2.208   4.600   1.968 -1.4780 -0.9245 -0.1226
  662TIP3   OH2 1991   5.419   2.077   0.265 -0.4413  1.3528  0.1377
  662TIP3    H1 1992   5.411   2.043   0.175 -1.6843 -1.0182  1.0425
  662TIP3    H2 1993   5.377   2.163   0.261 -3.0786  0.1580 -1.0698
  663TIP3   OH2 1994   1.386   2.106   0.318 -0.0234 -0.5843  0.1528
  663TIP3    H1 1995   1.458   2.055   0.280  1.0171 -0.2695  1.6193
  663TIP3    H2 1996   1.307   2.061   0.288  0.8173 -1.7967 -0.3431
  664TIP3   OH2 1997   5.831   4.469   4.147 -0.8491  0.1630  0.1178
  664TIP3    H1 1998   5.830   4.453   4.242  0.2848  1.1981  0.3151
  664TIP3    H2 1999   5.861   4.559   4.138 -3.1043  0.8511 -1.1550
  665TIP3   OH2 2000   0.923   3.419   4.725  0.2497 -0.3813  0.4732
  665TIP3    H1 2001   1.018   3.411   4.735  0.6013 -0.7707 -2.1850
  665TIP3    H2 2002   0.906   3.513   4.727  0.8029 -0.2719  0.2562
  666TIP3   OH2 2003   2.385   0.799   0.623  0.0656  1.0476  0.0997
  666TIP3    H1 2004   2.316   0.755   0.674  0.8298 -2.3930 -1.5148
  666TIP3    H2 2005   2.466   0.780   0.671  1.0321 -3.6640 -2.7637
  667TIP3   OH2 2006   2.437   0.765   0.341  0.0015 -0.0676 -0.1661
  667TIP3    H1 2007   2.409   0.807   0.422  1.1814 -0.0346  0.2374
  667TIP3    H2 2008   2.424   0.671   0.357  0.8485 -0.1094  0.3144
  668TIP3   OH2 2009   3.939   2.126   2.687 -0.1179 -0.0208 -0.0685
  668TIP3    H1 2010   3.927   2.065   2.760  2.9215 -1.7318 -0.8602
  668TIP3    H2 2011   3.952   2.211   2.730  3.0845 -1.2041  1.6211
  669TIP3   OH2 2012   1.493   2.382   1.530 -0.1243 -0.6665  0.3865
  669TIP3    H1 2013   1.467   2.328   1.456  0.7754 -0.1745 -0.3080
  669TIP3    H2 2014   1.438   2.460   1.524 -0.1566 -0.6943  0.3250
  670TIP3   OH2 2015   0.489   2.299   3.754  0.2399  0.6262 -0.2568
  670TIP3    H1 2016   0.433   2.278   3.829  1.7948 -0.6174  0.6119
  670TIP3    H2 2017   0.485   2.394   3.747 -0.4348  0.7187  0.9960
  671TIP3   OH2 2018   0.908   4.193   1.526  0.3984  0.0948  0.0418
  671TIP3    H1 2019   0.963   4.121   1.556  1.3658  0.3745 -0.9996
  671TIP3    H2 2020   0.821   4.155   1.519  0.8504 -0.9130 -0.2637
  672TIP3   OH2 2021   5.059   5.125   0.302 -0.2647 -0.4007 -0.2422
  672TIP3    H1 2022   4.964   5.125   0.316 -0.3112 -0.8366 -0.5413
  672TIP3    H2 2023   5.091   5.057   0.362 -0.3542 -1.5594 -1.4589
  673TIP3   OH2 2024   4.347   2.031   2.321 -0.2230 -0.0831 -0.3606
  673TIP3    H1 2025   4.379   1.946   2.350 -0.1790  0.1666  0.3351
  673TIP3    H2 2026   4.290   2.011   2.247  0.9662 -0.5925 -1.1779
  674TIP3   OH2 2027   5.546   3.616   1.063 -0.3400  0.6477  0.8505
  674TIP3    H1 2028   5.473   3.667   1.027  0.1148  0.0080 -1.0673
  674TIP3    H2 2029   5.506   3.535   1.094 -0.3050 -0.2900 -1.4428
  675TIP3   OH2 2030   5.391   1.505   4.348 -0.7212 -0.1996  0.3734
  675TIP3    H1 2031   5.391   1.543   4.436 -1.8365 -2.1555  1.2799
  675TIP3    H2 2032   5.469   1.542   4.306 -0.2182  0.8579  2.1368
  676TIP3   OH2 2033   0.025   0.936   5.052 -0.0499  0.2003  0.4312
  676TIP3    H1 2034   0.027   0.848   5.090 -1.9084 -0.0115  0.1040
  676TIP3    H2 2035   0.093   0.935   4.984 -1.1229 -1.5201 -0.6700
  677TIP3   OH2 2036   5.451   0.620   0.393  0.3339  0.3829 -0.0345
  677TIP3    H1 2037   5.396   0.587   0.321 -1.2138  1.0359  0.8140
  677TIP3    H2 2038   5.389   0.641   0.462  1.8597 -1.2695  1.9527
  678TIP3   OH2 2039   0.526   1.776   4.390  0.7743  0.6032 -0.1651
  678TIP3    H1 2040   0.485   1.715   4.328  0.9584  1.7730 -1.4961
  678TIP3    H2 2041   0.537   1.725   4.470 -0.8270 -0.5361 -0.6208
  679TIP3   OH2 2042   3.331   3.017   2.716 -0.1432 -0.4558  0.1148
  679TIP3    H1 2043   3.416   3.058   2.735 -0.4805 -0.4932  1.7682
  679TIP3    H2 2044   3.332   2.936   2.766 -2.1964  0.7916  2.3497
  680TIP3   OH2 2045   0.126   3.294   3.300  0.0903  0.0730  0.3332
  680TIP3    H1 2046   0.100   3.383   3.323 -1.5231 -0.2301 -0.2116
  680TIP3    H2 2047   0.193   3.271   3.365 -1.6606  0.5787  2.4593
  681TIP3   OH2 2048   1.677   0.470   1.876  0.7915  0.3991  0.3906
  681TIP3    H1 2049   1.671   0.532   1.804  0.6750  1.2140  1.0891
  681TIP3    H2 2050   1.764   0.431   1.866  0.2914 -0.4623 -0.9330
  682TIP3   OH2 2051   1.970   4.598   4.153  0.0044  0.3207  0.4385
  682TIP3    H1 2052   2.055   4.581   4.112  0.5899 -0.9283  2.1081
  682TIP3    H2 2053   1.959   4.693   4.146 -1.3049  0.1036 -5.1336
  683TIP3   OH2 2054   4.544   2.653   0.308 -0.2784  0.0452  0.4659
  683TIP3    H1 2055   4.468   2.597   0.292 -0.2499 -0.3617  1.6499
  683TIP3    H2 2056   4.509   2.729   0.354 -0.2688  0.8578 -0.8546
  684TIP3   OH2 2057   4.387   0.874   4.039  0.0700 -0.4646  0.1851
  684TIP3    H1 2058   4.414   0.835   3.956 -0.6057  0.8592 -0.6993
  684TIP3    H2 2059   4.292   0.871   4.037  0.0430  0.0056  0.6974
  685TIP3   OH2 2060   5.924   1.370   4.023  0.2111  0.3196  1.0627
  685TIP3    H1 2061   5.836   1.348   3.991  0.6953  1.2519 -1.1112
  685TIP3    H2 2062   5.917   1.461   4.050  0.1125 -0.1130  2.5535
  686TIP3   OH2 2063   2.112   4.216   4.621  0.4191  0.0968  0.0006
  686TIP3    H1 2064   2.052   4.229   4.694  1.1483 -0.2317  0.6711
  686TIP3    H2 2065   2.123   4.121   4.616 -0.2327  0.0529 -1.0515
  687TIP3   OH2 2066   2.690   5.351   2.828 -0.0638 -0.0996  0.1683
  687TIP3    H1 2067   2.755   5.283   2.842 -0.2332 -0.8500 -2.3187
  687TIP3    H2 2068   2.626   5.313   2.769 -2.1510  1.0465  1.5429
  688TIP3   OH2 2069   3.783   1.746   3.166 -0.3461 -0.0706 -0.2549
  688TIP3    H1 2070   3.841   1.742   3.091 -0.2282  0.5452 -0.2067
  688TIP3    H2 2071   3.841   1.756   3.241 -0.4710 -0.4945 -0.1034
  689TIP3   OH2 2072   0.324   1.978   1.818 -0.0150 -0.1879  0.5728
  689TIP3    H1 2073   0.354   1.887   1.820 -0.6380 -0.4010  0.3072
  689TIP3    H2 2074   0.301   1.994   1.727  0.9968  0.5448  0.4258
  690TIP3   OH2 2075   4.046   1.192   4.326  0.6237  0.0139  0.1016
  690TIP3    H1 2076   4.122   1.135   4.342 -0.2417 -0.9538  0.8769
  690TIP3    H2 2077   3.983   1.168   4.394  0.8547  3.0899  1.5750
  691TIP3   OH2 2078   3.411   0.489   3.521 -0.1312 -0.4023 -0.0173
  691TIP3    H1 2079   3.470   0.490   3.596 -1.3936 -1.8556  1.0356
  691TIP3    H2 2080   3.431   0.571   3.474  0.3589  0.7706  2.1261
  692TIP3   OH2 2081   2.882   4.364   3.390  0.3211 -0.1962 -0.2620
  692TIP3    H1 2082   2.891   4.423   3.316  2.6018 -0.4309 -0.2231
  692TIP3    H2 2083   2.854   4.420   3.462  3.8922  1.2557  0.1640
  693TIP3   OH2 2084   1.577   3.805   4.885  0.1150  0.3842 -0.3932
  693TIP3    H1 2085   1.578   3.806   4.981 -2.9827 -0.8652 -0.2357
  693TIP3    H2 2086   1.550   3.716   4.862 -2.5448  1.5196 -2.2273
  694TIP3   OH2 2087   1.821   4.172   2.874  0.2890 -0.2826  0.3496
  694TIP3    H1 2088   1.804   4.243   2.937 -1.4513 -0.2690 -0.0880
  694TIP3    H2 2089   1.742   4.169   2.820  0.1767 -2.7618  0.5591
  695TIP3   OH2 2090   3.522   5.865   4.703  0.5597 -0.4647 -0.8059
  695TIP3    H1 2091   3.592   5.899   4.759  0.5621 -1.1144 -0.4005
  695TIP3    H2 2092   3.484   5.793   4.754 -0.9241  0.3712 -0.6616
  696TIP3   OH2 2093   4.543   0.685   2.438 -0.5024  0.0216  0.1840
  696TIP3    H1 2094   4.580   0.624   2.375  1.1277  2.0370 -0.9534
  696TIP3    H2 2095   4.452   0.656   2.450 -0.4259 -1.2981 -1.9468
  697TIP3   OH2 2096   2.952   0.298   3.192  0.2750  0.2984  0.0075
  697TIP3    H1 2097   2.890   0.316   3.263  1.7721  0.8318  1.2423
  697TIP3    H2 2098   2.959   0.380   3.144 -0.5082  0.0262 -0.5820
  698TIP3   OH2 2099   4.405   4.341   1.330  0.3345  0.1563 -0.1949
  698TIP3    H1 2100   4.340   4.341   1.400 -1.8307 -0.2178 -2.0674
  698TIP3    H2 2101   4.433   4.432   1.323 -1.2168  0.6509 -0.3494
  699TIP3   OH2 2102   0.148   1.594   4.382 -0.2164 -0.1603 -0.0224
  699TIP3    H1 2103   0.163   1.503   4.356 -0.5306 -0.0869 -0.4788
  699TIP3    H2 2104   0.170   1.597   4.475  0.4128 -0.5580 -0.1541
  700TIP3   OH2 2105   5.244   0.753   4.777  0.5436 -0.3742  0.4045
  700TIP3    H1 2106   5.235   0.816   4.848 -1.3019 -0.9051  0.7088
  700TIP3    H2 2107   5.310   0.791   4.720 -1.5750  2.7209 -0.2863
  701TIP3   OH2 2108   4.480   2.527   3.800 -0.0761  0.2201  0.1659
  701TIP3    H1 2109   4.498   2.438   3.833 -0.7946 -0.7175 -1.7994
  701TIP3    H2 2110   4.562   2.574   3.811  0.5000 -0.8723  0.6882
  702TIP3   OH2 2111   2.398   0.255   0.254 -0.2983  0.8647  0.7311
  702TIP3    H1 2112   2.356   0.201   0.322 -2.5151  2.3183  0.6271
  702TIP3    H2 2113   2.345   0.240   0.176  1.6673 -0.0669 -0.4949
  703TIP3   OH2 2114   6.198   5.491   3.275  0.1979  0.8316  0.1094
  703TIP3    H1 2115   6.198   5.466   3.367 -1.7752 -2.3471 -0.6210
  703TIP3    H2 2116   6.108   5.519   3.257  0.3914  0.8086 -0.9820
  704TIP3   OH2 2117   0.497   3.512   2.445  0.6648  0.2948 -0.0617
  704TIP3    H1 2118   0.555   3.518   2.370  2.5822  2.3060  1.4456
  704TIP3    H2 2119   0.509   3.595   2.491 -1.3571 -0.3593  1.8250
  705TIP3   OH2 2120   2.928  -0.009   0.825  0.3839 -0.1419 -0.3262
  705TIP3    H1 2121   2.907   0.081   0.801 -2.2241 -0.4644  0.4876
  705TIP3    H2 2122   2.924  -0.057   0.743 -0.9128  0.0501 -0.3964
  706TIP3   OH2 2123   4.465   3.810   0.333 -0.7070 -0.0068 -0.0224
  706TIP3    H1 2124   4.381   3.791   0.293  0.6453  0.3098 -3.3398
  706TIP3    H2 2125   4.485   3.732   0.385 -1.4750 -1.7041 -2.1155
  707TIP3   OH2 2126   1.323   3.494   1.763 -0.0399 -0.2897  0.4775
  707TIP3    H1 2127   1.376   3.438   1.819 -0.9002 -0.4454  1.1553
  707TIP3    H2 2128   1.345   3.466   1.674 -1.5136 -2.7612  0.8098
  708TIP3   OH2 2129   5.868   3.387   1.706 -0.4110 -0.2273  0.3246
  708TIP3    H1 2130   5.889   3.478   1.728  0.2635 -0.0671 -0.8683
  708TIP3    H2 2131   5.861   3.343   1.790  2.4543  0.2502  0.9219
  709TIP3   OH2 2132   5.707   5.231   0.364  0.0050  0.2397  0.7126
  709TIP3    H1 2133   5.712   5.315   0.409  0.4542 -0.4766  2.0415
  709TIP3    H2 2134   5.782   5.181   0.397 -0.8480 -1.0766  0.7590
  710TIP3   OH2 2135   3.725   3.829   4.577  0.4848 -0.9700 -0.3139
  710TIP3    H1 2136   3.676   3.777   4.640 -2.1265 -0.5461 -1.8749
  710TIP3    H2 2137   3.696   3.797   4.492  1.1118  0.9568 -1.2976
  711TIP3   OH2 2138   3.850   1.378   2.310 -0.8344 -0.1610  0.6221
  711TIP3    H1 2139   3.802   1.453   2.345 -0.2990 -0.2178  1.5200
  711TIP3    H2 2140   3.867   1.322   2.386  2.8549  1.0729  0.9382
  712TIP3   OH2 2141   5.760   0.269   4.253 -0.3107 -0.4009  0.3055
  712TIP3    H1 2142   5.757   0.179   4.288 -1.5384 -1.2803 -1.8543
  712TIP3    H2 2143   5.799   0.320   4.323 -0.2349 -2.4945  1.9090
  713TIP3   OH2 2144   6.041   1.829   2.700 -0.5836 -0.0723 -0.0265
  713TIP3    H1 2145   6.074   1.857   2.786 -0.6030 -1.7005  0.5400
  713TIP3    H2 2146   5.951   1.801   2.718 -0.2967 -1.2763 -0.3809
  714TIP3   OH2 2147   5.077   1.252   0.291  0.3704 -0.5956 -0.9449
  714TIP3    H1 2148   5.105   1.343   0.289  0.4566 -0.5254  1.1787
  714TIP3    H2 2149   4.991   1.252   0.250  0.5000  0.3809 -1.2454
  715TIP3   OH2 2150   4.785   1.310   3.936  0.0797  0.4104  0.2480
  715TIP3    H1 2151   4.763   1.340   4.025  0.4512  0.6655  0.2561
  715TIP3    H2 2152   4.709   1.336   3.883 -0.4627 -0.3877  0.6228
  716TIP3   OH2 2153   6.175   5.920   5.028 -0.5924  0.3222 -0.2234
  716TIP3    H1 2154   6.180   6.012   5.001 -1.9715  0.8939  1.2846
  716TIP3    H2 2155   6.223   5.916   5.110  0.7740 -0.6716 -1.0337
  717TIP3   OH2 2156   3.626   1.083   2.665  0.6172 -0.4017 -0.1368
  717TIP3    H1 2157   3.645   1.088   2.572 -0.1766  2.3784 -0.2457
  717TIP3    H2 2158   3.534   1.055   2.670 -0.7776  3.4979 -0.5342
  718TIP3   OH2 2159   4.630   4.102   3.709  0.2694 -0.0387  0.3560
  718TIP3    H1 2160   4.586   4.083   3.627  0.4897  2.5340 -0.4333
  718TIP3    H2 2161   4.722   4.112   3.685  0.1825  1.7856  0.6811
  719TIP3   OH2 2162   3.366   0.239   1.150  0.7518  0.3376  0.3591
  719TIP3    H1 2163   3.414   0.233   1.233  0.2483 -1.9943  0.5507
  719TIP3    H2 2164   3.429   0.210   1.084  0.7510  0.9176  0.1028
  720TIP3   OH2 2165   3.059   2.918   2.397  0.0008 -0.0184  0.0179
  720TIP3    H1 2166   3.093   3.007   2.411  0.3458 -0.1410 -0.0344
  720TIP3    H2 2167   3.029   2.918   2.306 -0.2207  0.1138  0.0885
  721TIP3   OH2 2168   1.456   3.900   4.193  0.1469 -0.2989  0.1239
  721TIP3    H1 2169   1.490   3.916   4.105 -0.7184 -2.0154 -0.5565
  721TIP3    H2 2170   1.533   3.897   4.248  0.6251  2.5902 -0.1990
  722TIP3   OH2 2171   6.002   2.150   1.048 -0.2937 -0.3274 -0.8422
  722TIP3    H1 2172   6.057   2.226   1.032 -0.3179 -0.0042  0.4857
  722TIP3    H2 2173   6.046   2.103   1.119 -1.0425 -0.7732 -0.6638
  723TIP3   OH2 2174   4.196   2.138   0.820  0.2730 -0.0264 -0.0708
  723TIP3    H1 2175   4.161   2.206   0.763  1.0114  0.1286 -0.3541
  723TIP3    H2 2176   4.185   2.057   0.770  0.0355 -0.0188 -0.0296
  724TIP3   OH2 2177   1.310   3.742   4.374  0.3722  0.1308  0.4237
  724TIP3    H1 2178   1.351   3.812   4.323  0.1832 -0.0640  0.0042
  724TIP3    H2 2179   1.316   3.773   4.465 -0.3838  1.0316  0.1844
  725TIP3   OH2 2180   4.983   1.787   3.850 -0.0555  0.0002 -0.3019
  725TIP3    H1 2181   4.891   1.767   3.866  0.5115 -0.3874  3.0603
  725TIP3    H2 2182   5.026   1.702   3.848  0.5067  0.2623  0.2734
  726TIP3   OH2 2183   1.943   2.602   2.245  0.0509  0.8988 -0.2768
  726TIP3    H1 2184   1.963   2.666   2.313  2.7747  0.7720 -0.8356
  726TIP3    H2 2185   1.933   2.653   2.165  0.0160  0.8033 -0.3344
  727TIP3   OH2 2186   5.372   0.281   3.438 -0.2162  0.2168 -0.2196
  727TIP3    H1 2187   5.317   0.291   3.360 -2.6367  0.8520  1.4405
  727TIP3    H2 2188   5.429   0.358   3.437 -0.9891  0.8017 -0.8235
  728TIP3   OH2 2189   2.785   0.871   1.826 -0.1048 -0.3950  0.7608
  728TIP3    H1 2190   2.859   0.821   1.859 -0.9764 -1.2313  1.5315
  728TIP3    H2 2191   2.728   0.805   1.786  0.3924  0.4542 -1.4909
  729TIP3   OH2 2192   0.188   5.120   0.746  0.2135  0.0769 -0.1010
  729TIP3    H1 2193   0.240   5.195   0.717 -0.2885 -0.1945 -1.8277
  729TIP3    H2 2194   0.159   5.143   0.834  2.7005  0.5072  0.6890
  730TIP3   OH2 2195   2.688   3.727   3.387  0.4854  0.4943  0.2450
  730TIP3    H1 2196   2.707   3.671   3.463  1.0264  1.2513  0.6826
  730TIP3    H2 2197   2.667   3.666   3.317 -1.3020 -0.2169  1.3161
  731TIP3   OH2 2198   4.291   5.065   0.421 -0.4045 -0.2455 -0.3670
  731TIP3    H1 2199   4.252   5.139   0.374  0.4932 -0.2710 -1.2003
  731TIP3    H2 2200   4.310   5.001   0.353 -0.5710 -0.9777  0.2647
  732TIP3   OH2 2201   4.509   0.696   4.440 -0.3009  0.2062  0.2584
  732TIP3    H1 2202   4.543   0.633   4.504  0.1624  1.0197  0.8318
  732TIP3    H2 2203   4.577   0.764   4.435 -0.4828  0.3262 -0.8517
  733TIP3   OH2 2204   3.392   2.088   5.156  0.3090  0.4744  0.1120
  733TIP3    H1 2205   3.441   2.167   5.131  0.6139  0.4750  0.6944
  733TIP3    H2 2206   3.456   2.017   5.151  0.2602  0.4053  0.4379
  734TIP3   OH2 2207   0.182   2.197   2.985 -0.0673  0.1304  0.3075
  734TIP3    H1 2208   0.169   2.244   3.068  0.7460  0.3013  0.3399
  734TIP3    H2 2209   0.276   2.179   2.982 -0.2695 -0.9293 -0.0199
  735TIP3   OH2 2210   4.216   0.163   3.318 -0.1378 -0.9170  0.4995
  735TIP3    H1 2211   4.188   0.102   3.385  0.8318 -2.9509 -0.8475
  735TIP3    H2 2212   4.146   0.160   3.252  0.1413 -0.9762  0.2009
  736TIP3   OH2 2213   4.725   1.722   4.537  0.1129 -0.6514  0.1265
  736TIP3    H1 2214   4.760   1.730   4.626 -1.5136  3.3856  0.6139
  736TIP3    H2 2215   4.635   1.752   4.544  0.2361  0.8134 -3.0500
  737TIP3   OH2 2216   0.999   5.360   2.395  0.1003 -0.0624  0.2971
  737TIP3    H1 2217   1.030   5.353   2.306 -0.3355 -1.7431  0.2530
  737TIP3    H2 2218   0.908   5.391   2.387  0.7261  1.9572  0.3046
  738TIP3   OH2 2219   2.301   1.011   2.409 -0.0244 -0.0415 -0.7488
  738TIP3    H1 2220   2.281   0.959   2.332 -2.0090  1.6149 -1.4334
  738TIP3    H2 2221   2.218   1.050   2.434  1.0186  1.2930  0.8717
  739TIP3   OH2 2222   3.889   3.851   0.067 -0.4992  0.2810 -0.3686
  739TIP3    H1 2223   3.970   3.847   0.118  0.6336  1.2140 -2.0239
  739TIP3    H2 2224   3.843   3.770   0.089  1.5895 -1.0096 -0.5532
  740TIP3   OH2 2225   4.893   4.098   1.344  0.2059  0.0200  0.5531
  740TIP3    H1 2226   4.889   4.004   1.359 -0.8363 -0.3621 -1.7632
  740TIP3    H2 2227   4.966   4.110   1.283  0.2528  0.7074  0.7336
  741TIP3   OH2 2228   3.592   5.157   2.768 -0.1799 -0.0305  0.8127
  741TIP3    H1 2229   3.574   5.251   2.762  1.0314  0.4637  3.6151
  741TIP3    H2 2230   3.632   5.135   2.684 -4.1682  0.9443 -1.6299
  742TIP3   OH2 2231   4.526   5.530   2.918 -0.2503  0.3343 -0.1278
  742TIP3    H1 2232   4.480   5.450   2.891 -0.4229  0.8936 -1.5839
  742TIP3    H2 2233   4.566   5.507   3.001 -0.6750 -1.1338 -0.2929
  743TIP3   OH2 2234   3.378   4.729   1.829  0.3113  0.3598 -0.6667
  743TIP3    H1 2235   3.286   4.708   1.847  0.4955 -1.7200 -1.9165
  743TIP3    H2 2236   3.406   4.781   1.905 -2.0199  1.5385 -0.5251
  744TIP3   OH2 2237   3.196   5.392   2.731  0.5286  0.0524  0.2546
  744TIP3    H1 2238   3.186   5.407   2.825 -1.0361 -0.0646  0.1412
  744TIP3    H2 2239   3.109   5.409   2.695  0.6804 -1.5097 -0.9456
  745TIP3   OH2 2240   4.068   4.118   2.338  0.1954  0.3986 -0.0562
  745TIP3    H1 2241   4.157   4.129   2.371 -0.3855  1.5049  1.2721
  745TIP3    H2 2242   4.022   4.196   2.368 -1.8020 -1.2064  1.4132
  746TIP3   OH2 2243   3.006   1.322   0.217  0.5792 -0.3635 -0.6525
  746TIP3    H1 2244   3.045   1.390   0.272  0.7974 -0.4835 -0.6557
  746TIP3    H2 2245   2.991   1.365   0.133 -0.9118  0.1778 -0.1473
  747TIP3   OH2 2246   0.751   4.546   3.520 -0.6873  0.6233 -0.1784
  747TIP3    H1 2247   0.670   4.501   3.543 -1.4125  1.4122 -1.1131
  747TIP3    H2 2248   0.809   4.477   3.488 -1.5617  0.2598 -1.0154
  748TIP3   OH2 2249   5.570   0.206   1.886 -0.1460 -0.0878 -0.7854
  748TIP3    H1 2250   5.634   0.249   1.830 -1.9814  4.1659  0.0193
  748TIP3    H2 2251   5.492   0.198   1.832 -0.0375 -2.0410 -0.7162
  749TIP3   OH2 2252   4.253   1.221   2.600  0.1995 -0.3876 -0.1697
  749TIP3    H1 2253   4.341   1.258   2.586 -0.2040  1.0460  0.9185
  749TIP3    H2 2254   4.255   1.188   2.690 -0.1972 -0.9253 -0.3526
  750TIP3   OH2 2255   1.822   3.303   2.815 -0.2809 -0.5207  0.1818
  750TIP3    H1 2256   1.822   3.211   2.791 -0.0858 -0.5093  0.1336
  750TIP3    H2 2257   1.883   3.309   2.889  0.9876 -0.1623 -0.8735
  751TIP3   OH2 2258   2.519   1.840   1.447  0.7496  0.0230 -0.0929
  751TIP3    H1 2259   2.514   1.788   1.527  0.3982  1.4126  0.8237
  751TIP3    H2 2260   2.613   1.850   1.430  0.8264 -1.2620 -0.5527
  752TIP3   OH2 2261   1.158   2.175   2.818  0.1437 -0.1335 -0.5414
  752TIP3    H1 2262   1.143   2.084   2.843 -0.4627 -0.2597 -1.3271
  752TIP3    H2 2263   1.204   2.213   2.893  1.7154 -1.4499 -0.7790
  753TIP3   OH2 2264   1.874   4.368   0.596 -0.1695  0.7743  0.0242
  753TIP3    H1 2265   1.939   4.297   0.591  1.5444  2.3454 -1.4427
  753TIP3    H2 2266   1.803   4.339   0.538  0.8695  0.5435 -1.1992
  754TIP3   OH2 2267   1.914   3.482   1.282 -0.1530  0.4455  0.4662
  754TIP3    H1 2268   1.823   3.455   1.296  0.0687  0.3582  1.9273
  754TIP3    H2 2269   1.965   3.402   1.296  0.2359  0.7660  0.8950
  755TIP3   OH2 2270   0.733   4.854   3.509  0.3795 -0.6698  0.3533
  755TIP3    H1 2271   0.698   4.765   3.505 -0.2520 -0.3951 -0.4665
  755TIP3    H2 2272   0.763   4.872   3.419 -0.4329  0.3060  0.2611
  756TIP3   OH2 2273   0.766   4.410   0.122 -0.2196 -0.1961 -0.4637
  756TIP3    H1 2274   0.719   4.343   0.071 -0.1056 -0.2078 -0.5526
  756TIP3    H2 2275   0.842   4.432   0.069 -0.1573 -0.1301 -0.3478
  757TIP3   OH2 2276   3.262   2.753   3.839  0.0517 -0.4480 -0.0054
  757TIP3    H1 2277   3.253   2.833   3.787 -1.1246 -0.7073 -0.2263
  757TIP3    H2 2278   3.351   2.758   3.875 -0.6556  1.9335  1.6117
  758TIP3   OH2 2279   5.717   3.925   0.772  0.1553  0.9204  0.4655
  758TIP3    H1 2280   5.800   3.957   0.738  0.6344  1.3375  1.9251
  758TIP3    H2 2281   5.655   3.935   0.700  1.0132  2.1025 -0.1383
  759TIP3   OH2 2282   1.141   5.861   2.973 -0.2595 -0.2833 -0.2291
  759TIP3    H1 2283   1.226   5.817   2.966 -0.8626 -1.4208 -0.5958
  759TIP3    H2 2284   1.077   5.797   2.942 -1.5164 -0.2931  2.1556
  760TIP3   OH2 2285   5.068   0.146   4.762 -0.3142  0.1673 -0.0327
  760TIP3    H1 2286   5.059   0.152   4.667 -0.8167  0.1417  0.0098
  760TIP3    H2 2287   5.153   0.106   4.776 -0.4090 -0.1900 -0.4812
  761TIP3   OH2 2288   0.660   2.135   4.052  0.0521  0.2059 -0.4607
  761TIP3    H1 2289   0.651   2.085   4.133  0.8491  1.8618  0.7120
  761TIP3    H2 2290   0.571   2.152   4.023 -0.2331 -0.8017 -0.2016
  762TIP3   OH2 2291   5.374   4.263   3.402 -0.3750  0.1529 -0.5683
  762TIP3    H1 2292   5.418   4.347   3.416 -1.8264  0.8577 -0.0370
  762TIP3    H2 2293   5.445   4.202   3.382  0.6758  1.5879 -1.4121
  763TIP3   OH2 2294   4.146   1.448   2.327 -0.1246  0.0837 -0.1158
  763TIP3    H1 2295   4.140   1.528   2.379 -0.1692  0.1648 -0.2432
  763TIP3    H2 2296   4.077   1.392   2.361  0.8692 -0.4968  0.9806
  764TIP3   OH2 2297   5.677   4.769   4.449 -0.1567  0.2589  0.6607
  764TIP3    H1 2298   5.678   4.729   4.536 -1.1319 -0.0818  0.5209
  764TIP3    H2 2299   5.647   4.859   4.464 -1.5291 -0.1551  0.5540
  765TIP3   OH2 2300   1.274   1.072   0.168 -0.2707  0.2190 -0.0389
  765TIP3    H1 2301   1.343   1.102   0.227 -0.8416 -0.2136  0.8682
  765TIP3    H2 2302   1.279   1.132   0.093  0.1654  1.0617  0.6467
  766TIP3   OH2 2303   0.862   1.309   0.901  0.4409  0.4190 -0.5717
  766TIP3    H1 2304   0.925   1.253   0.947 -0.5524 -0.8017 -0.6516
  766TIP3    H2 2305   0.854   1.386   0.957  0.0626 -0.5674  0.7779
  767TIP3   OH2 2306   2.830   1.015   2.381 -0.2866  0.5045  0.1489
  767TIP3    H1 2307   2.737   0.993   2.380  0.1161 -1.4508 -1.4189
  767TIP3    H2 2308   2.855   1.018   2.288  1.4292 -0.0731  0.5532
  768TIP3   OH2 2309   5.206   1.122   1.520  0.1338 -0.0120  0.7493
  768TIP3    H1 2310   5.153   1.046   1.544  0.1208  0.0633  0.9600
  768TIP3    H2 2311   5.271   1.130   1.590 -0.6651  0.9368  1.4021
  769TIP3   OH2 2312   0.466   4.464   3.509  0.2766 -0.4420 -0.1729
  769TIP3    H1 2313   0.431   4.383   3.474  2.2718 -1.5012  0.1313
  769TIP3    H2 2314   0.413   4.533   3.469 -1.1591 -1.8486 -0.7978
  770TIP3   OH2 2315   4.899   2.916   5.093 -0.1219 -0.2323  0.7475
  770TIP3    H1 2316   4.921   2.900   5.002 -0.4710 -0.7449  0.7492
  770TIP3    H2 2317   4.806   2.896   5.100  0.2505 -1.9097  1.5771
  771TIP3   OH2 2318   4.867   2.737   4.041 -0.2032  0.1342  0.1079
  771TIP3    H1 2319   4.877   2.656   4.092  0.7296  0.3777  0.3140
  771TIP3    H2 2320   4.789   2.778   4.079  0.5976  0.4312  1.5261
  772TIP3   OH2 2321   0.821   3.596   1.733  0.4011  0.4804 -0.2180
  772TIP3    H1 2322   0.754   3.530   1.717  0.0930  0.5297  0.7638
  772TIP3    H2 2323   0.825   3.647   1.652  0.6519 -0.7353 -0.9959
  773TIP3   OH2 2324   1.974   0.436   1.820 -0.2773  0.1108  0.4661
  773TIP3    H1 2325   2.022   0.360   1.852 -0.8807  0.4087  2.1925
  773TIP3    H2 2326   2.041   0.492   1.781 -0.1117 -2.3823 -3.3070
  774TIP3   OH2 2327   5.904   1.243   3.116 -0.2674 -0.0346  0.7505
  774TIP3    H1 2328   5.834   1.305   3.097  0.5468  0.7098  0.0592
  774TIP3    H2 2329   5.976   1.269   3.058 -0.3386 -2.4689 -0.6001
  775TIP3   OH2 2330   4.112   4.509   1.172 -0.4260 -0.3237 -0.2606
  775TIP3    H1 2331   4.206   4.503   1.161 -0.4118  0.5047 -0.6227
  775TIP3    H2 2332   4.098   4.494   1.266  0.3951  2.8056  0.4862
  776TIP3   OH2 2333   2.371   0.788   3.965 -0.8288 -0.1349 -0.0208
  776TIP3    H1 2334   2.409   0.773   3.878  1.6889 -0.3199  1.0256
  776TIP3    H2 2335   2.412   0.721   4.020 -5.0660 -2.4620  0.7096
  777TIP3   OH2 2336   4.146   2.087   0.168  0.3365 -0.1662 -0.4415
  777TIP3    H1 2337   4.194   2.121   0.093  3.2410 -1.8051  0.5062
  777TIP3    H2 2338   4.214   2.058   0.229 -1.8872  0.0606  2.3698
  778TIP3   OH2 2339   5.939   5.864   0.906  0.1436 -0.1504 -0.1363
  778TIP3    H1 2340   5.986   5.864   0.989 -0.0135  0.3756 -0.0449
  778TIP3    H2 2341   6.007   5.845   0.841  0.2197 -0.8168  0.1317
  779TIP3   OH2 2342   3.772   1.011   4.158  0.4786  0.6073 -0.1855
  779TIP3    H1 2343   3.845   0.964   4.199  0.4730 -0.3680 -1.2531
  779TIP3    H2 2344   3.696   0.991   4.213  0.6965  0.2851 -0.0026
  780TIP3   OH2 2345   3.199   1.307   2.392 -0.2095  0.4416 -0.4499
  780TIP3    H1 2346   3.142   1.277   2.464  1.4890 -2.6723 -0.2283
  780TIP3    H2 2347   3.158   1.270   2.314  0.6850 -0.5605 -0.4552
  781TIP3   OH2 2348   6.200   0.553   4.084 -0.3840  0.1351  0.6608
  781TIP3    H1 2349   6.222   0.523   4.172 -1.1195 -0.4861  0.6376
  781TIP3    H2 2350   6.108   0.531   4.073 -0.0999 -0.5757 -0.5695
  782TIP3   OH2 2351   0.219   4.642   0.396 -0.0201  0.4105  0.7389
  782TIP3    H1 2352   0.161   4.690   0.456  0.5913  1.1138  0.7810
  782TIP3    H2 2353   0.160   4.606   0.330 -0.3407  3.1678 -0.6373
  783TIP3   OH2 2354   3.421   0.601   2.522 -0.0543 -0.2149 -0.2394
  783TIP3    H1 2355   3.384   0.684   2.491 -1.7903 -0.8735 -0.0440
  783TIP3    H2 2356   3.512   0.622   2.540 -0.6706  1.9266  0.7880
  784TIP3   OH2 2357   5.895   5.720   3.541 -0.4133 -1.0702 -0.5902
  784TIP3    H1 2358   5.971   5.689   3.590 -0.5943 -2.2423 -1.0238
  784TIP3    H2 2359   5.914   5.699   3.450 -0.2190  0.8088 -1.0291
  785TIP3   OH2 2360   5.108   3.192   0.362 -0.3017 -0.3876  0.4531
  785TIP3    H1 2361   5.150   3.122   0.314 -0.5606 -0.8436  0.8800
  785TIP3    H2 2362   5.018   3.194   0.329  0.5176  1.9896 -2.0180
  786TIP3   OH2 2363   4.710   2.520   3.013  0.1523 -0.2113 -0.2247
  786TIP3    H1 2364   4.638   2.493   3.069  1.2655 -1.1581  0.8003
  786TIP3    H2 2365   4.738   2.605   3.047 -1.0895  0.6522 -1.2600
  787TIP3   OH2 2366   4.016   2.785   5.124  0.1292  0.3328  0.1127
  787TIP3    H1 2367   3.998   2.706   5.074  1.4507  0.8391 -1.2404
  787TIP3    H2 2368   4.111   2.785   5.137 -0.0978  0.5831  2.0679
  788TIP3   OH2 2369   3.195   3.049   3.689  0.0947 -0.2181 -0.2327
  788TIP3    H1 2370   3.138   2.977   3.662  0.6426 -0.5819 -0.4472
  788TIP3    H2 2371   3.180   3.058   3.783 -0.6869  0.0257 -0.3768
  789TIP3   OH2 2372   0.615   2.811   3.125  0.2168 -0.6596 -0.9969
  789TIP3    H1 2373   0.589   2.899   3.152  1.2099 -0.9044  0.9671
  789TIP3    H2 2374   0.551   2.753   3.166  0.9876 -0.9735 -0.2009
  790TIP3   OH2 2375   0.926   3.936   4.838 -0.2489 -0.4261 -0.0097
  790TIP3    H1 2376   0.984   4.012   4.850  0.9768 -1.3488  0.1228
  790TIP3    H2 2377   0.842   3.974   4.813  0.6541  0.9195 -1.1541
  791TIP3   OH2 2378   2.389   2.756   3.187 -0.2044 -0.9467  0.7999
  791TIP3    H1 2379   2.454   2.728   3.251  1.5809 -2.3565 -1.4698
  791TIP3    H2 2380   2.311   2.705   3.207  0.5038 -1.7805  1.4884
  792TIP3   OH2 2381   4.279   2.342   4.417  0.1267 -0.3863 -0.5386
  792TIP3    H1 2382   4.307   2.407   4.353  0.6837  0.8359  0.8891
  792TIP3    H2 2383   4.212   2.291   4.372  0.3054  0.6010 -1.9878
  793TIP3   OH2 2384   2.507   1.703   1.701  0.1965 -0.1171 -0.1154
  793TIP3    H1 2385   2.558   1.756   1.762 -2.5275  0.8735  1.4873
  793TIP3    H2 2386   2.469   1.634   1.755 -0.0161 -0.9463 -1.2883
  794TIP3   OH2 2387   3.681   1.116   2.382  0.4193  0.3497 -0.1949
  794TIP3    H1 2388   3.707   1.104   2.291  3.3134  1.5329  0.3551
  794TIP3    H2 2389   3.615   1.185   2.380  0.8285  0.7221 -1.3604
  795TIP3   OH2 2390   0.985   4.363   3.855  0.0056  0.2859 -0.5659
  795TIP3    H1 2391   1.010   4.453   3.836  2.4636  0.3408  2.2791
  795TIP3    H2 2392   1.061   4.310   3.832  0.6329 -0.3490  2.5036
  796TIP3   OH2 2393   0.341   2.372   4.216 -0.3039 -0.1638  0.5013
  796TIP3    H1 2394   0.312   2.350   4.304 -0.8475 -2.3918 -0.1648
  796TIP3    H2 2395   0.419   2.427   4.229  1.0530 -2.3604  2.4388
  797TIP3   OH2 2396   4.353   2.479   0.185 -0.2942  0.2452 -1.1353
  797TIP3    H1 2397   4.421   2.444   0.128 -0.5530  0.6363 -1.6955
  797TIP3    H2 2398   4.272   2.464   0.137 -0.5293  0.4239 -0.7942
  798TIP3   OH2 2399   5.904   2.445   5.144  0.0566  0.2706 -0.7410
  798TIP3    H1 2400   5.866   2.481   5.225  1.8203 -2.9454  1.7425
  798TIP3    H2 2401   5.860   2.360   5.133  2.1774 -0.8431 -1.1755
  799TIP3   OH2 2402   5.836   4.818   3.566 -0.4598  0.5353 -0.3598
  799TIP3    H1 2403   5.919   4.788   3.604 -1.4034 -3.3096 -0.8935
  799TIP3    H2 2404   5.769   4.770   3.615 -2.1988  1.5632 -1.6448
  800TIP3   OH2 2405   4.622   2.511   3.483  0.0124 -0.3334 -0.2675
  800TIP3    H1 2406   4.686   2.537   3.549  1.7028  1.6104 -2.4512
  800TIP3    H2 2407   4.582   2.432   3.517  1.8536 -0.2571  2.3505
  801TIP3   OH2 2408   5.665   5.838   4.280 -0.1553 -0.2696 -0.5748
  801TIP3    H1 2409   5.726   5.835   4.206 -0.1591  1.7122 -0.7121
  801TIP3    H2 2410   5.721   5.856   4.356 -0.3496 -0.5763 -0.3552
  802TIP3   OH2 2411   2.147   3.940   4.610  0.0638  0.5559  0.0792
  802TIP3    H1 2412   2.241   3.937   4.631  0.5257  3.7953 -0.9846
  802TIP3    H2 2413   2.130   3.856   4.567  2.5432 -0.0009 -0.0167
  803TIP3   OH2 2414   3.761   3.945   1.271 -0.4266 -0.0908 -0.2091
  803TIP3    H1 2415   3.742   4.039   1.282  0.4488  0.0656  0.0200
  803TIP3    H2 2416   3.714   3.921   1.191  0.4014  0.8571 -1.0104
  804TIP3   OH2 2417   0.895   2.439   4.166 -0.1880  0.2386 -0.4704
  804TIP3    H1 2418   0.869   2.530   4.178 -0.2487  0.0735  0.7262
  804TIP3    H2 2419   0.907   2.405   4.254  1.1097 -0.5571 -0.9242
  805TIP3   OH2 2420   5.093   2.630   3.567 -0.0886 -0.7469 -0.5171
  805TIP3    H1 2421   5.116   2.693   3.498  2.3396 -0.8019  0.1537
  805TIP3    H2 2422   5.076   2.684   3.644  0.4931 -0.8316 -0.3265
  806TIP3   OH2 2423   2.157   4.475   2.515 -0.1694  0.0045 -0.9153
  806TIP3    H1 2424   2.107   4.402   2.552  1.4136  0.1162  1.6711
  806TIP3    H2 2425   2.222   4.432   2.458 -0.4906 -0.4515 -0.9466
  807TIP3   OH2 2426   4.732   5.029   1.899  0.0941  0.1172  0.0772
  807TIP3    H1 2427   4.643   5.048   1.929  0.4656  0.8477  0.7358
  807TIP3    H2 2428   4.729   4.937   1.871 -0.4550 -0.3803  1.6814
  808TIP3   OH2 2429   1.675   4.001   1.444  0.3153 -0.1078  0.4152
  808TIP3    H1 2430   1.651   3.973   1.356 -1.4479  1.0557  0.4772
  808TIP3    H2 2431   1.733   4.076   1.431  1.3713 -0.9304  0.2685
  809TIP3   OH2 2432   1.474   0.205   0.972  0.8449 -0.1994  0.1829
  809TIP3    H1 2433   1.457   0.170   0.885 -1.2833  0.4869  0.2812
  809TIP3    H2 2434   1.399   0.176   1.025  0.2473  2.3504  0.8713
  810TIP3   OH2 2435   0.088   4.244   0.210  0.0267 -0.0167 -0.8054
  810TIP3    H1 2436   0.070   4.272   0.121 -2.9478  1.7012  0.1939
  810TIP3    H2 2437   0.160   4.300   0.239  0.8594 -0.4340 -1.9782
  811TIP3   OH2 2438   3.247   5.668   4.698 -0.2668 -0.2894 -0.5454
  811TIP3    H1 2439   3.153   5.648   4.689 -0.3994  0.3027 -0.5432
  811TIP3    H2 2440   3.291   5.592   4.660 -0.7137 -1.2424  0.7880
  812TIP3   OH2 2441   1.870   0.134   0.787  0.4248  0.9158 -0.2202
  812TIP3    H1 2442   1.909   0.102   0.869  0.9151  0.1955 -0.7193
  812TIP3    H2 2443   1.818   0.210   0.813 -1.8605 -1.0289  1.2477
  813TIP3   OH2 2444   1.888   5.653   3.845 -0.2055 -0.1048 -0.1014
  813TIP3    H1 2445   1.803   5.660   3.889 -0.3983 -1.8416 -0.1421
  813TIP3    H2 2446   1.938   5.590   3.898  0.6139 -0.0378 -0.7706
  814TIP3   OH2 2447   0.476   4.341   4.060 -0.0386 -0.2603 -0.0568
  814TIP3    H1 2448   0.448   4.430   4.082 -0.2001 -0.5356  0.9117
  814TIP3    H2 2449   0.492   4.343   3.966 -0.1025  0.7750 -0.0529
  815TIP3   OH2 2450   2.889   4.391   2.448 -0.8669  0.2820 -0.1104
  815TIP3    H1 2451   2.968   4.376   2.500 -0.5423 -2.1843 -1.1702
  815TIP3    H2 2452   2.820   4.405   2.512  0.0972  0.6717  0.8787
  816TIP3   OH2 2453   6.233   0.264   4.577 -0.2241 -0.0395 -0.0393
  816TIP3    H1 2454   6.311   0.226   4.536 -0.3638  0.4910 -0.8333
  816TIP3    H2 2455   6.187   0.307   4.504 -0.0918  1.6019  0.7975
  817TIP3   OH2 2456   5.382   4.827   1.916  0.2560  0.2777  0.1107
  817TIP3    H1 2457   5.321   4.795   1.850 -1.2022  2.3265  0.3589
  817TIP3    H2 2458   5.384   4.758   1.983 -2.2581  0.3366  0.3425
  818TIP3   OH2 2459   1.219   2.532   1.890  0.2851  0.7430 -0.1019
  818TIP3    H1 2460   1.247   2.600   1.828  0.1372 -0.5721 -1.6831
  818TIP3    H2 2461   1.184   2.462   1.834 -0.5738 -0.1782  1.5287
  819TIP3   OH2 2462   5.444   0.800   0.954  0.4986 -0.3754 -0.5377
  819TIP3    H1 2463   5.381   0.871   0.941 -1.0086 -1.0672  2.1150
  819TIP3    H2 2464   5.498   0.830   1.028  0.0089 -1.8109  0.4485
  820TIP3   OH2 2465   0.282   0.073   3.086 -0.1864  0.2994  0.2812
  820TIP3    H1 2466   0.371   0.075   3.049 -0.1831 -3.6721 -0.3358
  820TIP3    H2 2467   0.284   0.138   3.156  4.0641 -1.3212  2.0067
  821TIP3   OH2 2468   5.726   0.729   0.345 -0.0254  0.3025 -0.4639
  821TIP3    H1 2469   5.770   0.682   0.416 -0.1785  1.6123  0.5369
  821TIP3    H2 2470   5.633   0.711   0.359 -0.2141  2.0682  0.8515
  822TIP3   OH2 2471   1.728   4.035   4.113  0.0595 -0.0687  0.3364
  822TIP3    H1 2472   1.676   4.058   4.190 -0.6201 -3.2439  0.9946
  822TIP3    H2 2473   1.736   4.116   4.064 -2.7279  1.2931  1.8734
  823TIP3   OH2 2474   5.010   1.768   4.484  0.6741  0.4906 -0.4526
  823TIP3    H1 2475   5.034   1.676   4.496 -0.1807  0.3123  0.0439
  823TIP3    H2 2476   4.914   1.766   4.481  0.7006  1.1656 -2.2403
  824TIP3   OH2 2477   4.250   0.091   0.900  0.2478  0.1581 -0.0783
  824TIP3    H1 2478   4.253  -0.000   0.927  1.2820  0.2087  0.0244
  824TIP3    H2 2479   4.271   0.088   0.806  0.2301  0.2868 -0.0862
  825TIP3   OH2 2480   6.218   0.104   1.513  0.5238 -0.5396  0.4724
  825TIP3    H1 2481   6.156   0.076   1.446 -0.2550  0.8760  0.5698
  825TIP3    H2 2482   6.296   0.051   1.496  0.0570 -0.8038 -1.0312
  826TIP3   OH2 2483   3.005   3.559   0.094  0.5336  0.7418  0.4172
  826TIP3    H1 2484   3.085   3.610   0.082  1.2464 -0.4130  0.0901
  826TIP3    H2 2485   3.031   3.488   0.153  0.8339 -1.8918 -2.6489
  827TIP3   OH2 2486   0.243   1.376   2.849  0.3174 -0.1366 -0.3990
  827TIP3    H1 2487   0.299   1.302   2.873 -0.4273 -0.9653 -1.1456
  827TIP3    H2 2488   0.297   1.429   2.791  0.8891 -0.0313  0.2195
  828TIP3   OH2 2489   6.139   4.034   1.762  0.0258 -0.4604  0.1409
  828TIP3    H1 2490   6.145   4.101   1.830 -0.3226 -1.2900  1.0002
  828TIP3    H2 2491   6.167   4.079   1.682  0.0338  0.6393  0.7464
  829TIP3   OH2 2492   5.488   3.054   2.906  0.2793  0.0623 -0.2825
  829TIP3    H1 2493   5.552   3.003   2.856 -0.0473 -0.6251 -0.0223
  829TIP3    H2 2494   5.537   3.128   2.941  1.1480 -0.8980  0.6117
  830TIP3   OH2 2495   0.734   4.445   4.196  0.4951  0.7923  0.2326
  830TIP3    H1 2496   0.754   4.436   4.103 -0.2229  1.2485  0.0268
  830TIP3    H2 2497   0.649   4.401   4.206  0.7148  0.4694  0.7379
  831TIP3   OH2 2498   5.710   4.951   2.753 -0.0461 -0.1350 -0.0043
  831TIP3    H1 2499   5.778   4.967   2.688  0.3234 -0.2034  0.3570
  831TIP3    H2 2500   5.639   4.909   2.704 -0.1350  0.6081 -0.5269
  832TIP3   OH2 2501   5.259   5.747   2.310  0.6004 -0.2660  0.1153
  832TIP3    H1 2502   5.182   5.714   2.357  0.1134  0.9169  0.1635
  832TIP3    H2 2503   5.328   5.685   2.333  0.3696  0.2127  2.3660
  833TIP3   OH2 2504   4.825   5.882   0.756 -0.2216  0.0338 -0.2768
  833TIP3    H1 2505   4.817   5.954   0.693 -0.8225  0.3855  0.1937
  833TIP3    H2 2506   4.747   5.828   0.739  0.2595 -0.5497 -0.6711
  834TIP3   OH2 2507   1.910   1.592   0.324  0.3903 -0.1698  0.6272
  834TIP3    H1 2508   1.911   1.596   0.420  0.8293  0.6626  0.5936
  834TIP3    H2 2509   1.950   1.674   0.296 -1.2013  0.3419 -0.2949
  835TIP3   OH2 2510   3.788   5.370   4.677  0.3309 -0.3728  0.1832
  835TIP3    H1 2511   3.768   5.360   4.770 -1.1288  3.3927  0.4674
  835TIP3    H2 2512   3.872   5.416   4.675  0.4789 -0.6597 -0.3618
  836TIP3   OH2 2513   5.644   4.865   4.888  0.0550  0.1099 -0.2497
  836TIP3    H1 2514   5.714   4.929   4.901 -0.1936  0.2127  0.6655
  836TIP3    H2 2515   5.582   4.883   4.959 -0.0837 -1.0530 -0.0516
  837TIP3   OH2 2516   4.301   4.137   0.074  0.0351  0.4133  0.4565
  837TIP3    H1 2517   4.241   4.151   0.000  1.1231 -0.6111 -0.6844
  837TIP3    H2 2518   4.255   4.077   0.132 -0.1331 -0.2216 -0.3186
  838TIP3   OH2 2519   2.151   4.068   2.556 -0.5390  0.2795 -0.0801
  838TIP3    H1 2520   2.231   4.107   2.521 -0.5312 -0.6291 -1.1408
  838TIP3    H2 2521   2.182   4.004   2.620 -0.3236 -0.7299 -1.1423
  839TIP3   OH2 2522   4.106   5.879   3.050  0.2671 -0.3568  0.2192
  839TIP3    H1 2523   4.015   5.858   3.030  0.5908 -1.0126 -0.6230
  839TIP3    H2 2524   4.155   5.851   2.973  1.4429 -1.9762  1.4606
  840TIP3   OH2 2525   3.551   3.604   2.056 -0.0226  0.4512 -0.2306
  840TIP3    H1 2526   3.609   3.574   1.986  0.2225 -0.4052  0.3298
  840TIP3    H2 2527   3.463   3.585   2.023  0.0965 -0.0831 -0.2617
  841TIP3   OH2 2528   3.133   1.674   2.272  0.9661  0.4017 -0.3621
  841TIP3    H1 2529   3.144   1.666   2.366  0.2806 -1.1063 -0.3868
  841TIP3    H2 2530   3.038   1.675   2.259  1.0531  0.1737 -1.0619
  842TIP3   OH2 2531   2.109   4.861   4.967  0.4140 -0.0644  0.3432
  842TIP3    H1 2532   2.179   4.852   4.903  1.3786  1.8684  1.0299
  842TIP3    H2 2533   2.088   4.954   4.966 -0.4769 -0.2190  1.8587
  843TIP3   OH2 2534   0.030   5.790   3.674  0.0121  0.1107 -0.3441
  843TIP3    H1 2535   0.100   5.829   3.726  0.6885 -0.6576 -0.6568
  843TIP3    H2 2536   0.033   5.835   3.590  1.0561 -0.8396 -0.8485
  844TIP3   OH2 2537   0.539   1.882   2.098 -0.4798 -0.0452 -0.1983
  844TIP3    H1 2538   0.454   1.919   2.122  0.2647  0.3620  2.1421
  844TIP3    H2 2539   0.588   1.880   2.181  1.2429 -1.7264 -1.1737
  845TIP3   OH2 2540   0.336   3.730   4.958  0.9881 -0.8061 -0.3096
  845TIP3    H1 2541   0.312   3.684   4.878 -0.1528 -0.1256 -0.3849
  845TIP3    H2 2542   0.279   3.691   5.025  0.2296  0.2735 -0.3160
  846TIP3   OH2 2543   1.497   4.861   0.018 -0.0257 -0.4932 -0.5900
  846TIP3    H1 2544   1.499   4.849   0.113  0.0326 -0.7598 -0.6260
  846TIP3    H2 2545   1.526   4.778  -0.018  0.8459 -0.0984 -0.8288
  847TIP3   OH2 2546   0.955   1.083   1.477 -0.0770 -0.0364 -0.3418
  847TIP3    H1 2547   0.868   1.089   1.437 -0.4235 -0.6115  0.2902
  847TIP3    H2 2548   1.008   1.037   1.412 -0.9093 -1.9159  0.2323
  848TIP3   OH2 2549   0.067   1.212   3.236  0.3140 -0.5160 -0.3463
  848TIP3    H1 2550   0.034   1.157   3.307  1.5611  0.4679  1.0594
  848TIP3    H2 2551   0.130   1.156   3.190 -0.4411 -1.1350 -0.6379
  849TIP3   OH2 2552   5.695   3.739   2.499 -0.0820  0.3561 -0.1748
  849TIP3    H1 2553   5.784   3.712   2.479 -0.4744 -2.9667  1.8449
  849TIP3    H2 2554   5.659   3.767   2.415  1.6972 -1.9228 -1.8246
  850TIP3   OH2 2555   4.106   1.828   1.652 -0.4345  0.0806 -0.3515
  850TIP3    H1 2556   4.060   1.877   1.720 -0.8416  1.2600 -1.4342
  850TIP3    H2 2557   4.049   1.753   1.634 -0.3195 -0.2503  0.5770
  851TIP3   OH2 2558   2.529   4.441   2.138  0.3545  0.0691 -0.2431
  851TIP3    H1 2559   2.548   4.410   2.227 -0.8917  0.3377  0.1330
  851TIP3    H2 2560   2.518   4.361   2.087  2.1649 -0.1096 -0.4464
  852TIP3   OH2 2561   2.561   0.225   1.573  0.1019  0.3036 -0.4484
  852TIP3    H1 2562   2.565   0.210   1.667  2.2332 -0.4358 -0.5915
  852TIP3    H2 2563   2.645   0.268   1.552 -0.0764 -0.0669 -2.0715
  853TIP3   OH2 2564   0.373   1.110   0.093  0.1840  0.0271 -0.5197
  853TIP3    H1 2565   0.462   1.141   0.113  0.0739  0.4427 -0.6551
  853TIP3    H2 2566   0.374   1.017   0.116  0.1159  0.4305  1.3071
  854TIP3   OH2 2567   3.821   1.212   4.475 -0.3418  0.1406 -0.0922
  854TIP3    H1 2568   3.757   1.197   4.406 -0.5860 -0.7494  0.3166
  854TIP3    H2 2569   3.835   1.307   4.474 -2.9933  0.6464  0.9617
  855TIP3   OH2 2570   4.475   0.195   2.215  0.5304  0.3970  0.2934
  855TIP3    H1 2571   4.507   0.281   2.190  1.6386  1.3825  4.3766
  855TIP3    H2 2572   4.538   0.164   2.280 -1.6116 -2.0011  1.4168
  856TIP3   OH2 2573   3.796   2.978   1.689 -0.0679 -0.3299  0.4161
  856TIP3    H1 2574   3.870   2.970   1.749  0.1092 -2.3545 -0.0226
  856TIP3    H2 2575   3.719   2.977   1.745  0.1285 -1.3654  0.6745
  857TIP3   OH2 2576   5.555   2.576   1.363 -0.3303 -0.2123 -0.2598
  857TIP3    H1 2577   5.474   2.541   1.325 -1.5015  2.6827 -0.7394
  857TIP3    H2 2578   5.525   2.630   1.437  1.4715 -1.3344  1.3864
  858TIP3   OH2 2579   5.622   1.093   0.904  0.2055 -0.3965 -0.1655
  858TIP3    H1 2580   5.624   1.054   0.817  0.7186  0.5160 -0.5733
  858TIP3    H2 2581   5.621   1.018   0.964 -0.0222 -1.0290 -0.9477
  859TIP3   OH2 2582   1.483   3.557   3.559 -0.5852 -0.1741 -0.4367
  859TIP3    H1 2583   1.550   3.542   3.493 -0.7308 -0.1658 -0.5846
  859TIP3    H2 2584   1.532   3.563   3.641 -0.1305  2.1578 -0.8020
  860TIP3   OH2 2585   3.819   5.591   4.997  0.0300 -0.6513 -0.0076
  860TIP3    H1 2586   3.824   5.609   5.091 -1.5035  0.7857 -0.1565
  860TIP3    H2 2587   3.811   5.495   4.992 -0.0123 -0.7417  1.3250
  861TIP3   OH2 2588   3.241   4.877   4.828  0.4982 -0.3452 -0.3050
  861TIP3    H1 2589   3.178   4.892   4.757 -0.1526  0.1555  0.3630
  861TIP3    H2 2590   3.242   4.960   4.876  1.6425 -0.3582 -0.2742
  862TIP3   OH2 2591   4.906   3.007   2.648  0.6500  0.1840 -0.2425
  862TIP3    H1 2592   4.842   3.054   2.595  1.2839  0.0212 -1.1689
  862TIP3    H2 2593   4.909   3.056   2.731  0.5011  1.1294 -0.7849
  863TIP3   OH2 2594   0.672   4.353   5.017  0.5071  0.4553 -0.1962
  863TIP3    H1 2595   0.656   4.421   4.952  1.6392 -0.0250 -1.0114
  863TIP3    H2 2596   0.720   4.398   5.087  0.4477  0.6964 -0.3095
  864TIP3   OH2 2597   4.794   0.361   3.663 -0.5394 -0.0319 -0.9273
  864TIP3    H1 2598   4.719   0.341   3.719 -0.4251 -1.4518 -1.2428
  864TIP3    H2 2599   4.871   0.343   3.718 -0.4312 -0.4731 -1.2193
  865TIP3   OH2 2600   0.248   4.863   2.542 -0.3192 -0.5049  0.4736
  865TIP3    H1 2601   0.264   4.878   2.449 -1.7525  1.4509  0.4863
  865TIP3    H2 2602   0.153   4.858   2.549 -0.2126 -1.0417  1.7903
  866TIP3   OH2 2603   5.820   3.369   1.290  0.0726 -0.1686 -0.5874
  866TIP3    H1 2604   5.746   3.351   1.232 -0.2824  0.8642 -0.4900
  866TIP3    H2 2605   5.883   3.299   1.272  1.0644  1.3693 -4.0660
  867TIP3   OH2 2606   0.673   0.034   3.505 -0.5395 -0.1234 -0.4595
  867TIP3    H1 2607   0.579   0.033   3.491 -0.9616 -2.0223  1.9248
  867TIP3    H2 2608   0.707  -0.032   3.445 -0.9693 -0.6238 -0.1635
  868TIP3   OH2 2609   5.614   0.148   0.683  0.0926  1.3605 -0.2175
  868TIP3    H1 2610   5.593   0.204   0.758 -0.9948  1.4480 -0.5646
  868TIP3    H2 2611   5.600   0.203   0.606 -0.2848  0.8377 -0.5335
  869TIP3   OH2 2612   2.150   4.680   3.675  0.3504  0.2568 -0.2581
  869TIP3    H1 2613   2.107   4.762   3.651  1.7841  0.8292 -0.9528
  869TIP3    H2 2614   2.156   4.682   3.770  0.0496  0.7761 -0.2495
  870TIP3   OH2 2615   5.843   0.942   0.235 -0.2051  0.6630  0.1088
  870TIP3    H1 2616   5.801   0.870   0.282  2.1984  0.9882  3.0969
  870TIP3    H2 2617   5.808   1.021   0.274 -0.2908  1.0427 -0.7194
  871TIP3   OH2 2618   0.605   4.752   4.682  0.2140 -0.2836 -0.1536
  871TIP3    H1 2619   0.634   4.812   4.613  1.4268 -1.4225 -0.6894
  871TIP3    H2 2620   0.529   4.794   4.720  0.9376  1.5182 -0.6023
  872TIP3   OH2 2621   3.368   5.438   2.537 -0.3617  0.7353 -0.0044
  872TIP3    H1 2622   3.442   5.416   2.594 -0.8662 -2.0690 -0.3167
  872TIP3    H2 2623   3.291   5.409   2.586 -1.1230  1.7947 -0.5313
  873TIP3   OH2 2624   5.584   1.181   3.656 -0.9426 -0.5187  0.2766
  873TIP3    H1 2625   5.558   1.230   3.577  0.0973  1.6932  1.2086
  873TIP3    H2 2626   5.558   1.238   3.729 -1.6356 -2.3992  1.5589
  874TIP3   OH2 2627   3.842   3.103   2.305 -0.1646 -0.1610  0.0475
  874TIP3    H1 2628   3.894   3.074   2.230  0.7211 -0.9638  0.9322
  874TIP3    H2 2629   3.779   3.165   2.269  0.5109 -0.2201 -1.2826
  875TIP3   OH2 2630   2.889   1.903   2.167  0.4936  0.6101 -0.0230
  875TIP3    H1 2631   2.917   1.921   2.257 -0.2321  2.5570 -0.1356
  875TIP3    H2 2632   2.829   1.975   2.146  0.0842 -0.2025 -1.8243
  876TIP3   OH2 2633   3.116   0.712   1.559 -0.1946  0.1363  0.1238
  876TIP3    H1 2634   3.048   0.688   1.621 -1.9860  1.2249 -1.3319
  876TIP3    H2 2635   3.140   0.631   1.515  0.7742 -0.5651  1.8656
  877TIP3   OH2 2636   2.472   0.478   4.617  0.1430  0.0890 -0.3049
  877TIP3    H1 2637   2.383   0.447   4.631  0.3143  0.1815  1.1441
  877TIP3    H2 2638   2.468   0.572   4.636  0.8645 -0.2054  1.5277
  878TIP3   OH2 2639   0.333   0.554   5.081 -0.3152 -0.5787  0.0754
  878TIP3    H1 2640   0.304   0.625   5.138 -0.6396 -0.2862 -0.4493
  878TIP3    H2 2641   0.408   0.516   5.127 -0.8290 -0.6265  0.9100
  879TIP3   OH2 2642   0.003   1.957   1.057 -0.1052 -0.6972 -0.2671
  879TIP3    H1 2643   0.029   1.875   1.015  0.4266 -0.8827  0.4046
  879TIP3    H2 2644   0.083   2.008   1.065 -0.3444 -0.3197 -0.2326
  880TIP3   OH2 2645   1.275   2.536   0.328  0.6669 -0.4754 -0.4575
  880TIP3    H1 2646   1.278   2.544   0.233 -0.5972 -1.2135 -0.5873
  880TIP3    H2 2647   1.351   2.585   0.359  0.5388  0.6239 -1.7925
  881TIP3   OH2 2648   3.479   3.863   2.211  0.5425  0.6839 -0.2596
  881TIP3    H1 2649   3.514   3.798   2.149  0.7964  1.5952 -1.0914
  881TIP3    H2 2650   3.487   3.821   2.296 -0.2204 -0.7916 -0.8657
  882TIP3   OH2 2651   5.813   2.743   1.518  0.7850  0.1708 -0.0359
  882TIP3    H1 2652   5.877   2.710   1.455  1.4570  0.0669  0.7022
  882TIP3    H2 2653   5.809   2.837   1.500 -1.9391 -0.2993 -2.8978
  883TIP3   OH2 2654   2.503   0.572   4.065  0.3728 -0.0750 -0.0275
  883TIP3    H1 2655   2.433   0.521   4.025  0.3700  0.2530 -0.4540
  883TIP3    H2 2656   2.537   0.517   4.135 -0.0948 -0.3679 -0.0324
  884TIP3   OH2 2657   4.158   0.759   1.446 -0.6600  0.0802 -0.0471
  884TIP3    H1 2658   4.220   0.731   1.514 -0.7221 -0.4351 -0.1945
  884TIP3    H2 2659   4.185   0.848   1.424 -0.3798  0.0990  0.3588
  885TIP3   OH2 2660   0.273   5.567   4.414 -0.0146 -0.7409  0.2935
  885TIP3    H1 2661   0.219   5.609   4.480 -0.3166 -0.3420 -0.2050
  885TIP3    H2 2662   0.276   5.629   4.341  1.5085 -0.5300  0.4853
  886TIP3   OH2 2663   1.047   3.921   4.175 -0.2933  0.3469  0.2474
  886TIP3    H1 2664   1.079   3.977   4.246  0.0512 -0.3104  0.6291
  886TIP3    H2 2665   1.056   3.832   4.210 -4.1499  0.1035  1.0914
  887TIP3   OH2 2666   6.193   2.808   1.250 -0.4278  0.0038  0.5285
  887TIP3    H1 2667   6.238   2.892   1.253  0.4117 -0.4072 -0.1935
  887TIP3    H2 2668   6.262   2.744   1.232 -1.2219 -0.7077 -0.0654
  888TIP3   OH2 2669   0.343   1.097   4.652 -0.1784 -0.1722 -0.0234
  888TIP3    H1 2670   0.294   1.113   4.733 -0.4926  0.0372 -0.2564
  888TIP3    H2 2671   0.349   1.002   4.647 -0.2991 -0.1913  0.1612
  889TIP3   OH2 2672   2.245   1.266   1.120  0.2481 -0.0909  0.2270
  889TIP3    H1 2673   2.156   1.263   1.155  0.0156 -2.5794 -0.4158
  889TIP3    H2 2674   2.240   1.216   1.039  2.2877 -0.5613  0.3483
  890TIP3   OH2 2675   3.973   2.341   5.174 -0.7543  0.0356 -0.2579
  890TIP3    H1 2676   4.025   2.288   5.114 -0.9376  0.7233 -1.0395
  890TIP3    H2 2677   3.951   2.281   5.246  0.6549 -0.4080 -0.1684
  891TIP3   OH2 2678   3.047   2.048   0.189  0.2406 -0.0459  0.0116
  891TIP3    H1 2679   3.100   2.036   0.268 -0.9146 -0.4007  0.7618
  891TIP3    H2 2680   2.985   1.976   0.192  0.2701 -0.1362 -1.3097
  892TIP3   OH2 2681   3.278   3.731   1.216 -0.0228  0.5831  0.2407
  892TIP3    H1 2682   3.294   3.780   1.135 -1.1241 -0.3472 -0.5626
  892TIP3    H2 2683   3.295   3.795   1.285  0.7679  1.4531 -0.7140
  893TIP3   OH2 2684   5.271   5.381   2.391 -0.5967 -0.1628  0.0593
  893TIP3    H1 2685   5.178   5.380   2.368 -0.8625  0.1803  1.0494
  893TIP3    H2 2686   5.317   5.367   2.308 -1.5346 -0.5839 -0.4045
  894TIP3   OH2 2687   4.832   2.090   2.258  0.3849 -0.0516 -0.5310
  894TIP3    H1 2688   4.751   2.063   2.301  0.2402  0.1641 -0.6645
  894TIP3    H2 2689   4.832   2.044   2.175 -0.1472  0.7767 -1.0129
  895TIP3   OH2 2690   1.501   5.041   3.077  0.8270  0.1379  0.5440
  895TIP3    H1 2691   1.533   5.051   2.988 -2.3539 -0.1328 -0.7575
  895TIP3    H2 2692   1.408   5.062   3.072 -0.6361 -4.4109  2.7600
  896TIP3   OH2 2693   1.217   3.189   0.629 -0.2917 -0.5618 -0.3190
  896TIP3    H1 2694   1.168   3.182   0.712  1.8299  1.4663  1.2451
  896TIP3    H2 2695   1.291   3.129   0.640  0.6104  0.5426 -0.2419
  897TIP3   OH2 2696   0.416   5.823   0.436 -0.0849 -0.0694  0.2039
  897TIP3    H1 2697   0.344   5.837   0.375  1.8880  0.0493 -2.2820
  897TIP3    H2 2698   0.479   5.770   0.387  0.9510 -1.3373  2.7421
  898TIP3   OH2 2699   5.331   4.353   0.733  0.1444 -0.3704  0.2885
  898TIP3    H1 2700   5.245   4.356   0.775  0.0083  0.6650 -0.0402
  898TIP3    H2 2701   5.337   4.264   0.698 -1.7144  0.1221 -1.5379
  899TIP3   OH2 2702   4.157   4.102   0.825  0.1570  0.2317 -0.6681
  899TIP3    H1 2703   4.074   4.149   0.825  0.0732  0.1002 -1.3432
  899TIP3    H2 2704   4.214   4.153   0.769  0.3557  0.0197 -0.6618
  900TIP3   OH2 2705   4.534   1.041   1.442  0.6479 -0.4391 -0.2415
  900TIP3    H1 2706   4.546   1.119   1.387  1.0025 -1.5688 -1.8220
  900TIP3    H2 2707   4.621   1.001   1.446  0.3293 -1.1259 -0.0186
  901TIP3   OH2 2708   1.424   0.041   1.501 -0.6436  0.1146 -0.2125
  901TIP3    H1 2709   1.420   0.021   1.408 -2.1043  0.5281 -0.2530
  901TIP3    H2 2710   1.415  -0.044   1.544 -1.1818  0.0583 -0.4356
  902TIP3   OH2 2711   3.655   1.745   0.423  0.2313 -0.3845  0.0034
  902TIP3    H1 2712   3.625   1.658   0.451  1.7235 -0.6748  0.8100
  902TIP3    H2 2713   3.625   1.753   0.332 -1.0666 -1.1840  0.3410
  903TIP3   OH2 2714   2.554   4.394   2.421 -0.0096 -0.3652  0.3137
  903TIP3    H1 2715   2.548   4.300   2.440  0.2085 -0.7099 -1.1682
  903TIP3    H2 2716   2.558   4.436   2.507  1.4537 -1.8062  1.0074
  904TIP3   OH2 2717   4.570   1.946   3.745 -0.2342 -0.2636  0.3059
  904TIP3    H1 2718   4.483   1.958   3.706 -0.6699 -2.0595  0.5976
  904TIP3    H2 2719   4.622   1.904   3.676  0.0725 -0.1882  0.4897
  905TIP3   OH2 2720   6.240   5.905   3.905 -0.6799 -0.3851 -0.2971
  905TIP3    H1 2721   6.169   5.964   3.882 -0.0035  0.2505 -0.7837
  905TIP3    H2 2722   6.313   5.931   3.849  0.2429 -0.4082  0.8473
  906TIP3   OH2 2723   0.248   1.488   0.851  0.5345  0.7707 -0.0994
  906TIP3    H1 2724   0.335   1.451   0.834  0.1395  0.5472 -1.7610
  906TIP3    H2 2725   0.203   1.483   0.767 -1.2089  0.6072  0.8114
  907TIP3   OH2 2726   4.007   5.896   0.993 -0.7308 -0.3767 -0.5940
  907TIP3    H1 2727   3.995   5.856   1.079 -0.4852  0.5189 -0.1426
  907TIP3    H2 2728   4.054   5.977   1.010 -1.0360  0.0069 -1.5271
  908TIP3   OH2 2729   3.687   0.226   2.982 -0.5046  0.4190 -0.2205
  908TIP3    H1 2730   3.779   0.212   2.957 -0.0316  1.5653  0.7480
  908TIP3    H2 2731   3.664   0.310   2.941 -1.0504  0.2447 -0.2753
  909TIP3   OH2 2732   3.171   1.341   1.960  0.2439 -0.3069  0.3792
  909TIP3    H1 2733   3.263   1.365   1.965 -0.0603  1.2758 -0.8523
  909TIP3    H2 2734   3.125   1.424   1.952 -1.0996 -1.1631 -1.3935
  910TIP3   OH2 2735   3.993   0.822   4.934 -0.6483 -0.1979  0.2280
  910TIP3    H1 2736   4.048   0.894   4.904  0.4527 -2.2725 -3.2862
  910TIP3    H2 2737   3.903   0.854   4.921 -0.3120  1.6769  2.0065
  911TIP3   OH2 2738   3.724   1.338   1.827  0.3424 -0.3225 -0.1527
  911TIP3    H1 2739   3.761   1.250   1.832 -0.2365 -0.5168  0.7069
  911TIP3    H2 2740   3.770   1.388   1.895  0.7629  0.0821 -0.7223
  912TIP3   OH2 2741   0.802   4.751   2.640  0.9045  0.0127 -0.6503
  912TIP3    H1 2742   0.886   4.794   2.653  0.6729  0.4009 -0.4294
  912TIP3    H2 2743   0.778   4.771   2.550  0.7919  0.3498 -0.5434
  913TIP3   OH2 2744   0.937   2.030   4.065  0.1233 -0.2607  0.2289
  913TIP3    H1 2745   0.956   1.937   4.077  0.8325 -0.3330 -1.1511
  913TIP3    H2 2746   0.980   2.074   4.138  0.3910 -0.9671  0.4987
  914TIP3   OH2 2747   4.170   3.972   3.213  0.0666 -0.4699  1.1526
  914TIP3    H1 2748   4.205   4.021   3.138 -1.5335 -2.0658 -0.7539
  914TIP3    H2 2749   4.080   4.002   3.221  0.4994  0.4222  3.1689
  915TIP3   OH2 2750   1.583   2.108   0.051 -0.2014  0.3306 -0.0098
  915TIP3    H1 2751   1.558   2.180   0.108 -1.1752 -0.2131  0.2689
  915TIP3    H2 2752   1.672   2.130   0.022 -0.0501  1.0677  0.9767
  916TIP3   OH2 2753   5.762   2.970   1.883 -0.0875 -0.1653  0.2305
  916TIP3    H1 2754   5.682   2.971   1.936  0.5836  0.1205  1.2702
  916TIP3    H2 2755   5.753   3.045   1.824 -0.7916 -0.4100  0.0273
  917TIP3   OH2 2756   2.449   2.672   3.607  0.1349 -0.5827  0.9677
  917TIP3    H1 2757   2.436   2.656   3.514 -2.1118 -0.8703  1.2755
  917TIP3    H2 2758   2.428   2.589   3.649  1.3557 -0.5276  1.7371
  918TIP3   OH2 2759   5.234   4.755   3.211 -0.3998  0.5866 -0.1940
  918TIP3    H1 2760   5.291   4.823   3.246  0.6133 -0.6513  0.6501
  918TIP3    H2 2761   5.286   4.713   3.143 -0.2759 -0.5466  0.5724
  919TIP3   OH2 2762   4.025   4.094   4.743 -0.2238  0.3529  0.1076
  919TIP3    H1 2763   3.992   4.042   4.816  0.8379  0.1361  0.4567
  919TIP3    H2 2764   4.007   4.185   4.767 -2.6491  0.1920 -0.7814
  920TIP3   OH2 2765   5.062   1.817   4.198  0.1698 -0.8945 -0.1932
  920TIP3    H1 2766   4.992   1.794   4.136  1.2668 -0.6229 -1.6016
  920TIP3    H2 2767   5.045   1.762   4.274 -2.2210 -0.0042 -0.0110
  921TIP3   OH2 2768   4.193   5.440   2.739  0.1516 -0.1371  0.5106
  921TIP3    H1 2769   4.218   5.532   2.742  0.2620 -0.1234 -0.3148
  921TIP3    H2 2770   4.189   5.420   2.645 -1.2536 -0.6072  0.6551
  922TIP3   OH2 2771   5.980   4.591   4.675 -0.8131 -0.3223 -0.4160
  922TIP3    H1 2772   6.010   4.646   4.748 -2.8739 -0.9626  1.0300
  922TIP3    H2 2773   5.905   4.639   4.640 -2.0997 -1.7183  0.3101
  923TIP3   OH2 2774   2.630   4.584   2.624  0.1857 -0.6010  0.2570
  923TIP3    H1 2775   2.715   4.555   2.655  0.6673  0.1108 -0.3804
  923TIP3    H2 2776   2.627   4.678   2.646 -0.0841 -0.4358 -0.4682
  924TIP3   OH2 2777   3.542   3.486   2.847  0.2023  0.3113  0.5503
  924TIP3    H1 2778   3.500   3.562   2.806  0.9747  0.0100 -0.8708
  924TIP3    H2 2779   3.475   3.417   2.842  0.6795 -0.0813 -1.4232
  925TIP3   OH2 2780   3.806   4.344   0.897 -0.2268 -0.1210 -0.0104
  925TIP3    H1 2781   3.839   4.288   0.966  2.2192  0.7953 -0.3321
  925TIP3    H2 2782   3.845   4.430   0.914 -0.0832  0.2981 -2.1054
  926TIP3   OH2 2783   5.891   5.723   4.066 -0.8375 -0.5970  0.4883
  926TIP3    H1 2784   5.963   5.677   4.023 -0.0885  0.7344  0.2277
  926TIP3    H2 2785   5.860   5.785   4.000 -1.7164 -0.6207  0.8673
  927TIP3   OH2 2786   1.349   3.389   3.345 -0.0768 -0.5813  0.4318
  927TIP3    H1 2787   1.372   3.459   3.408  1.0874 -2.6461  2.4582
  927TIP3    H2 2788   1.430   3.373   3.297 -1.0374  1.1849 -1.9662
  928TIP3   OH2 2789   1.254   1.487   1.352  0.0738 -0.5315 -0.4819
  928TIP3    H1 2790   1.160   1.499   1.340  0.0314 -0.5852 -0.2090
  928TIP3    H2 2791   1.270   1.514   1.442  0.4110 -0.0073 -0.6960
  929TIP3   OH2 2792   5.098   3.590   3.271 -0.0196  0.3052 -0.2498
  929TIP3    H1 2793   5.179   3.632   3.299 -1.3150  1.8783  1.3637
  929TIP3    H2 2794   5.114   3.496   3.282  1.5589  0.5861  0.0475
  930TIP3   OH2 2795   2.859   3.402   0.589  0.3018  0.2411 -0.3778
  930TIP3    H1 2796   2.836   3.431   0.677 -2.1596  1.0538 -1.2263
  930TIP3    H2 2797   2.934   3.456   0.564  1.4410 -0.4359  1.3944
  931TIP3   OH2 2798   5.535   4.068   4.688  0.4228  0.2092 -0.1568
  931TIP3    H1 2799   5.495   4.108   4.766 -1.8805  0.9391 -1.6081
  931TIP3    H2 2800   5.499   3.980   4.685 -0.7558  0.6936 -1.1831
  932TIP3   OH2 2801   0.409   3.655   2.035 -0.2622  0.2422 -0.1743
  932TIP3    H1 2802   0.371   3.597   2.101  1.1668 -0.8996 -0.3074
  932TIP3    H2 2803   0.376   3.621   1.952  0.8138 -0.6068 -0.2737
  933TIP3   OH2 2804   1.343   2.113   2.163  0.2038 -0.4791  0.7707
  933TIP3    H1 2805   1.416   2.174   2.173 -1.0763  0.8515  2.6844
  933TIP3    H2 2806   1.276   2.146   2.223 -1.7910 -1.9344 -0.5382
  934TIP3   OH2 2807   5.309   1.575   3.936  0.0316  0.4758 -0.0241
  934TIP3    H1 2808   5.224   1.618   3.935  0.1733  0.8217  0.9924
  934TIP3    H2 2809   5.372   1.646   3.924  0.1654 -0.0178 -3.0971
  935TIP3   OH2 2810   2.495   4.179   1.228  0.7120 -0.3286  0.0966
  935TIP3    H1 2811   2.569   4.196   1.170  2.3607 -0.4233  2.0494
  935TIP3    H2 2812   2.472   4.265   1.264  0.2390 -0.3802 -0.0788
  936TIP3   OH2 2813   5.650   1.603   1.942 -0.3285 -0.3179 -0.2366
  936TIP3    H1 2814   5.579   1.665   1.954  0.8971  0.6330  3.6215
  936TIP3    H2 2815   5.727   1.658   1.923  0.8704 -0.2844  3.6923
  937TIP3   OH2 2816   3.691   4.722   0.091 -0.3377  0.3009  0.8400
  937TIP3    H1 2817   3.634   4.692   0.163 -0.1724  0.3200  0.9799
  937TIP3    H2 2818   3.701   4.645   0.035 -2.8483  1.0225 -0.7602
  938TIP3   OH2 2819   5.791   5.967   2.109 -0.3399 -0.0718  0.4500
  938TIP3    H1 2820   5.722   5.924   2.059  1.1374 -1.0029 -0.8789
  938TIP3    H2 2821   5.856   5.899   2.125  1.7395  1.4086 -1.0883
  939TIP3   OH2 2822   5.403   0.179   0.070 -0.3045  0.6842 -0.0440
  939TIP3    H1 2823   5.358   0.153   0.150 -0.3341  0.1225 -0.2361
  939TIP3    H2 2824   5.402   0.275   0.071 -1.9189  0.6956 -0.2691
  940TIP3   OH2 2825   3.012   5.135   4.750  0.2980 -0.1681 -0.0226
  940TIP3    H1 2826   3.090   5.187   4.732 -0.8691  1.1546 -1.5591
  940TIP3    H2 2827   3.024   5.055   4.699  0.6770  0.0092 -0.2144
  941TIP3   OH2 2828   1.120   1.868   3.578  0.2280 -0.3873 -0.2305
  941TIP3    H1 2829   1.213   1.854   3.592  0.1594 -1.3787 -0.6727
  941TIP3    H2 2830   1.101   1.824   3.495 -0.3937  0.8636 -0.7852
  942TIP3   OH2 2831   5.923   3.276   1.974 -0.0618 -0.2073  0.3170
  942TIP3    H1 2832   5.830   3.288   1.994 -0.8870 -1.4266 -2.3802
  942TIP3    H2 2833   5.955   3.221   2.046 -2.0504 -1.8250  0.0622
  943TIP3   OH2 2834   5.283   2.181   3.254  0.3981  0.0219  0.1210
  943TIP3    H1 2835   5.203   2.230   3.270  1.0379  0.8492  0.9121
  943TIP3    H2 2836   5.333   2.235   3.192  0.5438 -0.2725 -0.0232
  944TIP3   OH2 2837   3.173   2.435   2.498  0.2810  0.6490  0.5299
  944TIP3    H1 2838   3.134   2.457   2.582  0.9618 -0.4591  1.1604
  944TIP3    H2 2839   3.098   2.405   2.445 -0.4151  2.9110  0.1384
  945TIP3   OH2 2840   2.718   4.985   3.795 -0.2401  0.3271 -0.7142
  945TIP3    H1 2841   2.676   5.003   3.711  0.7771  0.5462 -1.1910
  945TIP3    H2 2842   2.748   5.071   3.825 -0.4207  0.2197 -0.2123
  946TIP3   OH2 2843   3.907   4.012   3.453  0.6683 -0.0280 -0.4317
  946TIP3    H1 2844   3.824   3.976   3.482  0.6264  1.0556  0.8984
  946TIP3    H2 2845   3.960   3.936   3.431 -0.0133 -0.8104  0.5534
  947TIP3   OH2 2846   2.803   0.771   0.304 -0.7033 -0.5911 -0.2237
  947TIP3    H1 2847   2.782   0.795   0.394  0.9421 -0.7297  0.2332
  947TIP3    H2 2848   2.777   0.679   0.297 -0.9078 -0.5584  0.0785
  948TIP3   OH2 2849   0.839   3.978   1.816  0.1055  0.5035 -0.3890
  948TIP3    H1 2850   0.824   3.909   1.880  1.7062  0.5606  0.0979
  948TIP3    H2 2851   0.766   4.039   1.827 -0.6119 -0.4153  0.0888
  949TIP3   OH2 2852   5.780   0.554   1.408 -0.5802 -0.2059  0.0093
  949TIP3    H1 2853   5.747   0.602   1.332  0.6231  0.5968 -0.0361
  949TIP3    H2 2854   5.704   0.508   1.443 -1.2114 -0.3678 -1.5148
  950TIP3   OH2 2855   5.372   5.860   3.203 -0.0294  0.1881 -0.4842
  950TIP3    H1 2856   5.414   5.783   3.244 -0.7079  0.7492  1.3356
  950TIP3    H2 2857   5.397   5.853   3.110 -0.6394 -2.6096 -0.5312
  951TIP3   OH2 2858   1.538   0.773   4.723  0.2197  0.3944 -0.1101
  951TIP3    H1 2859   1.591   0.763   4.802  0.6780 -2.3959 -0.6797
  951TIP3    H2 2860   1.599   0.756   4.651 -0.6630  0.7379 -0.9570
  952TIP3   OH2 2861   0.206   3.262   4.925 -0.3160  0.3741  0.7134
  952TIP3    H1 2862   0.166   3.257   5.012 -1.3892  2.1212  0.3858
  952TIP3    H2 2863   0.132   3.277   4.866  0.4774  0.0052 -0.4168
  953TIP3   OH2 2864   5.957   1.537   2.840  0.4221  0.0569  0.0828
  953TIP3    H1 2865   5.928   1.583   2.761  3.2044  0.4214 -0.8317
  953TIP3    H2 2866   6.051   1.522   2.826  0.7910 -0.7982  2.8883
  954TIP3   OH2 2867   5.104   4.081   0.552 -0.0609 -0.5317  0.0783
  954TIP3    H1 2868   5.187   4.036   0.541 -0.0230 -0.1531 -1.4551
  954TIP3    H2 2869   5.038   4.011   0.554  0.0288 -0.7363 -1.9062
  955TIP3   OH2 2870   2.049   0.874   4.473 -0.7240 -0.9903  0.1552
  955TIP3    H1 2871   2.113   0.942   4.492  0.2548 -1.9151  0.3164
  955TIP3    H2 2872   2.098   0.792   4.484 -1.5067 -1.6888 -1.2837
  956TIP3   OH2 2873   2.993   1.653   3.650  0.0531 -0.7928 -0.6336
  956TIP3    H1 2874   3.037   1.576   3.614 -0.5889 -1.6613  0.3609
  956TIP3    H2 2875   2.917   1.617   3.697  0.4368  0.3259  0.9288
  957TIP3   OH2 2876   4.485   4.655   4.595 -0.4117  0.8703  0.1322
  957TIP3    H1 2877   4.435   4.639   4.675  0.1929  0.5634  0.4514
  957TIP3    H2 2878   4.427   4.711   4.542 -1.4956 -0.2514  0.0833
  958TIP3   OH2 2879   4.763   5.513   1.290  0.6421 -1.1675 -0.7595
  958TIP3    H1 2880   4.704   5.457   1.239  0.2009 -1.4791  0.0753
  958TIP3    H2 2881   4.821   5.552   1.225 -1.6347  0.5805 -1.8959
  959TIP3   OH2 2882   6.333   3.920   0.061  0.2867 -0.2754 -0.2659
  959TIP3    H1 2883   6.327   3.825   0.067  0.4658 -0.3076 -0.5804
  959TIP3    H2 2884   6.294   3.952   0.142 -0.9237 -0.5790 -0.7094
  960TIP3   OH2 2885   2.764   0.395   1.460 -0.2476 -0.3436  0.3395
  960TIP3    H1 2886   2.712   0.476   1.465  1.5439  0.8515  0.9036
  960TIP3    H2 2887   2.849   0.420   1.497  1.0647 -1.9308 -1.4273
  961TIP3   OH2 2888   0.564   4.956   2.485  0.2908 -0.3053 -0.0235
  961TIP3    H1 2889   0.529   4.882   2.534 -0.3279  1.7493  2.8622
  961TIP3    H2 2890   0.489   5.014   2.472  0.5497 -0.4802 -3.0968
  962TIP3   OH2 2891   4.586   4.474   0.866  0.4658 -0.5689 -0.9354
  962TIP3    H1 2892   4.673   4.448   0.896  0.1586 -0.2777  0.2545
  962TIP3    H2 2893   4.594   4.567   0.844 -0.2748  0.4291  2.4163
  963TIP3   OH2 2894   0.566   0.588   0.254  0.1092  0.0055 -0.1637
  963TIP3    H1 2895   0.645   0.560   0.301  0.3850 -0.5961 -0.9748
  963TIP3    H2 2896   0.514   0.634   0.320  1.1187  0.3749  0.3947
  964TIP3   OH2 2897   5.581   4.697   3.361 -0.5315 -0.5878  0.1977
  964TIP3    H1 2898   5.588   4.783   3.319 -0.5374  0.0111  1.3909
  964TIP3    H2 2899   5.547   4.640   3.292  1.7957 -0.2260 -1.3787
  965TIP3   OH2 2900   1.004   0.557   3.973 -0.4048 -1.3931  0.7314
  965TIP3    H1 2901   1.092   0.558   3.936 -0.3713 -0.8839  0.8194
  965TIP3    H2 2902   1.002   0.480   4.030 -0.1654 -1.6621  0.3737
  966TIP3   OH2 2903   3.682   2.748   4.835 -0.6537 -0.4585 -0.1186
  966TIP3    H1 2904   3.753   2.748   4.771  0.2934  0.2070  0.9035
  966TIP3    H2 2905   3.670   2.655   4.857 -0.0237 -0.5690 -0.2229
  967TIP3   OH2 2906   2.311   4.060   0.929  0.7009 -0.2004  0.2669
  967TIP3    H1 2907   2.265   3.979   0.953  0.8757 -0.2527  0.4234
  967TIP3    H2 2908   2.403   4.041   0.944  0.7924 -0.1577 -0.2394
  968TIP3   OH2 2909   5.225   1.930   3.630 -0.3820  0.9825 -0.3797
  968TIP3    H1 2910   5.178   1.972   3.558  0.0711  1.7563 -0.2330
  968TIP3    H2 2911   5.251   1.844   3.596 -0.1288  1.3652 -1.1560
  969TIP3   OH2 2912   1.005   4.928   2.295  0.1872  0.2330 -0.2576
  969TIP3    H1 2913   0.939   4.913   2.228 -0.4433  1.2670  0.1207
  969TIP3    H2 2914   1.020   4.841   2.334 -1.5411  0.1087  0.2024
  970TIP3   OH2 2915   3.181   1.127   4.393 -0.2333 -0.3582 -0.1617
  970TIP3    H1 2916   3.261   1.164   4.429  0.0581 -1.1356  0.0036
  970TIP3    H2 2917   3.207   1.089   4.309 -0.7482  0.7485 -0.8391
  971TIP3   OH2 2918   0.198   2.721   3.537  0.5696 -0.4404  0.3111
  971TIP3    H1 2919   0.129   2.731   3.603  0.4272  0.1460  0.0793
  971TIP3    H2 2920   0.151   2.695   3.458  0.7047 -0.8213  0.3538
  972TIP3   OH2 2921   4.081   2.769   3.770  0.0391  0.8167 -0.3234
  972TIP3    H1 2922   4.110   2.699   3.712  1.8007  0.2770  1.1458
  972TIP3    H2 2923   4.150   2.835   3.765  0.4958  0.5392  1.4936
  973TIP3   OH2 2924   1.153   4.510   2.527 -0.8873  0.0845 -0.1655
  973TIP3    H1 2925   1.062   4.493   2.552 -1.0445  1.6653  0.4194
  973TIP3    H2 2926   1.195   4.424   2.533 -1.6818 -0.2042  2.3927
  974TIP3   OH2 2927   5.846   4.788   0.345  0.3304 -0.4186  0.3770
  974TIP3    H1 2928   5.892   4.707   0.371 -0.3251 -0.7441  0.5407
  974TIP3    H2 2929   5.795   4.812   0.422 -0.0387 -0.2463  0.0806
  975TIP3   OH2 2930   2.951   4.129   1.629 -0.1210  0.5253  0.4152
  975TIP3    H1 2931   2.864   4.089   1.620  0.4606 -0.8305  0.6716
  975TIP3    H2 2932   3.002   4.065   1.679  1.5800  0.4020 -1.3654
  976TIP3   OH2 2933   3.348   3.010   1.731 -0.1513 -0.1854  0.2360
  976TIP3    H1 2934   3.312   3.069   1.665  0.6133  1.5964  1.3340
  976TIP3    H2 2935   3.431   3.050   1.757  0.4913 -1.8543  0.9373
  977TIP3   OH2 2936   2.870   0.141   1.701 -0.2244 -0.4555  0.1097
  977TIP3    H1 2937   2.853   0.097   1.785 -3.6174 -1.0559 -0.7326
  977TIP3    H2 2938   2.845   0.232   1.717 -0.2578 -0.4315 -0.0848
  978TIP3   OH2 2939   5.705   2.770   5.071 -0.0517 -0.0565  0.3797
  978TIP3    H1 2940   5.664   2.708   5.010  0.1329 -0.6559  0.8544
  978TIP3    H2 2941   5.637   2.788   5.136  0.2121 -0.5074  0.7782
  979TIP3   OH2 2942   5.503   5.259   2.780  0.4897 -0.1451 -0.1841
  979TIP3    H1 2943   5.408   5.259   2.781  0.4554 -0.0043 -1.7021
  979TIP3    H2 2944   5.527   5.207   2.704  1.5213  2.5812 -1.8879
  980TIP3   OH2 2945   3.120   4.818   0.226  0.2550 -0.3399 -0.3327
  980TIP3    H1 2946   3.060   4.870   0.280 -0.6656 -1.1253 -0.5597
  980TIP3    H2 2947   3.190   4.878   0.203 -0.1723  0.4593  0.3935
  981TIP3   OH2 2948   2.203   1.858   4.392  0.1117  0.6252  0.2733
  981TIP3    H1 2949   2.272   1.794   4.413 -0.2667  0.1534  0.1049
  981TIP3    H2 2950   2.155   1.868   4.474 -1.9352 -1.9135 -0.4724
  982TIP3   OH2 2951   4.433   4.015   0.512  0.6539 -0.0144 -0.4281
  982TIP3    H1 2952   4.467   3.964   0.438  0.6119  0.3071 -0.6700
  982TIP3    H2 2953   4.466   3.970   0.589 -1.3090 -1.8459 -0.5424
  983TIP3   OH2 2954   6.140   0.682   1.583 -0.1906  0.3123 -0.3109
  983TIP3    H1 2955   6.074   0.741   1.546  0.5055  1.6362  0.4722
  983TIP3    H2 2956   6.222   0.732   1.576  0.8633 -1.4856 -1.7401
  984TIP3   OH2 2957   3.805   4.852   3.453  0.1086 -0.4846 -0.6690
  984TIP3    H1 2958   3.768   4.914   3.390 -0.6437 -0.4686 -0.2154
  984TIP3    H2 2959   3.864   4.797   3.401  0.7296  0.5511 -1.0955
  985TIP3   OH2 2960   5.616   3.287   1.899  0.0238  0.4677 -0.0772
  985TIP3    H1 2961   5.612   3.295   1.995  1.6536  1.5308 -0.0523
  985TIP3    H2 2962   5.529   3.256   1.874 -0.7849  1.1713  1.6599
  986TIP3   OH2 2963   6.105   0.536   0.187  1.1291  0.2282  0.4101
  986TIP3    H1 2964   6.168   0.479   0.232  1.5588  0.0279 -0.4251
  986TIP3    H2 2965   6.139   0.544   0.098  1.4224  2.3276  0.6722
  987TIP3   OH2 2966   1.276   5.890   3.548  0.5792  0.0847  0.6563
  987TIP3    H1 2967   1.216   5.816   3.550 -1.3150  1.5079 -0.3120
  987TIP3    H2 2968   1.291   5.906   3.454  3.6113 -1.0459  0.8436
  988TIP3   OH2 2969   0.433   0.660   1.927  0.7584  0.0046 -0.1449
  988TIP3    H1 2970   0.399   0.584   1.974 -0.2906 -0.0161 -0.9190
  988TIP3    H2 2971   0.430   0.635   1.835 -0.2635  1.2354 -0.4670
  989TIP3   OH2 2972   6.048   3.224   0.221  0.3944  0.0817 -0.2754
  989TIP3    H1 2973   6.110   3.154   0.199 -0.2497  0.1141 -2.4808
  989TIP3    H2 2974   6.097   3.305   0.204  0.7627  0.1792  1.1493
  990TIP3   OH2 2975   0.029   2.343   4.376 -0.7116 -0.0042  0.0806
  990TIP3    H1 2976   0.060   2.415   4.321 -0.3269 -1.3485 -1.5520
  990TIP3    H2 2977   0.101   2.325   4.436 -1.4352  1.9996  1.6521
  991TIP3   OH2 2978   2.565   5.060   0.043  0.7466  0.1250  0.3898
  991TIP3    H1 2979   2.606   5.040  -0.040  0.2794 -1.0857  0.4312
  991TIP3    H2 2980   2.475   5.030   0.033  0.4887  0.6344  1.0862
  992TIP3   OH2 2981   4.589   3.043   0.827 -0.3257 -0.4286  0.2787
  992TIP3    H1 2982   4.612   2.974   0.889 -1.2134  0.2846  1.4611
  992TIP3    H2 2983   4.509   3.013   0.785 -0.6809 -0.1588  0.7522
  993TIP3   OH2 2984   0.509   3.784   4.751  0.1693 -0.2181  0.1063
  993TIP3    H1 2985   0.494   3.878   4.749 -0.8521 -0.2750  2.3155
  993TIP3    H2 2986   0.480   3.756   4.838  3.7076 -2.0379  0.9108
  994TIP3   OH2 2987   5.318   0.748   3.502  0.0393 -0.4098 -0.2125
  994TIP3    H1 2988   5.228   0.740   3.533 -0.7060 -0.4456 -2.2496
  994TIP3    H2 2989   5.349   0.830   3.540 -0.8224 -0.4163  0.5466
  995TIP3   OH2 2990   3.840   1.809   3.432  0.3147  0.8985 -0.3411
  995TIP3    H1 2991   3.926   1.850   3.425 -0.1820  1.9442 -0.5499
  995TIP3    H2 2992   3.781   1.881   3.453 -0.8130  0.5587 -2.0891
  996TIP3   OH2 2993   5.738   4.018   1.935 -0.3992 -0.4715 -0.3058
  996TIP3    H1 2994   5.686   3.944   1.904 -1.4607  0.6127 -1.1944
  996TIP3    H2 2995   5.749   4.074   1.859 -0.7612  0.9301  0.6280
  997TIP3   OH2 2996   0.586   3.214   4.741 -0.6571 -0.0748 -0.1157
  997TIP3    H1 2997   0.674   3.225   4.777 -0.8268 -0.1322  0.3129
  997TIP3    H2 2998   0.598   3.224   4.646  0.0803 -1.7513 -0.2296
  998TIP3   OH2 2999   5.757   1.891   1.327 -0.4676  0.5338 -0.0758
  998TIP3    H1 3000   5.764   1.986   1.323 -0.4560  0.6473  1.8659
  998TIP3    H2 3001   5.773   1.869   1.419 -0.0489 -1.3857 -0.5537
  999TIP3   OH2 3002   3.722   1.925   2.853  0.1787 -0.1163  0.1775
  999TIP3    H1 3003   3.817   1.937   2.851  0.0012  1.3442 -0.6783
  999TIP3    H2 3004   3.687   2.006   2.816 -1.3241 -1.4035 -1.3891
 1000TIP3   OH2 3005   4.926   4.331   2.921  0.0441  0.2962 -0.0853
 1000TIP3    H1 3006   4.981   4.268   2.875  0.5737  0.8134 -0.1739
 1000TIP3    H2 3007   4.925   4.408   2.864 -1.3311  0.0559 -0.4048
 1001TIP3   OH2 3008   2.989   2.590   3.108 -0.5261 -0.2878 -0.2204
 1001TIP3    H1 3009   3.068   2.626   3.149 -0.5027 -1.4096  0.7805
 1001TIP3    H2 3010   3.006   2.596   3.014  0.5265 -0.0114 -0.0223
 1002TIP3   OH2 3011   4.304   0.542   0.198  0.2425  0.1147 -0.1785
 1002TIP3    H1 3012   4.231   0.484   0.221  0.8805 -0.9637 -0.7597
 1002TIP3    H2 3013   4.380   0.484   0.195  0.8961  0.9738 -0.8448
 1003TIP3   OH2 3014   0.648   0.689   4.007 -0.2942  0.3712  0.0838
 1003TIP3    H1 3015   0.706   0.701   3.931 -0.0760 -0.1934  0.1501
 1003TIP3    H2 3016   0.702   0.641   4.070 -1.2031 -1.3036 -0.3415
 1004TIP3   OH2 3017   1.606   5.109   4.496  0.1903 -0.0711 -0.0903
 1004TIP3    H1 3018   1.621   5.194   4.455 -0.3361 -0.2044 -0.5738
 1004TIP3    H2 3019   1.688   5.090   4.542  0.3445  0.6507 -0.0487
 1005TIP3   OH2 3020   0.215   3.602   1.214  0.2077 -0.1090  0.0171
 1005TIP3    H1 3021   0.265   3.651   1.149 -0.2540 -1.4539 -1.3967
 1005TIP3    H2 3022   0.123   3.618   1.191 -0.0057  0.4359  1.1548
 1006TIP3   OH2 3023   6.096   2.108   1.857 -0.7210 -0.2445  0.3805
 1006TIP3    H1 3024   6.005   2.137   1.858 -0.7934 -0.3811 -0.9331
 1006TIP3    H2 3025   6.092   2.015   1.878 -1.0022 -0.5204 -0.8814
 1007TIP3   OH2 3026   0.289   5.795   2.162 -0.0914  0.1413  0.0701
 1007TIP3    H1 3027   0.254   5.712   2.195  1.0284 -1.2882 -2.0519
 1007TIP3    H2 3028   0.293   5.783   2.067  1.8584  1.9186 -0.1545
 1008TIP3   OH2 3029   1.701   4.398   4.015 -0.3965 -0.3511  0.0342
 1008TIP3    H1 3030   1.617   4.388   4.060 -0.8111  0.0922 -0.6309
 1008TIP3    H2 3031   1.678   4.426   3.926  0.4261 -0.9128 -0.3652
 1009TIP3   OH2 3032   3.979   0.215   0.500 -0.2007 -0.3824  0.2151
 1009TIP3    H1 3033   3.904   0.171   0.539 -0.2493  0.3695  0.9976
 1009TIP3    H2 3034   4.004   0.282   0.564  0.2879  0.2768 -0.6424
 1010TIP3   OH2 3035   0.151   5.853   0.669 -0.1982  0.2020  0.7824
 1010TIP3    H1 3036   0.076   5.875   0.725 -2.0014  0.2188 -1.4592
 1010TIP3    H2 3037   0.131   5.895   0.585  2.6670  0.7110  0.2474
 1011TIP3   OH2 3038   1.681   0.432   0.610  0.4526  0.8696 -0.5424
 1011TIP3    H1 3039   1.702   0.369   0.679  1.2840  1.5450 -0.1525
 1011TIP3    H2 3040   1.643   0.379   0.540  2.7168 -0.3854 -0.9448
 1012TIP3   OH2 3041   3.038   3.698   1.547 -0.2080  0.3050 -0.1022
 1012TIP3    H1 3042   3.116   3.656   1.584 -0.0629  1.2401  0.7042
 1012TIP3    H2 3043   2.996   3.629   1.495  1.8923  0.1395 -1.7424
 1013TIP3   OH2 3044   6.045   0.457   1.071 -0.0244  0.1800  0.1385
 1013TIP3    H1 3045   6.044   0.553   1.075 -1.5165  0.2966 -1.6891
 1013TIP3    H2 3046   6.074   0.430   1.158  1.0297  2.2869  0.4986
 1014TIP3   OH2 3047   0.989   1.370   3.679  0.0214 -0.2810 -0.2576
 1014TIP3    H1 3048   0.996   1.313   3.602 -0.6708 -0.0483 -0.4991
 1014TIP3    H2 3049   0.981   1.309   3.752  0.6934 -0.5042 -0.3601
 1015TIP3   OH2 3050   5.425   4.610   2.959  0.1952 -0.3208 -0.1881
 1015TIP3    H1 3051   5.352   4.552   2.936 -1.4151  1.4769  0.1534
 1015TIP3    H2 3052   5.485   4.603   2.886 -1.0254 -0.7572 -1.1890
 1016TIP3   OH2 3053   3.584   0.832   0.717  0.0041 -0.9463 -0.1855
 1016TIP3    H1 3054   3.533   0.774   0.773  0.0977  0.1520  1.1200
 1016TIP3    H2 3055   3.532   0.912   0.712  1.7165  0.3900  1.5897
 1017TIP3   OH2 3056   2.664   5.027   5.188 -0.3841  0.3462 -0.0918
 1017TIP3    H1 3057   2.595   4.982   5.237 -0.1575 -0.8971 -0.8918
 1017TIP3    H2 3058   2.642   5.013   5.096  0.9143 -0.0504 -0.3618
 1018TIP3   OH2 3059   0.692   4.631   1.442 -0.5918 -0.3056  0.7199
 1018TIP3    H1 3060   0.752   4.594   1.378 -0.6426  1.5139 -0.4615
 1018TIP3    H2 3061   0.709   4.583   1.523  3.0060  0.5852  0.6380
 1019TIP3   OH2 3062   4.521   3.655   0.811  0.1729 -0.2217  0.9328
 1019TIP3    H1 3063   4.557   3.606   0.737  0.0203  0.0375  0.6848
 1019TIP3    H2 3064   4.434   3.618   0.824 -0.6184  1.0892 -0.3344
 1020TIP3   OH2 3065   6.129   2.415   2.855 -0.1929 -0.6190  0.0242
 1020TIP3    H1 3066   6.080   2.334   2.866  0.5621 -1.1038 -0.0939
 1020TIP3    H2 3067   6.219   2.386   2.841 -0.1393  0.1955 -1.4137
 1021TIP3   OH2 3068   3.468   5.137   0.752  0.5253 -0.6630 -0.0231
 1021TIP3    H1 3069   3.555   5.101   0.766  0.2359 -1.1947  0.4164
 1021TIP3    H2 3070   3.443   5.108   0.664  1.2727  0.4949 -0.6406
 1022TIP3   OH2 3071   4.817   1.063   2.622  0.3825  0.0868  0.1914
 1022TIP3    H1 3072   4.735   1.024   2.592  0.9932 -0.8023 -0.3629
 1022TIP3    H2 3073   4.874   1.061   2.545  1.7111 -1.4963  1.1547
 1023TIP3   OH2 3074   0.761   5.107   2.368  0.4144  0.3870 -0.2954
 1023TIP3    H1 3075   0.853   5.083   2.378 -0.0660 -1.3357  0.4624
 1023TIP3    H2 3076   0.714   5.025   2.385 -1.1813  0.6693 -2.9428
 1024TIP3   OH2 3077   0.972   0.810   2.698  0.0751 -0.3838  0.0780
 1024TIP3    H1 3078   1.057   0.850   2.679 -0.0945 -0.5131 -0.9990
 1024TIP3    H2 3079   0.984   0.718   2.677  0.7191 -1.1742  3.3305
 1025TIP3   OH2 3080   5.432   1.462   0.766  0.0780 -0.2817 -0.1536
 1025TIP3    H1 3081   5.461   1.467   0.857  0.9570 -0.1721 -0.4302
 1025TIP3    H2 3082   5.382   1.380   0.761 -0.5597  0.0464  0.5770
 1026TIP3   OH2 3083   1.620   2.755   0.543 -0.2688  0.6269 -0.2199
 1026TIP3    H1 3084   1.624   2.837   0.593 -0.3053  0.8189 -0.5316
 1026TIP3    H2 3085   1.529   2.727   0.549 -0.0579  0.0894  0.7141
 1027TIP3   OH2 3086   2.488   1.917   2.004  0.3265 -0.4968 -0.6960
 1027TIP3    H1 3087   2.468   2.008   1.986 -1.6488 -0.9523 -1.0467
 1027TIP3    H2 3088   2.562   1.897   1.946 -0.1539  0.5017 -1.6893
 1028TIP3   OH2 3089   0.075   5.188   1.506 -0.5566  0.5687 -0.1484
 1028TIP3    H1 3090   0.147   5.231   1.552  0.4429  2.4995 -3.1645
 1028TIP3    H2 3091  -0.003   5.212   1.555  0.4686  2.0977  0.8140
 1029TIP3   OH2 3092   5.030   0.690   2.644 -0.1105  0.3652  0.3849
 1029TIP3    H1 3093   4.943   0.731   2.652  0.1219  1.0837 -0.6408
 1029TIP3    H2 3094   5.012   0.596   2.653 -0.7210  0.6004  2.2488
 1030TIP3   OH2 3095   3.239   1.654   0.607  0.0963 -0.0439 -0.1380
 1030TIP3    H1 3096   3.246   1.734   0.554 -0.1681  1.5052  2.0076
 1030TIP3    H2 3097   3.183   1.679   0.680  3.5641 -0.7299  3.0745
 1031TIP3   OH2 3098   2.808   0.015   1.161 -0.5199  0.1728  0.2778
 1031TIP3    H1 3099   2.737   0.072   1.135  1.1382  1.9632 -0.5562
 1031TIP3    H2 3100   2.800   0.008   1.256 -1.5075  0.6970  0.2437
 1032TIP3   OH2 3101   5.081   4.298   1.686 -0.0513 -0.4379  0.0241
 1032TIP3    H1 3102   5.068   4.381   1.641 -0.2070 -0.6162 -0.2626
 1032TIP3    H2 3103   5.002   4.289   1.740 -0.3352 -0.7010 -0.4258
 1033TIP3   OH2 3104   2.512   0.607   2.036  0.0797 -0.3495  0.0344
 1033TIP3    H1 3105   2.539   0.660   1.961 -0.1751  1.5160  1.1973
 1033TIP3    H2 3106   2.418   0.621   2.044  0.1749 -0.1296  0.9614
 1034TIP3   OH2 3107   2.770   4.485   1.985  0.1439  0.1796 -0.3258
 1034TIP3    H1 3108   2.761   4.448   1.898  0.6851  0.8087 -0.6547
 1034TIP3    H2 3109   2.681   4.487   2.020  0.1513 -2.1112  0.0012
 1035TIP3   OH2 3110   1.268   3.969   0.094  0.4151  0.1827  0.5652
 1035TIP3    H1 3111   1.224   3.998   0.174 -0.5571 -0.0508  0.1191
 1035TIP3    H2 3112   1.221   3.890   0.067 -0.5324  1.3192 -1.2951
 1036TIP3   OH2 3113   6.062   4.033   1.447  0.3575 -0.0916  0.6573
 1036TIP3    H1 3114   6.027   4.122   1.446 -0.3297 -0.3436  1.3501
 1036TIP3    H2 3115   6.031   3.993   1.366 -1.0615 -0.3397  1.3009
 1037TIP3   OH2 3116   5.817   4.487   4.437  0.7440 -0.1858  0.1545
 1037TIP3    H1 3117   5.887   4.472   4.500  1.4304  1.7890 -0.0758
 1037TIP3    H2 3118   5.793   4.579   4.449 -0.1206 -0.1638 -1.4575
 1038TIP3   OH2 3119   2.486   0.051   1.189  0.1915  0.2518 -0.2723
 1038TIP3    H1 3120   2.530  -0.008   1.128 -0.4561  2.0857 -2.6987
 1038TIP3    H2 3121   2.553   0.115   1.213  0.6204 -0.8096  1.5604
 1039TIP3   OH2 3122   3.217   2.858   1.957  0.3826 -0.9230  0.5275
 1039TIP3    H1 3123   3.243   2.887   1.870  0.9188 -2.1661  0.2426
 1039TIP3    H2 3124   3.141   2.801   1.942  0.4111 -1.0553  0.8689
 1040TIP3   OH2 3125   2.444   0.870   1.936 -0.0086  0.4698 -0.1230
 1040TIP3    H1 3126   2.402   0.857   1.851 -1.0243  0.4704  0.3662
 1040TIP3    H2 3127   2.493   0.952   1.927 -2.0293  1.7713 -0.0016
 1041TIP3   OH2 3128   6.265   1.020   2.392 -0.3766  0.3336 -0.2687
 1041TIP3    H1 3129   6.318   1.070   2.329 -0.3797  1.9947  0.9819
 1041TIP3    H2 3130   6.317   0.943   2.412  0.2024  0.4359 -1.3263
 1042TIP3   OH2 3131   4.372   1.632   2.699 -0.1787  0.8633 -0.3316
 1042TIP3    H1 3132   4.385   1.594   2.612  0.7964  2.0456 -0.7249
 1042TIP3    H2 3133   4.311   1.572   2.742 -0.5559  0.1674 -1.7665
 1043TIP3   OH2 3134   4.995   4.348   4.090  0.7126  0.2346 -0.0177
 1043TIP3    H1 3135   4.904   4.346   4.060 -0.0495  1.4550  2.0307
 1043TIP3    H2 3136   5.046   4.323   4.013 -1.3546 -0.7454 -1.1490
 1044TIP3   OH2 3137   1.287   1.340   2.971  0.0584 -0.0321 -0.1195
 1044TIP3    H1 3138   1.328   1.419   3.008  0.8346 -1.0066  1.1626
 1044TIP3    H2 3139   1.206   1.373   2.931 -0.4676  1.2243  1.8002
 1045TIP3   OH2 3140   5.868   3.637   1.251  0.1558 -0.4079 -0.2023
 1045TIP3    H1 3141   5.881   3.648   1.157 -0.4779 -2.2833 -0.5478
 1045TIP3    H2 3142   5.878   3.543   1.266 -0.4450 -0.2376  1.4974
 1046TIP3   OH2 3143   4.552   0.878   0.308  0.0099  0.4147  0.8977
 1046TIP3    H1 3144   4.630   0.824   0.322 -0.4766 -0.7497 -0.5920
 1046TIP3    H2 3145   4.493   0.851   0.378  0.4223  0.2799  1.2035
 1047TIP3   OH2 3146   4.215   1.868   2.109  0.2464 -0.3344 -0.1989
 1047TIP3    H1 3147   4.253   1.895   2.025  1.5465 -0.0760  0.4377
 1047TIP3    H2 3148   4.262   1.788   2.132  1.8640  1.0295  1.5293
 1048TIP3   OH2 3149   4.167   4.606   2.701  0.4355 -0.1885  0.5930
 1048TIP3    H1 3150   4.196   4.529   2.652  1.1076  0.4552 -0.0474
 1048TIP3    H2 3151   4.188   4.585   2.792  1.2646 -0.4779  0.3454
 1049TIP3   OH2 3152   4.821   3.573   2.552 -0.1672 -0.2420 -0.4213
 1049TIP3    H1 3153   4.728   3.566   2.572 -0.5166  1.9429 -1.1161
 1049TIP3    H2 3154   4.860   3.611   2.631  0.3966 -2.2242  0.3271
 1050TIP3   OH2 3155   4.252   5.796   2.832  0.3336 -0.1352 -0.5624
 1050TIP3    H1 3156   4.193   5.853   2.783  1.0556  1.6241  0.5285
 1050TIP3    H2 3157   4.332   5.794   2.779 -0.1129 -1.1735 -1.2175
 1051TIP3   OH2 3158   2.272   3.619   3.684 -0.1790 -0.3156 -0.1801
 1051TIP3    H1 3159   2.219   3.689   3.646 -0.9353 -0.5637  0.3971
 1051TIP3    H2 3160   2.326   3.588   3.611 -0.5264  0.2207 -0.6750
 1052TIP3   OH2 3161   4.335   3.895   1.740  0.2711  0.1578 -0.1921
 1052TIP3    H1 3162   4.265   3.958   1.726  0.9729  1.4204  1.5788
 1052TIP3    H2 3163   4.291   3.812   1.755 -0.8899  0.9674  1.1154
 1053TIP3   OH2 3164   2.209   3.579   4.140 -0.3648 -0.5141 -0.0335
 1053TIP3    H1 3165   2.141   3.575   4.073 -0.6927  0.0873  0.2447
 1053TIP3    H2 3166   2.193   3.503   4.196 -0.9036 -0.3008  0.1096
 1054TIP3   OH2 3167   4.215   5.105   1.243  0.1499  0.4231 -0.1874
 1054TIP3    H1 3168   4.140   5.146   1.200 -0.6669 -0.2217  0.5844
 1054TIP3    H2 3169   4.217   5.144   1.331  1.1241  0.9092 -0.4069
 1055TIP3   OH2 3170   1.085   5.491   4.392  0.4177  0.1139 -0.1523
 1055TIP3    H1 3171   1.104   5.411   4.441  0.1725  0.3137  0.2744
 1055TIP3    H2 3172   1.060   5.555   4.459  0.8459  0.6193 -0.4638
 1056TIP3   OH2 3173   3.730   0.372   3.884 -0.2299  0.7193 -0.0783
 1056TIP3    H1 3174   3.709   0.305   3.948 -0.2880 -0.2791 -1.1186
 1056TIP3    H2 3175   3.825   0.366   3.872 -0.4097 -0.2165 -1.2539
 1057TIP3   OH2 3176   1.568   3.138   1.511  0.2688 -0.2566 -0.3790
 1057TIP3    H1 3177   1.523   3.117   1.593  1.8635 -0.9664  0.3631
 1057TIP3    H2 3178   1.548   3.064   1.454  1.2523 -1.0543  0.2805
 1058TIP3   OH2 3179   5.312   5.027   5.067  0.0864 -0.4223 -0.4101
 1058TIP3    H1 3180   5.262   4.951   5.038 -0.2825  0.3007 -1.7322
 1058TIP3    H2 3181   5.248   5.081   5.114  0.1692 -0.5553 -0.1401
 1059TIP3   OH2 3182   1.902   3.606   3.095  0.1527 -0.5192 -0.0084
 1059TIP3    H1 3183   1.912   3.592   3.001  1.3207  1.5898 -0.2534
 1059TIP3    H2 3184   1.867   3.694   3.103  1.1394 -0.2228  1.5293
 1060TIP3   OH2 3185   0.672   4.176   1.886 -0.4430  0.6089  0.0635
 1060TIP3    H1 3186   0.578   4.191   1.891 -0.5724 -0.2939  0.4787
 1060TIP3    H2 3187   0.702   4.182   1.977 -0.3282 -0.5130  0.1081
 1061TIP3   OH2 3188   2.955   4.359   2.150 -0.7675 -0.2571  0.4224
 1061TIP3    H1 3189   2.942   4.387   2.241 -0.2229  0.2747  0.3443
 1061TIP3    H2 3190   2.887   4.403   2.101  0.7387  1.8834  0.1303
 1062TIP3   OH2 3191   3.293   4.960   3.060 -0.4221  0.3443 -0.4442
 1062TIP3    H1 3192   3.244   5.042   3.053  0.6784  1.2128  1.3155
 1062TIP3    H2 3193   3.373   4.977   3.010  0.1721  0.6741  0.5899
 1063TIP3   OH2 3194   2.959   5.342   3.459  0.6115  0.1819 -0.1126
 1063TIP3    H1 3195   3.020   5.305   3.396  1.0158  0.2769  0.2218
 1063TIP3    H2 3196   3.014   5.384   3.525  0.1802  0.7577 -0.1037
 1064TIP3   OH2 3197   3.189   0.192   0.050  0.0377 -0.0439 -0.1361
 1064TIP3    H1 3198   3.163   0.248   0.123  0.5415  0.0588 -0.0328
 1064TIP3    H2 3199   3.179   0.246  -0.027  0.2305  0.0921 -0.0663
 1065TIP3   OH2 3200   1.078   1.747   5.115  0.0694  0.4460  0.4004
 1065TIP3    H1 3201   1.102   1.839   5.125 -0.1875  0.4481  1.0010
 1065TIP3    H2 3202   0.985   1.744   5.138 -0.1166  0.1669 -0.3731
 1066TIP3   OH2 3203   6.329   4.953   2.560 -0.5218 -0.1306  0.3107
 1066TIP3    H1 3204   6.308   4.944   2.653 -3.0256  0.7160 -0.0957
 1066TIP3    H2 3205   6.351   5.045   2.549 -2.5874  0.3433 -0.2810
 1067TIP3   OH2 3206   2.263   5.116   1.374 -0.8013  0.2257 -0.4916
 1067TIP3    H1 3207   2.347   5.135   1.415 -0.2250  0.4698 -1.7385
 1067TIP3    H2 3208   2.285   5.058   1.300 -1.6958  0.4650 -0.9627
 1068TIP3   OH2 3209   4.014   5.454   2.465  0.4695  0.3185 -0.1715
 1068TIP3    H1 3210   4.093   5.428   2.417  0.2343 -1.1384  0.1882
 1068TIP3    H2 3211   4.022   5.549   2.474  2.5381  0.1365  0.4793
 1069TIP3   OH2 3212   4.661   0.305   0.448 -0.1716  0.1681 -0.1035
 1069TIP3    H1 3213   4.736   0.289   0.506 -0.1255  2.0107  0.4198
 1069TIP3    H2 3214   4.592   0.250   0.483  0.1228  0.5890  1.2044
 1070TIP3   OH2 3215   0.282   2.660   3.064  0.1030  0.0793 -1.0340
 1070TIP3    H1 3216   0.342   2.591   3.036 -0.1488  0.0080 -1.4041
 1070TIP3    H2 3217   0.220   2.668   2.992 -0.9276 -0.5321 -0.2501
 1071TIP3   OH2 3218   1.722   4.323   4.597 -0.6518 -0.9356  0.4930
 1071TIP3    H1 3219   1.763   4.263   4.536 -0.9746 -0.6115 -0.0448
 1071TIP3    H2 3220   1.787   4.333   4.667  0.0687 -0.6641 -0.1982
 1072TIP3   OH2 3221   4.945   2.344   0.596  0.2291 -0.2692  0.5588
 1072TIP3    H1 3222   4.894   2.292   0.534  0.0269 -1.1314  1.4068
 1072TIP3    H2 3223   5.033   2.306   0.592  0.9666  1.4960 -1.2182
 1073TIP3   OH2 3224   2.176   5.882   0.011 -0.5497 -0.0955  0.0934
 1073TIP3    H1 3225   2.099   5.826   0.020 -0.4191 -0.3567 -0.3576
 1073TIP3    H2 3226   2.249   5.820  -0.000 -0.1400  0.1200  1.4054
 1074TIP3   OH2 3227   6.235   4.072   3.375  0.2482  0.3783 -0.0248
 1074TIP3    H1 3228   6.210   4.072   3.467  0.3504 -2.2767  0.0817
 1074TIP3    H2 3229   6.153   4.081   3.327  0.0430  0.3296  0.3168
 1075TIP3   OH2 3230   3.879   4.863   0.649  0.2544 -0.0166  0.0336
 1075TIP3    H1 3231   3.959   4.906   0.621 -0.1513  0.1308 -0.9328
 1075TIP3    H2 3232   3.896   4.769   0.639 -0.0180  0.0442 -1.1132
 1076TIP3   OH2 3233   4.600   5.430   3.158  0.4617 -0.1247  0.6380
 1076TIP3    H1 3234   4.593   5.512   3.206 -0.6658  0.0969  0.1270
 1076TIP3    H2 3235   4.564   5.364   3.218  1.1221 -0.2118  0.9458
 1077TIP3   OH2 3236   3.004   4.582   1.232  0.6176 -0.3496 -0.3632
 1077TIP3    H1 3237   3.070   4.526   1.194  0.5844  0.0374 -1.0028
 1077TIP3    H2 3238   3.027   4.588   1.325 -0.5957 -3.1371  0.2172
 1078TIP3   OH2 3239   5.230   2.254   0.558  0.1905 -0.3026  0.3002
 1078TIP3    H1 3240   5.207   2.164   0.582  0.7800 -0.5480 -0.0441
 1078TIP3    H2 3241   5.281   2.287   0.632 -0.7390  0.0416  0.8020
 1079TIP3   OH2 3242   3.177   2.879   1.329 -0.1813 -0.6353 -0.7448
 1079TIP3    H1 3243   3.248   2.851   1.386  0.1815  1.1383 -0.2484
 1079TIP3    H2 3244   3.098   2.846   1.371  0.1940 -0.6869 -0.0601
 1080TIP3   OH2 3245   1.827   1.339   1.858  0.1261 -0.2788 -0.0082
 1080TIP3    H1 3246   1.880   1.410   1.895 -1.5192  1.0268  0.0206
 1080TIP3    H2 3247   1.787   1.297   1.934  0.4184 -0.6787 -0.0731
 1081TIP3   OH2 3248   5.175   4.774   1.434 -0.0625 -0.5508  0.0074
 1081TIP3    H1 3249   5.194   4.859   1.474  0.5678 -0.3253 -0.7370
 1081TIP3    H2 3250   5.235   4.713   1.476 -0.1078 -0.5132  0.1259
 1082TIP3   OH2 3251   0.987   0.517   1.223  0.4515 -0.4662  0.0936
 1082TIP3    H1 3252   0.988   0.546   1.315  0.4333 -1.4984  0.4354
 1082TIP3    H2 3253   1.074   0.481   1.208 -0.0457 -1.7575  0.2039
 1083TIP3   OH2 3254   6.063   1.959   0.523 -0.1170  0.6814  0.5326
 1083TIP3    H1 3255   6.090   2.043   0.486 -0.7291  0.4398 -0.4993
 1083TIP3    H2 3256   6.062   1.898   0.449  0.9163 -0.4047  1.3659
 1084TIP3   OH2 3257   2.454   1.639   3.286  0.0777 -0.2793 -0.9913
 1084TIP3    H1 3258   2.538   1.593   3.281  0.8010  0.6441  1.1549
 1084TIP3    H2 3259   2.427   1.628   3.377 -2.6177 -1.2839 -1.8293
 1085TIP3   OH2 3260   4.637   0.010   4.178 -0.2876 -0.2779 -0.0452
 1085TIP3    H1 3261   4.633   0.106   4.183  1.2528 -0.1672 -0.5692
 1085TIP3    H2 3262   4.552  -0.018   4.212 -0.6595  1.2579  0.4138
 1086TIP3   OH2 3263   5.576   4.474   0.735  0.3659 -0.0365 -0.0119
 1086TIP3    H1 3264   5.596   4.467   0.642  0.8079  0.4562  0.0427
 1086TIP3    H2 3265   5.490   4.433   0.744 -0.4582  1.4355 -0.9150
 1087TIP3   OH2 3266   0.560   1.276   1.961  0.0588  0.5845 -0.4464
 1087TIP3    H1 3267   0.592   1.328   1.888  2.4977  0.7917  0.6524
 1087TIP3    H2 3268   0.615   1.197   1.961 -0.0230  0.4897  0.9932
 1088TIP3   OH2 3269   5.050   2.328   1.050  0.5125  0.0962  0.7775
 1088TIP3    H1 3270   5.087   2.392   0.989 -0.2662 -0.5859 -0.4327
 1088TIP3    H2 3271   5.119   2.264   1.062  0.9238  0.6033  1.1897
 1089TIP3   OH2 3272   6.030   1.818   2.069  0.2400  0.2861 -0.9866
 1089TIP3    H1 3273   5.979   1.860   2.137 -1.9496  0.5888 -2.7135
 1089TIP3    H2 3274   6.108   1.784   2.114 -1.6943 -0.6599  1.8855
 1090TIP3   OH2 3275   4.432   5.703   0.287  0.1292 -0.1110  0.1203
 1090TIP3    H1 3276   4.525   5.683   0.295  0.1257 -0.0790  0.2539
 1090TIP3    H2 3277   4.430   5.795   0.260  0.1472 -0.3282 -0.6477
 1091TIP3   OH2 3278   4.594   3.433   4.791 -0.1875 -0.1083 -0.3111
 1091TIP3    H1 3279   4.681   3.421   4.830 -0.3821  0.4534  0.3237
 1091TIP3    H2 3280   4.606   3.504   4.728  0.0560 -0.7924 -1.0399
 1092TIP3   OH2 3281   2.102   4.307   1.220  0.5556  0.2831 -0.0180
 1092TIP3    H1 3282   2.111   4.351   1.136 -1.3434 -1.2967 -1.1553
 1092TIP3    H2 3283   2.012   4.324   1.246  1.1761  0.9247  1.8508
 1093TIP3   OH2 3284   3.647   5.306   3.870 -0.0367  0.2793 -0.1994
 1093TIP3    H1 3285   3.559   5.345   3.871  0.0631  0.5864  2.5238
 1093TIP3    H2 3286   3.700   5.365   3.923  1.2914 -1.0357 -0.0041
 1094TIP3   OH2 3287   3.207   4.641   3.046  0.8176 -0.2568  0.0842
 1094TIP3    H1 3288   3.128   4.688   3.073  0.7095 -0.9186  0.9651
 1094TIP3    H2 3289   3.209   4.564   3.102  2.5718  0.1938  0.7123
 1095TIP3   OH2 3290   2.178   0.091   0.125  0.0610 -0.2133 -0.3525
 1095TIP3    H1 3291   2.220   0.025   0.069  0.4099 -0.8530  0.6347
 1095TIP3    H2 3292   2.108   0.127   0.071  1.4778  0.4598 -1.8414
 1096TIP3   OH2 3293   4.604   1.987   5.041 -0.4867  0.1797  0.1732
 1096TIP3    H1 3294   4.586   2.070   5.085  0.1267  1.6654 -2.1607
 1096TIP3    H2 3295   4.667   2.010   4.972  0.6175 -2.4708  0.1743
 1097TIP3   OH2 3296   4.673   1.045   3.360  0.3319 -0.1851 -0.5556
 1097TIP3    H1 3297   4.745   1.108   3.357 -0.1740  0.3957 -0.6452
 1097TIP3    H2 3298   4.676   1.008   3.448 -0.2295  0.9945 -0.0241
 1098TIP3   OH2 3299   1.537   2.734   2.032  0.0099 -0.4964  0.0464
 1098TIP3    H1 3300   1.587   2.803   2.075 -1.6331  0.8619 -0.1096
 1098TIP3    H2 3301   1.474   2.704   2.098 -1.2902  0.3001 -0.7884
 1099TIP3   OH2 3302   5.707   3.760   1.448 -0.0635  0.1714 -0.4408
 1099TIP3    H1 3303   5.655   3.683   1.470 -0.9000  0.5038 -1.1623
 1099TIP3    H2 3304   5.784   3.725   1.403  0.4872 -0.3443  0.8674
 1100TIP3   OH2 3305   4.705   1.664   1.034  0.3619  0.1677 -0.0070
 1100TIP3    H1 3306   4.756   1.717   1.096  1.1334 -0.5092 -0.0485
 1100TIP3    H2 3307   4.728   1.700   0.949 -1.7068  1.9795  0.1092
 1101TIP3   OH2 3308   0.886   5.185   1.380  0.3856 -0.0598  0.0955
 1101TIP3    H1 3309   0.936   5.266   1.365 -0.2693  0.2218 -0.6292
 1101TIP3    H2 3310   0.889   5.139   1.296 -0.1125 -0.3019  0.2109
 1102TIP3   OH2 3311   2.265   2.542   0.484  0.0888  0.1105  0.5225
 1102TIP3    H1 3312   2.205   2.468   0.489  1.4086 -1.0257  0.0795
 1102TIP3    H2 3313   2.279   2.556   0.391  1.0753 -0.1373  0.6180
 1103TIP3   OH2 3314   4.981   5.379   1.569 -0.0586  0.1036 -0.3348
 1103TIP3    H1 3315   5.066   5.355   1.606 -0.3724  0.9181  0.9955
 1103TIP3    H2 3316   4.923   5.306   1.590  0.4906 -0.8815 -2.0582
 1104TIP3   OH2 3317   0.653   3.806   2.977 -0.9075  0.6382 -0.7752
 1104TIP3    H1 3318   0.697   3.770   2.900 -1.3330  0.8300 -1.1180
 1104TIP3    H2 3319   0.716   3.798   3.048  0.0926  1.9252 -1.4886
 1105TIP3   OH2 3320   0.963   0.455   4.631  0.3123  0.2410  0.1066
 1105TIP3    H1 3321   0.968   0.550   4.641 -0.7129  0.4230 -0.9101
 1105TIP3    H2 3322   1.030   0.434   4.567  0.3635  0.3123  0.1365
 1106TIP3   OH2 3323   4.432   5.665   3.862 -1.0678 -0.3210 -0.3138
 1106TIP3    H1 3324   4.430   5.709   3.948 -0.9374 -1.3918  0.2591
 1106TIP3    H2 3325   4.481   5.725   3.806 -0.1562 -0.0998  0.6641
 1107TIP3   OH2 3326   3.625   1.471   4.821  0.6509  0.0467  0.1640
 1107TIP3    H1 3327   3.683   1.546   4.834 -2.6362  2.8377  0.1920
 1107TIP3    H2 3328   3.571   1.469   4.901 -0.4144 -1.3460 -0.5478
 1108TIP3   OH2 3329   4.923   3.273   1.028 -0.1844 -0.1025  0.0109
 1108TIP3    H1 3330   4.929   3.179   1.008 -0.5083 -0.3592  1.0538
 1108TIP3    H2 3331   4.829   3.292   1.022 -0.1039  0.1938 -0.3356
 1109TIP3   OH2 3332   3.041   5.794   1.226 -0.2605 -1.2311  0.1695
 1109TIP3    H1 3333   3.037   5.733   1.299  1.3468 -2.6757 -0.8795
 1109TIP3    H2 3334   2.977   5.862   1.248  0.0991 -1.6516  2.8493
 1110TIP3   OH2 3335   4.334   0.805   4.831 -0.2588 -0.2729 -0.3515
 1110TIP3    H1 3336   4.258   0.785   4.776 -0.7584 -0.5627  0.4319
 1110TIP3    H2 3337   4.328   0.744   4.904  0.9157 -0.5246 -0.4329
 1111TIP3   OH2 3338   1.633   5.740   1.718 -0.1713 -0.3481 -0.2727
 1111TIP3    H1 3339   1.664   5.690   1.793  1.5357  1.4619  0.3534
 1111TIP3    H2 3340   1.596   5.820   1.756 -4.1162 -1.5580 -1.1415
 1112TIP3   OH2 3341   1.442   5.512   2.106  0.3789 -0.5828 -0.1145
 1112TIP3    H1 3342   1.515   5.518   2.045  0.8721 -2.4320  0.2482
 1112TIP3    H2 3343   1.426   5.603   2.132  1.8751 -0.0300 -0.9719
 1113TIP3   OH2 3344   1.447   1.350   1.669  0.1642  0.2469 -0.0579
 1113TIP3    H1 3345   1.458   1.274   1.726 -0.9304  0.7462  0.8465
 1113TIP3    H2 3346   1.422   1.313   1.584  0.2000 -0.4265  0.2236
 1114TIP3   OH2 3347   3.543   0.569   2.930  0.2992  0.1534 -0.1038
 1114TIP3    H1 3348   3.481   0.500   2.910 -0.9083  0.8096  1.2071
 1114TIP3    H2 3349   3.587   0.540   3.011 -0.7180  1.1902  0.8567
 1115TIP3   OH2 3350   2.141   0.293   3.043 -0.1732 -0.0699 -0.2644
 1115TIP3    H1 3351   2.229   0.255   3.043 -0.4068 -0.6259  0.0681
 1115TIP3    H2 3352   2.156   0.387   3.033  0.4350 -0.2034 -0.7233
 1116TIP3   OH2 3353   1.415   4.174   0.408 -0.6670 -0.1721  0.3109
 1116TIP3    H1 3354   1.398   4.137   0.494 -0.4332 -0.2510  0.3240
 1116TIP3    H2 3355   1.339   4.150   0.356 -0.5870 -0.5389  0.3614
 1117TIP3   OH2 3356   3.125   4.205   4.097  0.6290 -0.3558 -0.5329
 1117TIP3    H1 3357   3.148   4.203   4.190  2.7455  1.8206 -0.9273
 1117TIP3    H2 3358   3.198   4.250   4.055 -1.4960  1.1449 -2.8735
 1118TIP3   OH2 3359   2.985   0.257   3.698 -0.1293 -0.4380 -0.4560
 1118TIP3    H1 3360   3.071   0.285   3.668  0.2913  1.1580  1.9335
 1118TIP3    H2 3361   2.997   0.164   3.720  0.9311 -0.2952 -0.3773
 1119TIP3   OH2 3362   1.523   1.556   0.576 -0.1320  0.3845  0.3415
 1119TIP3    H1 3363   1.436   1.524   0.602  0.1298 -1.1189 -0.5227
 1119TIP3    H2 3364   1.582   1.520   0.642 -0.1254  1.2627  0.8289
 1120TIP3   OH2 3365   5.174   4.405   1.174  0.3042 -0.6419  0.1621
 1120TIP3    H1 3366   5.192   4.414   1.081  0.6188 -0.5517  0.2295
 1120TIP3    H2 3367   5.084   4.436   1.184 -0.3788 -2.3154 -0.3767
 1121TIP3   OH2 3368   4.580   3.756   2.706 -0.1301 -1.0622  0.3750
 1121TIP3    H1 3369   4.591   3.756   2.801 -1.6216  0.0626  0.5970
 1121TIP3    H2 3370   4.557   3.665   2.685 -0.6772 -1.1325  1.2174
 1122TIP3   OH2 3371   1.763   0.402   3.920 -0.1897 -0.1582 -0.5069
 1122TIP3    H1 3372   1.702   0.343   3.876 -1.9701 -0.5804  2.2350
 1122TIP3    H2 3373   1.721   0.489   3.914 -0.0126 -0.0668 -0.4299
 1123TIP3   OH2 3374   4.523   2.837   3.416  0.2473  0.4174 -0.2550
 1123TIP3    H1 3375   4.573   2.759   3.438  0.5640  0.9453  0.9523
 1123TIP3    H2 3376   4.437   2.804   3.391  0.4302 -0.3302  0.0809
 1124TIP3   OH2 3377   5.395   1.036   0.584 -0.3940  0.1094 -0.2441
 1124TIP3    H1 3378   5.364   1.067   0.669 -1.1775 -0.9445 -0.1314
 1124TIP3    H2 3379   5.343   1.084   0.520 -0.4888  0.1890 -0.1058
 1125TIP3   OH2 3380   1.454   3.091   3.217  0.1968  0.5470 -0.0496
 1125TIP3    H1 3381   1.421   3.034   3.286  1.2077 -1.5768 -1.2288
 1125TIP3    H2 3382   1.387   3.088   3.149  1.1120 -0.9209 -0.9480
 1126TIP3   OH2 3383   3.681  -0.014   1.859 -0.0172  0.1383 -0.1373
 1126TIP3    H1 3384   3.633   0.065   1.832 -0.3074  0.1713  0.4588
 1126TIP3    H2 3385   3.762   0.018   1.898 -0.4853  0.1933  0.8261
 1127TIP3   OH2 3386   4.669   4.414   5.049  0.3128  0.4286 -0.3150
 1127TIP3    H1 3387   4.590   4.362   5.033 -0.4459  1.8997 -1.6179
 1127TIP3    H2 3388   4.641   4.482   5.110  0.5106  1.0188 -0.8629
 1128TIP3   OH2 3389   6.175   2.701   3.278  0.1259  0.1227 -0.1511
 1128TIP3    H1 3390   6.165   2.781   3.228 -0.3185  0.7144  0.8435
 1128TIP3    H2 3391   6.269   2.694   3.295 -0.0240  1.5211  1.4386
 1129TIP3   OH2 3392   2.259   5.658   4.682 -0.1757 -0.3449  0.0264
 1129TIP3    H1 3393   2.257   5.566   4.655 -2.4002 -0.1547 -0.6092
 1129TIP3    H2 3394   2.171   5.690   4.666  0.0767  1.4701  1.8409
 1130TIP3   OH2 3395   4.074   3.713   2.797  0.0432 -0.0033 -0.1302
 1130TIP3    H1 3396   4.119   3.782   2.749 -0.5418 -0.1194 -0.8665
 1130TIP3    H2 3397   4.114   3.713   2.883 -0.5406  1.8464  0.1799
 1131TIP3   OH2 3398   3.986   1.234   2.521 -0.0479  0.9605 -0.2781
 1131TIP3    H1 3399   4.080   1.233   2.538 -0.2409  0.8405  0.8790
 1131TIP3    H2 3400   3.947   1.266   2.603 -0.9691  1.7378 -1.0007
 1132TIP3   OH2 3401   4.119   5.148   3.468  0.5204 -0.1255  0.9498
 1132TIP3    H1 3402   4.126   5.242   3.452  0.3558 -0.1989  0.3946
 1132TIP3    H2 3403   4.024   5.132   3.476  0.1380 -0.8060 -2.9302
 1133TIP3   OH2 3404   3.767   0.828   3.443  0.6224  0.5434 -0.5869
 1133TIP3    H1 3405   3.846   0.881   3.454  1.1193 -0.3370  0.2346
 1133TIP3    H2 3406   3.790   0.743   3.479 -1.0433  0.5787  0.7158
 1134TIP3   OH2 3407   0.691   0.815   2.084  0.1847  0.1845 -0.6432
 1134TIP3    H1 3408   0.603   0.807   2.048  0.3586  2.6291 -1.8001
 1134TIP3    H2 3409   0.748   0.810   2.007  0.9977 -0.2162 -0.0324
 1135TIP3   OH2 3410   4.235   0.619   4.193 -0.2897 -0.1195 -0.0567
 1135TIP3    H1 3411   4.251   0.575   4.277  0.1322  0.4833  0.1841
 1135TIP3    H2 3412   4.202   0.705   4.216  0.3451  0.2523 -0.4917
 1136TIP3   OH2 3413   1.445   5.921   2.506 -0.0416  0.7203 -0.3780
 1136TIP3    H1 3414   1.478   5.890   2.422  1.6063  0.4311  0.3295
 1136TIP3    H2 3415   1.427   5.841   2.556  0.7678  0.8716  0.1781
 1137TIP3   OH2 3416   3.263   5.166   4.590  0.3964 -0.2176 -0.1778
 1137TIP3    H1 3417   3.210   5.089   4.571 -0.2099 -0.0609  0.7856
 1137TIP3    H2 3418   3.346   5.130   4.622  0.5635 -0.4595 -0.8625
 1138TIP3   OH2 3419  -0.012   3.812   1.539  0.4595 -0.2155 -0.1730
 1138TIP3    H1 3420   0.017   3.900   1.515 -0.2996  0.5238  1.5129
 1138TIP3    H2 3421   0.059   3.755   1.511  1.5328  1.0679 -0.1316
 1139TIP3   OH2 3422   5.337   0.194   1.723 -0.3839  1.2232 -0.1242
 1139TIP3    H1 3423   5.332   0.289   1.712 -0.2275  1.1217 -1.1421
 1139TIP3    H2 3424   5.270   0.174   1.788 -1.8190  1.8052 -1.3597
 1140TIP3   OH2 3425   4.772   5.047   3.288  0.9690  0.1571 -0.1728
 1140TIP3    H1 3426   4.863   5.032   3.262  0.4816 -1.6076 -0.9897
 1140TIP3    H2 3427   4.746   4.967   3.333 -0.6861 -0.0566 -1.4238
 1141TIP3   OH2 3428   6.338   3.735   0.492  0.1028 -0.3574 -0.3019
 1141TIP3    H1 3429   6.389   3.687   0.426  0.4859 -0.8307  0.3274
 1141TIP3    H2 3430   6.254   3.689   0.495 -0.1273  0.0173 -0.8663
 1142TIP3   OH2 3431   5.822   5.921   3.862 -0.4010  0.2949  0.2029
 1142TIP3    H1 3432   5.834   5.908   3.768 -0.3998 -1.6303  0.4255
 1142TIP3    H2 3433   5.891   5.982   3.887  0.7711 -0.5779 -0.7711
 1143TIP3   OH2 3434   5.248   3.451   4.664  0.0327  0.0432 -0.5183
 1143TIP3    H1 3435   5.183   3.410   4.721  1.2400 -0.0275  0.8571
 1143TIP3    H2 3436   5.306   3.380   4.638 -0.5834  0.0480 -1.9976
 1144TIP3   OH2 3437   5.842   0.765   0.858 -0.1901  0.4006 -0.3000
 1144TIP3    H1 3438   5.781   0.732   0.792  0.4080 -1.1393 -0.1297
 1144TIP3    H2 3439   5.928   0.759   0.816  0.1538 -0.2423  0.4652
 1145TIP3   OH2 3440   3.580   1.792   0.801  0.1409  0.4405 -0.4543
 1145TIP3    H1 3441   3.523   1.867   0.786 -0.6917 -0.2411 -0.8028
 1145TIP3    H2 3442   3.632   1.785   0.722  0.6421  0.9980 -0.1807
 1146TIP3   OH2 3443   4.500   3.244   3.209  0.2286 -0.0172 -0.4318
 1146TIP3    H1 3444   4.572   3.294   3.172 -0.5725  1.5517  0.0326
 1146TIP3    H2 3445   4.540   3.162   3.236  2.3874  1.6434  1.9058
 1147TIP3   OH2 3446   1.164   5.281   1.764  0.4349  0.0670 -0.6778
 1147TIP3    H1 3447   1.104   5.207   1.754 -0.8829  0.9994 -0.1113
 1147TIP3    H2 3448   1.239   5.245   1.810 -0.2198 -0.9119 -0.3406
 1148TIP3   OH2 3449   0.368   5.276   1.351  0.1118  0.1977  0.1867
 1148TIP3    H1 3450   0.316   5.214   1.402 -1.9204  0.0411 -1.8960
 1148TIP3    H2 3451   0.303   5.332   1.308  1.8000  1.9836 -0.1925
 1149TIP3   OH2 3452   2.911   0.770   2.991  0.4926 -0.3526 -0.7187
 1149TIP3    H1 3453   2.965   0.761   3.070  0.1903  1.0235 -0.3200
 1149TIP3    H2 3454   2.907   0.864   2.976  0.8503 -0.6042 -2.6274
 1150TIP3   OH2 3455   5.631   4.075   3.142 -0.0949  0.4482 -0.7584
 1150TIP3    H1 3456   5.658   3.985   3.121  0.7644  0.3292  0.6866
 1150TIP3    H2 3457   5.675   4.129   3.077  0.5307 -0.0857 -0.7866
 1151TIP3   OH2 3458   0.619   0.981   0.789 -0.0140  0.1652 -0.0963
 1151TIP3    H1 3459   0.701   0.985   0.839  0.5967  1.7511 -1.1637
 1151TIP3    H2 3460   0.551   1.003   0.853  0.7913  2.5002  0.0196
 1152TIP3   OH2 3461   0.553   5.437   0.906  0.5872 -0.2596  0.4482
 1152TIP3    H1 3462   0.489   5.419   0.975  0.5335  0.8229  0.6935
 1152TIP3    H2 3463   0.558   5.533   0.902  1.0779 -0.3186 -0.6045
 1153TIP3   OH2 3464   2.791   1.314   1.433 -0.1450 -0.5335  0.2848
 1153TIP3    H1 3465   2.875   1.269   1.429 -0.9705 -2.0737 -0.2147
 1153TIP3    H2 3466   2.809   1.402   1.399  1.8306  0.1273  2.7611
 1154TIP3   OH2 3467   0.113   3.939   3.690 -0.0586 -0.3498  0.0776
 1154TIP3    H1 3468   0.067   3.937   3.773 -0.4860  1.4104 -0.0887
 1154TIP3    H2 3469   0.194   3.891   3.706 -1.1526 -2.0424  0.8313
 1155TIP3   OH2 3470   6.051   3.767   3.731  0.5087 -0.4729 -0.3325
 1155TIP3    H1 3471   6.096   3.748   3.649  1.0490  0.8538 -0.3703
 1155TIP3    H2 3472   6.105   3.833   3.773 -0.8169  0.3616  0.1328
 1156TIP3   OH2 3473   4.911   0.785   1.814 -0.0340 -0.0878  0.5927
 1156TIP3    H1 3474   4.836   0.774   1.757 -1.3622  1.4191  1.9735
 1156TIP3    H2 3475   4.874   0.803   1.900  1.9081 -0.8540  1.6536
 1157TIP3   OH2 3476   4.852   1.207   3.104 -0.9426 -0.2229 -0.1362
 1157TIP3    H1 3477   4.888   1.119   3.101 -1.1386 -0.3935  1.4501
 1157TIP3    H2 3478   4.878   1.247   3.021  0.2905 -1.3291 -0.3118
 1158TIP3   OH2 3479   1.378   1.151   4.113 -0.2241  0.4594 -0.5657
 1158TIP3    H1 3480   1.404   1.208   4.041  0.5998  0.2067 -0.4786
 1158TIP3    H2 3481   1.451   1.154   4.175 -1.8428  2.4971  1.4267
 1159TIP3   OH2 3482   3.617   0.339   4.723 -0.3017  0.3362 -0.2715
 1159TIP3    H1 3483   3.553   0.407   4.705 -0.2940  0.5116  0.3452
 1159TIP3    H2 3484   3.595   0.307   4.811  0.1202  0.0228 -0.2725
 1160TIP3   OH2 3485   5.242   0.765   3.107 -0.6886 -0.2729 -0.0705
 1160TIP3    H1 3486   5.311   0.754   3.172  0.3446 -3.0740 -1.4393
 1160TIP3    H2 3487   5.172   0.706   3.137 -0.9927 -0.1284 -0.4943
 1161TIP3   OH2 3488   2.819   4.541   0.836  0.6324 -0.4806  0.0200
 1161TIP3    H1 3489   2.912   4.551   0.856  0.2280  2.4699  0.9149
 1161TIP3    H2 3490   2.778   4.522   0.920  0.1156  1.7742  0.3670
 1162TIP3   OH2 3491   0.586   3.349   2.720 -0.1852 -0.1316  0.0849
 1162TIP3    H1 3492   0.649   3.356   2.648  0.3304  2.0844  0.6639
 1162TIP3    H2 3493   0.508   3.394   2.687 -0.9189 -1.4367 -0.0215
 1163TIP3   OH2 3494   4.211   3.474   2.218 -0.5456  0.2403 -0.1953
 1163TIP3    H1 3495   4.172   3.397   2.259  0.3684  0.0855  0.4071
 1163TIP3    H2 3496   4.225   3.448   2.127 -0.3638 -0.2552 -0.0280
 1164TIP3   OH2 3497   3.270   0.065   3.892  0.3603  0.1903  0.0991
 1164TIP3    H1 3498   3.207   0.060   3.819 -0.2884 -0.8632  0.7036
 1164TIP3    H2 3499   3.345   0.014   3.861  0.9672  1.4772 -0.6371
 1165TIP3   OH2 3500   6.051   3.290   3.485  0.1111 -0.0683  0.3169
 1165TIP3    H1 3501   6.105   3.277   3.407  0.0360  0.6365  0.1412
 1165TIP3    H2 3502   6.102   3.249   3.556 -0.5709 -2.1521 -0.3352
 1166TIP3   OH2 3503   3.935   1.328   3.551 -0.2728 -0.1547 -0.3071
 1166TIP3    H1 3504   3.839   1.330   3.552 -0.2705  0.3880 -0.5883
 1166TIP3    H2 3505   3.959   1.324   3.644 -0.5710 -0.2871 -0.2351
 1167TIP3   OH2 3506   2.971   5.851   4.869  0.3708  0.4400 -0.4923
 1167TIP3    H1 3507   2.946   5.935   4.908 -0.8792 -0.6837  1.2425
 1167TIP3    H2 3508   3.066   5.858   4.857  0.2660  2.1541 -0.5460
 1168TIP3   OH2 3509   3.182   3.481   3.608 -0.3308 -0.7912 -0.1345
 1168TIP3    H1 3510   3.195   3.573   3.586 -1.5888  0.0783  2.2914
 1168TIP3    H2 3511   3.157   3.439   3.526 -0.3567  1.1693 -1.1760
 1169TIP3   OH2 3512   0.341   1.443   2.566  0.3074 -0.0377  0.2533
 1169TIP3    H1 3513   0.256   1.408   2.538  0.2578  0.1661  0.1446
 1169TIP3    H2 3514   0.384   1.468   2.484  0.7345 -0.7300  0.2570
 1170TIP3   OH2 3515   2.121   5.852   5.170 -0.5975 -0.8668  0.1588
 1170TIP3    H1 3516   2.074   5.895   5.099  2.1337 -0.5801 -1.6173
 1170TIP3    H2 3517   2.110   5.759   5.154 -0.1647 -0.8034 -0.5545
 1171TIP3   OH2 3518   1.069   2.947   1.854  0.0705 -0.6809  0.4637
 1171TIP3    H1 3519   1.094   2.930   1.945 -1.1744  2.0997  1.4283
 1171TIP3    H2 3520   0.995   2.889   1.838  0.9659 -1.9661  0.8230
 1172TIP3   OH2 3521   5.692   5.316   1.264  0.3316  0.4916  0.1285
 1172TIP3    H1 3522   5.717   5.391   1.318 -0.4998  0.5519  0.4373
 1172TIP3    H2 3523   5.706   5.347   1.174  0.9854  0.6532  0.2790
 1173TIP3   OH2 3524   1.697   3.947   0.916  0.7678 -0.5296  0.1316
 1173TIP3    H1 3525   1.726   4.010   0.849 -1.9463  0.6814 -0.0474
 1173TIP3    H2 3526   1.775   3.895   0.935  2.5522  1.3807 -1.4102
 1174TIP3   OH2 3527   6.284   1.121   0.571  0.0325  0.5632  0.0147
 1174TIP3    H1 3528   6.279   1.094   0.479 -1.3102  0.1228  0.1994
 1174TIP3    H2 3529   6.375   1.101   0.596 -0.1101 -1.1807 -0.6638
 1175TIP3   OH2 3530   5.673   2.570   0.647  0.3981 -0.0053 -0.3093
 1175TIP3    H1 3531   5.754   2.526   0.672  0.7502 -0.2529 -1.7897
 1175TIP3    H2 3532   5.615   2.559   0.723  1.6592 -0.0106  0.6800
 1176TIP3   OH2 3533   4.520   5.769   4.898 -0.2830 -0.3254  0.5914
 1176TIP3    H1 3534   4.462   5.716   4.843  0.6737 -1.8660  1.0200
 1176TIP3    H2 3535   4.594   5.790   4.841  0.9468 -2.3382  1.3539
 1177TIP3   OH2 3536   3.135   0.115   4.732  0.5209 -0.0019 -0.7770
 1177TIP3    H1 3537   3.113   0.104   4.639  0.7352 -1.6691 -0.6760
 1177TIP3    H2 3538   3.231   0.122   4.733  0.4259  1.5548 -0.7796
 1178TIP3   OH2 3539   3.203   0.052   1.307 -0.3733  0.3236  0.3821
 1178TIP3    H1 3540   3.117   0.091   1.299 -0.4016  0.2431  0.2912
 1178TIP3    H2 3541   3.260   0.106   1.254 -0.5793 -0.2676 -0.4564
 1179TIP3   OH2 3542   4.719   2.890   0.445  0.4652 -0.1818 -0.2783
 1179TIP3    H1 3543   4.791   2.872   0.385  1.5631  2.1919  0.2154
 1179TIP3    H2 3544   4.730   2.827   0.516  1.7008 -0.2551 -0.5215
 1180TIP3   OH2 3545   0.091   0.348   2.052 -0.2689  0.0877  0.0414
 1180TIP3    H1 3546   0.074   0.255   2.069 -0.3966  0.4499  2.1575
 1180TIP3    H2 3547   0.011   0.381   2.013 -0.2434 -0.6601 -0.6728
 1181TIP3   OH2 3548   5.367   3.749   3.833  0.0068  0.4911  0.7451
 1181TIP3    H1 3549   5.357   3.805   3.756  0.1966  0.4414  0.6855
 1181TIP3    H2 3550   5.458   3.720   3.831 -0.2576 -0.3731  0.3913
 1182TIP3   OH2 3551   4.113   2.456   3.148  0.4183  0.0083  0.5006
 1182TIP3    H1 3552   4.156   2.377   3.114  1.2935  0.8620 -0.4180
 1182TIP3    H2 3553   4.165   2.528   3.113 -0.0775  0.9881  1.7354
 1183TIP3   OH2 3554   3.006   5.503   4.043 -0.0010 -0.4972 -0.0709
 1183TIP3    H1 3555   2.983   5.504   4.135  1.6755 -1.7835  0.4218
 1183TIP3    H2 3556   2.997   5.594   4.015 -0.0774  0.0078  1.4964
 1184TIP3   OH2 3557   3.807   2.809   3.754  0.8476  0.1721  0.4589
 1184TIP3    H1 3558   3.889   2.842   3.791  1.1536 -0.0912  0.0306
 1184TIP3    H2 3559   3.833   2.766   3.673  0.1242  1.2588 -0.3875
 1185TIP3   OH2 3560   3.434   2.962   0.132  0.0891  0.7335 -0.4609
 1185TIP3    H1 3561   3.451   2.869   0.146  1.5539  1.1028  0.5510
 1185TIP3    H2 3562   3.352   2.965   0.082 -0.0671 -1.0761 -0.3802
 1186TIP3   OH2 3563   3.310   0.413   3.174 -0.3235  0.0972 -0.1219
 1186TIP3    H1 3564   3.381   0.470   3.144 -1.5564  1.1599 -1.1854
 1186TIP3    H2 3565   3.243   0.421   3.106 -0.7141 -2.3766 -0.1103
 1187TIP3   OH2 3566   3.916   1.174   0.814  0.5253 -0.3760  0.3495
 1187TIP3    H1 3567   3.955   1.239   0.873  1.8748 -0.0483 -0.8565
 1187TIP3    H2 3568   3.853   1.224   0.762  2.8927  0.5213 -1.9008
 1188TIP3   OH2 3569   0.198   5.937   3.828 -0.0872  0.0722  0.5293
 1188TIP3    H1 3570   0.237   6.008   3.880 -0.1205  1.7491 -1.5849
 1188TIP3    H2 3571   0.272   5.879   3.809  0.6974  1.3218 -0.4339
 1189TIP3   OH2 3572   5.716   4.347   3.583 -0.4555  0.6238 -0.0781
 1189TIP3    H1 3573   5.690   4.309   3.499  0.6580  2.1111 -1.1497
 1189TIP3    H2 3574   5.642   4.330   3.642 -2.0444  1.1427 -1.8518
 1190TIP3   OH2 3575   1.961   0.396   4.694  0.1837 -0.1449 -0.7842
 1190TIP3    H1 3576   2.053   0.374   4.704 -0.2994 -1.6548  1.0209
 1190TIP3    H2 3577   1.949   0.474   4.749  0.6922  1.1438 -2.4278
 1191TIP3   OH2 3578   5.808   5.313   5.128 -0.5775  0.2737 -0.0529
 1191TIP3    H1 3579   5.747   5.385   5.110 -2.6436 -1.5723 -0.9122
 1191TIP3    H2 3580   5.772   5.270   5.206 -0.5170 -0.9405 -0.6686
 1192TIP3   OH2 3581   2.329   2.801   2.906  0.2126 -0.5327 -0.6447
 1192TIP3    H1 3582   2.381   2.721   2.919  2.5469  0.9494 -0.2814
 1192TIP3    H2 3583   2.326   2.841   2.993 -0.6422 -0.0332 -0.8944
 1193TIP3   OH2 3584   3.271   1.301   5.157  0.0119  0.7288  0.1862
 1193TIP3    H1 3585   3.249   1.252   5.078  0.1555  1.7842 -0.5329
 1193TIP3    H2 3586   3.205   1.370   5.161 -1.1679 -0.4324  2.0767
 1194TIP3   OH2 3587   3.418   2.962   3.351  0.4396  0.0102 -0.0071
 1194TIP3    H1 3588   3.451   2.877   3.323 -1.5195 -0.7413 -0.1825
 1194TIP3    H2 3589   3.350   2.941   3.415 -1.4292  1.3358 -1.4849
 1195TIP3   OH2 3590   4.194   3.089   4.331  0.1276 -0.1238 -0.0425
 1195TIP3    H1 3591   4.103   3.081   4.302 -0.1858 -1.0090  1.1358
 1195TIP3    H2 3592   4.187   3.112   4.424  1.1095  0.0744 -0.0133
 1196TIP3   OH2 3593   2.616   1.854   4.862 -0.5205  0.5240  0.2837
 1196TIP3    H1 3594   2.680   1.783   4.874  1.4491  2.0282 -0.7274
 1196TIP3    H2 3595   2.662   1.932   4.892 -2.1332  1.5869  0.0742
 1197TIP3   OH2 3596   0.812   2.447   1.169 -0.4289 -0.3362 -0.0303
 1197TIP3    H1 3597   0.857   2.526   1.140 -0.2015  0.0224  1.2495
 1197TIP3    H2 3598   0.814   2.389   1.093  3.5032 -0.9201  0.3127
 1198TIP3   OH2 3599   0.790   5.613   2.490 -0.0261 -0.1148 -0.0657
 1198TIP3    H1 3600   0.739   5.533   2.476  1.9057 -1.1442 -1.8109
 1198TIP3    H2 3601   0.770   5.668   2.413  1.3677 -0.5140 -0.7517
 1199TIP3   OH2 3602   4.190   3.727   3.056  0.2709 -0.3112 -0.1707
 1199TIP3    H1 3603   4.180   3.806   3.109 -0.9520 -0.2713 -0.4371
 1199TIP3    H2 3604   4.264   3.681   3.096  1.5030  1.3060 -0.4614
 1200TIP3   OH2 3605   3.954   5.203   2.635  0.2446 -0.5053 -0.3994
 1200TIP3    H1 3606   3.983   5.286   2.596 -0.1005 -0.3963 -0.4310
 1200TIP3    H2 3607   3.917   5.228   2.720  0.4219 -0.6639 -0.2758
 1201TIP3   OH2 3608   0.032   2.750   0.964 -0.0305  0.9413 -0.1044
 1201TIP3    H1 3609  -0.035   2.733   0.899  0.5404 -0.5030 -0.3493
 1201TIP3    H2 3610   0.030   2.674   1.022  1.4648  0.8087 -0.1924
 1202TIP3   OH2 3611   5.329   2.012   2.707 -0.6056 -0.1125  0.0278
 1202TIP3    H1 3612   5.346   2.099   2.742 -0.6320 -0.4280  0.8277
 1202TIP3    H2 3613   5.341   1.952   2.781 -3.0622 -0.5543  0.1770
 1203TIP3   OH2 3614   1.927   0.199   1.558  0.0888  0.4361 -1.1061
 1203TIP3    H1 3615   1.976   0.123   1.591 -0.5344  0.0129 -1.1425
 1203TIP3    H2 3616   1.838   0.167   1.545 -0.5433  1.5132  0.2027
 1204TIP3   OH2 3617   1.832   1.470   2.215 -0.2665 -0.4955 -0.4625
 1204TIP3    H1 3618   1.909   1.488   2.162 -1.2558  0.8774 -1.5110
 1204TIP3    H2 3619   1.865   1.468   2.305  0.9595  0.3104 -0.8672
 1205TIP3   OH2 3620   5.801   2.715   2.583  0.4584  0.8477  0.3357
 1205TIP3    H1 3621   5.838   2.661   2.653  2.6932 -0.8342 -1.9560
 1205TIP3    H2 3622   5.739   2.657   2.539  0.9663  0.9961 -0.5983
 1206TIP3   OH2 3623   2.238   4.219   3.054 -0.1718 -0.1567 -0.0496
 1206TIP3    H1 3624   2.191   4.266   3.122  2.2480  1.0527  0.9008
 1206TIP3    H2 3625   2.170   4.170   3.007 -2.7400  3.3990 -0.4461
 1207TIP3   OH2 3626   2.060   1.011   2.166 -0.0847 -0.1598  0.3936
 1207TIP3    H1 3627   2.031   1.064   2.091 -0.1421  0.3254  0.7479
 1207TIP3    H2 3628   2.142   0.971   2.138 -1.0513 -1.5108 -0.6066
 1208TIP3   OH2 3629   5.812   1.423   4.739 -0.4198 -0.1206 -0.2126
 1208TIP3    H1 3630   5.876   1.414   4.810 -2.1483 -2.6023  1.1855
 1208TIP3    H2 3631   5.744   1.480   4.775 -0.1894  0.5537 -0.8098
 1209TIP3   OH2 3632   0.574   5.727   2.044 -0.0888  0.2467  0.0291
 1209TIP3    H1 3633   0.592   5.734   1.951 -1.7022  0.3794 -0.2961
 1209TIP3    H2 3634   0.482   5.704   2.050  0.5165 -2.2252  1.5365
 1210TIP3   OH2 3635   2.248   4.255   3.880  0.9341 -0.2046  0.1713
 1210TIP3    H1 3636   2.217   4.215   3.799 -0.2764 -2.3648  1.6196
 1210TIP3    H2 3637   2.305   4.189   3.920  0.2694  0.1675  1.8264
 1211TIP3   OH2 3638   1.290   0.852   3.614  0.1113  0.4504 -0.1718
 1211TIP3    H1 3639   1.311   0.921   3.551  0.9251 -0.4525 -0.9236
 1211TIP3    H2 3640   1.352   0.782   3.595  0.5418  0.2192  1.7924
 1212TIP3   OH2 3641   3.747   4.066   1.661  0.1595  0.0470 -0.0541
 1212TIP3    H1 3642   3.766   4.002   1.730  1.5837 -0.9155 -1.2847
 1212TIP3    H2 3643   3.820   4.058   1.600 -1.6568 -0.0899 -2.3658
 1213TIP3   OH2 3644   3.604   3.174   0.696 -0.1061 -0.0996 -0.0858
 1213TIP3    H1 3645   3.645   3.154   0.780  0.8831  1.5972 -0.1060
 1213TIP3    H2 3646   3.513   3.193   0.718  0.3178  1.0942  0.7478
 1214TIP3   OH2 3647   5.768   1.240   3.376 -0.0967 -0.1391  0.4329
 1214TIP3    H1 3648   5.765   1.219   3.283  1.3412  1.9257 -0.1539
 1214TIP3    H2 3649   5.681   1.216   3.409 -1.3760  0.9700 -1.8824
 1215TIP3   OH2 3650   2.820   2.530   2.141 -0.4366 -0.5502 -0.6552
 1215TIP3    H1 3651   2.736   2.532   2.095  0.2854  0.3164 -2.0086
 1215TIP3    H2 3652   2.835   2.621   2.165 -0.2098 -0.8137  0.2393
 1216TIP3   OH2 3653   0.475   2.592   0.612 -0.3262  0.3245  0.2221
 1216TIP3    H1 3654   0.517   2.529   0.671  0.6869  0.6200 -0.1636
 1216TIP3    H2 3655   0.482   2.676   0.656  1.5922  0.7746 -0.8413
 1217TIP3   OH2 3656   5.595   1.061   5.020 -0.1333 -0.7042  0.2609
 1217TIP3    H1 3657   5.533   1.118   4.975 -0.0794  0.4592  1.6163
 1217TIP3    H2 3658   5.557   1.048   5.107  1.1465 -0.5788  0.8588
 1218TIP3   OH2 3659   3.364   0.171   4.482  0.4377  0.0779 -0.4736
 1218TIP3    H1 3660   3.369   0.100   4.546 -2.2746  1.4663  1.4822
 1218TIP3    H2 3661   3.417   0.241   4.519 -0.5437  0.6293 -0.0901
 1219TIP3   OH2 3662   2.356   5.146   1.741 -0.1226 -0.0094 -0.5018
 1219TIP3    H1 3663   2.361   5.054   1.766 -0.6696  0.1162  0.0965
 1219TIP3    H2 3664   2.360   5.144   1.645 -2.3716 -0.8544 -0.6382
 1220TIP3   OH2 3665   0.012   0.763   2.470  0.5957 -0.8846 -0.3579
 1220TIP3    H1 3666   0.066   0.697   2.513  0.2838 -0.2938  0.9698
 1220TIP3    H2 3667   0.051   0.773   2.383  1.1517 -2.1971 -0.2757
 1221TIP3   OH2 3668   2.883   5.631   1.848 -0.2569  0.5017 -0.0295
 1221TIP3    H1 3669   2.803   5.682   1.841 -1.0843 -0.7406  0.0241
 1221TIP3    H2 3670   2.880   5.570   1.774  0.5163  0.2691  0.1142
 1222TIP3   OH2 3671   5.511   4.187   1.580  0.4514 -0.0826  0.0815
 1222TIP3    H1 3672   5.530   4.257   1.517  0.0770  0.7787  0.8981
 1222TIP3    H2 3673   5.415   4.183   1.583  0.4491  0.3270  1.0460
 1223TIP3   OH2 3674   4.960   0.865   2.123  0.1303 -1.0384  0.8757
 1223TIP3    H1 3675   4.867   0.851   2.106 -0.2307  1.9377 -0.2353
 1223TIP3    H2 3676   4.975   0.828   2.210 -1.8880 -2.2693  0.7521
 1224TIP3   OH2 3677   4.239   5.435   2.025 -0.1985  0.2092  0.5602
 1224TIP3    H1 3678   4.145   5.441   2.009  0.0397  0.8039 -0.7180
 1224TIP3    H2 3679   4.253   5.345   2.054 -1.1753  0.1621  0.9116
 1225TIP3   OH2 3680   3.423   0.372   4.113  0.5353  0.5729 -0.2451
 1225TIP3    H1 3681   3.400   0.459   4.082  0.7323 -0.0729 -2.3728
 1225TIP3    H2 3682   3.344   0.340   4.156  0.8416  2.2102  1.7011
 1226TIP3   OH2 3683   5.946   3.151   2.542  0.7467 -0.3833 -0.3174
 1226TIP3    H1 3684   5.928   3.243   2.562 -2.4237 -1.3054  2.0075
 1226TIP3    H2 3685   5.976   3.115   2.625 -0.6603 -1.9140 -0.4160
 1227TIP3   OH2 3686  -0.008   2.236   0.080 -0.4665  0.5614 -0.0102
 1227TIP3    H1 3687  -0.019   2.145   0.109 -0.6665  0.5272 -0.1877
 1227TIP3    H2 3688   0.072   2.266   0.124 -1.3402  0.8702  1.4326
 1228TIP3   OH2 3689   2.613   3.909   2.190 -0.0870  0.3315  0.0896
 1228TIP3    H1 3690   2.615   3.815   2.204  0.7936  0.3553  0.1924
 1228TIP3    H2 3691   2.682   3.926   2.126 -0.6990  0.8258 -0.4451
 1229TIP3   OH2 3692   3.994   1.218   5.180  0.0618 -0.2436  0.3913
 1229TIP3    H1 3693   4.042   1.156   5.125  0.4851  0.3572  0.0855
 1229TIP3    H2 3694   3.924   1.250   5.125  1.1232  1.1786 -0.1876
 1230TIP3   OH2 3695   0.038   5.497   0.858  0.1168 -0.1816  0.3173
 1230TIP3    H1 3696   0.054   5.572   0.915 -0.2097  0.9469 -1.0231
 1230TIP3    H2 3697  -0.056   5.498   0.842 -0.2005 -1.9960  1.7114
 1231TIP3   OH2 3698   2.814   4.264   3.699 -0.0199  0.5041  0.0216
 1231TIP3    H1 3699   2.855   4.350   3.703  1.2655 -0.0991  0.6346
 1231TIP3    H2 3700   2.724   4.279   3.726  0.0384  1.7310 -0.3923
 1232TIP3   OH2 3701   5.275   2.922   3.950  0.2095  0.5894 -0.5088
 1232TIP3    H1 3702   5.346   2.858   3.955 -0.6248 -0.3575 -0.5430
 1232TIP3    H2 3703   5.311   2.994   3.898  1.2560  0.2895 -0.2263
 1233TIP3   OH2 3704   6.046   0.844   2.258 -0.6824  0.3553 -0.1422
 1233TIP3    H1 3705   6.036   0.935   2.286 -0.0612  0.7612 -1.1821
 1233TIP3    H2 3706   6.095   0.802   2.329  0.9878  1.3873 -0.6306
 1234TIP3   OH2 3707   5.647   0.862   1.398 -0.1354 -0.0970 -0.1507
 1234TIP3    H1 3708   5.590   0.938   1.411  0.0448  0.0991 -0.4976
 1234TIP3    H2 3709   5.653   0.822   1.485 -1.4589 -0.5959 -0.2675
 1235TIP3   OH2 3710   4.790   1.501   0.257 -0.4848 -0.0481  0.0108
 1235TIP3    H1 3711   4.840   1.436   0.207  0.6503 -0.0532  1.1244
 1235TIP3    H2 3712   4.699   1.470   0.251 -0.4874  0.1773 -2.3777
 1236TIP3   OH2 3713   0.097   5.788   4.896 -0.3431 -0.2558 -0.0552
 1236TIP3    H1 3714   0.116   5.696   4.916  0.5785  0.0563  0.5883
 1236TIP3    H2 3715   0.166   5.837   4.941 -1.1658  0.7948  0.0947
 1237TIP3   OH2 3716   6.015   1.042   2.461  0.0383  0.2512  0.3757
 1237TIP3    H1 3717   6.106   1.019   2.446  0.0225 -1.5748  2.6459
 1237TIP3    H2 3718   6.018   1.118   2.519  0.0607  1.4676 -1.1530
 1238TIP3   OH2 3719   3.144   4.695   4.482  0.7772 -0.1593  0.1595
 1238TIP3    H1 3720   3.117   4.655   4.564  1.2135  0.1880  0.4771
 1238TIP3    H2 3721   3.093   4.649   4.415  1.7177 -1.7048  0.4376
 1239TIP3   OH2 3722   2.518   2.047   2.737  0.2186 -0.4143 -0.3510
 1239TIP3    H1 3723   2.463   1.971   2.756  0.8370 -0.8913 -0.4485
 1239TIP3    H2 3724   2.523   2.050   2.641  2.2401 -1.7730 -0.3527
 1240TIP3   OH2 3725   3.641   0.797   3.188  0.3245  0.3973 -0.3007
 1240TIP3    H1 3726   3.707   0.847   3.235  1.5751 -0.3173 -1.2480
 1240TIP3    H2 3727   3.565   0.856   3.185  0.7286  1.0452  1.2127
 1241TIP3   OH2 3728   6.043   0.853   1.975 -0.2003  0.4405 -0.0352
 1241TIP3    H1 3729   6.129   0.890   1.957  1.3980 -1.9938  1.9190
 1241TIP3    H2 3730   6.035   0.856   2.071 -1.5546 -0.8010 -0.0678
 1242TIP3   OH2 3731   4.378   1.064   0.995  0.3541 -0.3417  0.2406
 1242TIP3    H1 3732   4.357   1.085   0.904  0.3242 -2.0794 -0.1816
 1242TIP3    H2 3733   4.464   1.021   0.991  1.1056  0.9903  1.2365
 1243TIP3   OH2 3734   3.428   4.734   5.020 -0.2280  0.3374 -0.4600
 1243TIP3    H1 3735   3.433   4.827   5.043 -2.4105 -0.0449  2.0873
 1243TIP3    H2 3736   3.468   4.690   5.095 -1.7000 -0.8250 -0.3236
 1244TIP3   OH2 3737   0.242   2.133   4.961  0.0827 -0.2850 -0.6019
 1244TIP3    H1 3738   0.230   2.038   4.968  3.1373 -0.7039  0.1617
 1244TIP3    H2 3739   0.326   2.144   4.917  1.4384  1.9347  2.2107
 1245TIP3   OH2 3740   2.653   5.954   1.468  0.3207 -0.3191 -0.5608
 1245TIP3    H1 3741   2.575   6.004   1.441 -0.1129 -1.1230 -0.8254
 1245TIP3    H2 3742   2.675   5.989   1.555  0.0596  0.3730 -0.7712
 1246TIP3   OH2 3743   3.566   0.420   5.021 -0.1043  0.3391 -0.1929
 1246TIP3    H1 3744   3.638   0.471   4.985  1.2023  0.8260  2.8145
 1246TIP3    H2 3745   3.505   0.485   5.057  0.0667 -0.1230  0.9727
 1247TIP3   OH2 3746   5.997   0.108   4.980  0.0443  0.4887  0.2040
 1247TIP3    H1 3747   5.978   0.016   4.958  0.7856  0.0364  1.3750
 1247TIP3    H2 3748   6.019   0.148   4.896 -3.2409  0.3965 -0.8348
 1248TIP3   OH2 3749   0.917   4.326   1.070 -0.0217 -0.1360 -0.0244
 1248TIP3    H1 3750   0.953   4.244   1.106  1.0273  0.3200  0.0070
 1248TIP3    H2 3751   0.989   4.364   1.020 -1.1947 -0.3202 -1.9282
 1249TIP3   OH2 3752   2.253   2.629   2.295  0.0514 -0.0046 -0.5208
 1249TIP3    H1 3753   2.305   2.645   2.374  0.1848  0.1256 -0.6354
 1249TIP3    H2 3754   2.200   2.553   2.317  1.8461 -1.5119 -1.1471
 1250TIP3   OH2 3755   3.763   2.911   5.133  0.1124 -0.5337  0.0441
 1250TIP3    H1 3756   3.690   2.869   5.088  0.4287 -1.6551  0.5539
 1250TIP3    H2 3757   3.834   2.847   5.128  0.9825  0.4304 -0.2035
 1251TIP3   OH2 3758   5.891   1.736   1.845  0.2907  0.0474  0.1658
 1251TIP3    H1 3759   5.910   1.661   1.788  0.0781  0.3264 -0.2766
 1251TIP3    H2 3760   5.944   1.720   1.924  0.0172 -0.7169  0.2045
 1252TIP3   OH2 3761   0.465   1.640   1.271 -0.4865 -0.3487  0.3081
 1252TIP3    H1 3762   0.458   1.545   1.277  1.4331 -0.5344  0.2984
 1252TIP3    H2 3763   0.383   1.673   1.308 -1.3229 -2.0024 -0.0064
 1253TIP3   OH2 3764   5.101   0.013   2.710 -0.0483  0.4454  0.1992
 1253TIP3    H1 3765   5.172  -0.051   2.710 -0.3679  0.0497 -1.2416
 1253TIP3    H2 3766   5.143   0.097   2.693  0.2927  0.5383  1.4110
 1254TIP3   OH2 3767   2.174   2.161   3.703 -0.2991  0.1885  0.7659
 1254TIP3    H1 3768   2.255   2.209   3.721  0.7013 -1.1697  0.0681
 1254TIP3    H2 3769   2.138   2.203   3.624 -1.0395  1.6704  1.8411
 1255TIP3   OH2 3770   5.855   0.381   0.874  0.1390  0.2340  0.2528
 1255TIP3    H1 3771   5.902   0.408   0.952  0.0195 -1.5321  0.9968
 1255TIP3    H2 3772   5.924   0.371   0.807  0.3017  1.3051  0.2549
 1256TIP3   OH2 3773   5.220   2.831   2.960  0.5543  0.0897 -0.6847
 1256TIP3    H1 3774   5.232   2.886   3.037 -1.3573  0.6516 -0.7305
 1256TIP3    H2 3775   5.193   2.891   2.891 -1.3842 -0.8126 -0.7847
 1257TIP3   OH2 3776   4.454   1.483   0.640 -0.5652  0.1020 -0.4467
 1257TIP3    H1 3777   4.443   1.544   0.713 -0.7955  0.0277 -0.4188
 1257TIP3    H2 3778   4.406   1.405   0.666 -0.1017 -0.1730 -0.3935
 1258TIP3   OH2 3779   2.620   5.793   0.348 -0.5009 -0.3788 -0.9423
 1258TIP3    H1 3780   2.713   5.772   0.338  0.2572  3.1130 -2.4876
 1258TIP3    H2 3781   2.605   5.789   0.442  1.4372 -0.2590 -0.5800
 1259TIP3   OH2 3782   4.548   0.115   1.562  0.3151 -0.1815 -0.1245
 1259TIP3    H1 3783   4.455   0.139   1.557  0.4915  0.3717 -1.0026
 1259TIP3    H2 3784   4.582   0.166   1.635  0.7682  2.7174 -2.1608
 1260TIP3   OH2 3785   4.322   1.015   4.666  0.2988 -0.0194 -0.2392
 1260TIP3    H1 3786   4.337   0.971   4.750  1.0632  0.2179 -0.2467
 1260TIP3    H2 3787   4.352   0.952   4.600  0.8258  0.2691 -0.2769
 1261TIP3   OH2 3788   5.314   3.861   4.598 -0.0981  0.0263  0.2830
 1261TIP3    H1 3789   5.228   3.824   4.579  0.3839 -0.9722 -0.0021
 1261TIP3    H2 3790   5.375   3.788   4.589  0.8715  0.8508 -0.1478
 1262TIP3   OH2 3791   5.410   2.053   4.716  0.6852 -0.0875 -0.1197
 1262TIP3    H1 3792   5.374   2.136   4.684  0.2803 -0.4767 -0.6910
 1262TIP3    H2 3793   5.333   1.997   4.729  0.9006 -0.1802  0.8573
 1263TIP3   OH2 3794   4.160   0.470   3.302  0.2857  0.3068 -0.4255
 1263TIP3    H1 3795   4.112   0.444   3.224 -0.8456 -0.1771  0.3943
 1263TIP3    H2 3796   4.243   0.505   3.270  1.0581 -2.4220 -1.7460
 1264TIP3   OH2 3797   3.397   5.739   4.289  0.7493 -0.7657  0.5854
 1264TIP3    H1 3798   3.406   5.806   4.357 -0.5078 -0.8706  0.8874
 1264TIP3    H2 3799   3.305   5.744   4.263  0.3310 -3.0910  1.3838
 1265TIP3   OH2 3800   0.520   2.912   4.756 -0.4197 -0.5622 -0.1557
 1265TIP3    H1 3801   0.598   2.909   4.701 -0.7483 -1.6848 -0.5841
 1265TIP3    H2 3802   0.501   3.005   4.765  1.6782 -0.1825  0.9912
 1266TIP3   OH2 3803   0.845   3.885   0.985 -0.0264  0.0399 -0.4292
 1266TIP3    H1 3804   0.851   3.837   1.067 -1.2187 -0.8106 -0.8187
 1266TIP3    H2 3805   0.934   3.919   0.971  1.0415 -2.5189 -0.4201
 1267TIP3   OH2 3806   3.555   4.225   1.276  0.0512  0.2038  0.5186
 1267TIP3    H1 3807   3.527   4.277   1.352  1.7260  1.6380  0.2256
 1267TIP3    H2 3808   3.650   4.238   1.273  0.0166  0.2089 -1.8387
 1268TIP3   OH2 3809   0.248   5.557   0.334 -0.0444 -0.3211 -0.0750
 1268TIP3    H1 3810   0.318   5.539   0.271 -0.7154  0.5705 -1.1228
 1268TIP3    H2 3811   0.250   5.483   0.394  1.3722 -0.6342 -0.4670
 1269TIP3   OH2 3812   4.083   2.029   1.848  0.3122 -0.6761  0.3855
 1269TIP3    H1 3813   4.082   2.004   1.941 -0.1822  0.3333  0.6724
 1269TIP3    H2 3814   4.157   2.090   1.842  0.3543 -0.7560  0.1084
 1270TIP3   OH2 3815   3.018   3.536   4.956  0.1025 -0.5125 -0.6030
 1270TIP3    H1 3816   2.976   3.452   4.977 -0.7400  0.2941  1.1919
 1270TIP3    H2 3817   3.112   3.518   4.959 -0.0754 -1.4584 -0.5642
 1271TIP3   OH2 3818   3.322   2.427   4.736 -0.2896 -0.5053  0.5809
 1271TIP3    H1 3819   3.273   2.504   4.765 -0.5349 -0.1802 -0.6292
 1271TIP3    H2 3820   3.410   2.439   4.773 -0.0788  0.8014 -0.2660
 1272TIP3   OH2 3821   4.420   1.848   5.185 -0.3901 -0.0284  0.2387
 1272TIP3    H1 3822   4.492   1.890   5.138 -0.4328  0.3718  0.5338
 1272TIP3    H2 3823   4.407   1.765   5.138 -1.1914  0.8632 -1.2049
 1273TIP3   OH2 3824   2.307   2.094   4.301 -0.6261 -0.1666 -0.1975
 1273TIP3    H1 3825   2.375   2.063   4.241 -1.6507 -0.3068 -1.3426
 1273TIP3    H2 3826   2.298   2.023   4.365 -0.2171 -0.4839 -0.4845
 1274TIP3   OH2 3827   0.661   1.999   3.386  0.2493 -0.0183  0.1918
 1274TIP3    H1 3828   0.701   2.085   3.399 -1.1902  0.5313  1.2272
 1274TIP3    H2 3829   0.580   2.002   3.435 -2.0147 -0.4848 -3.1904
 1275TIP3   OH2 3830   0.776   0.707   0.658 -0.4639  0.3495 -0.3234
 1275TIP3    H1 3831   0.739   0.796   0.656 -1.3924 -0.0329 -1.8915
 1275TIP3    H2 3832   0.706   0.653   0.697  0.6907  0.4969  2.1498
 1276TIP3   OH2 3833   0.113   3.505   3.020  0.1211 -0.2981  0.3023
 1276TIP3    H1 3834   0.173   3.549   2.959 -1.9877 -2.0373 -3.3450
 1276TIP3    H2 3835   0.167   3.436   3.060  1.3685  0.2359 -0.3911
 1277TIP3   OH2 3836   1.393   3.465   2.820 -0.0211  0.4509  0.6062
 1277TIP3    H1 3837   1.458   3.421   2.875  1.2704  0.0746 -1.1219
 1277TIP3    H2 3838   1.431   3.551   2.802  0.8786 -0.3528 -1.7518
 1278TIP3   OH2 3839   2.206   2.880   1.156 -0.1612  0.1053  0.0113
 1278TIP3    H1 3840   2.288   2.832   1.168 -0.2235 -0.4277 -1.5014
 1278TIP3    H2 3841   2.218   2.928   1.074 -1.4155 -0.1109 -0.3237
 1279TIP3   OH2 3842   5.481   3.070   4.224 -0.3959 -0.2722 -0.0183
 1279TIP3    H1 3843   5.520   2.983   4.223 -1.0520 -0.5696 -0.9146
 1279TIP3    H2 3844   5.466   3.091   4.132  2.0218  1.8464 -0.0423
 1280TIP3   OH2 3845   3.669   1.263   3.547  0.2126 -1.0522  0.0597
 1280TIP3    H1 3846   3.631   1.198   3.488  0.8086 -0.8377 -0.5690
 1280TIP3    H2 3847   3.596   1.287   3.605 -0.4526 -1.1109 -0.7223
 1281TIP3   OH2 3848   1.273   2.697   2.890 -0.1855  0.5084 -0.4360
 1281TIP3    H1 3849   1.308   2.772   2.841 -0.2415  0.6291 -0.2886
 1281TIP3    H2 3850   1.182   2.720   2.908  0.1307  0.9446  0.6834
 1282TIP3   OH2 3851   1.932   0.988   0.281 -0.3730 -0.7665  0.1915
 1282TIP3    H1 3852   1.983   1.062   0.250 -0.8806 -0.0415  1.0353
 1282TIP3    H2 3853   1.886   0.956   0.204 -3.3494  2.3473  0.4535
 1283TIP3   OH2 3854   5.190   4.612   4.762 -0.0248 -0.3545  0.5937
 1283TIP3    H1 3855   5.188   4.521   4.731  1.2214  0.0581 -0.8070
 1283TIP3    H2 3856   5.099   4.632   4.783 -0.8307 -1.0458 -1.8581
 1284TIP3   OH2 3857   4.613   2.184   2.428 -0.2062 -0.0066  0.4729
 1284TIP3    H1 3858   4.539   2.213   2.375 -0.8268  0.4117  1.5236
 1284TIP3    H2 3859   4.676   2.256   2.424 -0.5918  0.3643  0.9205
 1285TIP3   OH2 3860   3.577   0.217   1.771  0.2387  0.1087  0.5337
 1285TIP3    H1 3861   3.520   0.292   1.787 -0.1108  0.0601 -0.3751
 1285TIP3    H2 3862   3.642   0.250   1.709  2.0839  0.5559  2.5941
 1286TIP3   OH2 3863   2.956   2.701   4.031  0.3884 -0.1134 -0.2080
 1286TIP3    H1 3864   2.989   2.683   3.943 -1.2310 -0.1973 -0.8252
 1286TIP3    H2 3865   2.898   2.776   4.020  0.4176  0.0807  0.8614
 1287TIP3   OH2 3866   4.134   3.034   0.265 -0.0305 -0.0265  0.2375
 1287TIP3    H1 3867   4.145   2.940   0.248 -0.6596 -0.1214  0.3253
 1287TIP3    H2 3868   4.065   3.039   0.332 -1.5602  0.5644 -1.2829
 1288TIP3   OH2 3869   4.539   0.937   5.191 -0.5760 -0.1728 -0.1889
 1288TIP3    H1 3870   4.453   0.915   5.154 -0.2337 -0.0596 -1.0869
 1288TIP3    H2 3871   4.591   0.964   5.115  0.7360 -1.7437  0.0840
 1289TIP3   OH2 3872   5.552   3.933   0.546  0.1920  0.5958  0.3924
 1289TIP3    H1 3873   5.620   3.980   0.499 -0.7832  2.6881  0.9197
 1289TIP3    H2 3874   5.480   3.926   0.484  0.4584 -0.6068  0.1945
 1290TIP3   OH2 3875   2.182   3.549   5.007 -0.2084  0.2931 -0.0368
 1290TIP3    H1 3876   2.215   3.601   5.081 -1.0891 -0.2640  0.7794
 1290TIP3    H2 3877   2.190   3.606   4.931 -0.6772  1.4416  0.7529
 1291TIP3   OH2 3878   0.881   5.263   4.569  0.3495 -0.3766  0.2175
 1291TIP3    H1 3879   0.789   5.257   4.596  0.6073 -2.0271  0.8271
 1291TIP3    H2 3880   0.882   5.229   4.480  0.5538 -1.6164  0.6823
 1292TIP3   OH2 3881   4.785   4.007   2.712 -0.3038  0.6173  0.4024
 1292TIP3    H1 3882   4.804   4.055   2.632  1.1511  0.9192  0.9028
 1292TIP3    H2 3883   4.827   3.922   2.700  1.3762  1.2336  1.4538
 1293TIP3   OH2 3884   0.802   1.143   2.099 -0.1032 -0.1817 -0.0678
 1293TIP3    H1 3885   0.852   1.067   2.126  0.6827  0.1218 -0.6055
 1293TIP3    H2 3886   0.809   1.204   2.172  3.5875  1.3978 -1.4734
 1294TIP3   OH2 3887   0.812   5.715   4.854  0.3092  0.2532 -0.5733
 1294TIP3    H1 3888   0.767   5.672   4.927 -0.4706  0.1014 -1.1313
 1294TIP3    H2 3889   0.812   5.651   4.784 -1.0841  1.2070 -1.4949
 1295TIP3   OH2 3890   0.310   1.789   2.232 -0.6387  0.0159  0.5425
 1295TIP3    H1 3891   0.250   1.715   2.221  0.0306 -0.3462 -1.0985
 1295TIP3    H2 3892   0.396   1.748   2.242 -0.1070  0.5162 -1.4516
 1296TIP3   OH2 3893   1.560   4.793   3.264 -0.4440 -0.3836  0.8946
 1296TIP3    H1 3894   1.485   4.737   3.244  0.5799 -1.3045 -0.5071
 1296TIP3    H2 3895   1.584   4.833   3.181  0.4261  0.1453  1.3828
 1297TIP3   OH2 3896   4.729   5.926   1.230 -0.3325 -0.7487  0.1544
 1297TIP3    H1 3897   4.793   5.912   1.161 -0.9890  0.2990 -0.7113
 1297TIP3    H2 3898   4.656   5.868   1.207 -0.4380 -0.6001  0.1099
 1298TIP3   OH2 3899   4.851   4.298   3.184  0.1328  0.7566 -0.1557
 1298TIP3    H1 3900   4.871   4.305   3.091  3.6565  0.8588  0.4853
 1298TIP3    H2 3901   4.829   4.206   3.197  0.3970  0.5725 -0.9656
 1299TIP3   OH2 3902   0.136   0.698   3.106  0.1294  0.2938  0.2491
 1299TIP3    H1 3903   0.126   0.631   3.173 -0.1660 -0.5878 -0.6482
 1299TIP3    H2 3904   0.058   0.753   3.116 -0.2407 -0.2132  0.2387
 1300TIP3   OH2 3905   1.467   1.806   2.986  0.3665 -0.0285  0.4931
 1300TIP3    H1 3906   1.474   1.866   3.060  1.4518  1.3374 -0.6325
 1300TIP3    H2 3907   1.550   1.818   2.938 -0.0314 -1.3354 -0.5761
 1301TIP3   OH2 3908   1.075   4.377   5.137  0.2329 -0.3103 -0.0131
 1301TIP3    H1 3909   1.036   4.459   5.104 -1.6722 -0.9487  0.5504
 1301TIP3    H2 3910   1.000   4.323   5.162  1.3870 -2.7440 -1.5049
 1302TIP3   OH2 3911   3.408   4.021   2.485 -0.5811  0.2645 -0.4227
 1302TIP3    H1 3912   3.482   4.006   2.544 -1.7558 -3.0752  0.4061
 1302TIP3    H2 3913   3.448   4.029   2.399  0.9558  2.3853  0.3879
 1303TIP3   OH2 3914   5.312   0.135   0.350 -0.0224 -0.0094  0.1187
 1303TIP3    H1 3915   5.248   0.068   0.374 -0.6653  0.3578 -0.5359
 1303TIP3    H2 3916   5.266   0.218   0.365 -0.0211  0.2430 -1.1846
 1304TIP3   OH2 3917   3.888   4.318   0.280 -0.0397 -0.2532 -0.1732
 1304TIP3    H1 3918   3.910   4.260   0.208  1.2177 -1.0610  0.8211
 1304TIP3    H2 3919   3.792   4.326   0.276 -0.3075 -2.7133 -0.1042
 1305TIP3   OH2 3920   2.302   0.880   2.175  0.2433  0.8230  0.2089
 1305TIP3    H1 3921   2.374   0.877   2.112 -0.2434  0.6144 -0.3420
 1305TIP3    H2 3922   2.273   0.789   2.183  0.6786  0.7602  1.1837
 1306TIP3   OH2 3923   3.688   2.195   3.741  0.2975 -0.1135  0.2158
 1306TIP3    H1 3924   3.627   2.269   3.729 -1.1415 -1.2773  0.0829
 1306TIP3    H2 3925   3.682   2.174   3.834  0.8724  0.0549  0.2956
 1307TIP3   OH2 3926   3.942   3.483   1.504  0.1711 -0.0302  0.2901
 1307TIP3    H1 3927   3.903   3.398   1.523 -2.5643  0.7932 -1.0699
 1307TIP3    H2 3928   3.869   3.536   1.472  2.1917  2.1741 -0.9940
 1308TIP3   OH2 3929   0.675   0.865   2.367 -0.0571 -0.1056  0.4028
 1308TIP3    H1 3930   0.741   0.807   2.406  0.1867 -0.1481 -0.0695
 1308TIP3    H2 3931   0.699   0.871   2.275  0.2559  1.1987  0.5496
 1309TIP3   OH2 3932   0.459   5.951   2.669 -0.4683 -0.4369  0.0116
 1309TIP3    H1 3933   0.526   6.005   2.709  0.0880  1.6067 -3.2525
 1309TIP3    H2 3934   0.507   5.878   2.628 -0.4007  0.0696 -0.8416
 1310TIP3   OH2 3935   2.153   4.100   4.907  0.1135  0.3543 -0.2842
 1310TIP3    H1 3936   2.183   4.167   4.969 -0.0172  0.9716 -0.8713
 1310TIP3    H2 3937   2.233   4.073   4.861  0.2087 -0.0955  0.1411
 1311TIP3   OH2 3938   2.253   5.982   4.288  0.5783 -0.6844 -0.2340
 1311TIP3    H1 3939   2.242   5.903   4.236  2.1395 -0.3518 -1.1504
 1311TIP3    H2 3940   2.308   5.954   4.362  0.0427 -0.7180  0.1596
 1312TIP3   OH2 3941   1.385   0.331   2.807 -0.0652  0.0132 -0.0659
 1312TIP3    H1 3942   1.309   0.275   2.794  0.7126 -0.8365 -1.0746
 1312TIP3    H2 3943   1.460   0.277   2.782  0.7582  1.3008 -0.4842
 1313TIP3   OH2 3944   1.260   5.234   1.517 -0.0513  0.2186 -0.0607
 1313TIP3    H1 3945   1.341   5.188   1.538 -1.6859 -3.1080 -0.3937
 1313TIP3    H2 3946   1.216   5.246   1.601 -0.6317 -0.9821 -0.1717
 1314TIP3   OH2 3947   2.181   0.624   4.213  0.3144 -0.1835  0.2721
 1314TIP3    H1 3948   2.197   0.574   4.133  0.4879 -1.0080  0.8094
 1314TIP3    H2 3949   2.143   0.706   4.183  0.6841 -0.3505 -0.6764
 1315TIP3   OH2 3950   3.816   2.278   3.278  0.0566 -0.2852  0.0740
 1315TIP3    H1 3951   3.892   2.255   3.224  0.6061 -0.0628  0.7318
 1315TIP3    H2 3952   3.788   2.194   3.316  0.4580 -0.2651  0.4328
 1316TIP3   OH2 3953   1.917   3.017   2.396  0.0838 -0.2211 -0.3668
 1316TIP3    H1 3954   1.872   3.089   2.441 -1.4201  0.1966 -2.4225
 1316TIP3    H2 3955   1.960   3.059   2.321  0.7471 -1.2150 -0.5581
 1317TIP3   OH2 3956   1.908   3.101   0.334 -0.0048 -0.4799 -0.2464
 1317TIP3    H1 3957   1.947   3.123   0.418  0.4022  0.5064 -0.6749
 1317TIP3    H2 3958   1.813   3.101   0.351  0.0097  0.9157 -0.0442
 1318TIP3   OH2 3959   3.892   5.077   0.358 -0.2566 -0.6202  0.0992
 1318TIP3    H1 3960   3.904   4.991   0.319 -2.7754 -0.5095 -1.1358
 1318TIP3    H2 3961   3.797   5.087   0.364 -0.0230  1.8657  0.6971
 1319TIP3   OH2 3962   2.855   3.020   4.844 -0.0064  0.0311  0.2251
 1319TIP3    H1 3963   2.864   3.056   4.756  0.4545  0.1061  0.2983
 1319TIP3    H2 3964   2.768   3.047   4.873  0.7789  2.1803  0.7625
 1320TIP3   OH2 3965   4.244   3.773   0.125 -0.0473 -0.2783 -0.1258
 1320TIP3    H1 3966   4.227   3.687   0.086  2.9568 -0.0784 -2.2562
 1320TIP3    H2 3967   4.243   3.834   0.051  2.7157  0.6516  0.4616
 1321TIP3   OH2 3968   2.328   2.425   1.131 -0.3239 -0.3853  0.3551
 1321TIP3    H1 3969   2.242   2.418   1.091 -0.2878  0.8693  0.0219
 1321TIP3    H2 3970   2.367   2.338   1.120 -1.8850 -1.2405  1.3502
 1322TIP3   OH2 3971   1.532   4.504   4.511  0.4100 -0.6842  0.1003
 1322TIP3    H1 3972   1.599   4.438   4.525 -1.2625 -2.5567 -0.2776
 1322TIP3    H2 3973   1.579   4.578   4.472  2.1875 -2.0254 -0.4396
 1323TIP3   OH2 3974   1.450   3.509   2.229 -0.4639  0.2225 -0.7049
 1323TIP3    H1 3975   1.538   3.528   2.196 -0.3931  2.2126  0.4966
 1323TIP3    H2 3976   1.461   3.432   2.284  0.7863  1.0837  0.3124
 1324TIP3   OH2 3977   4.096   2.388   0.750  0.1879  0.2181  0.8566
 1324TIP3    H1 3978   4.124   2.480   0.754 -0.6404  0.4442  1.6417
 1324TIP3    H2 3979   4.036   2.378   0.823 -0.1137 -0.8320  0.4774
 1325TIP3   OH2 3980   2.779   4.659   2.343 -0.4254  0.2696  0.2893
 1325TIP3    H1 3981   2.808   4.572   2.371  2.0633  1.4521  1.6786
 1325TIP3    H2 3982   2.685   4.659   2.361 -0.5664 -2.2089 -0.0402
 1326TIP3   OH2 3983   0.636   2.498   3.288  0.2577  0.0134  0.1616
 1326TIP3    H1 3984   0.730   2.514   3.278  0.7662 -0.6218  3.0379
 1326TIP3    H2 3985   0.604   2.574   3.335 -0.7801  0.3697 -1.0796
 1327TIP3   OH2 3986   5.160   0.258   2.568 -0.3646 -0.4911 -0.2112
 1327TIP3    H1 3987   5.209   0.338   2.549  0.4651 -0.7318  0.7798
 1327TIP3    H2 3988   5.073   0.288   2.596 -0.8917 -0.0689 -2.1923
 1328TIP3   OH2 3989   6.185   4.512   4.521  0.1657  0.1553  0.5521
 1328TIP3    H1 3990   6.138   4.532   4.602 -0.5922 -0.4690  0.2732
 1328TIP3    H2 3991   6.183   4.593   4.471  1.3088  0.7887  1.4648
 1329TIP3   OH2 3992   3.408   4.983   5.128  0.1802 -0.2587  0.5921
 1329TIP3    H1 3993   3.364   5.030   5.057 -0.1049  0.6249  1.3292
 1329TIP3    H2 3994   3.463   5.049   5.170  0.8213 -0.9174  0.8154
 1330TIP3   OH2 3995   2.563   5.054   2.306 -0.0940  0.1079  0.3545
 1330TIP3    H1 3996   2.655   5.042   2.330 -0.4914 -2.8191  0.7290
 1330TIP3    H2 3997   2.564   5.055   2.210  0.4432  1.6405  0.3508
 1331TIP3   OH2 3998   4.556   4.868   3.692  0.2511  0.5558  0.6079
 1331TIP3    H1 3999   4.554   4.777   3.721  0.1750  0.5331  0.5331
 1331TIP3    H2 4000   4.465   4.898   3.700  0.2063  0.5102  0.2745
 1332TIP3   OH2 4001   5.676   4.791   2.115 -0.5141 -0.0094  0.5030
 1332TIP3    H1 4002   5.754   4.804   2.170 -0.0016 -1.4818  0.1740
 1332TIP3    H2 4003   5.606   4.835   2.162 -0.0105 -0.9046  2.1716
 1333TIP3   OH2 4004   2.259   1.756   2.492 -0.0553 -0.4899  0.0282
 1333TIP3    H1 4005   2.176   1.775   2.448  0.4649  1.7888 -0.0775
 1333TIP3    H2 4006   2.326   1.783   2.430  0.7032  2.8391  2.0216
 1334TIP3   OH2 4007   6.309   4.100   4.141  0.4365 -0.6710 -0.2136
 1334TIP3    H1 4008   6.315   4.171   4.076  0.6277  0.1870  0.7078
 1334TIP3    H2 4009   6.350   4.025   4.099 -3.8223 -1.7416 -3.1159
 1335TIP3   OH2 4010   0.441   0.827   3.912 -0.1217 -0.1177  0.2413
 1335TIP3    H1 4011   0.459   0.893   3.979  0.8114 -0.8511  0.7312
 1335TIP3    H2 4012   0.512   0.764   3.920 -0.6104 -0.8180 -0.6944
 1336TIP3   OH2 4013   1.265   3.713   0.029  0.1579 -0.4626  0.0716
 1336TIP3    H1 4014   1.218   3.629   0.031 -0.4434 -0.1441 -0.4191
 1336TIP3    H2 4015   1.282   3.733   0.121  2.6315 -2.3870  0.1461
 1337TIP3   OH2 4016   4.004   0.317   3.849  0.2403  0.0680  0.0620
 1337TIP3    H1 4017   4.067   0.247   3.864  2.0901  1.4547 -0.7266
 1337TIP3    H2 4018   3.992   0.319   3.754 -1.1938 -0.2885  0.2068
 1338TIP3   OH2 4019   0.050   5.572   2.861 -0.5582  0.1452 -0.3253
 1338TIP3    H1 4020   0.131   5.526   2.842 -0.1136  1.3925 -1.6825
 1338TIP3    H2 4021   0.054   5.592   2.954  1.0770  0.8348 -0.5065
 1339TIP3   OH2 4022   1.238   3.853   0.596  0.0430 -0.5728  0.0447
 1339TIP3    H1 4023   1.283   3.936   0.612 -1.0797 -0.1259  1.1456
 1339TIP3    H2 4024   1.145   3.875   0.603 -0.3415 -2.4596  4.0050
 1340TIP3   OH2 4025   5.521   2.640   4.923  0.3359  0.6117  0.2390
 1340TIP3    H1 4026   5.478   2.703   4.866 -0.4480 -0.9175 -0.9676
 1340TIP3    H2 4027   5.536   2.564   4.867  1.1216 -0.3222  1.6456
 1341TIP3   OH2 4028   4.985   5.147   2.910  0.6214  0.0863 -0.8887
 1341TIP3    H1 4029   5.052   5.164   2.975 -0.7214  0.7504  0.3778
 1341TIP3    H2 4030   4.905   5.183   2.948 -0.8135 -2.1881 -1.5658
 1342TIP3   OH2 4031   1.352   2.618   3.297  0.1570 -0.0201 -0.7662
 1342TIP3    H1 4032   1.408   2.643   3.223 -0.0736 -1.7706 -1.5768
 1342TIP3    H2 4033   1.303   2.697   3.318  1.0097  0.8044 -1.7891
 1343TIP3   OH2 4034   3.574   4.452   1.048 -0.3542  0.2041  0.2909
 1343TIP3    H1 4035   3.609   4.366   1.070 -1.8227 -0.2368  1.0583
 1343TIP3    H2 4036   3.634   4.487   0.983 -1.1910 -2.5705 -2.2055
 1344TIP3   OH2 4037   2.235   4.046   1.221 -0.3605  0.2915  0.0786
 1344TIP3    H1 4038   2.324   4.080   1.209 -0.2320 -0.7111 -2.1737
 1344TIP3    H2 4039   2.181   4.125   1.230  0.6693  0.9174  1.1438
 1345TIP3   OH2 4040   4.401   5.835   0.772  0.0445  0.3724 -0.5884
 1345TIP3    H1 4041   4.371   5.852   0.683  0.9760  0.1326 -0.9554
 1345TIP3    H2 4042   4.358   5.753   0.797 -0.2601  0.4700 -0.7842
 1346TIP3   OH2 4043   0.914   3.075   2.989 -0.3099  0.0542 -0.0637
 1346TIP3    H1 4044   0.870   3.156   2.964 -1.3050 -0.4503  0.0282
 1346TIP3    H2 4045   0.931   3.029   2.907  0.8334  0.6217 -0.1746
 1347TIP3   OH2 4046   6.079   5.195   4.875 -0.0807 -0.6346 -0.1656
 1347TIP3    H1 4047   6.073   5.241   4.792 -3.3414 -0.0675  0.2271
 1347TIP3    H2 4048   6.088   5.265   4.940 -2.7083 -0.5702  0.2490
 1348TIP3   OH2 4049   3.047   1.386   2.967  0.1773  0.2173 -0.4730
 1348TIP3    H1 4050   2.962   1.393   2.923 -1.2456 -1.6519  1.7288
 1348TIP3    H2 4051   3.036   1.437   3.048  0.6360 -1.1484  0.4797
 1349TIP3   OH2 4052   2.039   4.455   3.911 -0.0704 -0.2450  0.2249
 1349TIP3    H1 4053   2.124   4.412   3.898 -0.3449 -0.9629  0.7605
 1349TIP3    H2 4054   2.010   4.477   3.823  1.7593  2.1844  0.1379
 1350TIP3   OH2 4055   1.580   2.645   2.745  0.3868  0.2006 -0.4981
 1350TIP3    H1 4056   1.510   2.709   2.740 -1.2463 -1.4706 -0.0483
 1350TIP3    H2 4057   1.610   2.634   2.655  0.7501  1.6099 -0.5718
 1351TIP3   OH2 4058   0.839   4.144   4.500  0.1303 -0.2236  0.0468
 1351TIP3    H1 4059   0.834   4.056   4.537  1.5681 -0.6462 -0.6708
 1351TIP3    H2 4060   0.809   4.202   4.570 -0.0057 -1.2163  0.8242
 1352TIP3   OH2 4061   2.082   2.847   0.280  0.2249  0.3882 -0.2608
 1352TIP3    H1 4062   2.036   2.930   0.293 -1.4719 -0.5677  0.2503
 1352TIP3    H2 4063   2.126   2.831   0.364  1.2196  1.1214 -0.6227
 1353TIP3   OH2 4064   1.196   0.740   3.191  0.1817 -0.4750  0.5584
 1353TIP3    H1 4065   1.250   0.662   3.173 -1.0452 -1.3012  0.3349
 1353TIP3    H2 4066   1.133   0.711   3.257 -2.6527 -0.8272 -2.0742
 1354TIP3   OH2 4067   5.203   5.995   0.050 -0.6039  0.2008 -0.1871
 1354TIP3    H1 4068   5.204   5.930   0.120 -0.3340 -0.2095 -0.5696
 1354TIP3    H2 4069   5.242   5.951  -0.025 -2.6212 -0.0279 -1.1902
 1355TIP3   OH2 4070   1.419   1.679   2.510 -0.6468  0.2958  0.3906
 1355TIP3    H1 4071   1.358   1.717   2.447 -0.4279  0.7293  0.4334
 1355TIP3    H2 4072   1.478   1.751   2.531 -0.1094 -0.1241  0.3322
 1356TIP3   OH2 4073   5.356   3.741   0.235  0.0099  0.3180  0.1282
 1356TIP3    H1 4074   5.306   3.722   0.314 -0.2237 -0.6366 -0.2285
 1356TIP3    H2 4075   5.390   3.829   0.248 -0.4692  0.3762  1.0556
 1357TIP3   OH2 4076   4.991   5.940   1.921  0.3029  0.6947 -0.2718
 1357TIP3    H1 4077   5.056   5.903   1.863  0.9487  0.1441  0.7739
 1357TIP3    H2 4078   4.996   6.035   1.906  2.4386  0.8207  0.8495
 1358TIP3   OH2 4079   1.004   1.974   0.812  0.0930  0.5438  0.4673
 1358TIP3    H1 4080   1.073   2.039   0.823  1.1280 -0.3543 -0.3681
 1358TIP3    H2 4081   1.050   1.895   0.782 -0.8456 -1.1769  3.1998
 1359TIP3   OH2 4082   0.352   3.030   2.423  0.6137  0.2126  0.3966
 1359TIP3    H1 4083   0.324   3.118   2.447  0.6179  0.0323  1.1017
 1359TIP3    H2 4084   0.342   2.979   2.504 -0.7147 -0.7654 -0.3613
 1360TIP3   OH2 4085   0.898   4.422   2.522  0.6110  0.2372 -0.1927
 1360TIP3    H1 4086   0.898   4.430   2.617 -1.0979 -1.0940 -0.0403
 1360TIP3    H2 4087   0.917   4.330   2.505 -1.7272 -0.1566 -1.0064
 1361TIP3   OH2 4088   3.864   1.841   0.208 -0.0482  0.5463 -0.0172
 1361TIP3    H1 4089   3.916   1.761   0.217  0.7933  0.9528 -1.1034
 1361TIP3    H2 4090   3.773   1.810   0.208  0.0748 -0.1111  2.6829
 1362TIP3   OH2 4091   3.619   3.481   3.119  0.4748  0.8838  0.5690
 1362TIP3    H1 4092   3.541   3.518   3.160 -1.2466 -2.6883  0.9394
 1362TIP3    H2 4093   3.607   3.498   3.025 -0.5011  0.8925  0.6793
 1363TIP3   OH2 4094   4.422   2.444   1.093  0.5539  0.1011  0.0961
 1363TIP3    H1 4095   4.422   2.390   1.014 -0.9216  0.5205 -0.2237
 1363TIP3    H2 4096   4.512   2.440   1.124  0.9177 -0.9737 -0.9843
 1364TIP3   OH2 4097   5.466   3.571   2.017 -0.2362 -0.3894  0.2314
 1364TIP3    H1 4098   5.509   3.529   1.943  2.3635 -0.3423  1.5866
 1364TIP3    H2 4099   5.440   3.499   2.074 -0.3370 -0.3434  0.2442
 1365TIP3   OH2 4100   4.300   4.231   0.592  0.0252  0.0996  0.5501
 1365TIP3    H1 4101   4.368   4.295   0.617  1.6293 -1.6844  1.0094
 1365TIP3    H2 4102   4.348   4.160   0.551 -1.9010 -0.1094 -1.5266
 1366TIP3   OH2 4103   4.073   4.123   2.701  0.3107  0.4695 -0.3260
 1366TIP3    H1 4104   3.993   4.126   2.649  0.0266 -0.3261  0.0586
 1366TIP3    H2 4105   4.115   4.041   2.676  1.3804  1.2158 -1.0601
 1367TIP3   OH2 4106   0.845   3.782   0.215  0.3120  0.1221  0.1880
 1367TIP3    H1 4107   0.904   3.794   0.141  0.1202 -0.5715 -0.0817
 1367TIP3    H2 4108   0.809   3.694   0.203 -1.1766  0.7308  0.0639
 1368TIP3   OH2 4109   3.842   1.558   3.739  0.1252 -0.0130  0.8489
 1368TIP3    H1 4110   3.929   1.550   3.779  0.3748 -0.9217  0.1715
 1368TIP3    H2 4111   3.807   1.470   3.741 -0.1960  0.0829 -0.1624
 1369TIP3   OH2 4112   1.657   1.325   2.382 -0.0644 -0.1771  0.2533
 1369TIP3    H1 4113   1.705   1.374   2.315 -1.2326 -0.4408 -0.8227
 1369TIP3    H2 4114   1.669   1.233   2.357 -1.0159 -0.2510  0.0226
 1370TIP3   OH2 4115   5.421   3.609   4.793  0.4593  0.0059 -0.1841
 1370TIP3    H1 4116   5.348   3.552   4.769  0.5919  0.1212 -0.8960
 1370TIP3    H2 4117   5.472   3.618   4.712 -0.0012  1.7653 -0.3274
 1371TIP3   OH2 4118   1.541   3.669   0.131 -0.5474  0.0478 -0.3767
 1371TIP3    H1 4119   1.539   3.717   0.214 -3.4273 -1.2810  0.4292
 1371TIP3    H2 4120   1.485   3.720   0.072  0.0200  0.0104 -0.9653
 1372TIP3   OH2 4121   2.514   2.279   4.337  0.1226  0.2205  0.0640
 1372TIP3    H1 4122   2.515   2.351   4.400 -1.1277 -0.5754  1.0566
 1372TIP3    H2 4123   2.424   2.247   4.339  1.2083 -3.3763  2.1142
 1373TIP3   OH2 4124   3.628   5.443   4.434  0.2510  0.2825 -0.3429
 1373TIP3    H1 4125   3.687   5.436   4.509 -1.1864  0.2679  0.8355
 1373TIP3    H2 4126   3.636   5.358   4.389  1.0016  0.2274 -0.1106
 1374TIP3   OH2 4127   4.467   2.409   5.024  0.1506 -0.1429  0.1592
 1374TIP3    H1 4128   4.548   2.417   4.973  0.1991  0.5635  0.3293
 1374TIP3    H2 4129   4.421   2.491   5.008 -2.8786 -2.2907 -3.7733
 1375TIP3   OH2 4130   1.815   4.412   3.022 -0.1281 -0.2861  0.1214
 1375TIP3    H1 4131   1.804   4.493   2.971 -1.1973 -1.0354 -0.9023
 1375TIP3    H2 4132   1.778   4.433   3.108 -0.3690  0.3280 -0.1236
 1376TIP3   OH2 4133   5.541   1.017   0.208 -0.0220 -0.0782 -0.0997
 1376TIP3    H1 4134   5.600   1.043   0.279 -0.4874 -0.0899  0.2948
 1376TIP3    H2 4135   5.453   1.024   0.245 -0.2183 -1.2229 -0.3078
 1377TIP3   OH2 4136   2.806   2.302   3.502  0.5049 -0.1758  0.1295
 1377TIP3    H1 4137   2.713   2.279   3.504  0.4036  0.2658  0.6694
 1377TIP3    H2 4138   2.814   2.365   3.430  0.3446 -0.0386  0.2321
 1378TIP3   OH2 4139   0.433   1.782   0.734 -0.1725 -0.0288 -0.5374
 1378TIP3    H1 4140   0.341   1.786   0.710 -0.1429  0.6729 -0.5480
 1378TIP3    H2 4141   0.437   1.813   0.824  0.0726  0.1202 -0.5962
 1379TIP3   OH2 4142   0.712   5.948   3.341 -0.0017  0.4159  0.1059
 1379TIP3    H1 4143   0.735   5.855   3.333  0.4785  0.3614  1.7771
 1379TIP3    H2 4144   0.780   5.994   3.292  1.2145  0.0089  1.3742
 1380TIP3   OH2 4145   3.431   2.703   0.241  0.2827  0.9516 -0.2113
 1380TIP3    H1 4146   3.421   2.738   0.330  1.1373  0.6590  0.0113
 1380TIP3    H2 4147   3.508   2.646   0.247 -0.3057  0.0711 -0.8822
 1381TIP3   OH2 4148   3.427   3.854   4.434  0.0967 -0.0591 -0.1600
 1381TIP3    H1 4149   3.358   3.821   4.376  0.3343  0.6968 -0.8788
 1381TIP3    H2 4150   3.508   3.820   4.396  0.1524 -0.7716  0.5671
 1382TIP3   OH2 4151   6.125   5.198   1.278  0.3120 -0.3183 -0.6377
 1382TIP3    H1 4152   6.074   5.205   1.197 -0.3812  2.4936 -0.0754
 1382TIP3    H2 4153   6.215   5.211   1.250  0.0066  1.4574 -0.9675
 1383TIP3   OH2 4154   1.436   1.550   2.783  0.8589  0.0442  0.9176
 1383TIP3    H1 4155   1.395   1.521   2.702 -1.6964  0.4848  1.9449
 1383TIP3    H2 4156   1.504   1.611   2.756  1.7961 -1.7339 -0.9519
 1384TIP3   OH2 4157   4.507   5.423   1.316 -0.4623  0.0536  0.0615
 1384TIP3    H1 4158   4.435   5.429   1.379 -0.6092 -1.1580  0.0287
 1384TIP3    H2 4159   4.572   5.484   1.349 -0.4467 -0.7071  1.5416
 1385TIP3   OH2 4160   1.828   2.589   3.156 -0.5649 -0.8276  0.2001
 1385TIP3    H1 4161   1.789   2.572   3.071 -1.2838 -2.4727  0.8073
 1385TIP3    H2 4162   1.848   2.502   3.191 -0.3731 -0.1990  1.7381
 1386TIP3   OH2 4163   4.842   0.759   4.902 -0.1187  0.0820 -0.4757
 1386TIP3    H1 4164   4.757   0.802   4.907  0.2273  0.7599 -0.3574
 1386TIP3    H2 4165   4.899   0.810   4.960  0.5802  0.1390 -1.1960
 1387TIP3   OH2 4166   4.867   5.713   4.002  0.6359 -0.2276  0.4631
 1387TIP3    H1 4167   4.778   5.747   4.015  0.6238 -0.2600  0.4642
 1387TIP3    H2 4168   4.868   5.684   3.911  0.2636 -1.3664  0.8051
 1388TIP3   OH2 4169   3.981   4.147   0.055 -0.2276  0.4571 -0.6157
 1388TIP3    H1 4170   3.920   4.073   0.045  2.4905 -1.6404 -3.7386
 1388TIP3    H2 4171   4.041   4.119   0.123  0.1920  0.2172 -1.0782
 1389TIP3   OH2 4172   5.198   2.363   3.580 -0.0485  0.8783 -0.0727
 1389TIP3    H1 4173   5.272   2.341   3.522 -0.9751  0.3937 -1.1133
 1389TIP3    H2 4174   5.188   2.457   3.571  0.5120  0.9669  0.1668
 1390TIP3   OH2 4175   4.988   3.026   0.949  0.1972  0.3627 -0.1972
 1390TIP3    H1 4176   4.963   2.969   0.877  0.0788  0.1996 -0.0295
 1390TIP3    H2 4177   4.962   2.978   1.028  0.1200  0.6376 -0.0540
 1391TIP3   OH2 4178   1.188   0.384   5.079 -0.0128  0.4237 -0.6888
 1391TIP3    H1 4179   1.197   0.326   5.155 -0.2730  1.6994  0.3509
 1391TIP3    H2 4180   1.196   0.326   5.004  0.8226 -0.7993  0.3020
 1392TIP3   OH2 4181   1.991   4.590   4.831  0.3253  0.1515  0.4042
 1392TIP3    H1 4182   1.984   4.662   4.769  1.6203 -0.3653 -0.3854
 1392TIP3    H2 4183   1.982   4.631   4.917 -2.2164  0.7872 -0.0724
 1393TIP3   OH2 4184   3.402   5.725   1.520 -0.2266 -0.3820 -0.8294
 1393TIP3    H1 4185   3.367   5.648   1.476 -0.0173 -1.5008  0.8927
 1393TIP3    H2 4186   3.491   5.700   1.547 -0.0141  0.5931 -0.5716
 1394TIP3   OH2 4187   2.916   2.988   3.975 -0.4526  0.0136 -0.0653
 1394TIP3    H1 4188   2.961   3.072   3.967  0.3709 -0.2855  1.0888
 1394TIP3    H2 4189   2.906   2.975   4.070 -1.3589 -0.7788 -0.2541
 1395TIP3   OH2 4190   2.393   3.524   2.786  0.5394 -0.3832 -0.0291
 1395TIP3    H1 4191   2.412   3.473   2.708  1.8944 -0.6115  0.4041
 1395TIP3    H2 4192   2.403   3.615   2.759 -1.8946 -0.3011 -0.8070
 1396TIP3   OH2 4193   0.865   1.882   2.878 -0.4157  0.2294 -0.5213
 1396TIP3    H1 4194   0.834   1.827   2.951 -0.7910 -0.5665 -1.2614
 1396TIP3    H2 4195   0.939   1.930   2.914 -1.7914  1.3390  0.9796
 1397TIP3   OH2 4196   0.510   5.906   3.081 -0.1982  0.1257  0.2196
 1397TIP3    H1 4197   0.500   6.000   3.069 -0.2661 -0.0017 -0.8458
 1397TIP3    H2 4198   0.604   5.894   3.095 -0.2875  0.4179  1.1422
 1398TIP3   OH2 4199   3.668   5.726   1.580  0.3913 -0.2927  0.5316
 1398TIP3    H1 4200   3.757   5.760   1.584 -0.1754  1.3221  0.1057
 1398TIP3    H2 4201   3.614   5.792   1.624 -1.0580  0.6106 -2.3066
 1399TIP3   OH2 4202   5.462   1.294   4.931 -0.1527 -0.1373 -0.3271
 1399TIP3    H1 4203   5.485   1.301   4.839 -0.4863 -2.4350 -0.6380
 1399TIP3    H2 4204   5.526   1.350   4.976  1.6237 -0.9379 -1.7262
 1400TIP3   OH2 4205   4.653   2.723   3.856  0.0582 -0.4485  1.1674
 1400TIP3    H1 4206   4.739   2.743   3.892 -0.3643  1.4321  1.2663
 1400TIP3    H2 4207   4.640   2.789   3.788 -1.6320 -0.1814  1.7173
 1401TIP3   OH2 4208   0.159   2.880   0.758 -0.0906 -0.3791 -0.1179
 1401TIP3    H1 4209   0.111   2.902   0.838  0.2116 -0.3819  0.0653
 1401TIP3    H2 4210   0.241   2.930   0.765  0.4796 -1.3329  0.1635
 1402TIP3   OH2 4211   3.684   1.388   4.109  0.1118  0.3913  0.2102
 1402TIP3    H1 4212   3.746   1.346   4.050  1.9677  2.1314  0.8368
 1402TIP3    H2 4213   3.666   1.321   4.176 -1.6025 -1.4075 -1.8706
 1403TIP3   OH2 4214   2.361   5.846   1.769 -0.7778 -0.2800 -0.1860
 1403TIP3    H1 4215   2.346   5.922   1.826 -1.3288 -0.4422 -0.1066
 1403TIP3    H2 4216   2.313   5.865   1.689 -0.9914 -0.5814 -0.1332
 1404TIP3   OH2 4217   4.196   5.898   3.895  0.7347 -0.5777 -0.2698
 1404TIP3    H1 4218   4.146   5.968   3.937  2.6424  0.3438  0.6050
 1404TIP3    H2 4219   4.132   5.850   3.843 -0.7359  1.5631 -0.5672
 1405TIP3   OH2 4220   4.020   0.780   2.247 -0.7888  0.2107  0.5076
 1405TIP3    H1 4221   4.005   0.791   2.153 -0.3892  0.6020  0.4896
 1405TIP3    H2 4222   3.978   0.856   2.287  1.5959  1.6834  0.4120
 1406TIP3   OH2 4223   1.963   2.025   3.087  0.4150  0.0762  0.7174
 1406TIP3    H1 4224   1.982   2.042   3.179  0.2223 -0.3674  0.8412
 1406TIP3    H2 4225   1.927   2.108   3.054  0.4033  0.2083  1.0605
 1407TIP3   OH2 4226   1.490   2.053   4.850  0.2121 -0.1396 -0.0880
 1407TIP3    H1 4227   1.483   1.977   4.908 -0.2664 -0.3371 -0.3958
 1407TIP3    H2 4228   1.461   2.021   4.765  2.2570 -0.2203 -0.7979
 1408TIP3   OH2 4229   1.836   2.089   2.364 -0.2185  0.3495 -0.1346
 1408TIP3    H1 4230   1.881   2.038   2.431 -2.4620  0.5482  1.6529
 1408TIP3    H2 4231   1.823   2.175   2.403 -3.4046 -0.1323  0.1463
 1409TIP3   OH2 4232   5.097   0.351   2.270 -0.3981 -0.1714 -0.1159
 1409TIP3    H1 4233   5.174   0.334   2.215 -0.2758  0.0269 -0.0077
 1409TIP3    H2 4234   5.074   0.266   2.306 -1.9108 -0.7803 -2.3075
 1410TIP3   OH2 4235   1.801   5.576   2.332 -0.2434  0.0118  0.1263
 1410TIP3    H1 4236   1.896   5.570   2.346 -0.2328  1.7636  0.9887
 1410TIP3    H2 4237   1.769   5.488   2.351  1.1027 -0.3788  0.7085
 1411TIP3   OH2 4238   3.590   3.502   4.217 -0.1626  0.3028  0.2216
 1411TIP3    H1 4239   3.597   3.438   4.145 -1.0925 -0.4875  0.8153
 1411TIP3    H2 4240   3.497   3.506   4.237  0.0628  0.7080  1.2241
 1412TIP3   OH2 4241   2.060   1.028   3.222 -0.1932  0.2821 -0.0774
 1412TIP3    H1 4242   2.066   1.070   3.308  0.8784 -1.1536  0.5841
 1412TIP3    H2 4243   2.008   0.949   3.238  0.5423 -0.3197 -0.6194
 1413TIP3   OH2 4244   1.680   3.558   3.364 -0.1383  0.1680 -0.0014
 1413TIP3    H1 4245   1.773   3.543   3.379 -0.3533 -0.5554  0.6830
 1413TIP3    H2 4246   1.650   3.479   3.318 -0.2693  0.7196 -0.8952
 1414TIP3   OH2 4247   6.203   3.634   4.809  0.2848 -1.0068  0.1893
 1414TIP3    H1 4248   6.154   3.707   4.847  0.7693  0.2635 -1.5189
 1414TIP3    H2 4249   6.293   3.664   4.807  0.1832 -0.6622 -2.6153
 1415TIP3   OH2 4250   1.674   2.287   0.743 -0.2362  0.4750  0.6088
 1415TIP3    H1 4251   1.585   2.256   0.759 -0.2098  0.8229  1.4721
 1415TIP3    H2 4252   1.688   2.272   0.649 -1.3697  0.8300  0.3645
 1416TIP3   OH2 4253   0.161   3.741   2.709  0.1645 -0.6673  0.1991
 1416TIP3    H1 4254   0.121   3.774   2.790 -2.9218 -0.3055 -1.3202
 1416TIP3    H2 4255   0.231   3.804   2.690 -1.3576  1.2976  0.7716
 1417TIP3   OH2 4256   5.560   5.059   1.889 -0.4160  0.3745 -0.0287
 1417TIP3    H1 4257   5.595   5.032   1.804  1.4066  2.3310  0.0177
 1417TIP3    H2 4258   5.504   4.986   1.916 -0.1592 -0.7953 -2.3691
 1418TIP3   OH2 4259   1.448   0.602   0.628 -0.4174 -0.3566  0.0954
 1418TIP3    H1 4260   1.540   0.575   0.627  0.1188  1.3662  0.1153
 1418TIP3    H2 4261   1.434   0.633   0.718 -0.9061 -0.2245 -0.0259
 1419TIP3   OH2 4262   2.832   3.539   3.539  0.0771  0.2331 -0.0799
 1419TIP3    H1 4263   2.910   3.526   3.484 -0.2781 -1.6859 -0.2257
 1419TIP3    H2 4264   2.854   3.497   3.622  0.6710  3.2659  1.4160
 1420TIP3   OH2 4265   6.166   0.586   3.402  0.2880  0.2285 -1.0980
 1420TIP3    H1 4266   6.164   0.563   3.309 -2.5456  3.1123 -1.9440
 1420TIP3    H2 4267   6.142   0.678   3.404  0.8811  0.4313  2.5012
 1421TIP3   OH2 4268   4.208   2.055   3.262 -0.0373  0.1391  0.0534
 1421TIP3    H1 4269   4.249   2.021   3.182  0.7067 -0.0763  0.5199
 1421TIP3    H2 4270   4.130   2.102   3.230 -0.2505 -0.7000 -0.7187
 1422TIP3   OH2 4271   6.140   0.831   0.517  0.1313 -0.3044  0.0674
 1422TIP3    H1 4272   6.073   0.859   0.579 -0.4762 -0.7919 -0.3558
 1422TIP3    H2 4273   6.125   0.886   0.439  0.4348 -0.1852  0.0936
 1423TIP3   OH2 4274   6.022   0.596   1.886  0.2638  0.3658  0.0504
 1423TIP3    H1 4275   6.025   0.690   1.903  1.1803  0.2367  0.6523
 1423TIP3    H2 4276   6.018   0.589   1.791  1.5581  0.9957 -0.0642
 1424TIP3   OH2 4277   5.409   1.490   3.220 -0.2343  0.5574  0.0198
 1424TIP3    H1 4278   5.486   1.547   3.220 -0.4193  0.8064 -0.1824
 1424TIP3    H2 4279   5.356   1.521   3.147 -0.1758 -0.0848 -0.3018
 1425TIP3   OH2 4280   2.299   3.622   0.554 -0.4450  0.0115  0.1300
 1425TIP3    H1 4281   2.217   3.667   0.574 -0.3725 -0.2689  1.1314
 1425TIP3    H2 4282   2.367   3.681   0.587 -0.1138  1.0727 -2.2711
 1426TIP3   OH2 4283   1.379   0.527   4.188 -0.5033 -0.0517  0.5213
 1426TIP3    H1 4284   1.352   0.444   4.147 -0.3900  0.1506  0.0287
 1426TIP3    H2 4285   1.394   0.586   4.114  0.9773 -0.0628  0.7792
 1427TIP3   OH2 4286   5.404   2.702   4.045 -0.5418  0.1744  0.0542
 1427TIP3    H1 4287   5.477   2.743   4.092 -0.9120  2.5330 -1.2759
 1427TIP3    H2 4288   5.387   2.621   4.093  1.9610  0.2882  1.2929
 1428TIP3   OH2 4289   1.413   2.387   1.035 -0.0510 -0.0373 -0.5456
 1428TIP3    H1 4290   1.400   2.352   0.947  1.8124 -0.3536 -0.7218
 1428TIP3    H2 4291   1.370   2.472   1.033  0.0289 -0.0032 -1.7869
 1429TIP3   OH2 4292   5.002   1.545   0.056  0.0330 -0.3286  0.0368
 1429TIP3    H1 4293   5.043   1.570   0.139 -0.8719  0.5183  0.2594
 1429TIP3    H2 4294   5.058   1.582  -0.011  0.6004 -0.7433  0.2707
 1430TIP3   OH2 4295   4.934   3.947   0.105  0.3152  0.4336  0.2078
 1430TIP3    H1 4296   5.023   3.936   0.073 -0.3987 -0.2457 -1.6950
 1430TIP3    H2 4297   4.928   3.891   0.182  1.6898  0.9777  0.7356
 1431TIP3   OH2 4298   2.314   2.883   4.670  0.2568 -0.0333 -0.2117
 1431TIP3    H1 4299   2.315   2.808   4.610  0.4685 -0.8366  0.7637
 1431TIP3    H2 4300   2.348   2.956   4.618  0.1457 -0.6360 -1.1550
 1432TIP3   OH2 4301   4.190   2.575   1.521  0.0118 -0.1658 -0.3081
 1432TIP3    H1 4302   4.142   2.526   1.454  0.8056  0.9215 -1.7264
 1432TIP3    H2 4303   4.124   2.630   1.563 -0.3315 -0.1979 -0.8074
 1433TIP3   OH2 4304   1.010   5.443   0.361  0.3841 -0.3779  0.5236
 1433TIP3    H1 4305   0.975   5.470   0.446  1.1334  1.7557  0.2127
 1433TIP3    H2 4306   1.103   5.428   0.377  0.8452  1.5257 -0.1905
 1434TIP3   OH2 4307   2.057   5.461   3.952  0.3493 -0.1489 -0.3096
 1434TIP3    H1 4308   2.063   5.477   4.047  0.2532  1.4439 -0.5457
 1434TIP3    H2 4309   1.992   5.391   3.944 -0.5310  0.4993  0.7474
 1435TIP3   OH2 4310   4.089   5.288   4.263  0.2306 -0.9603  0.3026
 1435TIP3    H1 4311   4.128   5.303   4.349  0.7712 -1.6851  0.1919
 1435TIP3    H2 4312   4.017   5.226   4.279  0.5110 -1.3157  0.1949
 1436TIP3   OH2 4313   1.086   4.997   3.925 -0.0448  0.4864  0.7430
 1436TIP3    H1 4314   1.003   4.974   3.967 -0.5066 -0.0926 -0.4493
 1436TIP3    H2 4315   1.062   5.030   3.839  0.9682  0.0882  0.2836
 1437TIP3   OH2 4316   0.304   1.283   3.599  0.3254  0.1290 -0.7644
 1437TIP3    H1 4317   0.219   1.243   3.610  0.6238 -0.6602 -1.2147
 1437TIP3    H2 4318   0.362   1.211   3.576  1.4848  0.3729  1.1816
 1438TIP3   OH2 4319   3.086   2.532   3.528 -0.2460  0.2509  0.0733
 1438TIP3    H1 4320   3.148   2.605   3.539  0.5918 -0.6660  2.0456
 1438TIP3    H2 4321   3.015   2.569   3.476 -0.0616  2.6403  1.3459
 1439TIP3   OH2 4322   2.114   3.397   0.646 -0.1307 -0.1199 -0.0747
 1439TIP3    H1 4323   2.111   3.429   0.556 -0.1422  0.7582  0.2290
 1439TIP3    H2 4324   2.071   3.312   0.643 -1.1036  0.3800 -0.7181
 1440TIP3   OH2 4325   6.050   4.649   2.170  0.3976  0.6365  0.5444
 1440TIP3    H1 4326   6.043   4.738   2.136  1.0470  1.6623  2.8754
 1440TIP3    H2 4327   5.965   4.633   2.211  0.6374  0.6359  1.0577
 1441TIP3   OH2 4328   5.564   5.577   4.004  0.8105 -1.0059  0.2415
 1441TIP3    H1 4329   5.621   5.640   3.960  1.5830 -1.3497  0.7337
 1441TIP3    H2 4330   5.497   5.556   3.939 -0.0462  1.0395  0.3699
 1442TIP3   OH2 4331   0.777   0.523   3.247  0.0492 -0.0958 -0.4295
 1442TIP3    H1 4332   0.801   0.492   3.159  0.0461 -0.9753 -0.1314
 1442TIP3    H2 4333   0.806   0.453   3.305 -0.4097  0.2552  0.2297
 1443TIP3   OH2 4334   1.269   0.562   2.880  0.0327  0.2834 -0.2402
 1443TIP3    H1 4335   1.332   0.506   2.836 -0.3424 -1.3517  1.2099
 1443TIP3    H2 4336   1.300   0.651   2.863  1.8423 -0.4215 -0.8215
 1444TIP3   OH2 4337   3.509   2.757   1.703 -0.2526 -0.2306  0.4245
 1444TIP3    H1 4338   3.504   2.829   1.766 -0.4081 -0.3007  0.4928
 1444TIP3    H2 4339   3.471   2.793   1.623  0.2890 -0.0180  0.2523
 1445TIP3   OH2 4340   4.534   1.764   0.268 -0.0579  0.4448  0.8818
 1445TIP3    H1 4341   4.627   1.774   0.244  0.2167 -0.7325  1.3693
 1445TIP3    H2 4342   4.536   1.708   0.346 -1.2847 -1.8470 -0.6224
 1446TIP3   OH2 4343   0.004   3.215   4.443 -0.1062 -0.0579 -0.4718
 1446TIP3    H1 4344   0.009   3.123   4.419  2.0662 -0.5626  1.5553
 1446TIP3    H2 4345   0.095   3.241   4.460 -0.8840  1.7413  1.4663
 1447TIP3   OH2 4346   0.722   0.436   0.935  0.9555  0.1983  0.6436
 1447TIP3    H1 4347   0.648   0.446   0.995 -0.6471 -2.2832 -0.7050
 1447TIP3    H2 4348   0.734   0.341   0.929  1.9175  0.4133 -1.9069
 1448TIP3   OH2 4349   5.377   5.717   4.603  0.6746  0.4166  0.3616
 1448TIP3    H1 4350   5.318   5.654   4.644  0.5460  0.4054  0.1606
 1448TIP3    H2 4351   5.463   5.675   4.606  0.4761 -0.0701 -0.3865
 1449TIP3   OH2 4352   5.743   0.526   4.964  0.0949 -0.4411 -0.1289
 1449TIP3    H1 4353   5.681   0.471   5.012 -0.2015 -0.3886 -0.4488
 1449TIP3    H2 4354   5.696   0.609   4.950  0.0050 -0.6143 -0.9034
 1450TIP3   OH2 4355   0.126   3.056   1.231 -0.1285  0.1077 -0.1831
 1450TIP3    H1 4356   0.157   3.146   1.240  0.1809 -0.0721  0.6397
 1450TIP3    H2 4357   0.085   3.054   1.145 -1.7797  1.5419  0.4997
 1451TIP3   OH2 4358   4.573   0.885   2.223 -0.5590 -0.0262 -0.0685
 1451TIP3    H1 4359   4.571   0.977   2.247 -0.6834  0.2241 -1.0161
 1451TIP3    H2 4360   4.541   0.839   2.301 -0.0426  0.6880  0.5800
 1452TIP3   OH2 4361   2.133   5.344   1.325 -0.0491  0.2233  0.2208
 1452TIP3    H1 4362   2.174   5.258   1.332 -1.2946 -0.3420  0.8049
 1452TIP3    H2 4363   2.131   5.362   1.230  1.5864  0.3216  0.1736
 1453TIP3   OH2 4364   1.820   1.623   3.233 -0.7368 -0.4450 -0.0443
 1453TIP3    H1 4365   1.896   1.575   3.198 -0.7425 -0.8666  0.5029
 1453TIP3    H2 4366   1.797   1.685   3.164 -0.2030 -0.6583 -0.4231
 1454TIP3   OH2 4367   1.302   5.730   1.644 -0.1719 -0.0281 -0.5224
 1454TIP3    H1 4368   1.286   5.661   1.709  0.1822 -0.9786 -1.4034
 1454TIP3    H2 4369   1.290   5.686   1.560  0.7114  0.8340 -1.1163
 1455TIP3   OH2 4370   5.687   5.837   1.796 -0.0821 -0.2329 -0.3842
 1455TIP3    H1 4371   5.629   5.896   1.845 -0.0668 -0.1736 -0.4379
 1455TIP3    H2 4372   5.654   5.750   1.817  0.1404 -0.2254  0.0080
 1456TIP3   OH2 4373   0.703   4.015   1.530  0.2436 -0.7239  0.2409
 1456TIP3    H1 4374   0.768   3.972   1.586  1.0586 -0.5182 -0.5163
 1456TIP3    H2 4375   0.641   3.945   1.507 -0.4513 -0.6701  1.8680
 1457TIP3   OH2 4376   1.033   0.527   2.708  0.2317 -0.0209  0.1345
 1457TIP3    H1 4377   1.020   0.433   2.696  0.1329 -0.0320  0.3218
 1457TIP3    H2 4378   1.109   0.533   2.766 -0.5484 -0.0159  1.1656
 1458TIP3   OH2 4379   0.241   3.070   4.712  0.2248 -0.6840  0.5834
 1458TIP3    H1 4380   0.224   3.138   4.646 -2.5759 -1.8125  0.0058
 1458TIP3    H2 4381   0.245   3.118   4.795  1.6362  0.5144 -0.1226
 1459TIP3   OH2 4382   2.736   2.192   0.508 -0.1384  0.8881  0.4213
 1459TIP3    H1 4383   2.716   2.194   0.602 -0.6696 -0.9278  0.3870
 1459TIP3    H2 4384   2.650   2.184   0.466  0.2188 -0.2267 -0.1130
 1460TIP3   OH2 4385   6.006   1.162   0.407 -0.7760 -0.0046  0.4869
 1460TIP3    H1 4386   6.092   1.141   0.445 -0.0474  1.2255 -0.3787
 1460TIP3    H2 4387   5.955   1.082   0.416  0.2680 -0.5761  1.5782
 1461TIP3   OH2 4388   2.301   1.871   2.759 -0.3697  0.0095  0.3381
 1461TIP3    H1 4389   2.297   1.798   2.697  0.0021 -0.5225  0.9407
 1461TIP3    H2 4390   2.222   1.861   2.813 -1.0436  0.8473 -0.4366
 1462TIP3   OH2 4391   2.970   5.759   3.944 -0.6867  0.3935  0.1364
 1462TIP3    H1 4392   2.922   5.838   3.919 -0.7939 -0.2165 -1.7457
 1462TIP3    H2 4393   3.061   5.787   3.949 -0.9434  1.1055  1.7718
 1463TIP3   OH2 4394   0.444   0.591   0.507 -0.4435 -0.0392  0.9090
 1463TIP3    H1 4395   0.437   0.680   0.541  0.0901  0.3810 -0.0471
 1463TIP3    H2 4396   0.522   0.555   0.549  0.6422  0.7302 -0.3633
 1464TIP3   OH2 4397   1.317   3.512   4.137 -0.1009 -0.1890 -0.3856
 1464TIP3    H1 4398   1.305   3.553   4.051  1.9248 -1.1321 -1.1732
 1464TIP3    H2 4399   1.403   3.470   4.132  0.0969 -0.2428  2.1264
 1465TIP3   OH2 4400   3.446   2.845   1.424  0.0970 -0.2496 -0.1706
 1465TIP3    H1 4401   3.523   2.868   1.373  1.6717  1.3274  2.6554
 1465TIP3    H2 4402   3.440   2.750   1.418  0.2311 -0.1578 -3.0631
 1466TIP3   OH2 4403   1.080   0.259   2.049  0.1151 -0.9364  0.1465
 1466TIP3    H1 4404   1.083   0.334   2.109 -1.1408 -0.5126 -0.3033
 1466TIP3    H2 4405   1.126   0.290   1.971  0.8987 -1.1570  0.5086
 1467TIP3   OH2 4406   1.640   3.057   2.570 -0.0150 -0.0852 -0.4180
 1467TIP3    H1 4407   1.578   3.123   2.599  0.3807  1.6315 -3.1005
 1467TIP3    H2 4408   1.594   3.009   2.501  0.7533 -0.5396 -0.6328
 1468TIP3   OH2 4409   1.793   4.025   4.670  0.1278 -0.6331  0.3278
 1468TIP3    H1 4410   1.829   4.092   4.611  1.3598  0.5424  2.3205
 1468TIP3    H2 4411   1.865   4.002   4.728 -0.5717 -2.9972  0.3614
 1469TIP3   OH2 4412   1.049   3.860   3.658  0.0442  0.2240 -0.2502
 1469TIP3    H1 4413   1.108   3.787   3.639  0.9536  1.0055 -0.5084
 1469TIP3    H2 4414   0.966   3.835   3.618  0.5291 -0.3788 -0.9070
 1470TIP3   OH2 4415   3.147   4.614   4.961  0.3628  0.3007  0.0041
 1470TIP3    H1 4416   3.173   4.594   5.050 -1.6620  3.6948  1.5826
 1470TIP3    H2 4417   3.051   4.612   4.963  0.2704 -0.3863 -2.3509
 1471TIP3   OH2 4418   0.219   5.469   1.221  0.2106 -0.0677  0.7049
 1471TIP3    H1 4419   0.256   5.497   1.138 -0.8380  0.3883  0.3647
 1471TIP3    H2 4420   0.124   5.474   1.208  0.0047  0.7719  2.1635
 1472TIP3   OH2 4421   5.107   1.220  -0.010  0.2258  0.9858 -0.4348
 1472TIP3    H1 4422   5.071   1.235   0.077 -1.0340  1.0868 -0.9461
 1472TIP3    H2 4423   5.070   1.136  -0.037  1.3189  0.5235 -0.5230
 1473TIP3   OH2 4424   2.091   1.517   3.994 -0.1634 -0.6797 -0.1772
 1473TIP3    H1 4425   2.039   1.594   4.018  1.2945  0.5324 -0.7630
 1473TIP3    H2 4426   2.054   1.489   3.910 -1.0425 -0.9708  0.2881
 1474TIP3   OH2 4427   0.961   5.827   4.342  0.1902  0.2470  0.1720
 1474TIP3    H1 4428   0.974   5.919   4.321  1.7247  0.2001  0.7815
 1474TIP3    H2 4429   0.962   5.783   4.257  0.0716  0.7229 -0.0790
 1475TIP3   OH2 4430   5.266   1.069   0.313  0.1697 -0.0854  0.5730
 1475TIP3    H1 4431   5.219   0.996   0.273 -1.4400  1.7431 -1.1022
 1475TIP3    H2 4432   5.210   1.145   0.296  3.5668  2.2499 -1.3573
 1476TIP3   OH2 4433   3.121   0.848   0.709 -0.0651  0.2805 -0.0197
 1476TIP3    H1 4434   3.091   0.935   0.734 -0.3110  0.1935 -0.0074
 1476TIP3    H2 4435   3.185   0.824   0.777  3.4932  2.2944 -2.3557
 1477TIP3   OH2 4436   6.291   3.417   2.028 -0.3206 -0.1767 -0.1940
 1477TIP3    H1 4437   6.326   3.440   2.114 -0.0581  2.7472 -0.9940
 1477TIP3    H2 4438   6.215   3.474   2.017 -0.4022 -0.5598 -1.8767
 1478TIP3   OH2 4439   0.899   5.282   0.169  0.1541  0.1787  0.3029
 1478TIP3    H1 4440   0.949   5.332   0.234  0.5401 -1.8183  1.6493
 1478TIP3    H2 4441   0.939   5.195   0.170 -2.3026 -1.0482  0.2307
 1479TIP3   OH2 4442   4.598   1.559   2.872  0.1496 -0.3627 -0.4921
 1479TIP3    H1 4443   4.593   1.467   2.899  0.5219  0.2587  1.9381
 1479TIP3    H2 4444   4.509   1.581   2.844 -0.1698 -1.2045 -0.1693
 1480TIP3   OH2 4445   5.435   1.376   0.324 -0.0058  0.2408  0.6717
 1480TIP3    H1 4446   5.448   1.343   0.235 -1.3225 -0.7573  0.8142
 1480TIP3    H2 4447   5.435   1.297   0.379  0.3068  0.8036  1.4927
 1481TIP3   OH2 4448   0.781   0.360   1.666  0.3098 -0.2739  0.4740
 1481TIP3    H1 4449   0.806   0.342   1.575  3.0632 -0.6716  1.2091
 1481TIP3    H2 4450   0.776   0.455   1.671  1.7896 -0.1600  0.2372
 1482TIP3   OH2 4451   1.289   4.065   1.641  0.3870 -0.4972 -0.2174
 1482TIP3    H1 4452   1.199   4.038   1.656  0.4449 -0.7832 -0.3902
 1482TIP3    H2 4453   1.291   4.157   1.669  0.3451 -0.8338  0.9739
 1483TIP3   OH2 4454   5.257   0.291   3.190 -0.0509 -0.0918 -0.4275
 1483TIP3    H1 4455   5.313   0.345   3.134 -0.3983 -0.5965 -1.2664
 1483TIP3    H2 4456   5.284   0.201   3.172 -0.0799 -0.2566  0.3161
 1484TIP3   OH2 4457   3.576   0.863   3.981 -0.0437 -0.1683 -0.3381
 1484TIP3    H1 4458   3.537   0.949   3.967 -1.6885 -0.8656 -0.3319
 1484TIP3    H2 4459   3.665   0.880   4.010  0.2453  1.5049 -2.0297
 1485TIP3   OH2 4460   5.463   1.272   2.791 -0.0852 -0.3102 -0.9032
 1485TIP3    H1 4461   5.556   1.265   2.773 -0.3387  0.0656 -2.4975
 1485TIP3    H2 4462   5.445   1.366   2.794 -0.2528 -0.3647  0.3942
 1486TIP3   OH2 4463   0.570   4.994   4.499 -0.1844  0.4774 -0.1113
 1486TIP3    H1 4464   0.622   5.072   4.518 -0.6828  0.7473  0.1799
 1486TIP3    H2 4465   0.480   5.027   4.492 -0.3188  0.0180 -0.5830
 1487TIP3   OH2 4466   3.864   4.278   3.737 -0.3157 -0.0597 -0.2325
 1487TIP3    H1 4467   3.944   4.247   3.780 -0.0919  2.8669  1.8091
 1487TIP3    H2 4468   3.795   4.265   3.801 -0.9188  0.0553 -0.8467
 1488TIP3   OH2 4469   3.977   2.328   4.012 -0.7230 -0.2114 -0.2455
 1488TIP3    H1 4470   3.964   2.366   3.925  1.0545  0.4700 -0.2589
 1488TIP3    H2 4471   4.016   2.399   4.063 -1.2750 -0.7645  0.9629
 1489TIP3   OH2 4472   3.906   0.417   3.084 -0.0213  0.1240 -0.0272
 1489TIP3    H1 4473   3.820   0.455   3.099  0.2153  1.1059 -1.0375
 1489TIP3    H2 4474   3.962   0.491   3.062  0.4450 -0.7580 -2.0858
 1490TIP3   OH2 4475   2.583   5.789   0.066  0.1511 -0.1717  0.3804
 1490TIP3    H1 4476   2.653   5.854   0.057 -0.9235  0.9471 -0.3178
 1490TIP3    H2 4477   2.555   5.796   0.158  0.7743 -0.4450  0.5936
 1491TIP3   OH2 4478   1.809   4.788   3.386  0.3258 -0.1047 -0.2105
 1491TIP3    H1 4479   1.817   4.880   3.414 -0.5054 -0.4426  1.2435
 1491TIP3    H2 4480   1.731   4.787   3.330 -0.7511 -0.1966  1.2230
 1492TIP3   OH2 4481   2.220   1.153   3.800 -0.0334 -0.2060  0.1222
 1492TIP3    H1 4482   2.254   1.112   3.879  1.1419  0.5747  0.0362
 1492TIP3    H2 4483   2.279   1.124   3.730  0.3693  0.9963 -0.0620
 1493TIP3   OH2 4484   4.430   4.594   1.124 -0.3875  0.1348  0.0554
 1493TIP3    H1 4485   4.469   4.527   1.067  0.8981 -0.0193  1.0666
 1493TIP3    H2 4486   4.405   4.664   1.064  1.6752  0.3340 -0.6774
 1494TIP3   OH2 4487   6.313   3.714   1.183 -0.1322  0.5619  0.8389
 1494TIP3    H1 4488   6.266   3.742   1.104  0.6402 -0.9708 -0.2066
 1494TIP3    H2 4489   6.245   3.704   1.249 -1.0137  0.3933 -0.0719
 1495TIP3   OH2 4490   4.881   1.083   1.197  0.2582 -0.4780  0.2440
 1495TIP3    H1 4491   4.915   1.008   1.147  0.6828  0.0317 -0.2409
 1495TIP3    H2 4492   4.957   1.137   1.216  0.1789 -0.8921  1.8843
 1496TIP3   OH2 4493   3.576   5.808   0.358  0.0607  0.9794 -0.1783
 1496TIP3    H1 4494   3.492   5.848   0.380 -1.5663 -2.0721 -0.3277
 1496TIP3    H2 4495   3.607   5.769   0.440 -0.1460 -0.3365 -0.6926
 1497TIP3   OH2 4496   4.815   4.030   4.534  0.4026 -0.1043  0.4922
 1497TIP3    H1 4497   4.845   4.030   4.625  0.3209 -0.9994  0.5325
 1497TIP3    H2 4498   4.880   4.082   4.487 -1.7443  4.1309  1.7124
 1498TIP3   OH2 4499   5.533   4.938   1.209 -0.3770 -0.1732 -0.2389
 1498TIP3    H1 4500   5.492   5.025   1.210 -1.3710 -0.6223 -0.6265
 1498TIP3    H2 4501   5.569   4.930   1.120 -0.4385 -0.2352 -0.2576
 1499TIP3   OH2 4502   1.408   3.911   3.927 -0.1118 -0.1240  0.2703
 1499TIP3    H1 4503   1.467   3.882   3.856 -0.9415  1.1170 -0.9640
 1499TIP3    H2 4504   1.370   3.830   3.960 -0.0713 -0.7027 -1.0361
 1500TIP3   OH2 4505   3.569   2.123   0.115  0.0950  0.1319  0.1526
 1500TIP3    H1 4506   3.536   2.045   0.071 -2.9447 -0.3954  3.0119
 1500TIP3    H2 4507   3.651   2.094   0.156 -0.4852 -1.3355  0.3503
 1501TIP3   OH2 4508   2.046   4.466   1.765  0.0962 -0.1475 -0.1241
 1501TIP3    H1 4509   2.087   4.537   1.816 -1.1935  0.3829  0.2159
 1501TIP3    H2 4510   2.103   4.391   1.780  1.0250  0.5920  0.2176
 1502TIP3   OH2 4511   2.169   0.448   1.155  0.0258 -0.3414  0.0870
 1502TIP3    H1 4512   2.096   0.455   1.093  1.1015  2.2547 -1.0459
 1502TIP3    H2 4513   2.129   0.420   1.237 -2.1185  0.2762 -0.6894
 1503TIP3   OH2 4514   0.761   4.069   0.262 -0.2711  0.0843 -0.1486
 1503TIP3    H1 4515   0.770   3.981   0.299 -1.0292  0.3563  0.7354
 1503TIP3    H2 4516   0.703   4.115   0.324 -2.1796  0.3551 -2.0284
 1504TIP3   OH2 4517   4.079   2.725   2.433 -0.0004 -0.4039 -0.4187
 1504TIP3    H1 4518   3.985   2.723   2.413 -0.2027  2.5579 -0.1472
 1504TIP3    H2 4519   4.085   2.768   2.518  1.5444 -2.2319  0.4658
 1505TIP3   OH2 4520   3.804   3.753   1.730 -0.1789 -0.4354  0.1013
 1505TIP3    H1 4521   3.897   3.777   1.724  0.3239 -2.4566 -1.2151
 1505TIP3    H2 4522   3.772   3.758   1.640 -0.8906 -1.3898  0.2831
 1506TIP3   OH2 4523   2.799   5.260   5.084 -0.5442  0.2494 -0.3865
 1506TIP3    H1 4524   2.769   5.198   5.151  1.2828 -0.1248  0.1273
 1506TIP3    H2 4525   2.762   5.227   5.002 -2.9105  0.7772  0.3909
 1507TIP3   OH2 4526   3.586   1.521   0.552  0.1931 -0.0173 -0.1144
 1507TIP3    H1 4527   3.491   1.512   0.563  0.0071  1.5087 -0.2722
 1507TIP3    H2 4528   3.621   1.436   0.579 -1.2988 -1.0432 -1.2148
 1508TIP3   OH2 4529   3.022   3.025   2.836  0.1985 -0.0102 -0.6208
 1508TIP3    H1 4530   3.031   3.053   2.928  0.6807  1.7954 -1.1674
 1508TIP3    H2 4531   3.066   3.094   2.786 -0.5196 -0.6914 -2.2507
 1509TIP3   OH2 4532   3.608   4.924   4.364 -0.0761 -0.6586 -0.3869
 1509TIP3    H1 4533   3.662   4.854   4.329 -1.9453 -1.3706 -2.0191
 1509TIP3    H2 4534   3.529   4.923   4.310  0.3225  3.5610 -1.3110
 1510TIP3   OH2 4535   1.837   0.472   1.565 -0.1295  0.7949 -0.4070
 1510TIP3    H1 4536   1.770   0.427   1.514 -1.5951  1.3295  0.9457
 1510TIP3    H2 4537   1.865   0.408   1.630  0.7569  0.5486 -1.0172
 1511TIP3   OH2 4538   1.737   2.392   1.189 -0.9431  0.0085 -0.1551
 1511TIP3    H1 4539   1.684   2.336   1.244 -0.6675  0.9389  1.1146
 1511TIP3    H2 4540   1.811   2.418   1.245 -0.8274  1.2534 -0.8408
 1512TIP3   OH2 4541   2.090   1.056   0.621 -0.0846  0.0866 -0.0067
 1512TIP3    H1 4542   2.133   1.037   0.537  2.9546  0.8893  1.2459
 1512TIP3    H2 4543   2.039   0.977   0.640 -0.2191 -0.4239 -2.1899
 1513TIP3   OH2 4544   1.584   3.540   4.988 -0.1676 -0.0498 -0.3490
 1513TIP3    H1 4545   1.639   3.618   4.995 -0.3555 -0.0741  2.5030
 1513TIP3    H2 4546   1.634   3.470   5.030 -0.5943 -1.1585 -1.6022
 1514TIP3   OH2 4547   4.824   2.736   2.643  0.1540 -0.2500  0.0583
 1514TIP3    H1 4548   4.750   2.749   2.584  1.0611  0.0206 -1.0724
 1514TIP3    H2 4549   4.843   2.824   2.677  0.9935 -0.0099 -0.9793
 1515TIP3   OH2 4550   3.817   5.054   3.238 -0.1795  0.4926 -0.5296
 1515TIP3    H1 4551   3.892   5.049   3.178  0.7057 -0.4220  0.6181
 1515TIP3    H2 4552   3.744   5.019   3.187  0.3178  0.7092 -1.4227
 1516TIP3   OH2 4553   5.086   3.860   1.501  0.2543 -0.6755  0.0001
 1516TIP3    H1 4554   5.029   3.900   1.567  1.2398 -0.3627  0.6886
 1516TIP3    H2 4555   5.152   3.927   1.483  0.8867 -1.3388 -0.1705
 1517TIP3   OH2 4556   1.534   0.203   4.823  0.1226 -0.1765 -0.2013
 1517TIP3    H1 4557   1.490   0.164   4.747  0.4715 -0.3916 -0.2985
 1517TIP3    H2 4558   1.524   0.137   4.892  0.7368 -0.4596 -0.3739
 1518TIP3   OH2 4559   5.956   5.262   1.033 -0.0717 -0.4230  0.1339
 1518TIP3    H1 4560   5.863   5.284   1.026 -0.2135 -1.3640 -1.1973
 1518TIP3    H2 4561   6.001   5.347   1.038 -1.0186  0.0374  1.4116
 1519TIP3   OH2 4562   6.211   1.598   2.668 -0.2186 -0.6347  0.1690
 1519TIP3    H1 4563   6.303   1.618   2.681 -0.1171 -1.0443  0.0727
 1519TIP3    H2 4564   6.181   1.665   2.607 -0.0133 -0.4339  0.2865
 1520TIP3   OH2 4565   5.045   5.078   4.725 -0.2309  0.4782 -0.3731
 1520TIP3    H1 4566   5.089   5.148   4.676 -3.2933  1.8187 -1.4346
 1520TIP3    H2 4567   4.998   5.028   4.658 -2.2509  0.6273  0.8541
 1521TIP3   OH2 4568   1.361   4.802   2.264 -0.3551  0.4412 -0.1866
 1521TIP3    H1 4569   1.434   4.853   2.298  0.1226  0.0151 -0.5700
 1521TIP3    H2 4570   1.314   4.773   2.343  1.1653 -1.1664  0.1969
 1522TIP3   OH2 4571   1.751   2.986   2.814 -0.4060  0.4456  0.2309
 1522TIP3    H1 4572   1.732   2.982   2.720 -0.0340 -0.4306  0.1835
 1522TIP3    H2 4573   1.679   2.938   2.855  0.7173 -1.3923  0.1783
 1523TIP3   OH2 4574   3.594   4.159   3.651  0.7577 -0.0003 -0.4009
 1523TIP3    H1 4575   3.591   4.254   3.643  1.5336 -0.0283 -1.1440
 1523TIP3    H2 4576   3.592   4.128   3.560  1.3920 -0.6597 -0.1946
 1524TIP3   OH2 4577   5.708   0.721   4.045  0.3625 -0.8555 -0.1995
 1524TIP3    H1 4578   5.644   0.770   4.097  1.5035  0.6030 -0.1061
 1524TIP3    H2 4579   5.743   0.785   3.983  2.2359 -1.4177  0.2240
 1525TIP3   OH2 4580   3.653   2.137   2.080 -0.5186  0.0979  0.5733
 1525TIP3    H1 4581   3.569   2.181   2.067  0.1408  1.0422 -0.7868
 1525TIP3    H2 4582   3.638   2.047   2.051 -1.2441  0.0560  1.0504
 1526TIP3   OH2 4583   3.092   4.103   0.735  0.6738 -0.6562  0.2706
 1526TIP3    H1 4584   3.014   4.056   0.707  0.6497  0.2801 -1.3928
 1526TIP3    H2 4585   3.059   4.183   0.777  0.7158 -0.3202 -0.3214
 1527TIP3   OH2 4586   5.585   3.066   4.505  0.0450 -0.4819 -0.2757
 1527TIP3    H1 4587   5.555   3.069   4.414 -0.6755  2.2811 -0.0218
 1527TIP3    H2 4588   5.621   2.978   4.515  1.2999 -0.4916 -3.5868
 1528TIP3   OH2 4589   1.316   4.112   2.977  0.0497 -0.1834  0.4128
 1528TIP3    H1 4590   1.300   4.155   2.893  1.0606  3.2418  1.7821
 1528TIP3    H2 4591   1.369   4.036   2.955  0.5025  0.7434 -2.0523
 1529TIP3   OH2 4592   3.074   4.561   0.833  0.0408 -0.0632 -0.1339
 1529TIP3    H1 4593   3.105   4.582   0.745  0.2942 -1.2058 -0.3340
 1529TIP3    H2 4594   3.131   4.490   0.863 -0.3830 -0.0534  0.7417
 1530TIP3   OH2 4595   3.308   0.785   2.967  0.2239 -0.0623  0.0679
 1530TIP3    H1 4596   3.257   0.855   2.927 -2.5568 -1.6168  0.6489
 1530TIP3    H2 4597   3.287   0.707   2.915  0.2556 -1.1915  1.6883
 1531TIP3   OH2 4598   3.012   1.140   1.739  0.1031 -0.3859  0.3033
 1531TIP3    H1 4599   2.973   1.179   1.817  0.7019 -1.7482  1.3388
 1531TIP3    H2 4600   3.023   1.212   1.678 -1.7655  0.4470  0.9012
 1532TIP3   OH2 4601   0.412   0.805   2.321  0.2471  0.1372  0.6703
 1532TIP3    H1 4602   0.403   0.720   2.278 -0.0219  0.1879  0.6243
 1532TIP3    H2 4603   0.504   0.809   2.347  0.6005  0.4297 -0.5873
 1533TIP3   OH2 4604   1.591   0.227   3.401 -0.1381  0.0662 -0.2744
 1533TIP3    H1 4605   1.620   0.153   3.455  1.5755  0.8135 -0.1155
 1533TIP3    H2 4606   1.669   0.281   3.389 -1.6483  2.6682  0.8438
 1534TIP3   OH2 4607   4.514   2.259   2.735  0.5255  0.9850  0.5750
 1534TIP3    H1 4608   4.583   2.325   2.734  2.1552 -0.6400 -0.2247
 1534TIP3    H2 4609   4.539   2.199   2.806  2.1054 -1.6512 -1.9862
 1535TIP3   OH2 4610   4.351   0.747   1.098 -0.5804 -0.1445  0.4636
 1535TIP3    H1 4611   4.444   0.754   1.122 -0.6988 -1.2873  1.3814
 1535TIP3    H2 4612   4.309   0.820   1.143 -0.1694  0.2035  0.2914
 1536TIP3   OH2 4613   0.137   0.545   4.845 -0.0791  0.1890 -0.0952
 1536TIP3    H1 4614   0.183   0.621   4.880  1.9177 -0.1168 -1.8577
 1536TIP3    H2 4615   0.124   0.565   4.752 -2.6256 -0.2239  0.0960
 1537TIP3   OH2 4616   3.898   4.055   0.474  0.7519 -0.5891 -0.0488
 1537TIP3    H1 4617   3.811   4.042   0.437  1.0500 -1.1447 -0.5629
 1537TIP3    H2 4618   3.900   4.148   0.499  0.7956  0.0144 -2.1069
 1538TIP3   OH2 4619   4.847   5.633   2.290 -0.0396 -0.2838 -0.3497
 1538TIP3    H1 4620   4.874   5.639   2.198 -0.5931  1.5443 -0.4430
 1538TIP3    H2 4621   4.766   5.684   2.294 -0.6775 -1.3609  0.9272
 1539TIP3   OH2 4622   2.582   0.952   5.119 -0.3822  0.0847 -0.1529
 1539TIP3    H1 4623   2.651   0.951   5.185 -0.0082 -1.3876 -0.5281
 1539TIP3    H2 4624   2.539   1.037   5.130  1.3354  0.9432  0.2358
 1540TIP3   OH2 4625   5.614   2.742   2.280  0.2885  0.2425  0.4844
 1540TIP3    H1 4626   5.602   2.652   2.250 -1.0863  0.7161 -0.4546
 1540TIP3    H2 4627   5.555   2.751   2.355  0.8855  0.1993  0.9733
 1541TIP3   OH2 4628   6.047   5.684   2.955  0.1894 -0.1799  0.4887
 1541TIP3    H1 4629   6.112   5.735   3.004  0.1275  0.0881  0.2975
 1541TIP3    H2 4630   6.098   5.626   2.899  0.2723  0.3348  0.0225
 1542TIP3   OH2 4631   6.017   2.051   4.009 -0.2669 -0.5856 -0.0420
 1542TIP3    H1 4632   5.926   2.048   3.979 -0.4465 -0.6057  0.4881
 1542TIP3    H2 4633   6.010   2.067   4.103  0.3391  1.6444 -0.3430
 1543TIP3   OH2 4634   2.182   5.702   2.457 -0.2517  0.0683 -0.1312
 1543TIP3    H1 4635   2.107   5.754   2.487 -0.8058 -0.2604 -0.9018
 1543TIP3    H2 4636   2.185   5.716   2.362  1.7890  1.5179  0.0909
 1544TIP3   OH2 4637   5.707   5.764   0.844 -0.2564 -0.1621 -0.3297
 1544TIP3    H1 4638   5.664   5.758   0.929 -0.3673  0.5922 -0.3217
 1544TIP3    H2 4639   5.784   5.818   0.860  0.1069 -0.6037 -0.5687
 1545TIP3   OH2 4640   1.658   0.272   2.805  0.4472  0.2356  0.4822
 1545TIP3    H1 4641   1.752   0.279   2.824  0.6977  0.1944 -0.6922
 1545TIP3    H2 4642   1.630   0.193   2.852  1.1473 -0.1222  0.3099
 1546TIP3   OH2 4643   5.530   5.288   4.920  0.2265  0.3382  0.3311
 1546TIP3    H1 4644   5.593   5.329   4.978  0.8893  0.7974 -0.6867
 1546TIP3    H2 4645   5.447   5.332   4.938  1.0525  2.6977 -1.2320
 1547TIP3   OH2 4646   1.553   2.881   4.486  0.3292  0.1034  0.2921
 1547TIP3    H1 4647   1.642   2.910   4.506  1.1069 -1.6752 -0.3868
 1547TIP3    H2 4648   1.531   2.820   4.556 -1.2274  2.0609  1.6263
 1548TIP3   OH2 4649   5.869   0.148   3.979 -0.1546 -0.0943 -0.0373
 1548TIP3    H1 4650   5.806   0.197   3.926 -1.3627 -1.0491  0.4861
 1548TIP3    H2 4651   5.880   0.201   4.058 -0.5926 -0.1119  0.0364
 1549TIP3   OH2 4652   2.277   2.803   3.779  0.1778  0.1569  0.3407
 1549TIP3    H1 4653   2.186   2.773   3.771 -0.3101  1.6560 -0.1595
 1549TIP3    H2 4654   2.315   2.788   3.693  0.5280 -0.7918  0.6489
 1550TIP3   OH2 4655   4.594   1.270   3.003 -0.5763  0.2538  0.0363
 1550TIP3    H1 4656   4.570   1.204   2.937  0.8731  0.5960 -0.8744
 1550TIP3    H2 4657   4.682   1.245   3.032 -0.3248  1.3292  0.2587
 1551TIP3   OH2 4658   5.627   5.006   4.583 -0.0595  0.1477 -0.4500
 1551TIP3    H1 4659   5.557   5.015   4.647 -0.0016 -0.8096 -0.2298
 1551TIP3    H2 4660   5.703   5.049   4.624  0.1181 -0.8928  0.3777
 1552TIP3   OH2 4661   4.133   2.968   0.757  0.2065  0.1911 -0.7300
 1552TIP3    H1 4662   4.191   2.924   0.819  0.9218  2.1029  0.0546
 1552TIP3    H2 4663   4.105   3.047   0.804 -2.5635 -0.3369 -1.3116
 1553TIP3   OH2 4664   5.831   0.835   3.101  0.2758  0.5082  0.7617
 1553TIP3    H1 4665   5.846   0.855   3.008 -1.5434  0.3137  0.3869
 1553TIP3    H2 4666   5.795   0.916   3.137  0.4297  0.3963  1.1723
 1554TIP3   OH2 4667   2.659   5.788   2.485  0.2738  0.1782 -0.1698
 1554TIP3    H1 4668   2.751   5.782   2.460  0.0500  1.8152 -1.5317
 1554TIP3    H2 4669   2.658   5.847   2.560  0.2247  1.1035 -0.8931
 1555TIP3   OH2 4670   4.192   5.200   4.727 -0.0271 -0.1930 -0.2488
 1555TIP3    H1 4671   4.145   5.131   4.681  0.0184 -0.5992  0.3075
 1555TIP3    H2 4672   4.225   5.257   4.658 -0.7209 -0.2981 -0.6783
 1556TIP3   OH2 4673   3.333   0.844   1.526  0.3566  0.0402  0.0574
 1556TIP3    H1 4674   3.384   0.780   1.575  0.7179 -0.0371 -0.4115
 1556TIP3    H2 4675   3.244   0.809   1.525  0.4682 -0.2491  0.1605
 1557TIP3   OH2 4676   4.591   2.214   3.005  0.0699 -0.5374 -0.5631
 1557TIP3    H1 4677   4.661   2.155   3.033 -0.5661 -1.3339 -0.5919
 1557TIP3    H2 4678   4.563   2.258   3.086  0.9225  0.1505 -0.6337
 1558TIP3   OH2 4679   6.049   3.519   1.946  0.1888 -0.8934 -0.0891
 1558TIP3    H1 4680   6.006   3.433   1.945 -0.8082 -0.4172  0.5207
 1558TIP3    H2 4681   5.980   3.581   1.924  1.3161 -0.3742 -2.4546
 1559TIP3   OH2 4682   0.671   5.702   0.364 -0.4067 -0.0976  0.9655
 1559TIP3    H1 4683   0.684   5.607   0.356  2.0970  0.1687  1.1095
 1559TIP3    H2 4684   0.682   5.735   0.275 -0.3633  0.1427  1.0605
 1560TIP3   OH2 4685   6.031   4.659   0.528 -0.3059  0.0280  0.1790
 1560TIP3    H1 4686   6.086   4.583   0.507 -0.7350 -0.7466  1.6783
 1560TIP3    H2 4687   5.953   4.622   0.568 -0.8239  1.2399  0.3388
 1561TIP3   OH2 4688   2.700   4.504   1.573  0.0349 -0.2915  0.2731
 1561TIP3    H1 4689   2.725   4.433   1.632 -0.6875 -0.3580  0.5117
 1561TIP3    H2 4690   2.708   4.466   1.485  0.3790 -0.4312  0.3649
 1562TIP3   OH2 4691   4.923   1.960   0.343 -0.4173 -0.1711  0.3086
 1562TIP3    H1 4692   5.005   1.926   0.378 -0.7605 -0.8125  0.5156
 1562TIP3    H2 4693   4.893   1.892   0.283 -0.5558  0.2773 -0.1401
 1563TIP3   OH2 4694   4.416   1.586   4.780  0.1395  0.2076 -0.1784
 1563TIP3    H1 4695   4.446   1.670   4.815 -0.2376 -0.6542  2.4682
 1563TIP3    H2 4696   4.336   1.607   4.733 -0.4904  1.2388  1.2825
 1564TIP3   OH2 4697   5.662   1.270   0.647 -0.2945  0.2516 -0.6458
 1564TIP3    H1 4698   5.606   1.347   0.650 -0.8861 -0.1853 -0.1969
 1564TIP3    H2 4699   5.745   1.301   0.610 -1.3452  0.5921 -2.8735
 1565TIP3   OH2 4700   0.923   1.829   3.764  0.5533  0.0993  0.4800
 1565TIP3    H1 4701   0.890   1.741   3.746  1.2960 -0.1003  0.0447
 1565TIP3    H2 4702   1.001   1.837   3.709  2.3511 -0.1299  2.8525
 1566TIP3   OH2 4703   5.757   2.177   5.152  0.0349  0.4403  0.0149
 1566TIP3    H1 4704   5.693   2.169   5.082  0.6917  0.9828 -0.6523
 1566TIP3    H2 4705   5.803   2.092   5.152  0.0777  0.4619 -0.2575
 1567TIP3   OH2 4706   2.981   2.866   0.225  0.1598 -1.2321 -0.1152
 1567TIP3    H1 4707   2.889   2.892   0.214 -0.6466 -3.0799  1.6534
 1567TIP3    H2 4708   3.011   2.916   0.301  0.8428 -0.2298 -1.0054
 1568TIP3   OH2 4709   3.422   0.799   0.245  0.0690  0.0625 -0.1565
 1568TIP3    H1 4710   3.457   0.719   0.285 -0.9282 -0.6771 -0.6970
 1568TIP3    H2 4711   3.367   0.838   0.312  0.5457  0.2913  0.1041
 1569TIP3   OH2 4712   1.174   5.929   3.263  0.5778 -0.2311  0.5528
 1569TIP3    H1 4713   1.128   6.010   3.285  0.5642  0.1806 -0.8680
 1569TIP3    H2 4714   1.154   5.915   3.170  1.4441 -1.3007  0.5075
 1570TIP3   OH2 4715   2.078   5.991   4.787 -0.1931  0.1420  0.1819
 1570TIP3    H1 4716   2.110   5.902   4.775 -1.7049 -0.3213 -0.6013
 1570TIP3    H2 4717   2.018   5.986   4.861 -1.9958  0.0030 -1.2223
 1571TIP3   OH2 4718   2.261   0.902   1.279 -0.8387 -0.1870 -0.5892
 1571TIP3    H1 4719   2.274   0.833   1.344 -1.9294 -0.1440 -0.2906
 1571TIP3    H2 4720   2.336   0.960   1.290 -0.3119 -0.9062 -0.3038
 1572TIP3   OH2 4721   2.172   3.259   3.257  0.3288 -0.7069 -0.1333
 1572TIP3    H1 4722   2.261   3.289   3.240  0.5984  0.4234  2.7698
 1572TIP3    H2 4723   2.173   3.166   3.236  2.0455 -0.6174 -0.5479
 1573TIP3   OH2 4724   5.085   0.351   1.095  0.4665  0.9234 -0.1865
 1573TIP3    H1 4725   5.104   0.439   1.128 -0.3247  1.1699 -0.3737
 1573TIP3    H2 4726   4.990   0.349   1.084  0.2458 -0.5508  1.4917
 1574TIP3   OH2 4727   4.398   5.380   0.620  0.3053 -0.4806 -0.1483
 1574TIP3    H1 4728   4.440   5.351   0.539 -0.1182  0.8071 -0.8653
 1574TIP3    H2 4729   4.312   5.412   0.592 -0.0606 -0.5221  0.8975
 1575TIP3   OH2 4730   3.403   0.876   2.385 -0.0541 -0.3082  0.1137
 1575TIP3    H1 4731   3.438   0.829   2.310  0.6532 -0.0308  0.2638
 1575TIP3    H2 4732   3.315   0.902   2.358  0.7328  1.1376 -1.2453
 1576TIP3   OH2 4733   1.589   1.687   4.506  0.1076 -0.2305  0.2251
 1576TIP3    H1 4734   1.658   1.678   4.572 -0.7770  1.3325  1.4544
 1576TIP3    H2 4735   1.635   1.692   4.423  1.1911 -3.7781  0.4889
 1577TIP3   OH2 4736   1.915   1.378   1.527 -0.4429  0.2194  0.3258
 1577TIP3    H1 4737   1.886   1.322   1.599  0.1535  0.4407  0.7535
 1577TIP3    H2 4738   2.008   1.392   1.545 -0.3490  0.4869 -0.3547
 1578TIP3   OH2 4739   3.110   3.625   2.358  0.5069  0.9053 -0.1628
 1578TIP3    H1 4740   3.174   3.591   2.421  0.8003  2.0305  0.1706
 1578TIP3    H2 4741   3.083   3.709   2.395 -1.8311  0.0851  0.1471
 1579TIP3   OH2 4742   6.174   3.749   2.133  0.1060  0.1331  0.3385
 1579TIP3    H1 4743   6.134   3.695   2.201 -0.7406  0.2850 -0.0327
 1579TIP3    H2 4744   6.102   3.800   2.096  0.7999  1.1226  0.3105
 1580TIP3   OH2 4745   3.624   5.946   2.126  0.2377 -0.3262 -0.5817
 1580TIP3    H1 4746   3.532   5.969   2.140  0.6750  0.9209  0.4548
 1580TIP3    H2 4747   3.635   5.861   2.168 -0.3012 -0.1882 -0.1554
 1581TIP3   OH2 4748   5.246   2.991   0.628 -0.5520  0.5206  0.2206
 1581TIP3    H1 4749   5.306   2.960   0.561 -0.2050  2.4102 -0.4064
 1581TIP3    H2 4750   5.170   2.934   0.622  0.2404 -0.4735 -0.5215
 1582TIP3   OH2 4751   1.841   1.191   4.155 -0.1432  0.1027  0.0008
 1582TIP3    H1 4752   1.855   1.109   4.204  0.1093 -0.4432 -0.9666
 1582TIP3    H2 4753   1.831   1.258   4.223  1.9478 -0.3427  0.8076
 1583TIP3   OH2 4754   6.265   0.381   2.727 -0.2424  0.0839 -0.0192
 1583TIP3    H1 4755   6.197   0.378   2.795 -0.6763  3.1548 -0.1565
 1583TIP3    H2 4756   6.218   0.360   2.646 -0.6604  0.5300  0.1045
 1584TIP3   OH2 4757   4.218   2.355   1.316 -0.1108  0.1708 -0.3961
 1584TIP3    H1 4758   4.278   2.327   1.246 -1.1308  0.1837 -1.3055
 1584TIP3    H2 4759   4.132   2.325   1.286 -0.4317 -0.8226  1.4007
 1585TIP3   OH2 4760   1.404   0.436   3.448  0.3795 -0.3559 -0.0469
 1585TIP3    H1 4761   1.442   0.518   3.479  0.2378 -0.8969  1.6585
 1585TIP3    H2 4762   1.477   0.374   3.448  0.5315 -0.2223 -1.5217
 1586TIP3   OH2 4763   2.049   1.763   0.190 -0.2162  0.1309 -0.1481
 1586TIP3    H1 4764   2.025   1.807   0.109 -0.5937  1.4794  0.6605
 1586TIP3    H2 4765   2.119   1.817   0.227  0.6053 -0.9853 -0.0213
 1587TIP3   OH2 4766   2.399   2.594   0.207 -0.4234 -0.6587  0.2219
 1587TIP3    H1 4767   2.373   2.609   0.116 -1.0745 -0.4413  0.4364
 1587TIP3    H2 4768   2.486   2.555   0.202 -0.0735  0.1928 -0.4687
 1588TIP3   OH2 4769   0.765   5.693   0.084 -0.5106 -0.7598  0.1071
 1588TIP3    H1 4770   0.852   5.731   0.097 -0.9452  0.0232  0.8269
 1588TIP3    H2 4771   0.724   5.750   0.019 -0.7591 -0.6780  0.3376
 1589TIP3   OH2 4772   3.457   0.480   1.780  0.1206 -0.0537  0.4055
 1589TIP3    H1 4773   3.375   0.494   1.733  0.7150  1.2716 -0.3101
 1589TIP3    H2 4774   3.508   0.559   1.762  2.4926 -1.8020 -1.0818
 1590TIP3   OH2 4775   5.687   4.306   4.695 -0.0058  0.5082 -0.2599
 1590TIP3    H1 4776   5.660   4.217   4.674 -0.0329  0.7928 -1.5201
 1590TIP3    H2 4777   5.621   4.362   4.654  0.8773  1.1351 -0.8599
 1591TIP3   OH2 4778   1.186   5.128   4.586  0.4562  0.1032 -0.2390
 1591TIP3    H1 4779   1.212   5.115   4.677  0.4680  1.2736 -0.0579
 1591TIP3    H2 4780   1.095   5.097   4.582  0.4104  0.1768  0.2059
 1592TIP3   OH2 4781   3.178   4.335   1.004  0.3218  0.0698 -0.1480
 1592TIP3    H1 4782   3.184   4.245   1.038  1.9825 -0.3783 -1.4678
 1592TIP3    H2 4783   3.221   4.389   1.069  0.3039 -0.2559  0.1336
 1593TIP3   OH2 4784   3.277   5.492   2.085 -0.6651  0.4967 -0.5840
 1593TIP3    H1 4785   3.207   5.428   2.099 -0.0858 -0.1231 -0.4987
 1593TIP3    H2 4786   3.348   5.463   2.142  0.3354  0.0874 -1.9995
 1594TIP3   OH2 4787   5.005   5.570   1.135 -0.0930  0.2577 -0.0424
 1594TIP3    H1 4788   5.082   5.627   1.130 -0.7688  1.1504 -0.7375
 1594TIP3    H2 4789   5.016   5.509   1.061  0.2564 -0.0290  0.2436
 1595TIP3   OH2 4790   4.405   5.558   1.848 -0.4801  0.3370 -0.4803
 1595TIP3    H1 4791   4.440   5.477   1.810  0.6082 -0.5752  2.2125
 1595TIP3    H2 4792   4.344   5.528   1.915 -0.4289  1.7416  0.2318
 1596TIP3   OH2 4793   0.213   3.247   3.040  0.0950 -0.2727 -0.4941
 1596TIP3    H1 4794   0.160   3.178   3.000 -0.0140  0.8953 -2.4433
 1596TIP3    H2 4795   0.200   3.235   3.134 -0.4478 -2.4750 -0.7917
 1597TIP3   OH2 4796   3.569   5.681   4.916 -0.2583  0.4046  0.2348
 1597TIP3    H1 4797   3.658   5.647   4.911 -0.2103  0.3391  1.2091
 1597TIP3    H2 4798   3.514   5.603   4.924 -0.5098  0.3941 -1.3791
 1598TIP3   OH2 4799   3.358   3.787   0.962 -0.2515  0.7367  0.2345
 1598TIP3    H1 4800   3.359   3.870   0.914  0.0723  0.4720 -0.2305
 1598TIP3    H2 4801   3.427   3.735   0.920 -0.7796  0.0570  0.1958
 1599TIP3   OH2 4802   0.615   0.851   0.036  0.3436  0.0442 -0.2291
 1599TIP3    H1 4803   0.660   0.790   0.093 -1.5971  1.4314  3.0646
 1599TIP3    H2 4804   0.662   0.934   0.046  0.2768  0.2067 -1.1091
 1600TIP3   OH2 4805   5.068   4.981   3.630  0.4481  0.4973 -0.0222
 1600TIP3    H1 4806   5.102   4.894   3.609 -1.3575 -0.2670  0.0296
 1600TIP3    H2 4807   5.022   4.969   3.713 -1.3733  1.0649 -0.9063
 1601TIP3   OH2 4808   2.807   2.400   2.899  0.1577  0.0280  0.6094
 1601TIP3    H1 4809   2.873   2.331   2.887 -0.3904 -0.5235  0.7158
 1601TIP3    H2 4810   2.853   2.481   2.876  0.8426 -0.3587  0.5821
 1602TIP3   OH2 4811   1.973   4.261   2.644 -0.5155 -0.1774 -0.5540
 1602TIP3    H1 4812   1.917   4.230   2.716 -0.1652 -1.5058 -0.8145
 1602TIP3    H2 4813   2.038   4.191   2.633  0.4632  0.7936 -1.0534
 1603TIP3   OH2 4814   0.863   3.817   0.670 -0.5556  0.4885 -0.2124
 1603TIP3    H1 4815   0.775   3.815   0.708 -1.5299  0.7859 -2.3147
 1603TIP3    H2 4816   0.908   3.743   0.711 -1.2102  1.2618  2.1077
 1604TIP3   OH2 4817   5.959   1.919   2.460  0.1670  0.0891  0.2067
 1604TIP3    H1 4818   6.000   2.005   2.452  1.1330 -0.3805 -0.1603
 1604TIP3    H2 4819   5.969   1.896   2.553  0.1322  0.2675  0.2541
 1605TIP3   OH2 4820   2.411   4.087   0.596  0.3445  0.1722 -0.5922
 1605TIP3    H1 4821   2.427   3.994   0.614 -2.0634  0.1176  1.8968
 1605TIP3    H2 4822   2.455   4.133   0.668 -0.8468  0.7362 -0.2052
 1606TIP3   OH2 4823   4.782   4.656   1.089 -0.3585  0.0798 -0.1592
 1606TIP3    H1 4824   4.727   4.723   1.048 -1.0607  0.5520  1.4770
 1606TIP3    H2 4825   4.862   4.704   1.113 -1.0928  0.5504  1.5451
 1607TIP3   OH2 4826   5.539   0.015   0.457  0.1050  0.2867 -0.9798
 1607TIP3    H1 4827   5.453   0.057   0.456  0.3657  1.0192  1.5183
 1607TIP3    H2 4828   5.585   0.054   0.532  2.5349 -0.2837 -2.0676
 1608TIP3   OH2 4829   1.761   1.748   1.176 -0.3777  0.2964 -0.0569
 1608TIP3    H1 4830   1.752   1.843   1.171  2.0692  0.5621 -0.9381
 1608TIP3    H2 4831   1.811   1.733   1.256  0.6574 -0.0652 -0.7475
 1609TIP3   OH2 4832   1.240   3.933   3.280 -0.1427 -0.1485 -0.8586
 1609TIP3    H1 4833   1.306   3.935   3.211 -1.6617 -0.7475 -2.3992
 1609TIP3    H2 4834   1.220   3.840   3.292  0.5542 -0.1225  0.9196
 1610TIP3   OH2 4835   0.759   5.212   4.007 -0.2265 -1.0238 -0.3139
 1610TIP3    H1 4836   0.739   5.118   4.014 -0.8748 -1.0977 -2.3696
 1610TIP3    H2 4837   0.673   5.254   4.014  0.0202 -0.6001  0.2005
 1611TIP3   OH2 4838   4.024   4.224   4.138 -0.4717  0.4636  0.0733
 1611TIP3    H1 4839   4.039   4.279   4.061 -2.4990  1.6908  0.4859
 1611TIP3    H2 4840   4.033   4.284   4.213 -3.1369  0.4268  0.5151
 1612TIP3   OH2 4841   4.674   0.282   2.652 -0.0109 -0.4797  0.3316
 1612TIP3    H1 4842   4.704   0.266   2.742 -0.9618 -0.2512  0.7034
 1612TIP3    H2 4843   4.596   0.337   2.662  0.0869 -0.1360 -0.6582
 1613TIP3   OH2 4844   4.987   5.172   4.973  0.2781 -0.0073 -0.2327
 1613TIP3    H1 4845   5.015   5.129   4.892 -0.3987 -1.7772  0.4332
 1613TIP3    H2 4846   5.028   5.122   5.043 -0.5171  0.4466  0.5855
 1614TIP3   OH2 4847   6.195   4.933   0.344 -0.2042  0.3397 -0.3477
 1614TIP3    H1 4848   6.282   4.971   0.358 -0.1232 -0.3662  1.3396
 1614TIP3    H2 4849   6.156   4.932   0.432 -0.8808 -1.8181 -0.6312
 1615TIP3   OH2 4850   0.037   0.664   0.494 -0.0284 -0.3139 -0.5472
 1615TIP3    H1 4851  -0.052   0.681   0.523 -0.1754 -0.7357 -0.7424
 1615TIP3    H2 4852   0.052   0.571   0.513  1.0881  0.2001  1.3725
 1616TIP3   OH2 4853   5.786   1.401   1.828 -0.6489 -0.3643 -0.1452
 1616TIP3    H1 4854   5.855   1.357   1.878 -0.0206  0.3502 -0.3687
 1616TIP3    H2 4855   5.761   1.475   1.883  0.3509  0.6772 -1.0537
 1617TIP3   OH2 4856   6.246   4.069   2.715 -0.0804 -0.1881 -0.7748
 1617TIP3    H1 4857   6.243   4.157   2.676 -2.4342  0.1163 -0.0741
 1617TIP3    H2 4858   6.333   4.064   2.756 -0.8948  3.1317  1.8685
 1618TIP3   OH2 4859   4.808   0.739   3.956  0.6716 -0.2526  0.0620
 1618TIP3    H1 4860   4.813   0.827   3.917  2.6385 -0.7601 -0.9755
 1618TIP3    H2 4861   4.791   0.754   4.049 -2.3338  1.0756 -0.5797
 1619TIP3   OH2 4862   3.697   3.028   4.133 -0.5837 -0.0464  0.1299
 1619TIP3    H1 4863   3.613   3.023   4.179 -0.5220 -0.8407  0.1642
 1619TIP3    H2 4864   3.714   2.938   4.105 -0.7977  0.4649 -1.7767
 1620TIP3   OH2 4865   1.972   2.761   2.457 -0.2822  0.6731  0.1102
 1620TIP3    H1 4866   1.942   2.851   2.443 -0.0194  0.5706 -1.2733
 1620TIP3    H2 4867   2.027   2.766   2.536  1.7355  2.2366 -1.2862
 1621TIP3   OH2 4868   0.242   5.806   0.948 -0.0491  0.1047 -0.0643
 1621TIP3    H1 4869   0.153   5.803   0.982 -0.1904 -0.9482 -0.4752
 1621TIP3    H2 4870   0.232   5.787   0.855  0.6633 -0.8954  0.0424
 1622TIP3   OH2 4871   5.448   2.315   4.243  0.0220  0.2175  0.5592
 1622TIP3    H1 4872   5.492   2.339   4.160 -0.0374 -2.5095 -0.3470
 1622TIP3    H2 4873   5.376   2.258   4.216 -0.9546  0.5113  2.4290
 1623TIP3   OH2 4874   1.298   3.601   1.090 -0.0754 -0.2025 -0.1554
 1623TIP3    H1 4875   1.271   3.692   1.081 -0.6643 -0.1634  1.6563
 1623TIP3    H2 4876   1.375   3.605   1.147  0.4153 -0.7816 -0.7592
 1624TIP3   OH2 4877   0.134   4.309   3.093 -0.2560  0.2666 -0.5259
 1624TIP3    H1 4878   0.087   4.284   3.173  0.1409  1.3524  0.0671
 1624TIP3    H2 4879   0.071   4.363   3.045 -0.7282 -0.9155 -1.2885
 1625TIP3   OH2 4880   1.392   0.688   3.962  0.1259 -0.3565  0.1137
 1625TIP3    H1 4881   1.450   0.741   3.906  0.4938 -1.3687 -0.4943
 1625TIP3    H2 4882   1.319   0.664   3.904 -1.2629  1.3910  1.0240
 1626TIP3   OH2 4883   3.978   1.573   0.258 -0.2666 -0.5012 -0.3037
 1626TIP3    H1 4884   3.909   1.509   0.279 -0.4933 -0.5129 -1.0684
 1626TIP3    H2 4885   4.014   1.543   0.175 -0.9678  0.8475 -1.1245
 1627TIP3   OH2 4886   5.146   2.365   2.023 -0.2387 -0.4107  0.0532
 1627TIP3    H1 4887   5.110   2.298   1.965 -0.1103 -1.7406  1.4278
 1627TIP3    H2 4888   5.083   2.370   2.096 -0.0307  0.6759  0.1840
 1628TIP3   OH2 4889   0.128   5.248   0.966  0.9294  0.1066 -0.0234
 1628TIP3    H1 4890   0.117   5.337   0.935 -1.1714 -0.4782 -1.0998
 1628TIP3    H2 4891   0.080   5.245   1.049 -1.8548 -0.7618 -1.5414
 1629TIP3   OH2 4892   1.417   0.236   2.122 -0.3903  0.1418  0.1115
 1629TIP3    H1 4893   1.367   0.195   2.192  1.2093  1.1500  1.9401
 1629TIP3    H2 4894   1.498   0.185   2.118  0.1404  0.9660  0.0126
 1630TIP3   OH2 4895   2.423   3.856   1.620  0.0205 -0.0404  0.1971
 1630TIP3    H1 4896   2.464   3.936   1.588 -1.8319  0.4493 -1.1529
 1630TIP3    H2 4897   2.345   3.886   1.668 -1.7758 -1.0021 -1.9449
 1631TIP3   OH2 4898   4.330   2.703   1.319 -0.1510 -0.0021 -0.2469
 1631TIP3    H1 4899   4.341   2.676   1.410  0.3098  0.7716 -0.0567
 1631TIP3    H2 4900   4.236   2.710   1.306 -0.2610  3.7549  1.4127
 1632TIP3   OH2 4901   4.236   2.862   2.836 -0.7068  0.0410 -0.0354
 1632TIP3    H1 4902   4.330   2.847   2.844 -0.6007  0.5531 -0.2809
 1632TIP3    H2 4903   4.205   2.872   2.926 -0.2771  1.2758 -0.0013
 1633TIP3   OH2 4904   6.167   5.410   3.534  0.2090 -0.4414  0.0566
 1633TIP3    H1 4905   6.208   5.483   3.580  1.0906 -1.2058  0.5303
 1633TIP3    H2 4906   6.202   5.332   3.578 -1.9109 -1.1410  0.5912
 1634TIP3   OH2 4907   3.777   3.341   0.299 -0.2993  0.1279 -0.3152
 1634TIP3    H1 4908   3.744   3.258   0.264 -0.6772  0.2670 -0.2923
 1634TIP3    H2 4909   3.748   3.342   0.390  1.4197 -0.6361  0.3005
 1635TIP3   OH2 4910   0.134   1.748   2.939 -0.0002  0.1196 -0.3798
 1635TIP3    H1 4911   0.166   1.691   3.010  1.4030  1.1359 -0.1601
 1635TIP3    H2 4912   0.097   1.824   2.984  0.7568  0.6974 -0.7186
 1636TIP3   OH2 4913   1.073   1.430   4.841 -0.0889  0.3199  0.0581
 1636TIP3    H1 4914   1.156   1.391   4.868 -1.7268 -2.2881  1.7690
 1636TIP3    H2 4915   1.058   1.396   4.753 -0.7851 -1.8934  0.9703
 1637TIP3   OH2 4916   0.651   2.843   0.986 -0.4552 -0.6194 -0.2120
 1637TIP3    H1 4917   0.694   2.863   1.069 -2.1140 -0.5839  0.6695
 1637TIP3    H2 4918   0.723   2.839   0.922  1.0493 -2.2270  1.4791
 1638TIP3   OH2 4919   2.663   3.108   3.978  0.3729  0.0323  0.0676
 1638TIP3    H1 4920   2.723   3.043   3.944 -0.0969 -1.4321  1.8805
 1638TIP3    H2 4921   2.577   3.081   3.944  0.4063  0.8390 -0.7089
 1639TIP3   OH2 4922   5.438   5.195   1.231 -0.3242  0.3021 -0.5430
 1639TIP3    H1 4923   5.423   5.206   1.138  1.3150  0.6256 -0.7968
 1639TIP3    H2 4924   5.518   5.243   1.249 -0.9797  0.8545  1.1854
 1640TIP3   OH2 4925   0.325   1.658   0.431  0.3731  0.5044  0.0850
 1640TIP3    H1 4926   0.286   1.606   0.501  0.5415  1.6070  1.0434
 1640TIP3    H2 4927   0.251   1.697   0.385  0.2751  0.1871 -0.0260
 1641TIP3   OH2 4928   4.247   0.932   2.134  0.1130  0.6620 -0.2695
 1641TIP3    H1 4929   4.163   0.910   2.093  0.6242  0.8373 -1.4816
 1641TIP3    H2 4930   4.224   0.976   2.215 -0.9501 -0.9323  0.3292
 1642TIP3   OH2 4931   4.562   5.609   2.102  0.2699 -0.3706 -0.3650
 1642TIP3    H1 4932   4.640   5.555   2.092  0.5644 -0.0305  0.0800
 1642TIP3    H2 4933   4.492   5.559   2.058  0.5362 -1.0997  0.0317
 1643TIP3   OH2 4934   0.818   1.106   0.635 -0.2218 -0.3295  0.3521
 1643TIP3    H1 4935   0.854   1.036   0.690 -0.9410 -2.0343 -1.2265
 1643TIP3    H2 4936   0.733   1.125   0.674 -0.2834 -0.7807  0.4449
 1644TIP3   OH2 4937   1.639   2.956   2.153 -0.2324  0.4771  0.4203
 1644TIP3    H1 4938   1.596   2.951   2.239 -1.0862  1.5530  0.0749
 1644TIP3    H2 4939   1.638   3.049   2.131  0.2693  0.2502 -0.6168
 1645TIP3   OH2 4940   1.346   5.142   4.340  0.4063 -0.0827  0.3195
 1645TIP3    H1 4941   1.425   5.099   4.372 -0.2426 -0.3749  1.5592
 1645TIP3    H2 4942   1.282   5.132   4.410 -1.8082 -2.7078 -1.8400
 1646TIP3   OH2 4943   0.111   4.746   3.583 -0.3353 -0.3235 -0.2630
 1646TIP3    H1 4944   0.115   4.677   3.649  0.3441 -0.2909 -0.2685
 1646TIP3    H2 4945   0.200   4.778   3.575 -0.6056  0.4277 -0.4091
 1647TIP3   OH2 4946   3.493   2.150   2.368  0.0614 -0.1783  0.1819
 1647TIP3    H1 4947   3.539   2.067   2.382 -0.6682 -0.7624 -0.7510
 1647TIP3    H2 4948   3.551   2.201   2.312 -0.0594 -0.5887 -0.3242
 1648TIP3   OH2 4949   4.727   1.720   0.779 -0.0091  0.0614 -0.2055
 1648TIP3    H1 4950   4.804   1.678   0.740  1.0611  0.5687  1.2428
 1648TIP3    H2 4951   4.745   1.814   0.773 -1.0588  0.2346 -0.8658
 1649TIP3   OH2 4952   3.257   1.435   4.620 -0.3737  0.3911 -0.6187
 1649TIP3    H1 4953   3.262   1.451   4.714  3.4073 -0.7482 -0.4291
 1649TIP3    H2 4954   3.283   1.519   4.581 -0.3959  0.4297 -0.5507
 1650TIP3   OH2 4955   6.131   5.949   3.383 -0.6886 -0.7251  0.3186
 1650TIP3    H1 4956   6.059   5.974   3.326  0.2751  1.0903 -0.1834
 1650TIP3    H2 4957   6.132   6.016   3.451  0.3564 -0.8746  0.4703
 1651TIP3   OH2 4958   6.146   3.213   2.119 -0.2049  0.0376  0.0614
 1651TIP3    H1 4959   6.174   3.303   2.139 -2.2934  0.9596 -0.8641
 1651TIP3    H2 4960   6.226   3.168   2.092  0.9501  1.5134  0.8776
 1652TIP3   OH2 4961   3.541   5.923   1.746 -0.0638 -0.4603  0.1536
 1652TIP3    H1 4962   3.541   5.995   1.809  1.6385 -0.6611  0.4375
 1652TIP3    H2 4963   3.522   5.965   1.662 -1.8080 -0.1104  0.6720
 1653TIP3   OH2 4964   3.084   5.013   1.139 -0.3425  0.3961  0.1046
 1653TIP3    H1 4965   3.135   5.045   1.065  0.5723  0.0130  0.5451
 1653TIP3    H2 4966   3.054   4.926   1.112 -0.1816  0.3422  0.0957
 1654TIP3   OH2 4967   4.527   2.357   0.378 -0.0342  0.2156 -0.2982
 1654TIP3    H1 4968   4.581   2.361   0.300  0.9501 -0.3048  0.3328
 1654TIP3    H2 4969   4.437   2.354   0.345  0.2587  1.9151 -1.3469
 1655TIP3   OH2 4970   4.806   3.562   4.562  0.5806  0.4681  0.1012
 1655TIP3    H1 4971   4.735   3.580   4.500  0.0770 -1.9639 -0.1336
 1655TIP3    H2 4972   4.832   3.472   4.543  0.7050 -0.2256  3.0997
 1656TIP3   OH2 4973   5.770   2.107   4.246  0.6767 -0.2781  0.2011
 1656TIP3    H1 4974   5.739   2.021   4.218  1.8363 -1.0533  1.2391
 1656TIP3    H2 4975   5.749   2.112   4.339  1.0112  0.3749  0.2508
 1657TIP3   OH2 4976   4.686   5.141   4.769 -0.1766 -0.1966  0.2097
 1657TIP3    H1 4977   4.775   5.156   4.738  0.3967  0.6806  2.1219
 1657TIP3    H2 4978   4.651   5.229   4.785 -1.9472 -0.4441 -1.8558
 1658TIP3   OH2 4979   1.389   1.628   2.143 -0.2139 -0.6583  0.2526
 1658TIP3    H1 4980   1.484   1.615   2.142 -0.2159 -0.8658  1.3131
 1658TIP3    H2 4981   1.376   1.701   2.203 -0.7059 -0.4243 -0.1387
 1659TIP3   OH2 4982   0.947   3.898   1.361 -0.3269  0.1177 -0.0802
 1659TIP3    H1 4983   0.969   3.888   1.453 -0.0174 -0.1855 -0.1859
 1659TIP3    H2 4984   0.881   3.830   1.345  0.1515 -0.3114 -0.2564
 1660TIP3   OH2 4985   4.684   4.771   4.109  0.2773  0.7018 -0.0036
 1660TIP3    H1 4986   4.679   4.860   4.145  1.6668  0.3301  1.1887
 1660TIP3    H2 4987   4.594   4.738   4.114  0.3737  0.5625  3.5532
 1661TIP3   OH2 4988   3.585   4.815   4.792 -0.8520  0.1978  0.0052
 1661TIP3    H1 4989   3.522   4.755   4.754 -0.4369 -0.1943 -0.0745
 1661TIP3    H2 4990   3.662   4.761   4.810 -0.9374  0.4322  1.1454
 1662TIP3   OH2 4991   0.301   2.948   3.085 -0.0001 -0.1451  0.1164
 1662TIP3    H1 4992   0.288   2.853   3.077  1.8311 -0.3627 -0.6884
 1662TIP3    H2 4993   0.214   2.985   3.070 -0.9746 -1.7207  1.4931
 1663TIP3   OH2 4994   4.928   5.682   4.769 -0.0242 -0.2269 -0.1144
 1663TIP3    H1 4995   4.947   5.600   4.815 -0.3949 -1.1099 -1.4652
 1663TIP3    H2 4996   5.012   5.727   4.764  0.4821 -1.1987 -0.6080
 1664TIP3   OH2 4997   4.673   4.434   0.075 -0.0392  0.0614 -1.0099
 1664TIP3    H1 4998   4.620   4.501   0.032 -0.7035  1.3974  1.7069
 1664TIP3    H2 4999   4.678   4.462   0.166  2.8634 -1.6135 -0.5332
 1665TIP3   OH2 5000   0.266   0.382   3.889  0.2593 -0.4388 -0.8258
 1665TIP3    H1 5001   0.190   0.424   3.847 -0.4661 -0.0546  0.7632
 1665TIP3    H2 5002   0.250   0.288   3.879 -0.1753 -0.3579 -0.9202
 1666TIP3   OH2 5003   2.929   4.509   3.789 -0.5026 -0.2557  0.3248
 1666TIP3    H1 5004   2.986   4.585   3.803 -1.0690  0.2573 -0.1262
 1666TIP3    H2 5005   2.929   4.463   3.873 -1.7704  1.3399  1.2360
 1667TIP3   OH2 5006   2.055   4.736   0.839 -0.4548 -0.1437 -0.2367
 1667TIP3    H1 5007   2.063   4.772   0.927 -1.2764 -0.9909  0.2036
 1667TIP3    H2 5008   2.061   4.812   0.781  0.4413  0.3796  0.5269
 1668TIP3   OH2 5009   3.817   4.297   1.819  0.8898  0.3106 -0.2482
 1668TIP3    H1 5010   3.796   4.219   1.769  0.4423  1.1504 -1.4070
 1668TIP3    H2 5011   3.821   4.267   1.910 -4.5206 -0.1561  0.1367
 1669TIP3   OH2 5012   4.361   0.426   2.955  0.2878  0.7185  0.5094
 1669TIP3    H1 5013   4.268   0.444   2.969  0.1804 -0.6015  1.6297
 1669TIP3    H2 5014   4.389   0.379   3.033  1.5483 -0.1521 -0.4192
 1670TIP3   OH2 5015   4.251   1.853   0.079 -0.2325  0.3548  0.0625
 1670TIP3    H1 5016   4.314   1.871   0.149 -0.1360  1.6747 -0.3423
 1670TIP3    H2 5017   4.166   1.852   0.123 -0.1336  0.7716  0.2644
 1671TIP3   OH2 5018   0.763   0.162   0.958 -0.6640 -0.0691 -0.1986
 1671TIP3    H1 5019   0.786   0.135   1.047  0.5756 -0.6720 -0.6718
 1671TIP3    H2 5020   0.843   0.149   0.908 -0.9789  1.4820 -1.1525
 1672TIP3   OH2 5021   1.895   5.052   0.982  0.0757 -0.2507  0.0512
 1672TIP3    H1 5022   1.856   5.021   0.900  1.8276 -1.7275 -0.2822
 1672TIP3    H2 5023   1.959   5.117   0.956  2.0737 -2.1403 -0.0177
 1673TIP3   OH2 5024   0.134   3.642   0.900 -0.1793  0.0229 -0.0119
 1673TIP3    H1 5025   0.079   3.578   0.943  0.2045  0.5500  1.3172
 1673TIP3    H2 5026   0.221   3.631   0.940 -0.1107  1.3578  0.2772
 1674TIP3   OH2 5027   3.837   0.184   1.084 -0.1466 -0.7458  0.0148
 1674TIP3    H1 5028   3.908   0.209   1.025  0.0702 -1.8538 -0.2229
 1674TIP3    H2 5029   3.877   0.182   1.171  0.2542 -1.8328 -0.1793
 1675TIP3   OH2 5030   3.700   3.504   1.851 -0.0285 -0.4239 -0.1773
 1675TIP3    H1 5031   3.625   3.479   1.796  0.0468 -0.3486 -0.3169
 1675TIP3    H2 5032   3.750   3.564   1.796  0.8911 -1.5719 -0.6276
 1676TIP3   OH2 5033   1.008   2.885   2.124  0.4536  0.3012 -0.1419
 1676TIP3    H1 5034   1.030   2.829   2.198  2.9899  1.2043 -0.0956
 1676TIP3    H2 5035   0.915   2.905   2.135  0.1731 -1.5731  1.3917
 1677TIP3   OH2 5036   2.095   1.851   2.242 -0.7995  0.0612 -0.4242
 1677TIP3    H1 5037   2.037   1.879   2.172 -1.3866  1.1404  0.4660
 1677TIP3    H2 5038   2.142   1.776   2.206 -2.0148 -0.2031 -1.5043
 1678TIP3   OH2 5039   2.573   4.802   0.939 -0.3280 -0.3548 -0.7382
 1678TIP3    H1 5040   2.642   4.826   0.878  0.9329 -0.0247  0.7311
 1678TIP3    H2 5041   2.496   4.786   0.885  0.5870  0.4435 -2.3334
 1679TIP3   OH2 5042   5.625   4.485   2.121  0.3425  0.4333 -0.2066
 1679TIP3    H1 5043   5.585   4.417   2.068  0.2566  0.4766 -0.1971
 1679TIP3    H2 5044   5.555   4.549   2.135  0.4584  0.5846 -0.3192
 1680TIP3   OH2 5045   2.797   4.437   0.477 -0.1713 -0.5397 -0.0455
 1680TIP3    H1 5046   2.795   4.341   0.472  1.8348 -0.6103 -0.5841
 1680TIP3    H2 5047   2.795   4.466   0.386 -1.3732 -0.0204  0.1312
 1681TIP3   OH2 5048   0.644   5.323   1.855 -0.7114 -0.3401  0.5699
 1681TIP3    H1 5049   0.612   5.374   1.929  0.7181  1.8156 -0.2018
 1681TIP3    H2 5050   0.735   5.303   1.877  0.0590  1.1853 -0.9193
 1682TIP3   OH2 5051   2.631   3.956   2.457  0.0212  0.4291  0.5222
 1682TIP3    H1 5052   2.564   3.895   2.487  0.2806  0.7693  1.8531
 1682TIP3    H2 5053   2.620   3.959   2.362 -1.5646  0.1563  0.6755
 1683TIP3   OH2 5054   3.449   1.405   2.003 -0.3236  0.1871  0.5361
 1683TIP3    H1 5055   3.497   1.433   2.082 -1.6226  1.1002  1.0472
 1683TIP3    H2 5056   3.485   1.459   1.933  0.4232 -0.2016  0.6075
 1684TIP3   OH2 5057   1.856   4.493   2.488 -0.3999 -0.2254  0.1310
 1684TIP3    H1 5058   1.910   4.499   2.566  1.6215  0.4741 -1.2412
 1684TIP3    H2 5059   1.829   4.401   2.484  0.0568 -0.4245  1.2339
 1685TIP3   OH2 5060   5.387   3.960   4.247  0.3808  0.0295 -0.7990
 1685TIP3    H1 5061   5.429   4.012   4.315 -2.5280 -1.6377  2.6656
 1685TIP3    H2 5062   5.444   3.884   4.235  0.8701  0.2575  0.0155
 1686TIP3   OH2 5063   6.010   3.321   0.500  0.5259  0.0246  0.3152
 1686TIP3    H1 5064   5.995   3.293   0.590 -1.5197  0.2047  0.0691
 1686TIP3    H2 5065   5.962   3.257   0.447 -0.7299  1.5545 -0.4641
 1687TIP3   OH2 5066   3.402   1.147   2.128 -0.2717 -0.4693  0.4633
 1687TIP3    H1 5067   3.423   1.170   2.218  1.1359 -1.2088  0.3544
 1687TIP3    H2 5068   3.400   1.230   2.081 -0.6740 -0.1120  1.0974
 1688TIP3   OH2 5069   4.362   4.420   0.239  0.5602 -0.2249 -0.2073
 1688TIP3    H1 5070   4.422   4.382   0.304  2.1780 -0.0221 -1.5031
 1688TIP3    H2 5071   4.364   4.358   0.166  0.7275  0.7297 -1.0463
 1689TIP3   OH2 5072   1.715   2.281   3.393  0.3606  0.0745  0.0135
 1689TIP3    H1 5073   1.761   2.358   3.425 -1.9311  1.5804 -0.0883
 1689TIP3    H2 5074   1.698   2.229   3.471 -1.9984  1.9479  0.8672
 1690TIP3   OH2 5075   5.900   0.732   1.159 -0.0327 -0.3989  0.0295
 1690TIP3    H1 5076   5.877   0.640   1.151  0.5283 -0.5955  0.6072
 1690TIP3    H2 5077   5.919   0.761   1.070 -1.0230 -0.6204 -0.2612
 1691TIP3   OH2 5078   1.707   3.033   3.615 -0.1080 -0.5932 -0.7132
 1691TIP3    H1 5079   1.738   3.058   3.528 -0.0899  0.0007 -0.5373
 1691TIP3    H2 5080   1.637   2.969   3.598 -2.2190  1.7330 -1.2922
 1692TIP3   OH2 5081   6.115   2.371   3.677 -0.7146 -0.0706 -0.3424
 1692TIP3    H1 5082   6.175   2.307   3.640 -0.5379  0.9591 -1.9119
 1692TIP3    H2 5083   6.035   2.321   3.696  0.0719 -1.1302  0.3243
 1693TIP3   OH2 5084   4.808   0.278   1.058 -0.3111 -0.4894 -0.3936
 1693TIP3    H1 5085   4.774   0.260   0.970 -0.8867 -0.0536 -0.2738
 1693TIP3    H2 5086   4.766   0.213   1.113  0.2363 -0.9142 -0.4754
 1694TIP3   OH2 5087   6.018   4.671   1.422  0.1967  0.2274  0.2514
 1694TIP3    H1 5088   6.030   4.764   1.404  1.0077  0.6957  2.7757
 1694TIP3    H2 5089   5.983   4.668   1.511 -0.4206 -1.8730 -0.0099
 1695TIP3   OH2 5090   3.888   2.311   2.878  0.3984  0.1054 -0.1209
 1695TIP3    H1 5091   3.810   2.299   2.824  0.5017  1.8898 -0.7393
 1695TIP3    H2 5092   3.878   2.397   2.917  1.3120 -0.3108  1.1024
 1696TIP3   OH2 5093   2.193   2.399   0.222 -0.1703  0.1737  0.4259
 1696TIP3    H1 5094   2.198   2.323   0.165 -1.7783 -0.5014  1.1398
 1696TIP3    H2 5095   2.272   2.449   0.201  0.6323 -1.3807 -0.4620
 1697TIP3   OH2 5096   4.842   1.104   2.292  0.7580 -1.1491  0.0377
 1697TIP3    H1 5097   4.921   1.056   2.315  0.8741 -1.7950 -1.6331
 1697TIP3    H2 5098   4.873   1.185   2.252  0.5499 -0.6765  0.7987
 1698TIP3   OH2 5099   3.728   4.521   1.294  0.4354 -0.1099  0.1479
 1698TIP3    H1 5100   3.668   4.530   1.220 -3.2268  0.9157  2.9368
 1698TIP3    H2 5101   3.674   4.484   1.364  3.5535 -0.6468  2.5023
 1699TIP3   OH2 5102   4.634   0.525   5.041 -0.0035  0.0393  0.6751
 1699TIP3    H1 5103   4.679   0.579   5.105  1.5944 -0.2276 -0.1631
 1699TIP3    H2 5104   4.704   0.486   4.989 -1.2028  1.4181 -2.2272
 1700TIP3   OH2 5105   4.559   0.097   3.838  0.4620  0.3750 -0.7321
 1700TIP3    H1 5106   4.561   0.018   3.785 -1.3670 -0.0641 -0.2578
 1700TIP3    H2 5107   4.554   0.169   3.775  1.8168  0.1178 -1.1617
 1701TIP3   OH2 5108   3.990   3.499   3.659  0.0356 -0.4192  0.4403
 1701TIP3    H1 5109   4.041   3.424   3.627 -1.0471 -1.2656  0.6473
 1701TIP3    H2 5110   3.971   3.477   3.750  1.6498  1.1918  1.2416
 1702TIP3   OH2 5111   1.450   3.923   2.165 -0.1390  0.3720 -0.1582
 1702TIP3    H1 5112   1.367   3.916   2.119 -0.2895  0.5049  0.0942
 1702TIP3    H2 5113   1.516   3.900   2.099 -0.4457 -0.8793 -0.0538
 1703TIP3   OH2 5114   0.499   3.509   4.438 -0.1655  0.4301 -0.1555
 1703TIP3    H1 5115   0.566   3.545   4.380  0.6420 -1.3846 -0.4080
 1703TIP3    H2 5116   0.542   3.504   4.523  0.4029 -1.5798 -0.5021
 1704TIP3   OH2 5117   5.003   1.711   5.151  0.2016  0.0980 -0.4631
 1704TIP3    H1 5118   4.986   1.703   5.245 -0.3573 -2.1957 -0.7113
 1704TIP3    H2 5119   5.098   1.698   5.144  0.1213 -0.6496 -0.2805
 1705TIP3   OH2 5120   5.151   0.299   4.157  0.2111 -0.1105  0.1059
 1705TIP3    H1 5121   5.082   0.363   4.137 -0.7638 -1.3908 -0.8023
 1705TIP3    H2 5122   5.206   0.343   4.222 -2.1551  0.5251  1.8279
 1706TIP3   OH2 5123   6.296   3.796   0.751 -0.3752 -0.0085  0.1280
 1706TIP3    H1 5124   6.354   3.742   0.803  0.1976 -0.1546 -0.6429
 1706TIP3    H2 5125   6.310   3.767   0.661 -1.5495  0.0436 -0.0840
 1707TIP3   OH2 5126   2.022   0.796   1.842  0.5272 -0.3199  0.1804
 1707TIP3    H1 5127   2.035   0.721   1.783 -0.8229  0.9948 -1.9086
 1707TIP3    H2 5128   2.109   0.836   1.849  0.6548 -0.2850 -1.2707
 1708TIP3   OH2 5129   2.753   3.039   0.219 -0.0064 -0.3234  0.1878
 1708TIP3    H1 5130   2.687   3.038   0.150 -2.0396  0.0208  2.0157
 1708TIP3    H2 5131   2.755   3.130   0.250  0.2987 -0.6178  1.0747
 1709TIP3   OH2 5132   2.978   5.524   2.082 -0.5668  0.6224  0.0053
 1709TIP3    H1 5133   2.993   5.604   2.132 -1.8474  1.7416 -1.3093
 1709TIP3    H2 5134   2.949   5.555   1.996 -0.6638 -1.2607 -0.6825
 1710TIP3   OH2 5135   3.364   3.219   3.594 -0.1214  0.0257  0.0446
 1710TIP3    H1 5136   3.298   3.162   3.634  0.5342  0.2803  1.5304
 1710TIP3    H2 5137   3.313   3.279   3.539 -0.7750 -2.4636 -2.2701
 1711TIP3   OH2 5138   1.470   5.943   4.076  0.2282 -0.7543 -0.4832
 1711TIP3    H1 5139   1.469   6.038   4.069 -0.5497 -0.7664 -0.6390
 1711TIP3    H2 5140   1.466   5.925   4.170  1.8990 -0.6367 -0.3622
 1712TIP3   OH2 5141   0.289   4.236   4.627 -0.6275  0.5521 -0.0360
 1712TIP3    H1 5142   0.334   4.264   4.706 -0.1235 -2.0209  0.7027
 1712TIP3    H2 5143   0.247   4.315   4.593 -2.2165  1.4952  3.6716
 1713TIP3   OH2 5144   5.216   4.913   0.709 -0.0060  0.0886 -0.0689
 1713TIP3    H1 5145   5.231   4.946   0.798 -0.5865  1.0569 -0.3117
 1713TIP3    H2 5146   5.263   4.974   0.653 -0.7730  0.2891 -0.5063
 1714TIP3   OH2 5147   0.968   2.091   3.488 -0.0297 -0.0708 -0.0465
 1714TIP3    H1 5148   0.999   2.005   3.514 -0.8430 -0.3288  0.0993
 1714TIP3    H2 5149   0.893   2.109   3.546  0.3162  0.8616  0.1294
 1715TIP3   OH2 5150   3.089   0.804   3.439  0.5486  0.2603 -0.3329
 1715TIP3    H1 5151   3.151   0.872   3.412 -0.0623  0.2696 -1.8094
 1715TIP3    H2 5152   3.067   0.759   3.358 -2.0141  0.8024 -0.0166
 1716TIP3   OH2 5153   2.284   3.858   1.983  0.4065 -0.1335  0.2476
 1716TIP3    H1 5154   2.248   3.871   1.895  0.1830 -0.3316  0.3098
 1716TIP3    H2 5155   2.377   3.839   1.968  0.6285  0.9962  0.1204
 1717TIP3   OH2 5156   5.987   2.182   2.863 -0.4365  0.5002  0.3475
 1717TIP3    H1 5157   5.949   2.182   2.951 -0.5953  0.3916  0.2812
 1717TIP3    H2 5158   6.038   2.100   2.859  1.4819  1.5930  1.1341
 1718TIP3   OH2 5159   1.452   2.563   3.033  0.1232 -0.3707 -0.5347
 1718TIP3    H1 5160   1.520   2.591   2.972  1.0617  0.3573  0.7915
 1718TIP3    H2 5161   1.373   2.606   3.002  0.6909  0.3839 -0.9754
 1719TIP3   OH2 5162   0.297   4.547   2.721  0.6090  0.1487 -0.5303
 1719TIP3    H1 5163   0.229   4.611   2.743  0.9928  0.5541 -0.5017
 1719TIP3    H2 5164   0.265   4.504   2.642 -0.2828 -0.5687  0.1890
 1720TIP3   OH2 5165   6.088   2.195   2.390 -0.4645 -0.4442 -0.2524
 1720TIP3    H1 5166   6.151   2.247   2.440 -0.0230 -0.0790 -1.1635
 1720TIP3    H2 5167   6.054   2.256   2.325  0.7229 -1.4789 -1.9334
 1721TIP3   OH2 5168   1.238   3.665   3.545 -0.2521 -0.1273 -0.1679
 1721TIP3    H1 5169   1.228   3.657   3.450  1.0181  0.7587 -0.3929
 1721TIP3    H2 5170   1.333   3.664   3.559 -0.4311 -1.7274  1.2360
 1722TIP3   OH2 5171   5.593   3.181   0.522  0.5312 -0.4179  0.1766
 1722TIP3    H1 5172   5.606   3.169   0.428 -0.0823 -2.4958  0.3133
 1722TIP3    H2 5173   5.514   3.235   0.528  0.5414 -0.3140 -0.4908
 1723TIP3   OH2 5174   5.645   3.202   1.177  0.1071 -0.9024  0.1673
 1723TIP3    H1 5175   5.552   3.211   1.201  0.1158  0.4916 -0.2620
 1723TIP3    H2 5176   5.661   3.107   1.182 -1.2657 -1.1500  0.4918
 1724TIP3   OH2 5177   0.853   3.693   1.184 -0.3260  0.2485  0.0699
 1724TIP3    H1 5178   0.776   3.643   1.159  0.3024 -1.0259  0.5864
 1724TIP3    H2 5179   0.894   3.641   1.253  1.2127  0.7049 -0.4590
 1725TIP3   OH2 5180   3.635   0.977   0.294 -0.1603 -0.0613  0.1915
 1725TIP3    H1 5181   3.576   1.004   0.223  0.4308  0.2670 -0.1802
 1725TIP3    H2 5182   3.596   0.897   0.328 -1.3990  0.7124  0.6417
 1726TIP3   OH2 5183   1.723   1.852   1.919 -0.0296  0.1293 -0.2317
 1726TIP3    H1 5184   1.703   1.775   1.973  0.4589 -0.4672 -0.8769
 1726TIP3    H2 5185   1.785   1.903   1.972  0.0013 -0.1607  0.0134
 1727TIP3   OH2 5186   5.396   2.861   0.824 -0.3304  0.1849 -0.0073
 1727TIP3    H1 5187   5.391   2.938   0.768  1.2972  0.0301 -0.4141
 1727TIP3    H2 5188   5.483   2.824   0.807 -1.2562 -2.0489 -0.2286
 1728TIP3   OH2 5189   1.668   2.885   1.124  0.4225  0.3384 -0.0050
 1728TIP3    H1 5190   1.692   2.794   1.108  0.1446 -0.1616  2.0605
 1728TIP3    H2 5191   1.750   2.927   1.152  0.3579  0.4832 -0.0308
 1729TIP3   OH2 5192   2.156   0.046   1.281 -0.0393 -1.1539  0.7245
 1729TIP3    H1 5193   2.209   0.050   1.201 -0.9735  0.2123  0.1381
 1729TIP3    H2 5194   2.202   0.102   1.344  0.1560 -1.4023  0.8016
 1730TIP3   OH2 5195   2.780   4.345   1.371 -0.0647 -0.1870  0.0484
 1730TIP3    H1 5196   2.848   4.313   1.312 -0.7164  0.0457 -0.8404
 1730TIP3    H2 5197   2.702   4.355   1.316 -0.5950  0.3593  0.8693
 1731TIP3   OH2 5198   4.306   2.149   2.595  0.2936  0.4078 -0.0883
 1731TIP3    H1 5199   4.382   2.185   2.641 -0.1702  0.4871  0.6321
 1731TIP3    H2 5200   4.337   2.135   2.506  1.1398  0.4866  0.1820
 1732TIP3   OH2 5201   2.480   5.459   1.316 -0.3615 -0.0681  0.2085
 1732TIP3    H1 5202   2.483   5.510   1.236 -2.1932  1.5685  1.0770
 1732TIP3    H2 5203   2.405   5.495   1.364  0.5540 -1.0937  2.5670
 1733TIP3   OH2 5204   3.606   4.362   0.230 -0.5989  0.3335  0.3981
 1733TIP3    H1 5205   3.516   4.343   0.257 -0.5456  0.2762  0.5388
 1733TIP3    H2 5206   3.596   4.417   0.152 -0.7592  1.2291  1.0365
 1734TIP3   OH2 5207   3.417   3.848   0.632 -0.1220  0.4230 -0.0080
 1734TIP3    H1 5208   3.342   3.874   0.579  0.0301  0.9070  0.0022
 1734TIP3    H2 5209   3.418   3.911   0.704  1.1953  1.4117 -0.8299
 1735TIP3   OH2 5210   2.158   3.799   2.439 -0.3613  0.3966 -0.3936
 1735TIP3    H1 5211   2.075   3.757   2.417 -0.6920  0.3103  0.9388
 1735TIP3    H2 5212   2.134   3.889   2.461 -0.0075  0.5588 -0.6670
 1736TIP3   OH2 5213   1.638   5.812   1.455 -0.1501  0.0250 -0.0618
 1736TIP3    H1 5214   1.632   5.806   1.550  0.8983 -0.9452 -0.0349
 1736TIP3    H2 5215   1.650   5.721   1.426  0.4507  0.4056 -1.0392
 1737TIP3   OH2 5216   5.639   0.289   1.346  0.2140 -0.2254  0.0930
 1737TIP3    H1 5217   5.646   0.243   1.430  2.1028 -0.5097 -0.1863
 1737TIP3    H2 5218   5.545   0.289   1.327 -0.2000 -0.6163  1.9433
 1738TIP3   OH2 5219   3.892   2.749   0.798 -0.3628  0.1781 -0.0174
 1738TIP3    H1 5220   3.860   2.839   0.792 -0.3940  0.0741 -1.6625
 1738TIP3    H2 5221   3.900   2.734   0.893 -1.2641  1.5730  0.3205
 1739TIP3   OH2 5222   3.427   2.983   2.470 -0.2391 -0.5735 -0.0558
 1739TIP3    H1 5223   3.467   3.066   2.444  1.2454 -1.5197 -0.9210
 1739TIP3    H2 5224   3.364   3.007   2.539  1.2278  1.0874  0.7733
 1740TIP3   OH2 5225   2.463   2.531   3.350 -0.2235  0.0001 -0.0950
 1740TIP3    H1 5226   2.490   2.446   3.385  0.2600  0.3919  0.4941
 1740TIP3    H2 5227   2.430   2.511   3.262  2.2183 -0.4864 -0.9753
 1741TIP3   OH2 5228   2.915   4.236   1.148 -0.1194 -0.0910  0.0916
 1741TIP3    H1 5229   2.971   4.270   1.078  0.5692 -0.0996  0.6267
 1741TIP3    H2 5230   2.932   4.142   1.149  0.5162  0.0287  0.8298
 1742TIP3   OH2 5231   4.867   3.538   1.139 -0.0509 -0.0698 -0.2954
 1742TIP3    H1 5232   4.895   3.469   1.080  1.1057  0.2666 -0.1621
 1742TIP3    H2 5233   4.936   3.604   1.134  1.1628 -0.8895  2.8959
 1743TIP3   OH2 5234   0.831   4.795   1.157 -0.4903  0.6193  0.6398
 1743TIP3    H1 5235   0.878   4.757   1.082 -0.1453  0.9558  0.6818
 1743TIP3    H2 5236   0.743   4.812   1.125 -0.5624  0.0568  0.5320
 1744TIP3   OH2 5237   5.899   3.618   0.725  0.2594 -0.4121  0.6495
 1744TIP3    H1 5238   5.826   3.557   0.712 -0.0858 -0.0069  0.6678
 1744TIP3    H2 5239   5.892   3.644   0.817  0.1583 -0.0390  0.5399
 1745TIP3   OH2 5240   0.085   4.579   0.160  0.2706 -0.5888 -0.0012
 1745TIP3    H1 5241   0.094   4.595   0.066  0.1527  1.0545  0.2362
 1745TIP3    H2 5242  -0.007   4.560   0.173  0.3961 -1.4224 -0.2909
 1746TIP3   OH2 5243   1.879   3.823   0.541 -0.9483 -0.1289 -0.2502
 1746TIP3    H1 5244   1.808   3.886   0.530 -0.1645  0.6410 -1.1433
 1746TIP3    H2 5245   1.959   3.875   0.531 -0.1844 -0.6741  2.3503
 1747TIP3   OH2 5246   1.480   0.486   5.130  0.6625  0.2427  0.5554
 1747TIP3    H1 5247   1.400   0.514   5.087  1.1096 -1.2512 -1.4110
 1747TIP3    H2 5248   1.496   0.552   5.197 -0.9613  1.8247 -0.5295
 1748TIP3   OH2 5249   0.730   3.748   1.968  0.8925  0.2064 -0.2361
 1748TIP3    H1 5250   0.644   3.788   1.964  0.4314 -0.7139  0.0578
 1748TIP3    H2 5251   0.748   3.720   1.878 -0.7154 -2.7621  0.2379
 1749TIP3   OH2 5252   4.358   1.617   1.559 -0.4566 -0.2453  0.2294
 1749TIP3    H1 5253   4.274   1.659   1.544  0.6365  1.7746 -0.5223
 1749TIP3    H2 5254   4.377   1.570   1.478  0.0489  0.9559 -0.3566
 1750TIP3   OH2 5255   6.183   2.375   5.142  0.0909  0.1057  0.0529
 1750TIP3    H1 5256   6.095   2.342   5.158  0.9040 -1.8052  0.9272
 1750TIP3    H2 5257   6.226   2.371   5.227  1.4621 -0.4325 -0.6349
 1751TIP3   OH2 5258   2.438   4.049   4.579  0.4972  0.5280 -0.3350
 1751TIP3    H1 5259   2.403   4.023   4.493 -0.3899  1.1717 -0.1917
 1751TIP3    H2 5260   2.518   4.096   4.558  1.0173 -0.5015 -0.7181
 1752TIP3   OH2 5261   4.708   1.676   3.861 -0.2778  0.6069  0.0821
 1752TIP3    H1 5262   4.717   1.699   3.768  0.6921  2.4008  0.5762
 1752TIP3    H2 5263   4.681   1.757   3.903 -0.4698 -0.1248  1.4180
 1753TIP3   OH2 5264   5.336   3.697   3.178  0.0654 -0.1753 -0.7283
 1753TIP3    H1 5265   5.286   3.766   3.134 -1.6531 -1.6918 -1.2392
 1753TIP3    H2 5266   5.319   3.618   3.128  2.7551 -0.8689 -0.7267
 1754TIP3   OH2 5267   0.371   2.606   0.275 -0.3621  0.1519 -0.2234
 1754TIP3    H1 5268   0.446   2.657   0.306  0.1995 -0.6516 -0.2236
 1754TIP3    H2 5269   0.325   2.664   0.215  1.1091  0.1631 -1.3954
 1755TIP3   OH2 5270   5.391   3.615   0.764  0.5770  0.3720  0.1089
 1755TIP3    H1 5271   5.458   3.631   0.698  0.2013  1.1218 -0.1084
 1755TIP3    H2 5272   5.391   3.520   0.776  1.3431  0.3198 -0.2283
 1756TIP3   OH2 5273   3.365   2.414   0.462 -0.2724 -0.0545  0.0516
 1756TIP3    H1 5274   3.311   2.490   0.485 -1.1137 -0.5834 -0.1750
 1756TIP3    H2 5275   3.452   2.437   0.496 -0.4656  1.0859 -0.1576
 1757TIP3   OH2 5276   0.056   2.951   2.323 -0.1119  0.3017  0.2102
 1757TIP3    H1 5277   0.005   3.015   2.372 -0.1481  0.4189  0.0208
 1757TIP3    H2 5278   0.147   2.975   2.340 -0.0890 -0.4925  1.3340
 1758TIP3   OH2 5279   2.986   1.759   0.075  0.6501 -0.0629  0.0960
 1758TIP3    H1 5280   2.966   1.666   0.060  0.3420  0.0101  0.0545
 1758TIP3    H2 5281   2.985   1.798  -0.012  0.1597  0.1030  0.1764
 1759TIP3   OH2 5282   3.378   4.416   0.385  0.4743  0.0281 -0.2128
 1759TIP3    H1 5283   3.367   4.510   0.371  0.7712  0.0283 -0.4406
 1759TIP3    H2 5284   3.403   4.409   0.477  0.6978  0.1898 -0.2601
 1760TIP3   OH2 5285   6.241   2.149   4.520  0.3256 -0.8168 -0.0742
 1760TIP3    H1 5286   6.312   2.090   4.497 -2.5283 -3.5821 -2.8520
 1760TIP3    H2 5287   6.268   2.235   4.487  3.0375 -1.3071  0.6550
 1761TIP3   OH2 5288   2.089   2.697   3.113  0.0033 -0.0141 -0.8549
 1761TIP3    H1 5289   2.060   2.737   3.031  0.1104 -2.3390 -2.1114
 1761TIP3    H2 5290   2.020   2.633   3.133  0.0055  0.4906  0.8673
 1762TIP3   OH2 5291   1.144   2.453   3.257  0.2193 -0.1004 -0.0995
 1762TIP3    H1 5292   1.132   2.447   3.162  4.0735 -1.2526 -0.6957
 1762TIP3    H2 5293   1.218   2.513   3.268 -0.3840  0.3194  2.2618
 1763TIP3   OH2 5294   4.173   5.282   3.141  0.4338 -0.3863 -0.4437
 1763TIP3    H1 5295   4.256   5.236   3.127  1.0273  0.2518  0.8285
 1763TIP3    H2 5296   4.168   5.346   3.070 -0.9257 -3.0055 -2.9217
 1764TIP3   OH2 5297   5.676   0.555   1.119  0.6609  0.6443  0.2032
 1764TIP3    H1 5298   5.608   0.565   1.053  1.4942 -0.6961 -0.8968
 1764TIP3    H2 5299   5.646   0.482   1.173  1.2145  0.0315 -0.3018
 1765TIP3   OH2 5300   5.152   5.595   2.092 -0.0867 -0.3549 -0.3172
 1765TIP3    H1 5301   5.202   5.671   2.121 -1.0425  0.7140 -1.3731
 1765TIP3    H2 5302   5.211   5.521   2.107  0.6626  0.5053  1.2285
 1766TIP3   OH2 5303   3.466   1.080   0.079  0.2100 -0.3218 -0.2033
 1766TIP3    H1 5304   3.425   1.011   0.028 -2.2216  0.8458  0.0302
 1766TIP3    H2 5305   3.460   1.158   0.024 -0.7346  0.5373  1.0296
 1767TIP3   OH2 5306   0.185   1.480   4.979  0.5245  0.2952 -0.3233
 1767TIP3    H1 5307   0.253   1.542   5.002  1.9524 -0.4141 -2.3471
 1767TIP3    H2 5308   0.118   1.533   4.935  0.4976  0.7680  0.2781
 1768TIP3   OH2 5309   5.379   5.214   0.950 -0.0199 -0.8135 -0.0346
 1768TIP3    H1 5310   5.390   5.269   0.872 -2.6805  2.1273  1.4208
 1768TIP3    H2 5311   5.311   5.151   0.925 -0.6210 -0.1012 -0.2199
 1769TIP3   OH2 5312   5.766   3.089   3.734 -0.4013 -0.3511  0.2366
 1769TIP3    H1 5313   5.788   3.024   3.800  0.0986 -0.7135 -0.2704
 1769TIP3    H2 5314   5.845   3.142   3.726 -0.3058 -0.5677 -0.3527
 1770TIP3   OH2 5315   2.853   5.122   2.851  0.1220 -0.0024  0.0856
 1770TIP3    H1 5316   2.826   5.037   2.882 -0.7706  0.7936  1.5737
 1770TIP3    H2 5317   2.944   5.110   2.823 -0.0669 -1.4668  0.0613
 1771TIP3   OH2 5318   1.120   3.266   2.462  0.3341 -0.6368 -0.3659
 1771TIP3    H1 5319   1.114   3.303   2.550  0.0933  0.5311 -0.8548
 1771TIP3    H2 5320   1.036   3.221   2.450 -1.4957  2.6883 -1.4663
 1772TIP3   OH2 5321   5.090   5.934   4.804 -0.2856 -0.7361  0.2459
 1772TIP3    H1 5322   5.184   5.936   4.789  0.0690  2.6587  1.9571
 1772TIP3    H2 5323   5.052   5.964   4.721  0.2421 -0.7500 -0.0030
 1773TIP3   OH2 5324   4.183   4.211   2.070  0.5632  0.1622  0.1086
 1773TIP3    H1 5325   4.152   4.162   2.146  0.4354 -0.1050 -0.1177
 1773TIP3    H2 5326   4.122   4.285   2.063  0.2684 -0.0935 -0.0405
 1774TIP3   OH2 5327   0.981   1.567   1.889 -0.0319 -0.0003 -0.4948
 1774TIP3    H1 5328   0.930   1.514   1.949 -0.6879  0.9953 -0.1323
 1774TIP3    H2 5329   1.060   1.516   1.871 -1.1155 -1.5477 -1.0071
 1775TIP3   OH2 5330   1.634   3.906   1.967  0.7940  0.1068  0.4209
 1775TIP3    H1 5331   1.635   3.929   1.874 -2.0716 -1.4017 -0.1013
 1775TIP3    H2 5332   1.725   3.885   1.988  1.3994 -0.2836 -2.2718
 1776TIP3   OH2 5333   4.203   5.544   4.282 -0.0850  0.1803 -0.3067
 1776TIP3    H1 5334   4.140   5.472   4.275  0.5464 -0.2783 -1.7283
 1776TIP3    H2 5335   4.150   5.623   4.273 -0.7439 -0.1033  0.9329
 1777TIP3   OH2 5336   4.413   4.270   5.023 -0.3899  0.0975 -0.3605
 1777TIP3    H1 5337   4.332   4.268   4.972 -0.7982  1.4589  0.1933
 1777TIP3    H2 5338   4.388   4.239   5.110 -0.7140  1.9266  0.2608
 1778TIP3   OH2 5339   5.635   0.124   0.211 -0.4548  0.4388 -0.4199
 1778TIP3    H1 5340   5.549   0.145   0.174 -0.7328 -0.0645 -0.0732
 1778TIP3    H2 5341   5.615   0.065   0.284  0.1760  0.4494 -0.2390
 1779TIP3   OH2 5342   1.873   2.419   3.977  0.1436 -0.0499 -0.1347
 1779TIP3    H1 5343   1.960   2.430   4.016  0.5338  0.8799 -1.2118
 1779TIP3    H2 5344   1.828   2.502   3.994 -0.4818 -0.4539  0.2459
 1780TIP3   OH2 5345   2.658   2.122   1.822 -0.1481  0.3494  0.5910
 1780TIP3    H1 5346   2.743   2.113   1.778  0.3571 -1.8445  1.8427
 1780TIP3    H2 5347   2.594   2.124   1.751  0.8411  0.1920 -0.3292
 1781TIP3   OH2 5348   4.461   1.823   4.581 -0.1350 -0.4577  0.2929
 1781TIP3    H1 5349   4.456   1.913   4.549  1.6185 -0.3336  0.2510
 1781TIP3    H2 5350   4.391   1.817   4.646  1.4450  1.8588  2.3955
 1782TIP3   OH2 5351   6.148   2.563   4.040 -0.0268  0.1962 -0.1488
 1782TIP3    H1 5352   6.149   2.491   4.103 -1.6238 -1.5076 -1.9158
 1782TIP3    H2 5353   6.219   2.543   3.979 -0.5090  0.0341 -0.6772
 1783TIP3   OH2 5354   0.322   0.605   3.393  0.4043 -0.5384 -0.1690
 1783TIP3    H1 5355   0.307   0.654   3.474 -0.8639 -0.7164 -0.2834
 1783TIP3    H2 5356   0.397   0.549   3.413  1.7654  1.2719  0.0228
 1784TIP3   OH2 5357   5.598   2.824   4.214  0.5488 -0.2028 -0.3675
 1784TIP3    H1 5358   5.681   2.873   4.220 -0.3926  1.3033  2.6165
 1784TIP3    H2 5359   5.617   2.740   4.256  1.3571 -1.2680 -2.7177
 1785TIP3   OH2 5360   3.102   3.311   0.850 -0.1618  0.3691 -0.3029
 1785TIP3    H1 5361   3.083   3.403   0.833  1.2140  0.7438  0.0799
 1785TIP3    H2 5362   3.127   3.309   0.943 -1.1434 -0.5607 -0.0381
 1786TIP3   OH2 5363   1.420   0.155   0.690  0.4269 -0.1726  0.0057
 1786TIP3    H1 5364   1.490   0.101   0.653  0.2248  0.5805 -1.5628
 1786TIP3    H2 5365   1.416   0.232   0.633 -1.3044  0.0674  0.3882
 1787TIP3   OH2 5366   2.857   2.834   3.008 -0.2363 -0.1134  0.0193
 1787TIP3    H1 5367   2.825   2.744   3.019  0.4752 -0.2885  0.7912
 1787TIP3    H2 5368   2.915   2.829   2.932  0.0166 -0.3781  0.2234
 1788TIP3   OH2 5369   5.263   5.969   2.540 -0.1544  0.2102 -0.4138
 1788TIP3    H1 5370   5.330   5.929   2.595 -0.1900  1.5354  0.6463
 1788TIP3    H2 5371   5.241   5.901   2.476  1.6728 -0.4927 -0.3472
 1789TIP3   OH2 5372   1.276   5.827   1.277  0.3389 -0.4466 -0.0016
 1789TIP3    H1 5373   1.207   5.889   1.257 -0.5516 -1.2615  0.4828
 1789TIP3    H2 5374   1.325   5.867   1.349 -1.3573 -1.0934  1.5734
 1790TIP3   OH2 5375   1.474   2.068   1.914 -0.2058 -0.2836 -0.5730
 1790TIP3    H1 5376   1.428   2.074   1.998 -1.3858  0.4901 -1.2525
 1790TIP3    H2 5377   1.448   2.147   1.867 -0.2725 -1.1417 -2.0180
 1791TIP3   OH2 5378   4.359   1.539   0.379  0.2430 -0.3320  0.4823
 1791TIP3    H1 5379   4.398   1.545   0.466  0.4286  0.4732  0.3523
 1791TIP3    H2 5380   4.294   1.610   0.376 -1.3596 -1.7336  0.7392
 1792TIP3   OH2 5381   2.482   0.112   2.439  0.0506 -0.7379  0.4068
 1792TIP3    H1 5382   2.526   0.073   2.514 -0.8014 -1.8769  0.3429
 1792TIP3    H2 5383   2.553   0.136   2.379  0.6369 -1.5947  0.7499
 1793TIP3   OH2 5384   1.116   5.255   0.581 -0.1461 -0.2136  0.0919
 1793TIP3    H1 5385   1.022   5.239   0.593 -0.1703 -1.6170 -1.5861
 1793TIP3    H2 5386   1.131   5.237   0.488  1.4827  1.6954 -0.0540
 1794TIP3   OH2 5387   4.545   2.455   3.232  0.1485 -0.0290  0.0355
 1794TIP3    H1 5388   4.598   2.474   3.309  0.3713  1.1797 -0.3935
 1794TIP3    H2 5389   4.464   2.418   3.266  0.8869 -1.0616  0.7454
 1795TIP3   OH2 5390   1.195   3.466   4.729 -0.6643 -0.3752 -0.1591
 1795TIP3    H1 5391   1.253   3.485   4.803 -2.1912 -1.1249  1.3050
 1795TIP3    H2 5392   1.166   3.552   4.698 -2.2183 -0.0177  2.0253
 1796TIP3   OH2 5393   4.679   2.286   0.147 -0.1743 -0.7219  0.0148
 1796TIP3    H1 5394   4.639   2.209   0.108 -0.7490  0.1099 -1.0800
 1796TIP3    H2 5395   4.692   2.346   0.074  0.3285  0.1939  0.8362
 1797TIP3   OH2 5396   5.643   5.716   1.130 -0.2952 -0.3132  0.3503
 1797TIP3    H1 5397   5.560   5.707   1.178 -0.5334  0.5978  0.1439
 1797TIP3    H2 5398   5.698   5.646   1.163 -0.8047 -0.3111  1.2284
 1798TIP3   OH2 5399   5.871   4.242   1.432  0.2193  0.4243  0.0174
 1798TIP3    H1 5400   5.838   4.330   1.416  1.3694  0.7616 -0.6440
 1798TIP3    H2 5401   5.862   4.229   1.527 -0.3765  1.0736  0.0520
 1799TIP3   OH2 5402   4.292   3.328   1.204  0.4946 -0.3193  0.0986
 1799TIP3    H1 5403   4.307   3.355   1.295  1.4581 -0.0491 -0.1303
 1799TIP3    H2 5404   4.201   3.350   1.187  0.2898 -0.4219  1.0173
 1800TIP3   OH2 5405   2.935   5.562   3.202  0.0209 -0.9582  0.3623
 1800TIP3    H1 5406   2.875   5.523   3.139  1.6729 -0.8841 -1.3369
 1800TIP3    H2 5407   2.972   5.488   3.250 -0.8534 -1.0470  0.9294
 1801TIP3   OH2 5408   3.078   2.445   0.731  0.5225  0.4549 -0.1360
 1801TIP3    H1 5409   3.024   2.404   0.664 -1.8187  0.5861  1.5403
 1801TIP3    H2 5410   3.072   2.539   0.712  0.2372  0.4637 -0.0000
 1802TIP3   OH2 5411   6.188   2.178   0.383 -0.0581 -0.3130  0.6241
 1802TIP3    H1 5412   6.213   2.185   0.291 -0.8046  0.1355  0.4546
 1802TIP3    H2 5413   6.264   2.212   0.431  0.4226 -0.7614  0.1883
 1803TIP3   OH2 5414   5.754   1.174   4.664 -0.5250 -0.1273  0.0502
 1803TIP3    H1 5415   5.794   1.259   4.680  0.6920 -0.3410 -1.6353
 1803TIP3    H2 5416   5.663   1.194   4.642 -0.2352  0.7459 -0.3896
 1804TIP3   OH2 5417   5.769   5.594   1.341  0.6399  0.0442 -0.8090
 1804TIP3    H1 5418   5.703   5.568   1.406  1.7340 -0.8484 -0.0120
 1804TIP3    H2 5419   5.842   5.628   1.393  1.0953  0.3575 -1.6353
 1805TIP3   OH2 5420   4.127   0.322   0.965  0.3527 -0.3093  0.0665
 1805TIP3    H1 5421   4.157   0.244   1.013  0.7428 -0.1200  0.1352
 1805TIP3    H2 5422   4.132   0.297   0.873 -0.6163 -0.7530  0.1234
 1806TIP3   OH2 5423   4.841   0.577   1.014  0.1755 -0.2441 -0.0462
 1806TIP3    H1 5424   4.801   0.511   1.070  2.2626 -0.0769  1.7936
 1806TIP3    H2 5425   4.858   0.532   0.931  0.8378 -1.8339  0.9078
 1807TIP3   OH2 5426   5.052   4.187   2.292 -0.2278 -0.2165 -0.0509
 1807TIP3    H1 5427   4.976   4.232   2.254  0.3291  0.0932 -0.8076
 1807TIP3    H2 5428   5.099   4.152   2.217 -0.3476 -1.6073  0.4928
 1808TIP3   OH2 5429   0.292   0.743   3.634 -0.8430  0.6711 -0.2326
 1808TIP3    H1 5430   0.227   0.688   3.677  0.9455 -1.2135  0.2176
 1808TIP3    H2 5431   0.328   0.798   3.703 -0.8555  0.5839 -0.1570
 1809TIP3   OH2 5432   1.611   1.947   0.579  0.3882  0.5608 -0.3358
 1809TIP3    H1 5433   1.613   1.886   0.505  0.6114  0.3438 -0.1539
 1809TIP3    H2 5434   1.638   1.894   0.654  0.3954  0.8374 -0.1420
 1810TIP3   OH2 5435   4.054   3.116   5.131  0.7623  0.7964  0.2587
 1810TIP3    H1 5436   4.014   3.142   5.048  0.4155 -1.0039 -0.1640
 1810TIP3    H2 5437   4.008   3.036   5.157  3.0184 -0.5013  0.5309
 1811TIP3   OH2 5438   0.287   2.474   1.989 -0.4660  0.5072 -0.8843
 1811TIP3    H1 5439   0.338   2.497   2.067  1.5945 -1.3721 -1.5826
 1811TIP3    H2 5440   0.276   2.379   1.994 -1.2126  0.4793 -2.3630
 1812TIP3   OH2 5441   5.575   0.079   3.294 -0.2207 -0.2472 -0.3751
 1812TIP3    H1 5442   5.609   0.121   3.216 -0.4886  2.1659  0.7169
 1812TIP3    H2 5443   5.482   0.066   3.276 -0.1084 -0.4981 -0.7738
 1813TIP3   OH2 5444   0.954   5.107   3.706  0.1864 -0.1082  0.4371
 1813TIP3    H1 5445   0.972   5.082   3.615  2.4393 -0.9099  1.0472
 1813TIP3    H2 5446   0.867   5.072   3.723  0.6320 -1.9167 -0.7450
 1814TIP3   OH2 5447   5.004   4.592   2.542 -0.0163  0.1849  0.2049
 1814TIP3    H1 5448   4.968   4.580   2.454  2.6130  1.9260 -1.2778
 1814TIP3    H2 5449   4.976   4.680   2.568  3.1623  1.8037 -1.2071
 1815TIP3   OH2 5450   1.341   5.773   4.966  0.2767  0.1249  0.0328
 1815TIP3    H1 5451   1.319   5.756   5.057 -0.2069  1.3941  0.1848
 1815TIP3    H2 5452   1.263   5.746   4.917  0.3133 -0.0211  0.0550
 1816TIP3   OH2 5453   4.424   0.738   3.809 -0.1659  0.3482  0.1057
 1816TIP3    H1 5454   4.420   0.661   3.866 -2.6837  1.6716  1.8601
 1816TIP3    H2 5455   4.375   0.712   3.731 -0.6470  0.0328  0.5065
 1817TIP3   OH2 5456   4.823   4.539   4.864  0.4954  0.1004 -0.3737
 1817TIP3    H1 5457   4.798   4.477   4.932  0.3666 -0.1222 -0.6226
 1817TIP3    H2 5458   4.862   4.485   4.795  1.3456  0.4103 -0.1421
 1818TIP3   OH2 5459   1.209   3.193   3.974  0.8022  0.0954  0.0590
 1818TIP3    H1 5460   1.253   3.243   3.907  1.7873 -0.7948  0.0170
 1818TIP3    H2 5461   1.268   3.120   3.993 -0.0988 -0.4556  0.8725
 1819TIP3   OH2 5462   3.464   3.746   4.965  0.3976 -0.4266 -0.0201
 1819TIP3    H1 5463   3.524   3.719   4.896  0.8566 -1.2393  0.6818
 1819TIP3    H2 5464   3.499   3.705   5.044 -1.3411 -1.3222  0.3324
 1820TIP3   OH2 5465   0.278   1.354   4.272 -0.1163 -0.3502  0.5243
 1820TIP3    H1 5466   0.256   1.313   4.188 -1.0259  0.0408  0.5588
 1820TIP3    H2 5467   0.365   1.321   4.293 -0.7514 -2.1574  0.4824
 1821TIP3   OH2 5468   1.919   0.213   2.906  0.4597 -0.3570  0.3907
 1821TIP3    H1 5469   1.953   0.131   2.872 -0.0001 -0.0724 -0.8150
 1821TIP3    H2 5470   1.990   0.249   2.959  0.4701 -1.7699  1.3554
 1822TIP3   OH2 5471   5.443   5.150   0.327 -0.6261 -0.4081 -0.0224
 1822TIP3    H1 5472   5.526   5.195   0.342 -0.7946 -0.3637  0.8805
 1822TIP3    H2 5473   5.467   5.065   0.290 -0.2881  0.2883 -1.4558
 1823TIP3   OH2 5474   0.583   3.937   0.950  0.3723 -0.1872  0.2342
 1823TIP3    H1 5475   0.577   4.015   1.004  0.5414  1.8457 -2.4377
 1823TIP3    H2 5476   0.676   3.913   0.952  0.4668  0.1924  0.4134
 1824TIP3   OH2 5477   0.776   3.861   4.536 -0.2689 -0.1051 -0.7711
 1824TIP3    H1 5478   0.694   3.868   4.585 -0.5815 -1.8041 -0.9697
 1824TIP3    H2 5479   0.749   3.823   4.452  0.3525  2.0621 -2.0171
 1825TIP3   OH2 5480   5.748   4.453   2.639 -0.1821  0.1161  0.8265
 1825TIP3    H1 5481   5.733   4.361   2.618  1.7048 -0.2508  0.9766
 1825TIP3    H2 5482   5.662   4.485   2.667 -1.4357 -0.9603 -1.4700
 1826TIP3   OH2 5483   4.507   5.742   2.734  0.3172 -0.1109 -0.0428
 1826TIP3    H1 5484   4.514   5.676   2.802 -2.5814  0.0603  0.5762
 1826TIP3    H2 5485   4.463   5.697   2.661 -2.1733  1.1066  0.5809
 1827TIP3   OH2 5486   2.667   5.366   3.438  0.7318 -0.7212 -0.0920
 1827TIP3    H1 5487   2.682   5.318   3.357 -0.0473  0.6945 -1.1168
 1827TIP3    H2 5488   2.754   5.379   3.476  1.1186 -1.2279 -0.7875
 1828TIP3   OH2 5489   1.352   0.130   0.239 -0.0045  0.1782 -0.4433
 1828TIP3    H1 5490   1.335   0.042   0.206  0.5346  0.2341 -0.8932
 1828TIP3    H2 5491   1.287   0.185   0.197 -0.1190  0.0514 -0.4329
 1829TIP3   OH2 5492   3.189   1.177   2.814  0.0509 -0.1132 -0.3730
 1829TIP3    H1 5493   3.143   1.238   2.872  0.9605 -1.5397  2.0240
 1829TIP3    H2 5494   3.279   1.210   2.811  0.7782 -1.6795  1.6775
 1830TIP3   OH2 5495   0.525   3.520   5.121 -0.3802  0.2111  0.1900
 1830TIP3    H1 5496   0.525   3.441   5.068  0.3415  0.2147  0.1758
 1830TIP3    H2 5497   0.433   3.532   5.146 -0.7494  0.2684 -1.1325
 1831TIP3   OH2 5498   3.690   3.926   4.050 -0.2904  0.2152 -0.3450
 1831TIP3    H1 5499   3.783   3.944   4.038 -0.2657  0.8576  0.6515
 1831TIP3    H2 5500   3.647   4.010   4.032 -0.3694  0.8174  2.2622
 1832TIP3   OH2 5501   1.683   2.212   0.484 -0.3506 -0.0163  0.5588
 1832TIP3    H1 5502   1.632   2.240   0.409 -0.5423  0.2155  0.7755
 1832TIP3    H2 5503   1.647   2.126   0.506 -0.7791  0.2298  0.8306
 1833TIP3   OH2 5504   3.158   2.352   1.717  0.2936 -0.6457 -0.0646
 1833TIP3    H1 5505   3.126   2.394   1.797  1.4800  1.1621 -0.4603
 1833TIP3    H2 5506   3.249   2.329   1.737  0.9755  0.8798 -1.2182
 1834TIP3   OH2 5507   5.419   2.348   0.713 -0.3077 -0.3468  0.0658
 1834TIP3    H1 5508   5.415   2.443   0.707  1.0226 -0.3204 -0.6127
 1834TIP3    H2 5509   5.431   2.330   0.806  0.0183  0.1735  0.1255
 1835TIP3   OH2 5510   0.386   2.145   4.056  0.1113  0.2275  0.2662
 1835TIP3    H1 5511   0.337   2.078   4.105 -0.7058  1.1779  0.7956
 1835TIP3    H2 5512   0.369   2.226   4.103 -0.4749  1.1406 -1.4213
 1836TIP3   OH2 5513   2.321   2.815   1.753  0.2940  0.1562 -0.0686
 1836TIP3    H1 5514   2.279   2.798   1.837  0.2591  0.6506  0.0173
 1836TIP3    H2 5515   2.313   2.910   1.741  0.3078  0.0894 -0.6250
 1837TIP3   OH2 5516   2.432   5.957   2.672 -0.1558  0.0994  0.3960
 1837TIP3    H1 5517   2.409   6.045   2.701 -0.2336 -0.2936  1.5899
 1837TIP3    H2 5518   2.527   5.960   2.659 -0.1346  0.3081  0.6029
 1838TIP3   OH2 5519   0.770   2.159   4.883  0.4729 -0.2688 -0.3992
 1838TIP3    H1 5520   0.861   2.162   4.911  0.1977 -0.9057  0.6489
 1838TIP3    H2 5521   0.764   2.082   4.826  0.4013 -0.8039  0.3150
 1839TIP3   OH2 5522   6.048   0.137   2.601 -0.0283 -0.4484 -0.1437
 1839TIP3    H1 5523   6.078   0.149   2.511  0.4253 -1.0150 -0.0746
 1839TIP3    H2 5524   6.127   0.114   2.650 -0.2905 -0.2499  0.3832
 1840TIP3   OH2 5525   0.030   2.188   2.135  0.2306 -0.3810 -0.5473
 1840TIP3    H1 5526   0.091   2.215   2.204  0.0326 -1.1314 -0.0677
 1840TIP3    H2 5527   0.072   2.114   2.093 -0.4499 -1.0685 -0.0477
 1841TIP3   OH2 5528   4.718   0.399   3.321  0.0330  0.1500 -0.2747
 1841TIP3    H1 5529   4.664   0.383   3.398  1.1707  0.8824  0.7134
 1841TIP3    H2 5530   4.787   0.334   3.326 -0.1716 -0.1298 -0.9707
 1842TIP3   OH2 5531   5.673   1.404   3.051  0.4894  0.3678  0.4674
 1842TIP3    H1 5532   5.594   1.353   3.070  0.4045 -0.2160 -1.3438
 1842TIP3    H2 5533   5.651   1.493   3.081 -0.3285 -0.0653  1.2278
 1843TIP3   OH2 5534   4.454   3.749   3.398 -0.3091 -0.1628 -0.4347
 1843TIP3    H1 5535   4.433   3.825   3.451  0.2671 -0.3863  0.1234
 1843TIP3    H2 5536   4.434   3.674   3.454  0.1594 -0.4013 -0.5830
 1844TIP3   OH2 5537   2.972   3.022   1.635  0.0787 -0.0630 -0.2633
 1844TIP3    H1 5538   2.940   3.082   1.567 -2.4547 -1.7083 -0.6597
 1844TIP3    H2 5539   2.976   2.937   1.591 -1.0739 -1.0548  1.4436
 1845TIP3   OH2 5540   5.422   1.216   3.146  0.1689 -0.2484 -0.0729
 1845TIP3    H1 5541   5.345   1.173   3.107  0.2135 -0.5112  0.1258
 1845TIP3    H2 5542   5.385   1.283   3.204 -0.0344 -2.3053  2.3451
 1846TIP3   OH2 5543   4.993   2.434   3.863  0.6759 -0.0916  0.5114
 1846TIP3    H1 5544   5.060   2.502   3.854  1.4568 -0.6919  1.5142
 1846TIP3    H2 5545   4.924   2.475   3.914  0.6418  0.2886  0.1619
 1847TIP3   OH2 5546   0.157   4.844   1.390 -0.2318 -0.5440 -0.1898
 1847TIP3    H1 5547   0.082   4.788   1.370  1.1573 -2.7839  0.6090
 1847TIP3    H2 5548   0.225   4.816   1.328  0.3241  0.6819 -0.1631
 1848TIP3   OH2 5549   0.980   5.897   0.085 -0.1931  0.0093 -0.3008
 1848TIP3    H1 5550   1.062   5.861   0.051  0.1027 -0.4690  0.8484
 1848TIP3    H2 5551   0.993   5.991   0.086 -0.0200 -0.0055 -1.0172
 1849TIP3   OH2 5552   3.576   1.413   0.099 -0.4657  0.3214  0.1238
 1849TIP3    H1 5553   3.631   1.336   0.083 -1.2181 -0.2013 -0.0184
 1849TIP3    H2 5554   3.630   1.487   0.072  0.7105 -0.0486  1.3257
 1850TIP3   OH2 5555   5.771   2.303   0.810 -0.6037  0.4593 -0.1135
 1850TIP3    H1 5556   5.752   2.290   0.717  1.5790  0.0528 -0.5511
 1850TIP3    H2 5557   5.767   2.215   0.848  0.9465  0.2654 -0.3526
 1851TIP3   OH2 5558   0.806   1.599   4.912  0.0008  0.1945 -0.2670
 1851TIP3    H1 5559   0.731   1.548   4.883  0.2297 -1.0328  1.1543
 1851TIP3    H2 5560   0.837   1.553   4.990  1.1727  1.6591  0.1755
 1852TIP3   OH2 5561   2.997   2.201   2.910  0.4035 -0.2210  0.0339
 1852TIP3    H1 5562   3.035   2.187   2.997  2.1291 -0.9906 -0.8173
 1852TIP3    H2 5563   2.945   2.122   2.894 -0.1323  0.0368  0.4476
 1853TIP3   OH2 5564   1.656   3.521   1.016  0.2138 -0.1807 -0.3509
 1853TIP3    H1 5565   1.738   3.476   0.997  1.0594  1.3117 -0.3782
 1853TIP3    H2 5566   1.589   3.470   0.969  1.1067 -1.3970 -0.3488
 1854TIP3   OH2 5567   0.683   5.789   3.702  0.2701  0.5707 -0.2269
 1854TIP3    H1 5568   0.665   5.757   3.614  1.8815 -1.2131  0.0112
 1854TIP3    H2 5569   0.625   5.738   3.758 -0.9099  1.8576 -0.2339
 1855TIP3   OH2 5570   1.996   2.904   2.936 -0.0102  0.1590  0.5558
 1855TIP3    H1 5571   2.069   2.954   2.899 -0.3754  1.1237  1.1174
 1855TIP3    H2 5572   1.930   2.904   2.866  0.4360 -0.5335  0.1264
 1856TIP3   OH2 5573   6.336   2.574   1.202 -0.0610  0.3479 -0.2703
 1856TIP3    H1 5574   6.373   2.543   1.285  1.0727 -0.6555 -1.1189
 1856TIP3    H2 5575   6.296   2.496   1.163 -0.3420  0.7463 -0.7983
 1857TIP3   OH2 5576   5.215   2.863   3.482  0.7429 -0.5015  0.0796
 1857TIP3    H1 5577   5.261   2.944   3.506  1.3364 -0.7030 -0.3573
 1857TIP3    H2 5578   5.264   2.828   3.407  0.5515 -1.3091  0.3140
 1858TIP3   OH2 5579   3.450   4.712   3.108 -0.6339  0.5944  0.1383
 1858TIP3    H1 5580   3.422   4.802   3.125  0.2402  0.6979  1.1305
 1858TIP3    H2 5581   3.380   4.675   3.054 -2.0839  1.2254  1.4974
 1859TIP3   OH2 5582   0.848   0.589   4.243  0.2100  0.8333 -0.1599
 1859TIP3    H1 5583   0.942   0.580   4.259  0.1205  1.7251  0.9432
 1859TIP3    H2 5584   0.809   0.588   4.330 -0.8204  0.4083 -0.6160
 1860TIP3   OH2 5585   2.717   2.157   2.097  0.7150 -0.3220 -0.3966
 1860TIP3    H1 5586   2.775   2.233   2.097  1.3430 -0.7721  0.5741
 1860TIP3    H2 5587   2.715   2.128   2.005 -0.6786  1.6688 -1.0546
 1861TIP3   OH2 5588   1.767   5.098   1.434  0.0226 -0.0423 -0.0303
 1861TIP3    H1 5589   1.848   5.048   1.436 -0.7863 -1.4423  2.0586
 1861TIP3    H2 5590   1.795   5.189   1.430  1.6256 -0.5304 -0.9532
 1862TIP3   OH2 5591   1.945   0.059   1.075 -0.5670 -0.0495  0.1927
 1862TIP3    H1 5592   1.855   0.070   1.104 -0.5451  0.7450 -0.0006
 1862TIP3    H2 5593   1.998   0.089   1.149 -0.4461 -1.0687  0.5264
 1863TIP3   OH2 5594   2.089   2.271   4.278  0.6540  0.0524  0.2112
 1863TIP3    H1 5595   2.060   2.224   4.200 -1.1301 -0.7440  1.2884
 1863TIP3    H2 5596   2.165   2.222   4.309 -0.4787 -1.5069  0.6577
 1864TIP3   OH2 5597   3.352   5.810   1.996 -0.0074  0.2833  0.3208
 1864TIP3    H1 5598   3.402   5.743   1.949  0.6233  0.2289  1.0494
 1864TIP3    H2 5599   3.262   5.778   1.996  0.2313 -0.4048  0.3811
 1865TIP3   OH2 5600   4.794   4.596   3.234  0.1633  0.4028 -0.4363
 1865TIP3    H1 5601   4.796   4.689   3.256 -1.1232  0.7915 -1.7994
 1865TIP3    H2 5602   4.757   4.593   3.146  2.4296 -1.2500 -1.4356
 1866TIP3   OH2 5603   5.618   0.224   2.671 -0.6392  0.2762 -0.9611
 1866TIP3    H1 5604   5.526   0.206   2.692 -0.1544 -0.8856  0.2883
 1866TIP3    H2 5605   5.616   0.311   2.632 -2.4124 -0.1965 -2.0650
 1867TIP3   OH2 5606   4.649   3.487   3.450 -0.6492  0.9258  0.1615
 1867TIP3    H1 5607   4.646   3.551   3.378 -1.9310  1.3544  0.5811
 1867TIP3    H2 5608   4.677   3.538   3.526  1.3814  0.3390 -0.1193
 1868TIP3   OH2 5609   1.086   2.718   4.144 -0.1354 -0.4148  0.3580
 1868TIP3    H1 5610   0.996   2.753   4.145  0.2312  0.5563  1.3000
 1868TIP3    H2 5611   1.105   2.700   4.235 -0.2703 -3.0942 -0.0778
 1869TIP3   OH2 5612   5.402   2.563   3.764 -0.3637  0.0066 -0.2771
 1869TIP3    H1 5613   5.430   2.605   3.845 -0.5235 -0.5175  0.0574
 1869TIP3    H2 5614   5.344   2.493   3.793  0.5501 -0.9831 -0.7544
 1870TIP3   OH2 5615   5.922   4.309   2.381  0.2052  0.3012 -0.0046
 1870TIP3    H1 5616   5.966   4.334   2.462  3.7112 -1.1672 -1.2332
 1870TIP3    H2 5617   5.931   4.213   2.378 -1.5900  0.1125 -1.2743
 1871TIP3   OH2 5618   2.764   1.403   4.467 -0.3716 -0.4518 -0.4050
 1871TIP3    H1 5619   2.847   1.360   4.488 -1.1529 -2.1474 -0.5720
 1871TIP3    H2 5620   2.704   1.373   4.535 -1.0010  0.2346 -0.6467
 1872TIP3   OH2 5621   0.369   5.736   3.744  0.4200  0.1105  0.2437
 1872TIP3    H1 5622   0.411   5.698   3.821  0.9847  0.5261  0.1457
 1872TIP3    H2 5623   0.430   5.720   3.673 -0.1602 -0.3837 -0.1464
 1873TIP3   OH2 5624   4.902   5.893   5.012 -0.1026  0.1657  0.1991
 1873TIP3    H1 5625   4.859   5.973   4.983 -1.2395 -0.5495 -0.1646
 1873TIP3    H2 5626   4.945   5.859   4.933 -0.3910 -0.0561  0.1374
 1874TIP3   OH2 5627   1.549   5.585   3.544  0.1494 -0.2587  0.0988
 1874TIP3    H1 5628   1.491   5.550   3.477 -2.3901  1.4028  1.3083
 1874TIP3    H2 5629   1.576   5.509   3.594 -2.6399 -0.9401  0.7147
 1875TIP3   OH2 5630   0.363   1.467   2.009  0.1936 -0.3343  0.1667
 1875TIP3    H1 5631   0.411   1.384   2.013 -1.3991 -1.2566  0.9197
 1875TIP3    H2 5632   0.320   1.474   2.094 -0.4687  0.7816 -0.2440
 1876TIP3   OH2 5633   5.191   4.158   3.637  0.4487 -0.1904  0.0490
 1876TIP3    H1 5634   5.151   4.099   3.573 -0.3665  1.2425 -0.8377
 1876TIP3    H2 5635   5.216   4.235   3.585  0.0429  0.8866  1.4057
 1877TIP3   OH2 5636   5.963   1.705   0.364  0.6335  0.3802 -0.5020
 1877TIP3    H1 5637   5.978   1.673   0.275 -0.1986 -2.3609  0.2515
 1877TIP3    H2 5638   5.954   1.626   0.417 -2.2410  1.8385  1.4550
 1878TIP3   OH2 5639   3.597   4.548   2.632  1.0088  0.4362  0.1535
 1878TIP3    H1 5640   3.588   4.493   2.710 -1.1890 -0.8803 -0.9291
 1878TIP3    H2 5641   3.613   4.486   2.561 -0.5243  1.2513 -0.9478
 1879TIP3   OH2 5642   6.333   1.934   0.222  0.0020 -0.1256 -0.0744
 1879TIP3    H1 5643   6.318   1.936   0.317  2.4217  1.2262  0.3462
 1879TIP3    H2 5644   6.397   1.864   0.209  0.7223  0.6090 -0.5292
 1880TIP3   OH2 5645   1.914   5.748   3.159 -0.6016 -0.0710 -0.0792
 1880TIP3    H1 5646   1.945   5.754   3.069 -0.7620  1.9633 -0.0489
 1880TIP3    H2 5647   1.980   5.793   3.210 -2.2419  2.0900  0.3026
 1881TIP3   OH2 5648   0.947   0.411   2.440  0.6751 -0.2514  0.4923
 1881TIP3    H1 5649   1.039   0.389   2.456  0.7596  0.0079  0.3781
 1881TIP3    H2 5650   0.897   0.351   2.495  0.8792 -1.1234 -0.2565
 1882TIP3   OH2 5651   5.202   3.819   0.677 -0.1663 -0.4255  0.4930
 1882TIP3    H1 5652   5.115   3.781   0.688 -0.0610 -0.7598  0.2058
 1882TIP3    H2 5653   5.260   3.761   0.726 -0.1140 -0.1509  0.7611
 1883TIP3   OH2 5654   1.160   4.081   0.340  0.4884  0.1235  0.2177
 1883TIP3    H1 5655   1.148   4.165   0.385 -0.8061 -0.2208  0.5475
 1883TIP3    H2 5656   1.106   4.019   0.388  2.5301 -1.2606  0.8418
 1884TIP3   OH2 5657   0.128   1.143   4.837  0.0736  0.3692 -0.1465
 1884TIP3    H1 5658   0.059   1.209   4.825 -0.2128 -0.2139 -1.9996
 1884TIP3    H2 5659   0.140   1.139   4.932 -0.9700  1.9802  0.1100
 1885TIP3   OH2 5660   6.237   0.679   1.149  0.1899  0.3181  0.2194
 1885TIP3    H1 5661   6.307   0.742   1.167  0.8427 -0.2904 -0.0992
 1885TIP3    H2 5662   6.254   0.607   1.209  0.4366 -0.2667 -0.5250
 1886TIP3   OH2 5663   2.912   4.804   2.122 -0.1950 -0.5860 -0.6670
 1886TIP3    H1 5664   2.835   4.858   2.103 -1.1952 -1.9961 -0.7663
 1886TIP3    H2 5665   2.876   4.722   2.156  1.2749 -1.2735 -0.6986
 1887TIP3   OH2 5666   5.790   5.801   2.975 -0.6723 -0.2212  0.1831
 1887TIP3    H1 5667   5.884   5.789   2.960 -0.9295 -1.3937 -0.6260
 1887TIP3    H2 5668   5.769   5.740   3.046 -0.8545 -0.0788  0.2519
 1888TIP3   OH2 5669   1.263   3.626   3.016  0.4394 -0.3806  0.3200
 1888TIP3    H1 5670   1.340   3.683   3.016  0.0399  0.2341 -1.6461
 1888TIP3    H2 5671   1.290   3.549   2.966 -0.2215 -0.1383 -0.4293
 1889TIP3   OH2 5672   2.885   3.974   4.607 -0.0120 -0.0359 -0.1825
 1889TIP3    H1 5673   2.873   4.006   4.697 -0.1596 -0.0594 -0.1940
 1889TIP3    H2 5674   2.980   3.965   4.598  0.1560  1.8753 -0.6910
 1890TIP3   OH2 5675   2.479   2.170   0.174  0.2571 -0.1279 -0.0998
 1890TIP3    H1 5676   2.406   2.164   0.112 -0.1592 -0.3677  0.4043
 1890TIP3    H2 5677   2.546   2.113   0.136 -0.9744 -2.4146  0.9700
 1891TIP3   OH2 5678   3.717   5.056   0.797  0.6336 -0.2520  0.1734
 1891TIP3    H1 5679   3.755   5.002   0.728  1.7003  0.6891 -0.0160
 1891TIP3    H2 5680   3.730   5.006   0.877 -1.1522 -1.6236 -0.3430
 1892TIP3   OH2 5681   3.773   0.364   1.322 -0.2048 -0.5229  0.5172
 1892TIP3    H1 5682   3.834   0.399   1.257 -0.2675 -2.3330 -0.5758
 1892TIP3    H2 5683   3.692   0.414   1.308  0.0879 -0.2141 -0.1033
 1893TIP3   OH2 5684   2.201   3.118   1.997  0.0904 -0.0485  0.2916
 1893TIP3    H1 5685   2.115   3.159   1.990  0.0123  0.4381  3.0103
 1893TIP3    H2 5686   2.187   3.044   2.057  1.4279 -0.4309  0.1697
 1894TIP3   OH2 5687   5.632   4.632   5.035 -0.0577 -0.2835 -0.0969
 1894TIP3    H1 5688   5.664   4.722   5.030  0.7764 -0.5913 -0.6748
 1894TIP3    H2 5689   5.698   4.581   4.988  0.0204 -1.3375  1.0950
 1895TIP3   OH2 5690   4.402   4.703   0.536 -0.0346 -0.3948 -0.0800
 1895TIP3    H1 5691   4.388   4.623   0.586 -1.2685 -0.6477 -0.7772
 1895TIP3    H2 5692   4.429   4.768   0.600  2.8241 -1.7848  0.2452
 1896TIP3   OH2 5693   0.871   4.299   3.492 -0.0086 -0.6354  0.0650
 1896TIP3    H1 5694   0.909   4.220   3.453 -1.5902 -1.4663  0.1399
 1896TIP3    H2 5695   0.844   4.272   3.580 -0.7043 -0.0586  0.0380
 1897TIP3   OH2 5696   1.661   2.628   1.040  0.0729 -0.0526  0.7174
 1897TIP3    H1 5697   1.663   2.603   0.948  1.9873  0.4479  0.5813
 1897TIP3    H2 5698   1.690   2.549   1.087 -1.2279 -0.4150  0.9410
 1898TIP3   OH2 5699   1.596   3.793   4.607 -0.0344 -0.1359  0.1738
 1898TIP3    H1 5700   1.568   3.884   4.594  1.3632  0.4194  0.8450
 1898TIP3    H2 5701   1.636   3.793   4.694  1.2742 -1.0631 -0.3970
 1899TIP3   OH2 5702   1.908   1.733   4.033 -0.2888  0.0401 -0.2567
 1899TIP3    H1 5703   1.843   1.758   4.099 -0.6481 -2.5019  0.4561
 1899TIP3    H2 5704   1.990   1.769   4.066 -0.7104  0.0160  0.8590
 1900TIP3   OH2 5705   5.839   0.032   4.401  0.2382  0.5242  0.1101
 1900TIP3    H1 5706   5.900  -0.041   4.401 -0.1114  0.1776  2.0040
 1900TIP3    H2 5707   5.895   0.110   4.404  0.6238  0.2173  1.4285
 1901TIP3   OH2 5708   4.292   1.715   3.246  0.1609  0.1433 -0.3260
 1901TIP3    H1 5709   4.368   1.768   3.270 -0.1705 -0.3961  2.2076
 1901TIP3    H2 5710   4.231   1.725   3.319 -0.3220 -2.9061 -0.1489
 1902TIP3   OH2 5711   1.293   5.742   4.461  0.1730  0.1524 -0.1554
 1902TIP3    H1 5712   1.270   5.820   4.512 -0.2522  2.6490 -3.7930
 1902TIP3    H2 5713   1.209   5.710   4.427  0.4596 -1.3380  0.4281
 1903TIP3   OH2 5714   0.539   2.841   3.930 -0.3300 -0.4357 -0.4394
 1903TIP3    H1 5715   0.500   2.761   3.895  0.5971 -1.5230  0.9019
 1903TIP3    H2 5716   0.611   2.811   3.985  1.0121  1.4136 -1.0776
 1904TIP3   OH2 5717   0.347   2.434   0.942  0.4245  0.1330  0.4064
 1904TIP3    H1 5718   0.399   2.486   1.004  0.8307 -1.9520  1.8954
 1904TIP3    H2 5719   0.413   2.386   0.891  0.0214 -0.5195  0.4966
 1905TIP3   OH2 5720   4.164   2.945   3.488  0.5993  0.3804  0.2162
 1905TIP3    H1 5721   4.148   2.941   3.394 -0.1226 -0.1671  0.3472
 1905TIP3    H2 5722   4.186   3.036   3.506  0.0232  0.6418 -0.3814
 1906TIP3   OH2 5723   5.020   4.456   5.179 -0.4924 -0.0889  0.0738
 1906TIP3    H1 5724   4.987   4.368   5.159  0.4462 -0.5998  0.6831
 1906TIP3    H2 5725   4.947   4.514   5.159 -1.2443 -1.0398 -0.0372
 1907TIP3   OH2 5726   3.379   5.748   0.174 -0.5440 -0.1243  0.0548
 1907TIP3    H1 5727   3.463   5.759   0.217 -0.0080 -1.3715 -0.6390
 1907TIP3    H2 5728   3.324   5.704   0.239 -0.4444  0.0474  0.2562
 1908TIP3   OH2 5729   4.227   4.071   2.935  0.2162  0.0278 -0.8086
 1908TIP3    H1 5730   4.299   4.029   2.888 -0.8016 -1.6196 -0.9958
 1908TIP3    H2 5731   4.169   4.103   2.867  0.7205  1.3391 -0.6581
 1909TIP3   OH2 5732   0.228   3.990   2.442 -0.5077 -0.4570  0.5397
 1909TIP3    H1 5733   0.288   3.957   2.376  0.2315  0.6219  0.6476
 1909TIP3    H2 5734   0.148   3.940   2.429 -1.4813  1.6762 -3.2236
 1910TIP3   OH2 5735   2.176   3.772   1.246  0.2462  0.1653  0.0192
 1910TIP3    H1 5736   2.227   3.853   1.242  1.0112 -0.2598  0.7528
 1910TIP3    H2 5737   2.087   3.800   1.268  0.1121  0.9307 -1.4072
 1911TIP3   OH2 5738   3.106   1.830   4.523 -0.3651  0.4086  0.7830
 1911TIP3    H1 5739   3.181   1.825   4.463  0.0188 -2.3349  1.3782
 1911TIP3    H2 5740   3.047   1.761   4.494 -1.4832  0.8400  1.9150
 1912TIP3   OH2 5741   3.586   3.039   1.839  0.7755 -0.6920 -0.1367
 1912TIP3    H1 5742   3.650   3.094   1.886  0.4808 -0.5069  0.0498
 1912TIP3    H2 5743   3.530   3.004   1.907 -0.9712  1.2445 -0.4634
 1913TIP3   OH2 5744   3.086   3.798   0.927  0.0129 -0.4729 -0.0764
 1913TIP3    H1 5745   3.180   3.785   0.942 -0.2341 -2.1811  0.1420
 1913TIP3    H2 5746   3.071   3.762   0.840 -0.9221 -3.0086  1.0413
 1914TIP3   OH2 5747   0.876   2.391   2.475 -0.3843 -0.0196 -0.5626
 1914TIP3    H1 5748   0.791   2.361   2.443 -0.8620  1.7997 -1.1183
 1914TIP3    H2 5749   0.888   2.345   2.558 -1.7720 -0.5400 -0.6292
 1915TIP3   OH2 5750   4.462   1.891   3.353 -0.3474 -0.5405  0.7094
 1915TIP3    H1 5751   4.553   1.876   3.381  0.1212  0.0429 -0.4643
 1915TIP3    H2 5752   4.459   1.984   3.329 -1.2477 -0.5689  0.6770
 1916TIP3   OH2 5753   3.639   4.043   0.093 -0.1806 -0.2463  0.1208
 1916TIP3    H1 5754   3.576   4.038   0.164 -0.9041 -0.0953 -0.4980
 1916TIP3    H2 5755   3.666   3.952   0.078  0.3729 -0.2217  0.9238
 1917TIP3   OH2 5756   5.572   2.668   3.588 -0.1246 -0.2450  0.3163
 1917TIP3    H1 5757   5.530   2.703   3.510  0.1154 -1.2634 -0.2917
 1917TIP3    H2 5758   5.500   2.636   3.642 -0.2411 -0.3746  0.0883
 1918TIP3   OH2 5759   4.639   3.756   1.679  0.3405 -0.6661 -0.2412
 1918TIP3    H1 5760   4.598   3.786   1.760  0.4819  0.9221 -0.7171
 1918TIP3    H2 5761   4.695   3.683   1.705 -0.9412 -1.3201  0.8013
 1919TIP3   OH2 5762   2.338   3.743   4.548 -0.5812  0.7567 -0.1060
 1919TIP3    H1 5763   2.421   3.695   4.543 -0.7481  0.3459  0.8791
 1919TIP3    H2 5764   2.324   3.775   4.459 -0.0750 -0.3805 -0.6207
 1920TIP3   OH2 5765   3.348   4.394   1.401  0.2367  0.0877  0.2847
 1920TIP3    H1 5766   3.263   4.394   1.445 -0.3442 -0.2060 -0.7937
 1920TIP3    H2 5767   3.334   4.445   1.321  1.1106  0.1532  0.1607
 1921TIP3   OH2 5768   2.998   0.135   2.371  0.0725 -0.3282  0.2791
 1921TIP3    H1 5769   2.987   0.217   2.323 -1.7202 -1.2696 -1.0685
 1921TIP3    H2 5770   3.082   0.101   2.341  0.1073  0.2920 -0.3455
 1922TIP3   OH2 5771   2.267   0.588   1.416 -0.0851  0.3350 -0.0648
 1922TIP3    H1 5772   2.231   0.503   1.393  1.0396 -0.0303 -0.5058
 1922TIP3    H2 5773   2.260   0.592   1.511 -1.9409  0.5876 -0.1720
 1923TIP3   OH2 5774   4.765   2.888   2.379  0.4274 -0.4822 -0.2339
 1923TIP3    H1 5775   4.858   2.909   2.364  0.2877 -1.4099 -2.8417
 1923TIP3    H2 5776   4.719   2.970   2.364  0.7716  0.0416  1.2984
 1924TIP3   OH2 5777   1.640   4.556   3.593  0.0638  0.1406  0.4352
 1924TIP3    H1 5778   1.613   4.641   3.558  2.8955  0.3783 -1.5012
 1924TIP3    H2 5779   1.570   4.496   3.565 -1.1606  1.5229  0.3983
 1925TIP3   OH2 5780   2.328   3.003   0.116 -0.2712 -0.2111 -0.0930
 1925TIP3    H1 5781   2.355   2.916   0.144 -0.6387  0.4807  2.7017
 1925TIP3    H2 5782   2.278   2.989   0.035  0.2537 -2.4875 -0.0623
 1926TIP3   OH2 5783   0.213   0.842   1.997 -0.6578 -0.2087  0.1779
 1926TIP3    H1 5784   0.180   0.864   1.910  0.7090  2.1581  0.1720
 1926TIP3    H2 5785   0.282   0.777   1.981  2.1249  2.7526 -1.0715
 1927TIP3   OH2 5786   2.132   1.157   4.760 -0.1409 -0.4769  0.2455
 1927TIP3    H1 5787   2.044   1.120   4.761 -0.0989 -0.5990 -0.2251
 1927TIP3    H2 5788   2.178   1.107   4.692  0.0599  0.1060 -0.0567
 1928TIP3   OH2 5789   3.664   4.187   3.919  0.0449 -0.0586  0.0730
 1928TIP3    H1 5790   3.586   4.236   3.946 -0.5072 -1.7295  1.7423
 1928TIP3    H2 5791   3.642   4.155   3.831 -1.3242 -0.8033  0.6583
 1929TIP3   OH2 5792   2.254   4.740   1.578 -0.2335 -0.5772  0.2013
 1929TIP3    H1 5793   2.274   4.808   1.642  1.4736  0.3065 -1.1857
 1929TIP3    H2 5794   2.336   4.690   1.569 -0.6381 -1.1054 -0.7717
 1930TIP3   OH2 5795   0.295   0.482   4.525 -0.7651  0.2501  0.2492
 1930TIP3    H1 5796   0.280   0.561   4.473 -1.1166  0.7184  1.0419
 1930TIP3    H2 5797   0.365   0.506   4.585 -0.7136 -0.1204  0.3353
 1931TIP3   OH2 5798   1.119   3.292   0.115  0.5316  0.3006 -0.0535
 1931TIP3    H1 5799   1.114   3.253   0.202  0.9431  1.0580  0.3189
 1931TIP3    H2 5800   1.130   3.386   0.131 -1.0701  0.6659 -0.9449
 1932TIP3   OH2 5801   1.336   2.496   4.631  0.2037 -0.3483  0.1831
 1932TIP3    H1 5802   1.402   2.428   4.638  1.5984  1.0273  1.2070
 1932TIP3    H2 5803   1.385   2.578   4.642 -1.6000  0.7552  0.4110
 1933TIP3   OH2 5804   3.631   0.847   1.366  0.1756  0.2755 -0.0816
 1933TIP3    H1 5805   3.590   0.928   1.394 -1.6535 -0.3848 -0.6974
 1933TIP3    H2 5806   3.600   0.781   1.429 -0.4023 -0.3841 -1.0205
 1934TIP3   OH2 5807   1.302   5.384   0.071 -0.0564  0.0420 -0.1148
 1934TIP3    H1 5808   1.359   5.377  -0.006  1.2657 -1.0398  0.9220
 1934TIP3    H2 5809   1.222   5.337   0.046 -0.0461  0.5543 -1.1632
 1935TIP3   OH2 5810   4.435   4.923   1.787 -0.2913 -0.5909  0.0181
 1935TIP3    H1 5811   4.357   4.875   1.759 -0.8197 -0.0165  0.4719
 1935TIP3    H2 5812   4.481   4.943   1.706 -0.3731 -1.3368 -0.2209
 1936TIP3   OH2 5813   0.200   5.813   0.268  0.6047 -0.3030 -0.1193
 1936TIP3    H1 5814   0.182   5.719   0.281  2.0717 -0.4327  1.3813
 1936TIP3    H2 5815   0.143   5.856   0.332  0.3776 -0.2238 -0.3780
 1937TIP3   OH2 5816   3.777   1.282   5.037 -0.1046 -0.1182  0.2130
 1937TIP3    H1 5817   3.774   1.376   5.056 -1.4415 -0.2513  0.7574
 1937TIP3    H2 5818   3.807   1.277   4.947  0.8502  0.7872  0.4547
 1938TIP3   OH2 5819   0.579   2.902   1.887  0.1213 -0.4240 -0.2758
 1938TIP3    H1 5820   0.489   2.910   1.855 -0.0158 -0.3082  0.1292
 1938TIP3    H2 5821   0.580   2.820   1.936  0.2330 -0.4186 -0.2695
 1939TIP3   OH2 5822   2.147   0.577   3.011 -0.1071  0.2383  0.2154
 1939TIP3    H1 5823   2.055   0.600   2.996 -0.1869  0.0994  0.4860
 1939TIP3    H2 5824   2.165   0.609   3.099 -0.4160 -1.3346  0.8801
 1940TIP3   OH2 5825   6.212   5.395   2.762  0.3023 -0.0166  0.5886
 1940TIP3    H1 5826   6.170   5.346   2.833  1.6939  1.2796  2.4024
 1940TIP3    H2 5827   6.291   5.431   2.802  1.7493 -0.1510 -1.9496
 1941TIP3   OH2 5828   3.015   4.601   4.698 -0.0601 -0.1254 -0.2526
 1941TIP3    H1 5829   3.093   4.566   4.739  1.3443  0.6318 -2.1286
 1941TIP3    H2 5830   2.959   4.628   4.771  1.0745 -1.3562  1.1414
 1942TIP3   OH2 5831   1.796   1.155   0.764  0.1423 -0.4485 -0.1412
 1942TIP3    H1 5832   1.869   1.102   0.733  0.7705  0.5087 -0.3391
 1942TIP3    H2 5833   1.837   1.226   0.812 -0.6916 -0.1750  0.1747
 1943TIP3   OH2 5834   2.846   4.497   4.462  0.1524  0.1714  0.4576
 1943TIP3    H1 5835   2.782   4.427   4.474 -0.0241  0.1215 -0.6887
 1943TIP3    H2 5836   2.870   4.523   4.551 -1.0228 -0.2064  0.9015
 1944TIP3   OH2 5837   3.042   1.386   2.668 -0.0005  0.0542  0.3472
 1944TIP3    H1 5838   2.970   1.324   2.663  0.9626 -1.2002  1.3106
 1944TIP3    H2 5839   3.042   1.415   2.759  0.2005  0.6756  0.1517
 1945TIP3   OH2 5840   0.214   1.932   2.491  0.1909  0.1173  0.3471
 1945TIP3    H1 5841   0.137   1.951   2.437  0.9143 -0.0128 -0.7554
 1945TIP3    H2 5842   0.245   1.847   2.459  1.9224  1.0535 -0.5968
 1946TIP3   OH2 5843   1.619   1.395   3.197  0.1056 -0.2521 -0.0064
 1946TIP3    H1 5844   1.625   1.416   3.104  3.4464 -2.0715 -0.3309
 1946TIP3    H2 5845   1.701   1.426   3.235 -0.7914 -0.3610  2.2282
 1947TIP3   OH2 5846   3.390   0.162   2.042 -0.1478 -0.0339  0.0372
 1947TIP3    H1 5847   3.430   0.118   2.117 -1.3566 -0.2924  0.5535
 1947TIP3    H2 5848   3.410   0.106   1.968  0.1908 -0.3178  0.3403
 1948TIP3   OH2 5849   5.769   0.966   1.913 -0.2474 -0.3088  0.9564
 1948TIP3    H1 5850   5.818   0.884   1.926  0.2653  0.0833  1.5510
 1948TIP3    H2 5851   5.678   0.942   1.925 -0.1615 -0.9374  0.4212
 1949TIP3   OH2 5852   3.207   3.349   1.086  0.0346 -0.1950  0.4905
 1949TIP3    H1 5853   3.228   3.278   1.146  0.3476 -0.0036  0.6104
 1949TIP3    H2 5854   3.172   3.419   1.142 -0.3890 -0.2973  0.3595
 1950TIP3   OH2 5855   5.738   1.447   4.261  0.6444  0.1919  0.0559
 1950TIP3    H1 5856   5.793   1.429   4.337 -0.8256  0.4158  1.2332
 1950TIP3    H2 5857   5.784   1.514   4.212  2.3708 -1.0547 -0.1128
 1951TIP3   OH2 5858   0.206   2.025   0.760  0.1800 -0.4139  0.1920
 1951TIP3    H1 5859   0.258   2.083   0.704  0.2207 -1.3198 -0.7381
 1951TIP3    H2 5860   0.227   2.053   0.849  1.6475 -0.2200 -0.1831
 1952TIP3   OH2 5861   6.057   5.658   2.224 -0.7296  0.5453  0.2497
 1952TIP3    H1 5862   6.047   5.586   2.287 -0.8658  0.1924 -0.1665
 1952TIP3    H2 5863   6.020   5.734   2.268 -1.0809  0.2421  0.4908
 1953TIP3   OH2 5864   2.923   2.452   1.472 -0.2559 -0.2625 -0.2736
 1953TIP3    H1 5865   2.846   2.498   1.505 -0.6582  0.2605 -1.8383
 1953TIP3    H2 5866   2.903   2.434   1.380  1.7066  0.4173 -0.8995
 1954TIP3   OH2 5867   0.857   1.691   0.486 -0.3279 -0.4712 -0.7132
 1954TIP3    H1 5868   0.796   1.762   0.505 -1.1254 -0.8200 -1.8749
 1954TIP3    H2 5869   0.803   1.612   0.484  0.6782 -1.2987  1.4801
 1955TIP3   OH2 5870   1.263   2.111   3.376  0.0741  0.2209 -0.1679
 1955TIP3    H1 5871   1.267   2.110   3.472 -2.0587 -0.7088 -0.0318
 1955TIP3    H2 5872   1.309   2.191   3.351  0.4135  0.6394  1.6392
 1956TIP3   OH2 5873   0.664   5.375   2.440  0.0958 -0.4035  0.0727
 1956TIP3    H1 5874   0.675   5.292   2.394 -0.2794 -0.1786 -0.4365
 1956TIP3    H2 5875   0.601   5.356   2.509  0.0992 -0.5740  0.0286
 1957TIP3   OH2 5876   1.567   1.886   1.367 -0.0697 -0.2323 -0.0709
 1957TIP3    H1 5877   1.629   1.937   1.315 -1.2444 -0.2229 -1.5417
 1957TIP3    H2 5878   1.531   1.822   1.305 -0.8871 -0.7978  0.9539
 1958TIP3   OH2 5879   0.885   0.197   3.635  0.1697  0.0821  0.5304
 1958TIP3    H1 5880   0.834   0.152   3.568 -0.4924  1.5964 -0.0321
 1958TIP3    H2 5881   0.820   0.250   3.683  0.8993  0.3706  1.2210
 1959TIP3   OH2 5882   1.026   3.921   1.638  0.2105  0.3640 -0.0379
 1959TIP3    H1 5883   0.967   3.942   1.711  1.3797  0.8686  0.7961
 1959TIP3    H2 5884   1.086   3.856   1.674  0.8539  0.6843 -0.5121
 1960TIP3   OH2 5885   3.706   2.037   3.309 -0.2424 -0.3531 -0.0106
 1960TIP3    H1 5886   3.614   2.062   3.314 -0.5878 -1.0915 -1.7721
 1960TIP3    H2 5887   3.707   1.963   3.249  1.5498 -0.1788 -0.2501
 1961TIP3   OH2 5888   5.964   2.895   2.869 -0.3026  0.0912 -0.2489
 1961TIP3    H1 5889   5.883   2.868   2.826  0.0349 -1.0842 -0.1869
 1961TIP3    H2 5890   6.021   2.924   2.798 -0.0645 -1.0148 -0.5340
 1962TIP3   OH2 5891   5.865   2.575   4.557  0.3269  0.4243  0.3301
 1962TIP3    H1 5892   5.946   2.609   4.595  0.6537 -1.9392  1.9315
 1962TIP3    H2 5893   5.879   2.582   4.462  2.1622  0.5902  0.5781
 1963TIP3   OH2 5894   3.731   3.822   3.109  0.5029  0.0103 -0.4136
 1963TIP3    H1 5895   3.648   3.781   3.087  0.9749 -0.6266 -1.0849
 1963TIP3    H2 5896   3.763   3.773   3.184 -0.0439  0.7061  0.2844
 1964TIP3   OH2 5897   4.953   5.669   3.016  0.2011  0.2411  0.3818
 1964TIP3    H1 5898   5.044   5.659   2.986 -0.3051 -0.2437 -1.0927
 1964TIP3    H2 5899   4.930   5.583   3.050  0.5855  0.6284  1.6488
 1965TIP3   OH2 5900   0.566   1.742   3.871 -0.1549  0.6441  0.2087
 1965TIP3    H1 5901   0.538   1.674   3.810  0.1441  1.5992 -1.0395
 1965TIP3    H2 5902   0.520   1.820   3.842  0.1824  1.1731  1.0800
 1966TIP3   OH2 5903   2.827   5.089   4.183  0.3373 -0.3403 -0.1501
 1966TIP3    H1 5904   2.790   5.170   4.146  1.0552  0.1183  0.1165
 1966TIP3    H2 5905   2.763   5.021   4.161 -1.0423  0.5401  0.9219
 1967TIP3   OH2 5906   1.667   5.376   4.715 -0.3266 -0.5408 -0.1221
 1967TIP3    H1 5907   1.668   5.460   4.669 -0.1842 -0.5900 -0.2110
 1967TIP3    H2 5908   1.577   5.344   4.705 -1.1704  0.8714  2.2436
 1968TIP3   OH2 5909   2.621   2.502   3.872 -1.1576  0.0254 -0.2033
 1968TIP3    H1 5910   2.616   2.454   3.954 -0.2174  0.1686 -0.0513
 1968TIP3    H2 5911   2.559   2.457   3.814 -0.3861 -1.2945 -0.0339
 1969TIP3   OH2 5912   3.739   4.879   5.120  0.1474  0.0816 -0.3349
 1969TIP3    H1 5913   3.723   4.882   5.026 -1.5593  0.4651 -0.0721
 1969TIP3    H2 5914   3.699   4.959   5.154  1.7019  0.4903  0.6080
 1970TIP3   OH2 5915   1.510   3.850   0.747 -0.2528 -0.3410  0.4519
 1970TIP3    H1 5916   1.574   3.864   0.817  0.1756 -0.0378  0.0121
 1970TIP3    H2 5917   1.450   3.924   0.755 -0.2611 -0.3588  0.5579
 1971TIP3   OH2 5918   0.409   4.112   3.718  0.3901  0.0776 -0.0912
 1971TIP3    H1 5919   0.426   4.202   3.691 -1.0254  0.3537 -0.0997
 1971TIP3    H2 5920   0.334   4.117   3.776  0.5539 -1.0541  0.2531
 1972TIP3   OH2 5921   2.819   4.136   2.647 -0.0918 -0.6038  0.0252
 1972TIP3    H1 5922   2.746   4.097   2.695 -0.0900 -3.3927 -1.9749
 1972TIP3    H2 5923   2.784   4.152   2.559  0.8065  1.2752 -0.0356
 1973TIP3   OH2 5924   4.776   0.916   3.600  0.5285 -0.2618  0.4838
 1973TIP3    H1 5925   4.700   0.935   3.655  1.6430  1.5421  1.4954
 1973TIP3    H2 5926   4.781   0.821   3.598 -0.8284 -0.3915  1.6931
 1974TIP3   OH2 5927   1.944   2.953   1.173  0.5222  0.2403  0.5899
 1974TIP3    H1 5928   2.023   2.909   1.141  0.8255  1.0716  0.1827
 1974TIP3    H2 5929   1.974   3.005   1.248  0.2419  0.1185  0.7921
 1975TIP3   OH2 5930   1.455   2.113   3.909 -0.2214 -0.3107  0.1187
 1975TIP3    H1 5931   1.488   2.202   3.895 -2.4081  0.5754  0.2348
 1975TIP3    H2 5932   1.421   2.086   3.824  0.0880 -0.9046  0.1752
 1976TIP3   OH2 5933   0.870   3.672   4.796  0.2842  0.2715  0.3697
 1976TIP3    H1 5934   0.831   3.639   4.877  2.9380 -0.7124  1.3549
 1976TIP3    H2 5935   0.887   3.764   4.814  0.2066  0.2291  0.6773
 1977TIP3   OH2 5936   1.700   5.330   2.380 -0.6343 -0.4776  0.5100
 1977TIP3    H1 5937   1.741   5.252   2.342  0.6208  1.2376 -1.9413
 1977TIP3    H2 5938   1.618   5.298   2.418  0.8752 -3.3191  1.6496
 1978TIP3   OH2 5939   0.380   4.635   0.086 -0.0471  0.7969 -0.1255
 1978TIP3    H1 5940   0.290   4.646   0.119  0.3292 -0.5879  1.4754
 1978TIP3    H2 5941   0.432   4.697   0.137  0.0239  1.1077 -0.5702
 1979TIP3   OH2 5942   4.993   4.182   4.332  0.3586 -0.0935 -0.6172
 1979TIP3    H1 5943   4.908   4.150   4.302 -2.1535  3.4527  1.9065
 1979TIP3    H2 5944   5.037   4.214   4.253 -1.0066 -1.1566 -1.8480
 1980TIP3   OH2 5945   3.176   5.452   1.578  0.6879 -0.0217 -0.2608
 1980TIP3    H1 5946   3.241   5.497   1.633 -0.9476  1.8574  0.2604
 1980TIP3    H2 5947   3.221   5.435   1.496  2.3694 -0.4287  0.6983
 1981TIP3   OH2 5948   5.785   5.106   2.058  0.8696  0.2358 -0.8730
 1981TIP3    H1 5949   5.705   5.059   2.034  1.0550  0.1672 -1.3800
 1981TIP3    H2 5950   5.822   5.133   1.974  2.3972 -1.3785 -0.7770
 1982TIP3   OH2 5951   0.087   4.934   1.647  0.1601 -0.0220  0.4372
 1982TIP3    H1 5952   0.107   4.921   1.555  2.4884  0.7887  0.7783
 1982TIP3    H2 5953  -0.005   4.908   1.655  0.1322 -0.8814 -1.9227
 1983TIP3   OH2 5954   1.995   5.593   1.706 -0.1161 -0.0183  0.3906
 1983TIP3    H1 5955   1.957   5.675   1.737  1.3729  1.6388 -1.8116
 1983TIP3    H2 5956   2.013   5.608   1.613  2.2420 -2.0564  0.3930
 1984TIP3   OH2 5957   0.370   0.817   3.164 -0.4164  0.0921  1.1799
 1984TIP3    H1 5958   0.354   0.784   3.252 -0.3961  0.5905  1.3712
 1984TIP3    H2 5959   0.314   0.763   3.108  1.7237 -2.2499  1.1080
 1985TIP3   OH2 5960   1.534   3.210   1.112  0.0228 -0.3497  0.5659
 1985TIP3    H1 5961   1.528   3.229   1.018 -2.3931 -1.3672  0.4371
 1985TIP3    H2 5962   1.571   3.122   1.116  0.8665  0.0004  0.6263
 1986TIP3   OH2 5963   0.774   4.600   2.170  0.7912  0.8976 -0.1656
 1986TIP3    H1 5964   0.848   4.586   2.229  0.3604 -2.2747 -0.2116
 1986TIP3    H2 5965   0.812   4.595   2.082  0.5059 -1.6194 -0.2108
 1987TIP3   OH2 5966   2.700   5.901   4.438  0.5638 -0.1288  0.2139
 1987TIP3    H1 5967   2.732   5.898   4.348  2.0310  2.5488  0.5422
 1987TIP3    H2 5968   2.778   5.885   4.491 -0.1744 -1.0819  1.0400
 1988TIP3   OH2 5969   5.905   3.091   5.015  0.0372  0.3692 -0.3266
 1988TIP3    H1 5970   5.837   3.134   4.963  2.1016  3.9763 -0.3604
 1988TIP3    H2 5971   5.870   3.090   5.104 -0.1913  2.0148 -0.3738
 1989TIP3   OH2 5972   2.995   5.525   0.240  0.6208 -0.5983 -0.1672
 1989TIP3    H1 5973   3.005   5.439   0.281  2.2092 -0.6239 -0.5573
 1989TIP3    H2 5974   3.054   5.523   0.165  0.6328  0.8227 -0.2241
 1990TIP3   OH2 5975   4.112   0.425   3.557 -0.1039  0.1140 -0.2554
 1990TIP3    H1 5976   4.050   0.352   3.557 -1.7545  1.4523 -1.0285
 1990TIP3    H2 5977   4.108   0.459   3.467  0.4374  1.3328  0.1684
 1991TIP3   OH2 5978   5.399   1.638   0.563  0.2275  0.6173  0.4827
 1991TIP3    H1 5979   5.407   1.553   0.606  1.0509  1.6349  2.4791
 1991TIP3    H2 5980   5.374   1.617   0.473 -1.7265 -1.6341  1.4498
 1992TIP3   OH2 5981   0.861   2.291   1.792 -0.1548  0.2472 -0.0728
 1992TIP3    H1 5982   0.822   2.378   1.793 -1.7200 -0.4238  1.7332
 1992TIP3    H2 5983   0.817   2.246   1.719 -1.5503  0.0626  0.8439
 1993TIP3   OH2 5984   4.880   3.330   2.713  0.1550 -0.5608 -0.2987
 1993TIP3    H1 5985   4.973   3.353   2.707 -0.1910  0.8447 -0.5487
 1993TIP3    H2 5986   4.834   3.409   2.685 -1.1658 -0.3963  2.0490
 1994TIP3   OH2 5987   2.911   0.512   5.026  0.4214  0.0784 -0.3269
 1994TIP3    H1 5988   2.835   0.480   5.074 -0.5141  0.2412 -1.6441
 1994TIP3    H2 5989   2.942   0.587   5.076  0.6513 -0.8793  1.0236
 1995TIP3   OH2 5990   0.055   0.774   2.202 -0.9694  0.1944  0.2094
 1995TIP3    H1 5991   0.111   0.796   2.127 -2.4068  0.8653 -0.7140
 1995TIP3    H2 5992  -0.017   0.724   2.164 -2.1605  1.2511  0.9812
 1996TIP3   OH2 5993   3.472   1.939   4.012 -0.2610  0.6352 -0.1770
 1996TIP3    H1 5994   3.466   1.894   4.096 -0.1965  0.5679 -0.2079
 1996TIP3    H2 5995   3.458   1.871   3.947 -3.0951  1.1193 -0.2049
 1997TIP3   OH2 5996   2.373   2.867   0.827  0.6401 -0.0665  0.1484
 1997TIP3    H1 5997   2.463   2.852   0.858  0.6370 -1.3248 -0.3890
 1997TIP3    H2 5998   2.349   2.785   0.784 -0.0919  0.8847 -1.3594
 1998TIP3   OH2 5999   4.779   5.985   4.313  0.3316 -0.2042  0.1770
 1998TIP3    H1 6000   4.760   5.901   4.354  0.6086 -0.4931 -0.2732
 1998TIP3    H2 6001   4.753   6.051   4.378 -0.7925 -0.6094  0.1605
 1999TIP3   OH2 6002   2.743   5.830   2.049 -0.4852 -0.0984  0.2405
 1999TIP3    H1 6003   2.755   5.769   2.122 -2.4170 -0.7595  0.0676
 1999TIP3    H2 6004   2.667   5.795   2.001  1.9836 -1.0297 -3.4682
 2000TIP3   OH2 6005   2.898   3.470   1.504  0.6476  0.1299 -0.4537
 2000TIP3    H1 6006   2.817   3.452   1.455  0.2208 -0.4953  0.4602
 2000TIP3    H2 6007   2.884   3.430   1.589  1.5613  0.8254  0.0423
 2001TIP3   OH2 6008   1.859   5.440   1.003  0.2336 -0.3434  0.0992
 2001TIP3    H1 6009   1.906   5.357   1.004 -0.4328 -0.7306 -0.4542
 2001TIP3    H2 6010   1.849   5.462   0.911 -0.0559  0.0841  0.2276
 2002TIP3   OH2 6011   2.678   1.259   0.033  0.0160  0.5464 -0.3359
 2002TIP3    H1 6012   2.633   1.305  -0.038 -1.4938 -0.1296  0.1614
 2002TIP3    H2 6013   2.680   1.321   0.105 -0.9940  0.2396 -0.0410
 2003TIP3   OH2 6014   6.160   0.459   3.683  0.7640 -0.9726  0.2403
 2003TIP3    H1 6015   6.154   0.437   3.590  0.5491 -1.0491  0.2720
 2003TIP3    H2 6016   6.113   0.388   3.727 -1.5164  0.4260  0.2386
 2004TIP3   OH2 6017   2.235   0.852   3.502 -0.0469  0.0140 -0.6224
 2004TIP3    H1 6018   2.207   0.798   3.577 -0.1817  0.5597 -0.2773
 2004TIP3    H2 6019   2.316   0.894   3.531  0.9527 -1.2366 -1.4717
 2005TIP3   OH2 6020   1.038   3.401   5.109  0.1913  0.3334 -0.3703
 2005TIP3    H1 6021   1.118   3.442   5.142 -0.1090 -0.1234  0.9929
 2005TIP3    H2 6022   0.983   3.474   5.080  1.4104  0.6215 -2.1863
 2006TIP3   OH2 6023   4.586   1.079   1.820 -0.0216 -0.3930 -0.4184
 2006TIP3    H1 6024   4.663   1.116   1.777 -0.9784 -1.7440 -3.5258
 2006TIP3    H2 6025   4.513   1.133   1.790 -0.5176  0.0096  1.3811
 2007TIP3   OH2 6026   3.189   0.852   4.250  0.8276  0.0258  0.1298
 2007TIP3    H1 6027   3.098   0.871   4.270  1.0352  1.0374  0.1514
 2007TIP3    H2 6028   3.185   0.785   4.182  0.0689  0.1355  0.0596
 2008TIP3   OH2 6029   2.083   1.432   4.645 -0.5775 -0.2562 -0.2766
 2008TIP3    H1 6030   2.078   1.456   4.553 -1.9578 -1.0648 -0.4395
 2008TIP3    H2 6031   2.013   1.367   4.657  1.1200 -1.9912  0.7948
 2009TIP3   OH2 6032   0.604   1.325   0.695 -0.5225  0.0689 -0.2536
 2009TIP3    H1 6033   0.583   1.416   0.673 -0.5841  0.0855 -0.1249
 2009TIP3    H2 6034   0.661   1.331   0.771  3.1356  0.2400 -2.7336
 2010TIP3   OH2 6035   2.673   5.503   2.549 -0.1928  0.3636  0.2833
 2010TIP3    H1 6036   2.677   5.463   2.462 -4.2333 -0.0784  0.1186
 2010TIP3    H2 6037   2.655   5.595   2.532  1.0594  0.7097  0.7110
 2011TIP3   OH2 6038   4.238   1.663   0.783 -0.4021 -0.0335  0.9956
 2011TIP3    H1 6039   4.230   1.752   0.749 -0.4872  0.4049  2.1254
 2011TIP3    H2 6040   4.222   1.671   0.877 -0.0765 -1.1928  1.1725
 2012TIP3   OH2 6041   4.575   5.044   0.506  0.2655 -0.7154 -0.0421
 2012TIP3    H1 6042   4.600   4.997   0.427 -0.5605 -2.6799  0.8085
 2012TIP3    H2 6043   4.479   5.047   0.503  0.2668  0.0949  0.3890
 2013TIP3   OH2 6044   1.988   3.903   4.860  0.2672 -0.0997 -0.1598
 2013TIP3    H1 6045   2.048   3.900   4.786 -0.1071  0.0835 -0.4774
 2013TIP3    H2 6046   2.034   3.954   4.927  0.6137 -0.2863 -0.2578
 2014TIP3   OH2 6047   2.002   3.151   4.835  0.6142  0.0143  0.0244
 2014TIP3    H1 6048   1.963   3.181   4.752  0.7775 -1.4514 -0.6202
 2014TIP3    H2 6049   2.045   3.069   4.812  1.8199  0.2673  1.3015
 2015TIP3   OH2 6050   3.736   4.441   4.210 -0.5298 -0.0561 -0.7136
 2015TIP3    H1 6051   3.730   4.534   4.228  1.7343 -0.2939  2.1279
 2015TIP3    H2 6052   3.709   4.399   4.292  2.0058 -1.7089 -0.6094
 2016TIP3   OH2 6053   0.950   1.589   0.775 -0.0486  0.5758  0.1687
 2016TIP3    H1 6054   0.963   1.500   0.741  0.8082  1.8675 -3.2865
 2016TIP3    H2 6055   0.856   1.605   0.766  0.0671  0.6454 -1.0549
 2017TIP3   OH2 6056   1.352   3.392   5.001  0.6270 -0.3157 -0.4058
 2017TIP3    H1 6057   1.431   3.427   4.959  0.6004  0.3532  0.0856
 2017TIP3    H2 6058   1.330   3.457   5.068  2.2437 -2.6174  2.5900
 2018TIP3   OH2 6059   1.417   4.955   1.185 -0.2221 -0.0954 -0.5773
 2018TIP3    H1 6060   1.497   4.980   1.139  0.2650  0.1074  0.3526
 2018TIP3    H2 6061   1.444   4.946   1.277 -0.8994 -1.6678 -0.4987
 2019TIP3   OH2 6062   0.051   4.309   4.467 -0.5046  0.5110  0.5123
 2019TIP3    H1 6063  -0.034   4.350   4.482 -0.7122 -0.3897  2.1137
 2019TIP3    H2 6064   0.030   4.217   4.451  0.1573  0.2176  1.2270
 2020TIP3   OH2 6065   0.768   3.346   4.489 -0.0282  0.3899 -0.7435
 2020TIP3    H1 6066   0.736   3.429   4.524 -0.8660 -0.7218  1.2609
 2020TIP3    H2 6067   0.854   3.335   4.530  0.1866  0.3742 -1.1942
 2021TIP3   OH2 6068   1.029   5.852   0.448 -0.1478 -0.3208  0.2541
 2021TIP3    H1 6069   0.991   5.897   0.373 -1.4028 -2.1295 -0.2455
 2021TIP3    H2 6070   1.119   5.885   0.452 -0.8065  1.7175 -0.4410
 2022TIP3   OH2 6071   1.807   1.278   4.677  0.0300  0.6216  0.6914
 2022TIP3    H1 6072   1.841   1.206   4.730  0.7327  1.0805  0.8739
 2022TIP3    H2 6073   1.727   1.304   4.722  0.5185  0.8779  1.4339
 2023TIP3   OH2 6074   1.268   4.879   3.225 -0.1692 -0.5573  0.6486
 2023TIP3    H1 6075   1.340   4.942   3.222 -0.6310  0.0044  1.3088
 2023TIP3    H2 6076   1.194   4.925   3.184  0.0269 -1.3972 -0.7306
 2024TIP3   OH2 6077   2.658   2.753   4.039  0.4052 -0.2373  0.3069
 2024TIP3    H1 6078   2.651   2.658   4.034  1.1880 -0.3860  1.7001
 2024TIP3    H2 6079   2.610   2.784   3.962 -1.1884 -1.6992  0.6345
 2025TIP3   OH2 6080   5.012   4.922   2.720 -0.0157  0.3333  0.2754
 2025TIP3    H1 6081   4.934   4.920   2.663 -1.0729 -0.1453  1.6759
 2025TIP3    H2 6082   4.996   4.996   2.779  1.0747  0.8329 -0.0410
 2026TIP3   OH2 6083   1.512   5.576   4.375 -0.5233 -0.5837 -0.4491
 2026TIP3    H1 6084   1.562   5.592   4.295 -0.0437 -0.2702 -0.0888
 2026TIP3    H2 6085   1.432   5.627   4.362  0.0888  0.4713 -0.2106
 2027TIP3   OH2 6086   1.813   3.912   2.621 -0.1658  0.6802  0.4041
 2027TIP3    H1 6087   1.756   3.839   2.597  1.5207 -0.1240 -1.5125
 2027TIP3    H2 6088   1.826   3.960   2.539  1.0737  1.4058  0.9954
 2028TIP3   OH2 6089   3.810   3.611   0.771  0.1992 -0.8961  0.4055
 2028TIP3    H1 6090   3.764   3.635   0.690  0.1069 -0.0624  0.6965
 2028TIP3    H2 6091   3.902   3.626   0.752  0.3013 -1.8469  0.0725
 2029TIP3   OH2 6092   2.261   1.660   2.147  0.1866  0.1411 -0.1310
 2029TIP3    H1 6093   2.325   1.674   2.076 -0.7510 -0.3140 -1.0971
 2029TIP3    H2 6094   2.283   1.573   2.181 -0.5576 -0.4966 -1.1951
 2030TIP3   OH2 6095   3.886   1.403   1.490  0.5880  0.4373 -0.2383
 2030TIP3    H1 6096   3.909   1.467   1.556  0.7509  0.4560 -0.3139
 2030TIP3    H2 6097   3.822   1.447   1.435 -1.3290 -0.3295  1.2595
 2031TIP3   OH2 6098   0.379   4.798   5.147  0.2584 -0.1009 -0.3779
 2031TIP3    H1 6099   0.447   4.828   5.208  0.4071 -2.0048  0.4614
 2031TIP3    H2 6100   0.400   4.706   5.131 -1.3983 -0.3883 -1.1288
 2032TIP3   OH2 6101   4.014   5.773   3.702  0.2258  0.1488 -0.2995
 2032TIP3    H1 6102   4.002   5.703   3.638  0.1392  1.3766 -1.6515
 2032TIP3    H2 6103   3.933   5.823   3.699  0.8514  1.1685 -0.4093
 2033TIP3   OH2 6104   3.213   2.146   4.827 -0.3536 -0.0213 -0.5479
 2033TIP3    H1 6105   3.254   2.229   4.850 -0.6851 -0.1171  0.4189
 2033TIP3    H2 6106   3.245   2.127   4.739  2.4564 -0.5428  0.4748
 2034TIP3   OH2 6107   1.658   5.555   1.362 -0.8180  0.3846 -0.1892
 2034TIP3    H1 6108   1.724   5.491   1.385  0.4138  1.0777 -1.6151
 2034TIP3    H2 6109   1.592   5.506   1.312 -0.5849 -0.0314 -0.0875
 2035TIP3   OH2 6110   5.293   2.939   2.025  0.4908  0.1991 -0.1300
 2035TIP3    H1 6111   5.320   2.962   2.114  1.4371 -0.7444 -0.1507
 2035TIP3    H2 6112   5.363   2.882   1.993  0.2406  0.6562 -1.5437
 2036TIP3   OH2 6113   2.935   5.800   2.397 -0.0240  0.0953 -0.0754
 2036TIP3    H1 6114   2.979   5.755   2.325 -0.7295 -1.2047  0.2858
 2036TIP3    H2 6115   3.003   5.807   2.465  0.1722 -0.1307 -0.2469
 2037TIP3   OH2 6116   3.076   0.549   1.317 -0.4145  0.2340  0.2901
 2037TIP3    H1 6117   3.052   0.456   1.326 -1.7984  0.7196  2.5821
 2037TIP3    H2 6118   3.106   0.558   1.227 -1.2507 -2.2182 -0.3058
 2038TIP3   OH2 6119   0.086   2.588   0.692 -0.1785  0.0517 -0.2331
 2038TIP3    H1 6120   0.110   2.677   0.718  1.7605 -0.2548 -0.7890
 2038TIP3    H2 6121   0.032   2.599   0.614 -1.2851  0.7598  0.5990
 2039TIP3   OH2 6122   5.160   5.363   3.528  0.4060  0.0457  0.2023
 2039TIP3    H1 6123   5.144   5.438   3.585 -0.7565 -0.8132  1.0504
 2039TIP3    H2 6124   5.073   5.331   3.504  0.8507  0.2112 -1.8831
 2040TIP3   OH2 6125   1.379   0.594   1.803  0.0396  0.2397  0.1158
 2040TIP3    H1 6126   1.438   0.667   1.787 -0.1130  0.4276  0.3969
 2040TIP3    H2 6127   1.342   0.612   1.889 -2.4196  1.4919 -1.1210
 2041TIP3   OH2 6128   5.096   3.962   2.575 -0.0823 -0.1765 -0.0078
 2041TIP3    H1 6129   5.160   3.905   2.533  0.6942  0.4170  0.3490
 2041TIP3    H2 6130   5.059   4.013   2.503 -0.0263 -0.3897 -0.1906
 2042TIP3   OH2 6131   4.221   5.522   0.256 -0.5813 -0.0218 -0.3382
 2042TIP3    H1 6132   4.163   5.496   0.328 -0.8754  0.8202 -0.2569
 2042TIP3    H2 6133   4.280   5.587   0.295  2.0774 -2.5531  0.2362
 2043TIP3   OH2 6134   5.719   1.367   2.525  0.7285  0.1782 -0.6840
 2043TIP3    H1 6135   5.727   1.334   2.614 -0.5436  2.5117  0.3659
 2043TIP3    H2 6136   5.646   1.317   2.487  0.1720  0.3472  0.1562
 2044TIP3   OH2 6137   4.868   3.717   3.371 -0.3509 -0.1455 -0.2834
 2044TIP3    H1 6138   4.841   3.700   3.461 -0.2664  0.0055 -0.2300
 2044TIP3    H2 6139   4.947   3.663   3.359 -0.3097 -0.0951 -0.2384
 2045TIP3   OH2 6140   4.165   2.570   1.140  0.1371  0.0431 -0.0555
 2045TIP3    H1 6141   4.257   2.547   1.131  0.1990  0.8041 -1.7507
 2045TIP3    H2 6142   4.133   2.516   1.213  1.7955 -0.5506  0.2607
 2046TIP3   OH2 6143   4.425   2.462   4.208 -0.0375  0.6305 -0.0412
 2046TIP3    H1 6144   4.505   2.411   4.225  0.3277  1.0833 -0.3540
 2046TIP3    H2 6145   4.408   2.447   4.115 -0.1420  0.7802 -0.0457
 2047TIP3   OH2 6146   1.324   4.169   4.137  0.5601  0.1233  0.0208
 2047TIP3    H1 6147   1.343   4.077   4.121  0.3014  0.1198 -0.2681
 2047TIP3    H2 6148   1.252   4.168   4.200  0.1947  0.1258 -0.3985
 2048TIP3   OH2 6149   2.618   0.889   0.841  0.2178 -0.5190 -0.0409
 2048TIP3    H1 6150   2.623   0.984   0.853  0.8504 -0.1713 -2.4853
 2048TIP3    H2 6151   2.536   0.864   0.883 -0.7047  1.3456 -0.6124
 2049TIP3   OH2 6152   4.648   5.966   2.674 -0.0064  0.3307 -0.6580
 2049TIP3    H1 6153   4.616   5.877   2.685  2.1809 -0.5680 -1.0216
 2049TIP3    H2 6154   4.584   6.020   2.720 -0.5816 -1.5653  0.9521
 2050TIP3   OH2 6155   1.769   1.598   4.700 -0.0251  0.2421  0.6887
 2050TIP3    H1 6156   1.824   1.554   4.636  0.6528 -0.0390  1.4518
 2050TIP3    H2 6157   1.826   1.615   4.775 -0.1208  2.9102  0.2380
 2051TIP3   OH2 6158   1.021   4.622   2.291 -0.2987 -0.3027 -0.0004
 2051TIP3    H1 6159   1.045   4.569   2.367 -0.2038  0.5007  0.5371
 2051TIP3    H2 6160   1.078   4.590   2.221  0.9992  0.2362  0.7585
 2052TIP3   OH2 6161   3.487   1.063   1.476  0.5368 -0.5029  0.0878
 2052TIP3    H1 6162   3.423   1.001   1.513 -0.1659 -0.3552 -0.8485
 2052TIP3    H2 6163   3.478   1.141   1.530 -0.7250 -0.1674 -0.5709
 2053TIP3   OH2 6164   0.469   0.360   3.102  0.0373 -0.0901 -0.3481
 2053TIP3    H1 6165   0.405   0.339   3.170  0.8837  0.2606  0.5699
 2053TIP3    H2 6166   0.543   0.301   3.119 -0.1814 -0.7923 -1.6577
 2054TIP3   OH2 6167   6.258   5.431   4.673 -0.0413 -0.1983 -0.1841
 2054TIP3    H1 6168   6.245   5.414   4.580 -0.2841 -1.6227  0.0906
 2054TIP3    H2 6169   6.173   5.462   4.704  0.5280  2.2208 -0.7832
 2055TIP3   OH2 6170   2.874   2.553   4.247 -0.0241 -0.4518  0.3682
 2055TIP3    H1 6171   2.900   2.588   4.163 -0.3497 -1.5327 -0.2029
 2055TIP3    H2 6172   2.807   2.614   4.279  1.7263  1.2774  0.9754
 2056TIP3   OH2 6173   1.319   2.895   0.197  0.0279 -0.2181 -0.0274
 2056TIP3    H1 6174   1.225   2.879   0.206 -0.1197 -0.1739 -1.3239
 2056TIP3    H2 6175   1.335   2.890   0.103  1.0924  1.0588  0.0593
 2057TIP3   OH2 6176   1.550   2.299   0.259  0.2422  0.0103  0.0735
 2057TIP3    H1 6177   1.537   2.378   0.311  0.4753 -1.1323  1.9539
 2057TIP3    H2 6178   1.488   2.236   0.296  0.2028 -0.7706 -1.2557
 2058TIP3   OH2 6179   4.294   1.148   4.061  0.1579 -0.3784 -0.0409
 2058TIP3    H1 6180   4.240   1.069   4.067 -0.7820  0.2440 -0.0172
 2058TIP3    H2 6181   4.365   1.133   4.123 -1.2120 -0.2901  1.6270
 2059TIP3   OH2 6182   2.462   2.767   2.089 -0.4040  0.0449 -0.1610
 2059TIP3    H1 6183   2.375   2.731   2.106 -0.3647  0.8419  2.2235
 2059TIP3    H2 6184   2.472   2.836   2.155  2.9523 -1.6323  1.3759
 2060TIP3   OH2 6185   0.465   4.432   3.785  0.0407  0.2571  0.0367
 2060TIP3    H1 6186   0.481   4.456   3.694  0.4978  0.6486  0.2181
 2060TIP3    H2 6187   0.385   4.479   3.808  0.0475  0.3333 -0.0934
 2061TIP3   OH2 6188   4.967   0.054   5.013 -0.1001 -0.0725  0.2584
 2061TIP3    H1 6189   5.048   0.076   5.060 -0.6811  2.0687  0.3231
 2061TIP3    H2 6190   4.948   0.130   4.959 -1.7296 -0.8139 -0.2816
 2062TIP3   OH2 6191   5.246   2.971   0.274  0.6238  0.8418 -0.4564
 2062TIP3    H1 6192   5.219   2.882   0.250  0.6798  0.8804 -0.6659
 2062TIP3    H2 6193   5.337   2.977   0.244  0.0841  1.5594 -2.0438
 2063TIP3   OH2 6194   1.645   5.529   3.942 -0.0509 -0.1995 -0.1598
 2063TIP3    H1 6195   1.633   5.482   3.859  0.1148 -0.3596 -0.0932
 2063TIP3    H2 6196   1.559   5.565   3.961 -0.0627 -0.0579 -0.4648
 2064TIP3   OH2 6197   2.970   2.309   2.002  0.2719  0.0570 -0.4006
 2064TIP3    H1 6198   2.919   2.376   1.955 -0.8498  0.7907  1.7612
 2064TIP3    H2 6199   2.979   2.343   2.091  4.4189 -0.1151 -0.5362
 2065TIP3   OH2 6200   5.428   5.773   1.607 -0.5133 -0.1418  0.4980
 2065TIP3    H1 6201   5.489   5.784   1.681 -0.3282  0.3288  0.2823
 2065TIP3    H2 6202   5.414   5.679   1.602  1.8217 -0.5117 -0.7155
 2066TIP3   OH2 6203   5.134   0.236   0.731 -0.4785 -0.1045 -0.0053
 2066TIP3    H1 6204   5.146   0.222   0.825  1.1216 -0.5342 -0.2554
 2066TIP3    H2 6205   5.176   0.320   0.714 -1.8245  0.5793 -0.1660
 2067TIP3   OH2 6206   2.721   4.008   3.182 -0.1194  0.4768  0.2947
 2067TIP3    H1 6207   2.727   4.038   3.273  0.7219  1.3884 -0.0470
 2067TIP3    H2 6208   2.638   4.043   3.151 -0.2207  0.5075  0.5926
 2068TIP3   OH2 6209   3.469   5.395   0.579 -0.3170  0.0586 -0.2965
 2068TIP3    H1 6210   3.479   5.489   0.565 -0.7985  0.0180 -0.9219
 2068TIP3    H2 6211   3.433   5.389   0.668  0.0431  0.4459 -0.1187
 2069TIP3   OH2 6212   4.532   3.203   0.327  0.4794 -0.1622  0.2876
 2069TIP3    H1 6213   4.461   3.261   0.299 -0.7670 -2.3759 -1.5166
 2069TIP3    H2 6214   4.525   3.201   0.422 -2.6979 -1.1122  0.1650
 2070TIP3   OH2 6215   5.129   1.518   3.455  0.1608  0.6244  0.3756
 2070TIP3    H1 6216   5.044   1.482   3.479 -1.0262  2.3139 -1.0472
 2070TIP3    H2 6217   5.160   1.461   3.384 -1.1100  1.5657 -0.9870
 2071TIP3   OH2 6218   2.358   2.361   2.633 -0.1949 -0.3353  0.2246
 2071TIP3    H1 6219   2.423   2.325   2.694  0.4174 -1.1503 -0.8625
 2071TIP3    H2 6220   2.409   2.419   2.576 -0.7191  0.2482  0.3382
 2072TIP3   OH2 6221   2.034   5.420   2.405  0.1786 -0.1412 -0.0817
 2072TIP3    H1 6222   2.025   5.455   2.494 -1.6854  0.4574 -0.4686
 2072TIP3    H2 6223   2.075   5.334   2.418 -1.7317 -0.9029  1.6052
 2073TIP3   OH2 6224   1.288   3.203   1.353 -0.3678  0.1165  1.1411
 2073TIP3    H1 6225   1.235   3.280   1.373  1.4079  1.2698  1.5664
 2073TIP3    H2 6226   1.294   3.202   1.257 -1.1308 -0.0274  1.0877
 2074TIP3   OH2 6227   5.414   5.615   4.285  0.3428  0.1509  0.4749
 2074TIP3    H1 6228   5.498   5.634   4.245  0.3261 -0.5034  0.1171
 2074TIP3    H2 6229   5.374   5.701   4.298 -0.8268  0.4016 -3.4171
 2075TIP3   OH2 6230   1.130   2.293   0.089 -0.0393 -0.5229  0.8093
 2075TIP3    H1 6231   1.092   2.345   0.160 -1.8036  1.5298 -1.4731
 2075TIP3    H2 6232   1.062   2.230   0.067 -0.7270  0.7450 -0.8744
 2076TIP3   OH2 6233   2.184   5.659   2.115  0.3554 -0.2183  0.5539
 2076TIP3    H1 6234   2.224   5.746   2.124  0.0610 -0.1038  0.7627
 2076TIP3    H2 6235   2.186   5.642   2.021 -2.8530  1.5776  0.0409
 2077TIP3   OH2 6236   2.004   1.995   2.560  1.0968 -0.0864 -0.3376
 2077TIP3    H1 6237   2.007   1.909   2.603 -0.7488 -0.1329 -0.2329
 2077TIP3    H2 6238   1.988   2.057   2.631  2.0390  0.3131 -0.4634
 2078TIP3   OH2 6239   0.624   5.717   1.232  0.1927 -0.2003  0.0648
 2078TIP3    H1 6240   0.706   5.741   1.188  0.0679 -0.0740 -0.1036
 2078TIP3    H2 6241   0.556   5.730   1.165  0.0255 -0.2215  0.2273
 2079TIP3   OH2 6242   5.653   4.189   3.375 -0.4245  0.3656  0.2109
 2079TIP3    H1 6243   5.633   4.163   3.285 -1.7058  0.0801  0.5484
 2079TIP3    H2 6244   5.723   4.130   3.402 -0.3533  0.1355 -0.4456
 2080TIP3   OH2 6245   6.244   3.423   1.262 -0.1205 -0.3626 -0.3924
 2080TIP3    H1 6246   6.217   3.418   1.354  0.2735 -0.7560 -0.2933
 2080TIP3    H2 6247   6.221   3.512   1.235  0.4542  0.0187  0.3202
 2081TIP3   OH2 6248   3.774   4.727   2.740 -0.3320 -0.0536 -0.2591
 2081TIP3    H1 6249   3.788   4.691   2.828  0.5938 -1.8112 -1.0601
 2081TIP3    H2 6250   3.706   4.672   2.702 -0.3751  0.3720 -0.8093
 2082TIP3   OH2 6251   3.030   5.408   0.621  0.1477  0.4824  0.3455
 2082TIP3    H1 6252   3.072   5.343   0.677  1.0270  2.0570  1.5952
 2082TIP3    H2 6253   3.094   5.479   0.614 -1.2986  1.8229  0.1805
 2083TIP3   OH2 6254   0.867   2.155   1.267  0.2012 -0.6936 -0.2653
 2083TIP3    H1 6255   0.787   2.135   1.218 -1.2616  2.3639  0.6311
 2083TIP3    H2 6256   0.893   2.242   1.237 -0.0885  0.8309  3.4003
 2084TIP3   OH2 6257   2.431   4.063   3.981 -0.3616 -0.2532 -0.5442
 2084TIP3    H1 6258   2.436   4.008   3.902 -1.5233 -0.6834 -0.3386
 2084TIP3    H2 6259   2.419   4.000   4.052  0.2947  0.1606 -0.0620
 2085TIP3   OH2 6260   0.650   4.297   0.646  0.0579 -0.2519  0.2134
 2085TIP3    H1 6261   0.694   4.213   0.630  1.4451  0.2352  1.1943
 2085TIP3    H2 6262   0.557   4.278   0.637  0.4196 -1.1459 -2.9289
 2086TIP3   OH2 6263   2.764   0.367   1.835 -0.5511 -0.4747 -0.5378
 2086TIP3    H1 6264   2.743   0.328   1.920 -1.2968 -2.0155 -1.3745
 2086TIP3    H2 6265   2.693   0.430   1.819 -0.8836 -0.8034 -0.3801
 2087TIP3   OH2 6266   4.789   3.574   0.199 -0.4701 -0.0651 -0.1791
 2087TIP3    H1 6267   4.829   3.660   0.208  0.0147 -0.2284 -0.6549
 2087TIP3    H2 6268   4.813   3.528   0.279 -2.3574  0.8531  0.9766
 2088TIP3   OH2 6269   1.628   3.300   3.254  0.1693  0.3562  0.1806
 2088TIP3    H1 6270   1.702   3.265   3.303  0.3056 -0.6400 -0.6813
 2088TIP3    H2 6271   1.576   3.222   3.232  0.3751  0.6977 -1.6506
 2089TIP3   OH2 6272   1.848   2.705   0.345  0.0315 -0.2064 -0.3683
 2089TIP3    H1 6273   1.934   2.746   0.350 -0.5805  1.2700 -1.2911
 2089TIP3    H2 6274   1.805   2.729   0.427  0.0102  0.2570 -0.5096
 2090TIP3   OH2 6275   4.147   0.090   0.270 -0.2077 -0.4517 -0.0588
 2090TIP3    H1 6276   4.220   0.152   0.271 -0.1128 -0.5626 -0.0697
 2090TIP3    H2 6277   4.185   0.009   0.234 -0.7774  0.0526 -1.8854
 2091TIP3   OH2 6278   2.753   1.848   0.187 -0.2381 -0.0048  0.1655
 2091TIP3    H1 6279   2.693   1.863   0.114  0.6105  0.9649 -0.3524
 2091TIP3    H2 6280   2.827   1.802   0.148 -0.7082 -1.4008  0.8466
 2092TIP3   OH2 6281   1.226   4.795   4.866 -0.4633 -0.4290 -0.2258
 2092TIP3    H1 6282   1.299   4.858   4.865 -1.7832  1.1883  0.5672
 2092TIP3    H2 6283   1.266   4.713   4.893  1.0504  0.4717  0.4166
 2093TIP3   OH2 6284   5.681   0.855   3.797 -0.4951 -0.3833 -0.0422
 2093TIP3    H1 6285   5.693   0.883   3.706  2.8092 -0.2455  0.3045
 2093TIP3    H2 6286   5.587   0.840   3.806 -0.9522 -0.1643 -3.3890
 2094TIP3   OH2 6287   1.352   3.036   4.735 -0.7460  0.3027 -0.3196
 2094TIP3    H1 6288   1.348   3.063   4.826  0.7321  0.1988 -0.2059
 2094TIP3    H2 6289   1.374   3.116   4.687 -1.3218  0.3161 -0.5663
 2095TIP3   OH2 6290   1.944   3.205   5.082  0.3494 -0.1416 -0.0791
 2095TIP3    H1 6291   1.972   3.293   5.107 -0.0176 -0.0867  0.1361
 2095TIP3    H2 6292   1.987   3.190   4.997 -1.7323  1.3327 -1.5117
 2096TIP3   OH2 6293   1.750   0.918   4.013 -0.0116  0.1639 -0.0632
 2096TIP3    H1 6294   1.831   0.951   3.974  0.4845  0.2120  0.9730
 2096TIP3    H2 6295   1.750   0.954   4.102 -0.4979 -0.9212  0.3892
 2097TIP3   OH2 6296   1.010   4.903   4.208  0.7036  0.1420 -0.3834
 2097TIP3    H1 6297   0.915   4.897   4.222  0.7930 -0.0063  0.1812
 2097TIP3    H2 6298   1.027   4.846   4.132  0.2886  0.4816 -0.7333
 2098TIP3   OH2 6299   5.423   2.886   1.704 -0.6821 -0.0632  0.4502
 2098TIP3    H1 6300   5.481   2.827   1.752 -0.0706  1.0877  1.1593
 2098TIP3    H2 6301   5.416   2.846   1.617  0.4072 -0.7225  0.6380
 2099TIP3   OH2 6302   4.014   4.839   3.648  0.9136 -0.1164 -0.4040
 2099TIP3    H1 6303   3.940   4.825   3.708  0.8314  4.2417  0.8391
 2099TIP3    H2 6304   3.975   4.836   3.561 -0.1703 -0.6211  0.0719
 2100TIP3   OH2 6305   2.133   1.432   4.276 -0.0412  0.5984 -0.0935
 2100TIP3    H1 6306   2.136   1.414   4.182  0.6075  1.7824 -0.3153
 2100TIP3    H2 6307   2.196   1.503   4.289  0.5751 -0.1658  1.3858
 2101TIP3   OH2 6308   3.862   1.938   4.283 -0.8498 -0.5370 -0.4421
 2101TIP3    H1 6309   3.894   1.957   4.195 -1.7147 -0.9364 -0.8545
 2101TIP3    H2 6310   3.940   1.940   4.338  0.1467 -2.9148 -1.6392
 2102TIP3   OH2 6311   3.331   2.474   2.807  0.0945  0.2760 -0.2948
 2102TIP3    H1 6312   3.412   2.435   2.772  0.1510 -0.2010  0.3504
 2102TIP3    H2 6313   3.326   2.441   2.896 -0.6020  0.6432 -0.1966
 2103TIP3   OH2 6314   4.665   0.150   2.398  0.7644  0.1764  0.1626
 2103TIP3    H1 6315   4.664   0.212   2.472 -1.1832 -0.6349  0.8971
 2103TIP3    H2 6316   4.698   0.069   2.435 -2.1956 -0.8687  0.8332
 2104TIP3   OH2 6317   0.110   0.269   1.356 -0.0014 -0.2554  0.1066
 2104TIP3    H1 6318   0.205   0.267   1.340  0.2566  1.1194  1.3289
 2104TIP3    H2 6319   0.081   0.180   1.336  1.5961 -0.7843  0.0059
 2105TIP3   OH2 6320   0.504   0.399   1.107 -0.0983  0.7378 -0.0816
 2105TIP3    H1 6321   0.423   0.450   1.109 -0.4154  0.2395  0.3257
 2105TIP3    H2 6322   0.474   0.308   1.107  0.4638  0.5462  0.1785
 2106TIP3   OH2 6323   3.748   2.524   0.779 -0.0285  0.1925 -0.2521
 2106TIP3    H1 6324   3.815   2.583   0.744  1.5516 -0.0544  2.1078
 2106TIP3    H2 6325   3.671   2.579   0.793  0.4203  1.0050 -0.8802
 2107TIP3   OH2 6326   0.704   1.131   3.022  0.3353  1.2188  0.4651
 2107TIP3    H1 6327   0.677   1.112   3.112 -0.1983  1.3282  0.3271
 2107TIP3    H2 6328   0.747   1.051   2.992 -0.4600  0.7906  0.4458
 2108TIP3   OH2 6329   3.157   1.905   3.189  0.1409 -0.0473 -0.2605
 2108TIP3    H1 6330   3.165   1.857   3.272  2.8407  1.0990  0.2331
 2108TIP3    H2 6331   3.247   1.922   3.162 -0.7008  1.8768 -2.1132
 2109TIP3   OH2 6332   4.412   0.884   2.796  0.3667 -0.0051  0.4056
 2109TIP3    H1 6333   4.490   0.842   2.832  0.8040 -0.0389 -0.5485
 2109TIP3    H2 6334   4.339   0.829   2.825  1.1070 -3.8666 -3.8781
 2110TIP3   OH2 6335   3.752   2.277   0.367  0.2772 -0.3119  0.1014
 2110TIP3    H1 6336   3.826   2.321   0.408 -0.6053  0.8526  0.4725
 2110TIP3    H2 6337   3.792   2.218   0.302  1.4647  1.6448 -1.0259
 2111TIP3   OH2 6338   5.080   5.906   3.699  0.6969  0.3394 -0.3445
 2111TIP3    H1 6339   5.101   5.969   3.768 -1.5761  0.9219 -0.1192
 2111TIP3    H2 6340   5.008   5.946   3.651  0.9949 -0.9131 -1.8966
 2112TIP3   OH2 6341   5.702   0.470   2.760 -0.0878  0.3795 -0.2947
 2112TIP3    H1 6342   5.719   0.377   2.777  0.0945  0.1870 -1.4207
 2112TIP3    H2 6343   5.685   0.507   2.846  1.8838 -0.2789  0.4534
 2113TIP3   OH2 6344   1.349   4.162   3.523  0.5580 -0.2797  0.0242
 2113TIP3    H1 6345   1.293   4.109   3.467 -0.3231  0.7264 -0.0823
 2113TIP3    H2 6346   1.433   4.164   3.477  1.1105 -2.8042  0.7878
 2114TIP3   OH2 6347   2.774   2.944   2.504 -0.6052  0.1590 -0.1800
 2114TIP3    H1 6348   2.858   2.907   2.531 -0.9638 -0.6902 -0.2127
 2114TIP3    H2 6349   2.722   2.869   2.475 -1.5207  0.6287  0.2068
 2115TIP3   OH2 6350   5.329   3.760   1.003 -0.2934  0.4432  0.3949
 2115TIP3    H1 6351   5.386   3.838   0.997  0.6216 -0.2072  0.3998
 2115TIP3    H2 6352   5.346   3.712   0.922  0.1706 -0.4298  1.0039
 2116TIP3   OH2 6353   2.332   5.031   1.115  0.3249 -0.6597 -0.4296
 2116TIP3    H1 6354   2.337   5.024   1.019 -0.4022 -1.1339 -0.4360
 2116TIP3    H2 6355   2.308   4.944   1.145 -2.6203  0.1766 -0.0644
 2117TIP3   OH2 6356   4.492   4.292   2.641 -0.2154  0.0513  0.1652
 2117TIP3    H1 6357   4.533   4.377   2.628 -0.0552 -0.0311  0.1176
 2117TIP3    H2 6358   4.559   4.240   2.686 -0.2831 -0.0726  0.1232
 2118TIP3   OH2 6359   1.788   5.851   4.461 -0.7600 -0.3494  0.0081
 2118TIP3    H1 6360   1.784   5.865   4.367 -0.1426 -3.2103 -0.5353
 2118TIP3    H2 6361   1.810   5.937   4.497 -0.6431  0.7404 -2.4644
 2119TIP3   OH2 6362   0.423   3.450   0.929 -0.1972 -0.1909  0.6619
 2119TIP3    H1 6363   0.381   3.366   0.949  2.4160 -2.1809 -1.4162
 2119TIP3    H2 6364   0.394   3.470   0.840 -0.0200  0.6161  0.7824
 2120TIP3   OH2 6365   2.800   1.417   2.878  0.2753 -0.4090  0.0304
 2120TIP3    H1 6366   2.730   1.361   2.844  0.6393 -1.1257  0.4711
 2120TIP3    H2 6367   2.761   1.505   2.878  0.8484  0.0693 -4.1244
 2121TIP3   OH2 6368   4.946   2.344   2.973 -0.3902  0.0805 -0.1425
 2121TIP3    H1 6369   4.851   2.354   2.972 -0.4476 -0.1937  0.8925
 2121TIP3    H2 6370   4.980   2.432   2.986 -0.4010  0.4677 -2.3979
 2122TIP3   OH2 6371   5.068   2.352   4.296  0.2581  0.3211  0.1159
 2122TIP3    H1 6372   5.063   2.398   4.380  1.2499  1.7706 -0.5746
 2122TIP3    H2 6373   5.076   2.260   4.320  1.1064  0.7520  1.6299
 2123TIP3   OH2 6374   0.258   3.342   0.058 -0.1900  0.3422 -0.5761
 2123TIP3    H1 6375   0.255   3.266   0.000  0.7558 -0.0550 -0.1279
 2123TIP3    H2 6376   0.287   3.414   0.001  3.4391 -0.5867 -0.1542
 2124TIP3   OH2 6377   4.218   4.761   4.759  0.3597  0.4293  0.2883
 2124TIP3    H1 6378   4.286   4.741   4.823  0.4299  0.2850  0.1688
 2124TIP3    H2 6379   4.249   4.839   4.713  0.0654  0.8516  0.7850
 2125TIP3   OH2 6380   1.850   4.779   0.409  0.3887  0.1395  0.0965
 2125TIP3    H1 6381   1.844   4.865   0.451  0.2592 -0.1306  0.6497
 2125TIP3    H2 6382   1.841   4.717   0.482  1.3527 -0.3406 -0.1900
 2126TIP3   OH2 6383   6.015   2.642   1.364 -0.0296 -0.2316 -0.2181
 2126TIP3    H1 6384   6.074   2.567   1.380 -0.4537 -0.7027 -0.8308
 2126TIP3    H2 6385   6.068   2.703   1.314  0.6919  0.4086  1.2462
 2127TIP3   OH2 6386   5.009   0.327   3.812 -0.6096  0.3872 -0.0585
 2127TIP3    H1 6387   5.104   0.327   3.802 -0.5600  2.0655  0.1794
 2127TIP3    H2 6388   4.993   0.374   3.894 -1.7079  1.4779 -0.8689
 2128TIP3   OH2 6389   2.070   1.686   1.231  0.2324 -0.2550 -0.3022
 2128TIP3    H1 6390   2.016   1.709   1.306  0.0285 -0.5645 -0.3490
 2128TIP3    H2 6391   2.080   1.768   1.182 -0.1552 -0.1866 -0.2682
 2129TIP3   OH2 6392   0.353   1.411   1.233  0.2489 -0.0755  0.3605
 2129TIP3    H1 6393   0.356   1.362   1.315  1.9015 -0.2223  0.2493
 2129TIP3    H2 6394   0.296   1.360   1.176  1.3157 -1.4672  0.5074
 2130TIP3   OH2 6395   0.624   5.350   4.303  0.0024  0.1487 -0.2498
 2130TIP3    H1 6396   0.704   5.402   4.290 -0.2894  0.5547 -0.4608
 2130TIP3    H2 6397   0.650   5.280   4.363  0.8786 -0.5712 -1.4266
 2131TIP3   OH2 6398   4.223   1.290   0.433 -0.7550  0.1532 -0.3386
 2131TIP3    H1 6399   4.188   1.334   0.510  0.1625  0.1306  0.0962
 2131TIP3    H2 6400   4.253   1.362   0.376 -0.8938  0.1483 -0.4187
 2132TIP3   OH2 6401   3.481   5.117   2.365  0.0561  0.9941  0.1231
 2132TIP3    H1 6402   3.482   5.039   2.309  0.0884 -0.3952  1.9710
 2132TIP3    H2 6403   3.558   5.107   2.421 -0.6036  1.7292  1.2040
 2133TIP3   OH2 6404   0.337   0.774   4.894 -0.5799 -0.8191  0.3607
 2133TIP3    H1 6405   0.341   0.859   4.937 -0.9057  0.2798 -1.6771
 2133TIP3    H2 6406   0.399   0.720   4.943  0.8863  1.0564  0.6961
 2134TIP3   OH2 6407   3.833   5.020   2.883 -0.5916 -0.7683 -0.1565
 2134TIP3    H1 6408   3.835   4.953   2.814  2.7895  0.5731 -1.5907
 2134TIP3    H2 6409   3.916   5.009   2.930  0.8402  3.1020 -1.3524
 2135TIP3   OH2 6410   1.570   1.652   4.964  0.5490 -0.1599 -0.4208
 2135TIP3    H1 6411   1.653   1.657   4.918  0.5285 -2.3287 -0.7948
 2135TIP3    H2 6412   1.503   1.664   4.897  0.5182  1.5964 -0.1184
 2136TIP3   OH2 6413   2.282   5.046   0.852 -0.6800 -0.1455 -0.1344
 2136TIP3    H1 6414   2.248   5.094   0.776 -0.1023 -0.5053 -0.6308
 2136TIP3    H2 6415   2.286   4.955   0.823  1.5377 -0.0133 -0.4405
 2137TIP3   OH2 6416   0.267   5.766   4.182  0.1835  0.5039 -0.9426
 2137TIP3    H1 6417   0.245   5.708   4.109  1.9183 -0.2655 -0.8925
 2137TIP3    H2 6418   0.193   5.827   4.187 -0.4396 -0.0452 -2.6924
 2138TIP3   OH2 6419   0.276   2.766   1.140  0.0160 -0.0160 -0.1001
 2138TIP3    H1 6420   0.197   2.750   1.087 -1.1831 -0.2628  1.6721
 2138TIP3    H2 6421   0.259   2.848   1.186  0.1548 -0.7566  1.3500
 2139TIP3   OH2 6422   5.009   3.100   3.421  0.1792 -0.3275  0.3626
 2139TIP3    H1 6423   4.925   3.144   3.432 -0.0184 -0.7731  0.6412
 2139TIP3    H2 6424   5.026   3.058   3.505 -0.6961 -2.6386 -0.5472
 2140TIP3   OH2 6425   2.365   0.864   1.014  0.2298  0.3720 -0.2163
 2140TIP3    H1 6426   2.282   0.843   0.970  0.1020  1.1195 -0.3322
 2140TIP3    H2 6427   2.342   0.873   1.106 -0.1874  2.4330 -0.4733
 2141TIP3   OH2 6428   5.154   1.254   3.322  0.0587 -0.0418 -0.0333
 2141TIP3    H1 6429   5.177   1.235   3.231 -0.1525  1.0900 -0.3418
 2141TIP3    H2 6430   5.085   1.191   3.343  1.1134 -1.2746 -0.1725
 2142TIP3   OH2 6431   2.533   4.189   0.335 -0.5317  0.1073  0.2759
 2142TIP3    H1 6432   2.514   4.120   0.398  0.4285  0.9952  1.5874
 2142TIP3    H2 6433   2.626   4.177   0.313 -1.3124 -1.4441 -2.5987
 2143TIP3   OH2 6434   3.764   2.980   2.567  0.0015 -0.2213  0.2352
 2143TIP3    H1 6435   3.851   2.961   2.603  0.0685  0.0905  0.2416
 2143TIP3    H2 6436   3.782   3.018   2.480 -0.1613 -1.0649 -0.1775
 2144TIP3   OH2 6437   1.729   0.666   3.828  0.7382 -0.3255  0.1915
 2144TIP3    H1 6438   1.761   0.744   3.875 -1.1990  0.9755 -0.5470
 2144TIP3    H2 6439   1.774   0.669   3.744  0.6967 -0.0019  0.1775
 2145TIP3   OH2 6440   0.237   3.327   4.535  0.2128  0.2607 -0.2966
 2145TIP3    H1 6441   0.285   3.364   4.461  1.1026  1.1124  0.6809
 2145TIP3    H2 6442   0.249   3.390   4.605 -0.6188 -0.5356  0.5848
 2146TIP3   OH2 6443   0.964   3.124   3.461  0.0337 -0.3967 -0.5863
 2146TIP3    H1 6444   0.921   3.045   3.492 -0.7741 -0.0446 -0.7784
 2146TIP3    H2 6445   0.894   3.190   3.459  0.6317  0.2484 -0.6861
 2147TIP3   OH2 6446   5.526   5.614   3.177 -0.2844  0.4159 -0.5366
 2147TIP3    H1 6447   5.474   5.534   3.187 -1.6684  1.1852 -1.3257
 2147TIP3    H2 6448   5.614   5.582   3.154 -0.4261 -0.9059  0.6339
 2148TIP3   OH2 6449   5.273   4.389   2.881  0.3770  0.0596 -0.0056
 2148TIP3    H1 6450   5.356   4.342   2.893 -0.4163 -0.9371  2.3599
 2148TIP3    H2 6451   5.229   4.343   2.810  0.9455 -0.8087  0.1920
 2149TIP3   OH2 6452   4.486   0.175   3.519  0.3999  0.2694  0.4437
 2149TIP3    H1 6453   4.503   0.269   3.508  0.6619 -0.0056 -1.9188
 2149TIP3    H2 6454   4.405   0.160   3.470  1.0561 -0.9508 -0.3037
 2150TIP3   OH2 6455   1.826   0.776   0.905 -0.9214 -0.3614 -0.9122
 2150TIP3    H1 6456   1.782   0.844   0.955  1.1551  2.0880 -2.1878
 2150TIP3    H2 6457   1.852   0.711   0.971  1.2491  2.4712  1.2584
 2151TIP3   OH2 6458   1.955   4.760   4.472 -0.8367 -0.1824  0.4651
 2151TIP3    H1 6459   1.980   4.770   4.381  2.4117  1.5177  1.4090
 2151TIP3    H2 6460   1.942   4.665   4.484 -1.9813 -0.3773 -1.8038
 2152TIP3   OH2 6461   2.183   0.254   1.893 -0.6279 -0.6294  0.2061
 2152TIP3    H1 6462   2.227   0.170   1.906  1.7685  0.4785 -0.2427
 2152TIP3    H2 6463   2.252   0.313   1.862 -2.1692  1.5897  0.7528
 2153TIP3   OH2 6464   4.394   5.686   4.463  0.1201  0.0692 -0.0440
 2153TIP3    H1 6465   4.392   5.637   4.545  2.7663 -1.3865 -0.7417
 2153TIP3    H2 6466   4.420   5.775   4.489  1.6766 -0.5618  0.6523
 2154TIP3   OH2 6467   2.210   2.982   3.188  0.1296 -0.0381 -0.1395
 2154TIP3    H1 6468   2.251   2.895   3.182 -1.2729 -0.6763 -1.2471
 2154TIP3    H2 6469   2.266   3.039   3.135 -0.2397 -0.8440 -1.4527
 2155TIP3   OH2 6470   0.560   0.524   2.900  0.1767  0.2059  0.1432
 2155TIP3    H1 6471   0.532   0.483   2.982  0.5208  0.7422  0.5343
 2155TIP3    H2 6472   0.610   0.601   2.928 -0.3006  0.7870 -0.5721
 2156TIP3   OH2 6473   3.963   5.373   3.290 -0.5608 -0.2221  0.1526
 2156TIP3    H1 6474   3.907   5.347   3.217  1.0633  2.4655 -2.2387
 2156TIP3    H2 6475   4.050   5.341   3.267 -0.1891 -0.2413  1.4785
 2157TIP3   OH2 6476   1.506   1.476   5.165  0.0486 -0.4137  0.1199
 2157TIP3    H1 6477   1.505   1.391   5.121  0.5362 -0.6695  0.5974
 2157TIP3    H2 6478   1.516   1.539   5.095 -0.0066 -0.7695 -0.2119
 2158TIP3   OH2 6479   0.366   5.313   0.657  0.2544  0.0464 -0.4992
 2158TIP3    H1 6480   0.358   5.408   0.656 -3.3021 -0.1190 -0.4925
 2158TIP3    H2 6481   0.396   5.290   0.569  2.6427  1.1278 -0.0605
 2159TIP3   OH2 6482   0.148   1.343   2.406  0.3096  0.1646  0.1032
 2159TIP3    H1 6483   0.052   1.342   2.415  0.3382 -0.8273  0.5008
 2159TIP3    H2 6484   0.172   1.250   2.402  0.9812  0.3647 -3.4378
 2160TIP3   OH2 6485   0.274   4.500   3.260  0.1639 -0.0630  0.1257
 2160TIP3    H1 6486   0.193   4.460   3.293 -0.6818  1.7428  0.3687
 2160TIP3    H2 6487   0.250   4.537   3.176  1.2464 -1.0443 -0.6536
 2161TIP3   OH2 6488   3.826   2.776   4.064  0.3001  0.4964 -0.2676
 2161TIP3    H1 6489   3.821   2.756   3.970  1.7702 -0.5360 -0.1644
 2161TIP3    H2 6490   3.902   2.834   4.071 -0.0334  0.8699  0.2441
 2162TIP3   OH2 6491   0.725   5.790   1.810  0.1766  0.0963  0.5331
 2162TIP3    H1 6492   0.765   5.860   1.862 -0.7059 -0.0141  1.3906
 2162TIP3    H2 6493   0.797   5.729   1.793  0.8960  1.0493  0.0196
 2163TIP3   OH2 6494   5.025   1.774   3.439 -0.2793 -0.0120 -0.2973
 2163TIP3    H1 6495   5.063   1.690   3.466 -3.0212 -1.0194  0.7412
 2163TIP3    H2 6496   4.972   1.753   3.362 -0.4538  0.9258 -0.4467
 2164TIP3   OH2 6497   0.969   3.077   1.142 -0.0342  0.2575  0.4591
 2164TIP3    H1 6498   1.032   3.005   1.147 -0.2462 -0.0778 -1.2332
 2164TIP3    H2 6499   1.016   3.146   1.096 -0.6838  0.2513 -0.2220
 2165TIP3   OH2 6500   6.180   3.961   3.885  0.0352 -0.0404  0.6999
 2165TIP3    H1 6501   6.123   4.030   3.921 -2.4067 -1.4220 -0.3046
 2165TIP3    H2 6502   6.232   3.933   3.960 -1.5165  0.4202  2.0149
 2166TIP3   OH2 6503   2.187   2.816   0.526 -0.1041 -0.7391 -0.0022
 2166TIP3    H1 6504   2.224   2.736   0.562  1.2910 -0.3430 -0.5197
 2166TIP3    H2 6505   2.129   2.849   0.595  1.2845 -0.8480  1.2550
 2167TIP3   OH2 6506   3.388   3.962   3.247  0.4546  0.4274 -0.0240
 2167TIP3    H1 6507   3.344   4.006   3.174  1.8464 -0.8468 -1.7510
 2167TIP3    H2 6508   3.350   3.874   3.248  0.3205  0.4903  0.9285
 2168TIP3   OH2 6509   6.374   3.269   4.744  0.4810  0.1174 -0.3472
 2168TIP3    H1 6510   6.361   3.237   4.655 -1.4333  1.0225 -0.4264
 2168TIP3    H2 6511   6.312   3.341   4.754  1.7554  1.0696  1.2109
 2169TIP3   OH2 6512   0.372   0.375   0.838  0.6576  0.4553  0.7057
 2169TIP3    H1 6513   0.418   0.291   0.849  0.0599 -0.0254 -0.2739
 2169TIP3    H2 6514   0.360   0.408   0.927  1.1167 -0.3797  1.0922
 2170TIP3   OH2 6515   3.862   5.810   4.669 -0.1256 -0.4815 -0.1484
 2170TIP3    H1 6516   3.920   5.847   4.602  0.0084  1.6789  1.0552
 2170TIP3    H2 6517   3.783   5.784   4.621  0.4874 -0.2245 -1.3257
 2171TIP3   OH2 6518   1.069   0.486   2.166 -0.1498 -0.3716 -0.2702
 2171TIP3    H1 6519   1.046   0.533   2.246 -0.7616  0.9470 -1.1842
 2171TIP3    H2 6520   0.989   0.487   2.114  0.7668  0.5871 -1.7412
 2172TIP3   OH2 6521   4.988   1.425   1.291 -0.3636 -0.5438 -0.2220
 2172TIP3    H1 6522   4.994   1.503   1.347 -1.0935 -0.2763 -0.4975
 2172TIP3    H2 6523   4.917   1.373   1.331  1.1761 -1.8831  0.9238
 2173TIP3   OH2 6524   0.066   3.950   1.255 -0.1648 -0.3984  0.0900
 2173TIP3    H1 6525   0.049   3.878   1.194  1.0461  0.7654 -1.7571
 2173TIP3    H2 6526   0.160   3.968   1.244 -0.3413  1.1428  0.8311
 2174TIP3   OH2 6527   4.378   3.303   3.450  0.0851  0.2790 -0.1455
 2174TIP3    H1 6528   4.408   3.280   3.362  0.5293  0.7894 -0.1353
 2174TIP3    H2 6529   4.456   3.338   3.494 -0.3363  0.8734  0.1490
 2175TIP3   OH2 6530   2.488   2.026   3.420 -0.0102 -0.3728  0.2142
 2175TIP3    H1 6531   2.508   2.001   3.510 -2.4023 -0.0650  0.8883
 2175TIP3    H2 6532   2.544   1.968   3.367  0.9783 -1.0009  1.8476
 2176TIP3   OH2 6533   2.514   4.495   1.864 -0.8937  0.3278  0.0184
 2176TIP3    H1 6534   2.549   4.581   1.843 -1.8034  1.3164  2.2705
 2176TIP3    H2 6535   2.482   4.503   1.953 -2.8682 -1.7789 -0.4090
 2177TIP3   OH2 6536   4.302   0.958   1.312 -0.7150 -0.3096 -0.2555
 2177TIP3    H1 6537   4.389   0.969   1.350 -0.4362  0.2131 -1.0186
 2177TIP3    H2 6538   4.263   1.045   1.315 -0.9010 -0.3759 -0.6402
 2178TIP3   OH2 6539   4.588   4.090   4.868  0.0029 -0.5209 -0.7072
 2178TIP3    H1 6540   4.561   4.000   4.887 -1.5845  0.2159  0.8439
 2178TIP3    H2 6541   4.508   4.132   4.835  0.9602  0.1052 -2.3242
 2179TIP3   OH2 6542   0.997   3.235   1.782 -0.0243  0.0604  0.0633
 2179TIP3    H1 6543   0.902   3.246   1.788 -0.4146 -1.0690 -2.5640
 2179TIP3    H2 6544   1.013   3.150   1.823 -0.8119 -1.6196 -2.8101
 2180TIP3   OH2 6545   2.444   1.106   1.277  0.7934  0.2293 -0.4311
 2180TIP3    H1 6546   2.384   1.170   1.239 -1.4425 -0.7402  1.2000
 2180TIP3    H2 6547   2.503   1.158   1.331  0.5333  1.1103 -0.9710
 2181TIP3   OH2 6548   3.430   4.713   1.297 -0.1219  0.2294  0.4493
 2181TIP3    H1 6549   3.452   4.708   1.390  0.8123  2.6831  0.4366
 2181TIP3    H2 6550   3.367   4.785   1.290 -0.6483 -0.3135 -0.7527
 2182TIP3   OH2 6551   0.676   4.746   0.220 -0.1367  0.2307 -0.1434
 2182TIP3    H1 6552   0.762   4.718   0.249  0.3425 -0.2414 -1.8886
 2182TIP3    H2 6553   0.615   4.696   0.274  0.6587  0.4824  1.0281
 2183TIP3   OH2 6554   2.008   3.140   0.579 -0.3488  0.1975  0.5784
 2183TIP3    H1 6555   2.097   3.108   0.596 -0.5367 -0.3265  0.5872
 2183TIP3    H2 6556   1.955   3.100   0.648 -1.0146 -1.4365 -0.8204
 2184TIP3   OH2 6557   4.172   4.574   2.977 -0.1959 -0.1218 -0.3775
 2184TIP3    H1 6558   4.079   4.558   2.995 -0.8921 -0.7369 -3.8048
 2184TIP3    H2 6559   4.218   4.506   3.026 -1.7389 -1.1674 -0.2853
 2185TIP3   OH2 6560   3.682   3.795   0.600  0.5042  0.0184  0.4617
 2185TIP3    H1 6561   3.713   3.866   0.656  1.1257  0.0294  0.1134
 2185TIP3    H2 6562   3.587   3.807   0.597  0.6282  1.0073  0.1869
 2186TIP3   OH2 6563   2.040   5.094   1.517  0.9058 -0.1340  0.0091
 2186TIP3    H1 6564   2.029   5.157   1.588  1.8772  0.9700 -0.7781
 2186TIP3    H2 6565   2.104   5.135   1.459  0.9751 -1.5173 -0.9238
 2187TIP3   OH2 6566   3.573   0.824   2.798  0.3291  0.1111  0.0570
 2187TIP3    H1 6567   3.593   0.740   2.839 -0.1579  0.7909  1.7726
 2187TIP3    H2 6568   3.478   0.834   2.810  0.3214  0.7384 -0.4811
 2188TIP3   OH2 6569   0.363   5.541   5.174  0.1626 -0.1772  0.2424
 2188TIP3    H1 6570   0.355   5.635   5.155  1.9744 -0.5014 -2.8065
 2188TIP3    H2 6571   0.312   5.499   5.105 -0.4539 -1.4860  1.4629
 2189TIP3   OH2 6572   6.342   0.841   1.380  0.4019  0.8894 -0.3847
 2189TIP3    H1 6573   6.253   0.842   1.345 -0.7799  0.8284  2.4273
 2189TIP3    H2 6574   6.364   0.934   1.393 -1.4593  0.9707  3.8039
 2190TIP3   OH2 6575   4.433   0.794   0.785 -0.1147  0.3252  0.1695
 2190TIP3    H1 6576   4.507   0.757   0.738 -0.2914  0.7783 -0.4876
 2190TIP3    H2 6577   4.415   0.732   0.855  0.6102 -0.0007  0.0715
 2191TIP3   OH2 6578   3.378   1.280   3.590  0.0330 -0.1817  0.2535
 2191TIP3    H1 6579   3.359   1.334   3.514  0.1118  0.0227  0.3778
 2191TIP3    H2 6580   3.370   1.340   3.665  2.8911  0.3795  0.2133
 2192TIP3   OH2 6581   5.865   3.036   0.825  0.8312  0.1107  0.6598
 2192TIP3    H1 6582   5.945   2.984   0.834  1.1091  0.7036  1.8079
 2192TIP3    H2 6583   5.893   3.114   0.777  0.2863 -1.0153 -1.6251
 2193TIP3   OH2 6584   0.455   5.546   4.150 -0.0523  0.3790 -0.1231
 2193TIP3    H1 6585   0.519   5.480   4.177  0.5078  0.3452 -1.4426
 2193TIP3    H2 6586   0.468   5.618   4.211  0.3687 -0.1377  0.4087
 2194TIP3   OH2 6587   5.125   0.617   1.816  0.3757  0.4621  0.1201
 2194TIP3    H1 6588   5.073   0.538   1.832  1.6517 -0.4551 -0.1268
 2194TIP3    H2 6589   5.060   0.685   1.796 -0.7862 -0.3326  1.0603
 2195TIP3   OH2 6590   2.113   0.589   0.184  0.1503 -0.1883 -0.3558
 2195TIP3    H1 6591   2.060   0.509   0.184 -0.6576  0.3330  0.0148
 2195TIP3    H2 6592   2.141   0.598   0.275  0.3724 -0.1288 -0.4303
 2196TIP3   OH2 6593   3.641   2.319   4.427 -0.3171  1.1179 -0.2035
 2196TIP3    H1 6594   3.622   2.266   4.504 -0.5592  0.8514 -0.4453
 2196TIP3    H2 6595   3.567   2.305   4.368  0.7508 -0.2190 -1.3069
 2197TIP3   OH2 6596   1.204   1.634   0.213  0.1482  0.2863  0.0054
 2197TIP3    H1 6597   1.258   1.559   0.236 -0.9122 -0.8272 -1.0319
 2197TIP3    H2 6598   1.266   1.698   0.177  0.8151 -0.8737 -0.9570
 2198TIP3   OH2 6599   2.123   2.386   4.768 -1.5126 -0.0586 -0.2949
 2198TIP3    H1 6600   2.076   2.313   4.728 -0.2103 -1.3629  0.4639
 2198TIP3    H2 6601   2.204   2.347   4.801 -0.5722  1.8230 -0.2510
 2199TIP3   OH2 6602   6.298   0.109   1.038  0.0080 -0.0694 -0.1604
 2199TIP3    H1 6603   6.390   0.108   1.064 -0.4273  1.1671  1.5685
 2199TIP3    H2 6604   6.278   0.201   1.023 -1.0258 -0.2915 -0.2205
 2200TIP3   OH2 6605   3.720   3.190   1.310 -0.6102 -0.2579 -0.1338
 2200TIP3    H1 6606   3.673   3.270   1.285  0.9017  0.8850  0.4908
 2200TIP3    H2 6607   3.672   3.119   1.266 -1.9526  0.9831 -0.7702
 2201TIP3   OH2 6608   0.247   2.432   2.639  0.1969 -0.5260 -0.2908
 2201TIP3    H1 6609   0.259   2.500   2.573 -0.7947 -0.3747 -0.3235
 2201TIP3    H2 6610   0.225   2.353   2.588 -0.6653 -0.3859 -0.1422
 2202TIP3   OH2 6611   6.224   1.525   3.774 -0.3288  0.5971 -0.7642
 2202TIP3    H1 6612   6.278   1.510   3.851 -1.0354  2.0181  0.0557
 2202TIP3    H2 6613   6.286   1.536   3.703  0.4582  1.5683  0.0371
 2203TIP3   OH2 6614   0.488   2.698   2.631 -0.0311 -0.1450  0.2110
 2203TIP3    H1 6615   0.416   2.717   2.571  2.9988  1.7835 -3.2065
 2203TIP3    H2 6616   0.486   2.771   2.693 -0.5674  0.3069 -0.3201
 2204TIP3   OH2 6617   1.771   0.871   0.458 -0.2180  0.0396 -0.0257
 2204TIP3    H1 6618   1.837   0.920   0.410 -0.3050 -1.2564 -1.5759
 2204TIP3    H2 6619   1.692   0.879   0.405 -0.3350 -1.3907 -0.1050
 2205TIP3   OH2 6620   6.349   1.002   4.562  0.0824 -0.2210 -0.2204
 2205TIP3    H1 6621   6.320   1.082   4.518  1.1426  0.9812  1.1282
 2205TIP3    H2 6622   6.395   1.034   4.640  1.0064 -2.1463  0.0810
 2206TIP3   OH2 6623   2.079   1.908   4.153  0.7831  0.2280  0.5267
 2206TIP3    H1 6624   2.001   1.944   4.195 -0.6889 -1.3740 -0.6977
 2206TIP3    H2 6625   2.139   1.890   4.226 -0.3350  0.6386  1.5879
 2207TIP3   OH2 6626   3.419  -0.037   0.473 -0.1571  0.2656  0.3813
 2207TIP3    H1 6627   3.427   0.037   0.532  1.1777 -0.3436  0.9987
 2207TIP3    H2 6628   3.433   0.000   0.386  0.3992  0.7530  0.6754
 2208TIP3   OH2 6629   4.065   1.771   3.101  0.0714  0.3759  0.4797
 2208TIP3    H1 6630   4.136   1.742   3.159  0.3233 -1.6898 -0.7697
 2208TIP3    H2 6631   4.079   1.723   3.019 -0.1533  3.3263 -1.4465
 2209TIP3   OH2 6632   1.016   0.744   0.527  0.0651 -0.1897 -0.4864
 2209TIP3    H1 6633   0.975   0.727   0.612  0.8823  0.4959  0.0495
 2209TIP3    H2 6634   0.943   0.769   0.470 -0.5348 -0.9790 -0.0851
 2210TIP3   OH2 6635   3.042   1.803   1.305  0.4034 -0.0265 -0.7788
 2210TIP3    H1 6636   3.100   1.879   1.306  0.8433 -0.3255  1.2399
 2210TIP3    H2 6637   3.072   1.751   1.230  1.1439  1.0047 -1.2254
 2211TIP3   OH2 6638   1.665   1.249   2.065 -0.9091 -0.0172  0.9454
 2211TIP3    H1 6639   1.677   1.173   2.123 -0.9820  0.2863  1.3649
 2211TIP3    H2 6640   1.583   1.288   2.093  0.5385  1.9499  2.7829
 2212TIP3   OH2 6641   1.685   5.061   3.270 -0.4633 -0.0610  0.1287
 2212TIP3    H1 6642   1.619   5.057   3.201 -1.8823 -0.5112  1.4580
 2212TIP3    H2 6643   1.767   5.078   3.224 -1.4967  0.5499 -1.5794
 2213TIP3   OH2 6644   6.247   0.361   1.598 -0.1602 -0.4173  0.0846
 2213TIP3    H1 6645   6.154   0.336   1.599 -0.0434 -1.1134 -2.0638
 2213TIP3    H2 6646   6.292   0.285   1.563  1.2044  0.0297  0.8142
 2214TIP3   OH2 6647   4.989   5.916   1.485  0.2112  0.2933 -0.3046
 2214TIP3    H1 6648   4.946   5.830   1.485 -1.2203  0.9587  0.9457
 2214TIP3    H2 6649   5.029   5.923   1.571 -0.7556  1.3520  0.0911
 2215TIP3   OH2 6650   4.532   2.390   0.660  0.2373  0.0263  0.0781
 2215TIP3    H1 6651   4.538   2.417   0.568 -1.2708  0.0644 -0.0249
 2215TIP3    H2 6652   4.555   2.297   0.659 -1.3664 -0.3923 -0.6078
 2216TIP3   OH2 6653   6.338   0.731   2.777  0.3286  0.5551 -0.0950
 2216TIP3    H1 6654   6.259   0.683   2.805 -0.6210  2.2502  0.2527
 2216TIP3    H2 6655   6.400   0.662   2.754 -1.3290 -0.8532 -0.6066
 2217TIP3   OH2 6656   1.527   0.461   1.361  0.1221  0.8873  0.1422
 2217TIP3    H1 6657   1.465   0.489   1.429 -0.4786  2.1043 -0.8481
 2217TIP3    H2 6658   1.552   0.372   1.386 -0.6389  1.0359  1.5465
 2218TIP3   OH2 6659   1.918   2.666   4.465  0.4007  0.3941  0.9891
 2218TIP3    H1 6660   1.864   2.631   4.394  0.1338  0.5887  1.0999
 2218TIP3    H2 6661   1.873   2.641   4.545  0.2192  0.9682  1.0724
 2219TIP3   OH2 6662   5.146   0.477   1.422 -0.2551  0.0945 -0.2167
 2219TIP3    H1 6663   5.135   0.561   1.378 -0.5859  0.1203 -0.0812
 2219TIP3    H2 6664   5.063   0.432   1.409  0.1757 -0.5110 -0.9252
 2220TIP3   OH2 6665   0.177   1.516   2.205 -0.6901 -0.2125  0.1359
 2220TIP3    H1 6666   0.159   1.460   2.281 -0.9819 -0.4585 -0.1113
 2220TIP3    H2 6667   0.090   1.537   2.170 -0.6063  0.6909  0.4367
 2221TIP3   OH2 6668   5.322   5.047   3.933 -0.1168  0.5614 -0.0386
 2221TIP3    H1 6669   5.297   5.086   3.849 -0.0850 -0.7134 -0.6601
 2221TIP3    H2 6670   5.241   5.007   3.966  0.5001 -1.5633 -0.9403
 2222TIP3   OH2 6671   4.001   5.528   4.583 -1.2112 -0.3660 -0.0131
 2222TIP3    H1 6672   3.967   5.614   4.557  1.5348  1.4003  1.7733
 2222TIP3    H2 6673   4.074   5.512   4.524 -0.7955 -0.7591  0.6011
 2223TIP3   OH2 6674   2.435   4.855   5.069 -0.5373  0.4587  0.1211
 2223TIP3    H1 6675   2.410   4.893   5.153  0.5878 -0.9910  1.1546
 2223TIP3    H2 6676   2.494   4.783   5.092  0.3125  0.4456 -1.9429
 2224TIP3   OH2 6677   3.798   3.783   2.072 -0.1713  0.1783 -1.1262
 2224TIP3    H1 6678   3.714   3.742   2.054 -0.8845  1.3134 -0.5077
 2224TIP3    H2 6679   3.863   3.717   2.049 -1.2421 -0.8545 -1.2444
 2225TIP3   OH2 6680   4.041   3.451   1.240 -0.4097 -0.7962 -0.8234
 2225TIP3    H1 6681   4.015   3.460   1.331 -1.7650 -1.0196 -1.1619
 2225TIP3    H2 6682   4.005   3.529   1.197 -1.2215 -1.4932 -1.4509
 2226TIP3   OH2 6683   1.735   0.599   1.231  0.5643  0.4903 -0.3960
 2226TIP3    H1 6684   1.688   0.533   1.282  2.1322 -1.3938 -1.2753
 2226TIP3    H2 6685   1.666   0.651   1.190 -0.7337 -0.5379  0.4021
 2227TIP3   OH2 6686   4.821   2.074   1.705 -1.0361 -0.1523 -0.7364
 2227TIP3    H1 6687   4.766   2.000   1.732 -2.4941  1.2111  0.1822
 2227TIP3    H2 6688   4.759   2.142   1.680  0.2530  1.1059 -0.6135
 2228TIP3   OH2 6689   3.455   5.338   4.885  0.2007  0.2294  0.6709
 2228TIP3    H1 6690   3.543   5.320   4.918  1.0005  4.1316  1.1029
 2228TIP3    H2 6691   3.411   5.383   4.957 -0.8814  1.5041 -0.7190
 2229TIP3   OH2 6692   4.170   3.892   2.608 -0.5026  0.2217 -0.6624
 2229TIP3    H1 6693   4.255   3.928   2.635 -1.3232  0.3916  1.9434
 2229TIP3    H2 6694   4.191   3.836   2.533  2.0753 -0.4632  0.4360
 2230TIP3   OH2 6695   0.581   5.602   3.893  0.3859 -0.4549  0.1301
 2230TIP3    H1 6696   0.531   5.589   3.973  0.4404  0.9096  0.4055
 2230TIP3    H2 6697   0.623   5.517   3.877  0.0289 -0.8699  1.2868
 2231TIP3   OH2 6698   0.143   0.084   3.443 -0.9854 -0.0261  0.2675
 2231TIP3    H1 6699   0.134   0.144   3.517 -0.0915 -2.1285  2.1862
 2231TIP3    H2 6700   0.104   0.002   3.473 -0.7354 -0.9242 -1.6834
 2232TIP3   OH2 6701   0.361   0.652   1.313  0.5326  0.1738  0.1454
 2232TIP3    H1 6702   0.437   0.693   1.273  0.3650  1.5991  1.2174
 2232TIP3    H2 6703   0.374   0.558   1.298  1.9409  0.4606 -0.6131
 2233TIP3   OH2 6704   2.222   5.381   0.465  0.0834 -0.1300 -0.7003
 2233TIP3    H1 6705   2.270   5.463   0.477 -0.2594  0.0605 -0.6411
 2233TIP3    H2 6706   2.214   5.372   0.370 -1.2757  0.7196 -0.6823
 2234TIP3   OH2 6707   1.729   3.955   2.337 -0.1219  0.3183  0.0233
 2234TIP3    H1 6708   1.733   4.045   2.304  2.5260  0.8605  1.5135
 2234TIP3    H2 6709   1.776   3.904   2.271  2.1365  0.8325  1.1189
 2235TIP3   OH2 6710   0.299   4.782   1.130  0.4742 -0.4067 -0.4981
 2235TIP3    H1 6711   0.392   4.762   1.134  0.7310  0.4636 -1.6734
 2235TIP3    H2 6712   0.269   4.740   1.049 -0.5394 -2.0892  0.6864
 2236TIP3   OH2 6713   1.840   4.630   0.645  0.2001  0.1915  0.1467
 2236TIP3    H1 6714   1.857   4.540   0.617  0.9408  0.1693  0.6212
 2236TIP3    H2 6715   1.915   4.652   0.702  0.8151  1.6122 -1.1238
 2237TIP3   OH2 6716   5.399   0.124   2.985 -0.1211 -0.2117  1.1837
 2237TIP3    H1 6717   5.359   0.160   2.905 -1.5351  0.7003  2.2464
 2237TIP3    H2 6718   5.485   0.166   2.990 -0.2112  0.0851  0.3846
 2238TIP3   OH2 6719   4.518   2.822   3.066  0.0051  0.0689 -0.3336
 2238TIP3    H1 6720   4.608   2.789   3.069 -0.3737 -0.9251  1.4608
 2238TIP3    H2 6721   4.521   2.892   3.001  1.4509 -1.7169 -2.3320
 2239TIP3   OH2 6722   1.202   2.840   3.284 -0.1906 -0.5944  0.1758
 2239TIP3    H1 6723   1.208   2.914   3.345 -0.1451 -0.2926 -0.1865
 2239TIP3    H2 6724   1.116   2.851   3.242  0.7451  0.6131 -1.5633
 2240TIP3   OH2 6725   4.430   5.274   1.094 -0.0786  0.2389  0.2972
 2240TIP3    H1 6726   4.350   5.323   1.076 -0.9103 -1.2249 -0.1115
 2240TIP3    H2 6727   4.449   5.292   1.186 -1.5550 -0.3420  0.7314
 2241TIP3   OH2 6728   0.492   0.169   2.003  0.1239 -0.7441  0.5938
 2241TIP3    H1 6729   0.578   0.181   1.965  1.3729 -1.2894  3.0157
 2241TIP3    H2 6730   0.464   0.083   1.972  0.0069 -0.1966 -0.9059
 2242TIP3   OH2 6731   4.091   3.822   3.652  0.0613  0.2929 -0.0504
 2242TIP3    H1 6732   4.077   3.731   3.678 -0.2959 -0.1388 -1.6512
 2242TIP3    H2 6733   4.011   3.867   3.678  0.3557  0.2234  1.0094
 2243TIP3   OH2 6734   2.267   3.475   0.133 -0.1943 -0.4833 -0.5842
 2243TIP3    H1 6735   2.259   3.455   0.226 -2.3221 -0.8301 -0.7861
 2243TIP3    H2 6736   2.275   3.390   0.090  0.5631 -0.3373 -0.7425
 2244TIP3   OH2 6737   4.010   2.969   2.684  0.1013 -0.5470 -0.7981
 2244TIP3    H1 6738   4.085   2.924   2.723 -0.7529 -1.1721  0.1617
 2244TIP3    H2 6739   3.961   3.004   2.758  0.2605  1.2125 -1.4931
 2245TIP3   OH2 6740   0.496   5.436   1.664 -0.7377 -0.1437 -0.0196
 2245TIP3    H1 6741   0.546   5.505   1.621  0.1688  0.0345  1.2603
 2245TIP3    H2 6742   0.549   5.412   1.740 -2.7607  0.3255  1.6325
 2246TIP3   OH2 6743   5.813   4.007   3.807 -0.0384  0.0749  0.6377
 2246TIP3    H1 6744   5.858   4.064   3.745  0.6412  0.5767  1.5584
 2246TIP3    H2 6745   5.720   4.023   3.793  0.1351  1.0213  0.5201
 2247TIP3   OH2 6746   3.454   4.934   2.146  0.1008 -0.4468  0.1214
 2247TIP3    H1 6747   3.507   4.929   2.067 -1.4052 -1.5502 -0.8763
 2247TIP3    H2 6748   3.463   4.848   2.187  1.4657  0.3454  1.6162
 2248TIP3   OH2 6749   4.826   0.793   0.261 -0.3690  0.4045 -0.0336
 2248TIP3    H1 6750   4.917   0.812   0.285 -0.1204 -2.7348  2.0167
 2248TIP3    H2 6751   4.823   0.810   0.167  1.6705  2.6742  0.1853
 2249TIP3   OH2 6752   2.404   1.350   0.453 -0.0977 -0.5607  0.1149
 2249TIP3    H1 6753   2.361   1.266   0.438  0.3024 -0.7045 -0.2651
 2249TIP3    H2 6754   2.492   1.339   0.417  0.3112 -0.3201  0.9968
 2250TIP3   OH2 6755   2.410   4.565   4.441 -0.6470 -0.5354 -0.3031
 2250TIP3    H1 6756   2.375   4.540   4.355 -1.3317 -0.3494 -0.0814
 2250TIP3    H2 6757   2.339   4.614   4.483  0.2282  0.7548 -0.2572
 2251TIP3   OH2 6758   0.520   3.073   3.137 -0.2587 -0.0586 -0.4728
 2251TIP3    H1 6759   0.435   3.030   3.138 -0.7618  0.9072 -0.0347
 2251TIP3    H2 6760   0.514   3.137   3.067  0.9415 -1.5335 -1.9970
 2252TIP3   OH2 6761   0.386   0.195   1.304 -0.6065 -0.1727  0.6567
 2252TIP3    H1 6762   0.419   0.107   1.288 -2.5892 -1.2263  1.9213
 2252TIP3    H2 6763   0.450   0.234   1.363  0.7445 -0.4061 -0.6039
 2253TIP3   OH2 6764   3.677   3.197   3.072  0.1517 -0.0864  0.1012
 2253TIP3    H1 6765   3.627   3.274   3.099 -0.8617 -0.8187  0.3470
 2253TIP3    H2 6766   3.768   3.225   3.079 -0.1391  2.2364 -3.0244
 2254TIP3   OH2 6767   0.561   2.953   4.331 -0.3161  0.3991  0.2129
 2254TIP3    H1 6768   0.612   3.033   4.318  0.1359  0.1398  0.3660
 2254TIP3    H2 6769   0.619   2.883   4.302 -0.8393  0.1508 -0.2454
 2255TIP3   OH2 6770   1.346   2.300   5.146  0.2181  0.3437 -0.5487
 2255TIP3    H1 6771   1.397   2.381   5.148 -0.1304  0.5521  1.3293
 2255TIP3    H2 6772   1.340   2.278   5.053  0.7236  2.2036 -1.0632
 2256TIP3   OH2 6773   3.115   3.963   1.417 -0.4199  0.8557  0.2230
 2256TIP3    H1 6774   3.056   3.888   1.422 -0.0224  0.3113 -2.2127
 2256TIP3    H2 6775   3.071   4.032   1.467 -1.1643 -0.7236  1.8389
 2257TIP3   OH2 6776   3.464   3.347   3.906  0.1447 -0.4317  0.3423
 2257TIP3    H1 6777   3.521   3.298   3.966  0.0082 -1.5870 -0.4475
 2257TIP3    H2 6778   3.433   3.282   3.843  0.5141  0.7954 -1.1763
 2258TIP3   OH2 6779   0.357   5.149   2.396  0.1931  0.0006 -0.3838
 2258TIP3    H1 6780   0.390   5.172   2.309  1.0671 -0.4575 -0.1796
 2258TIP3    H2 6781   0.363   5.231   2.446  1.3799 -0.1582 -0.2455
 2259TIP3   OH2 6782   6.096   1.810   1.560 -0.1146  0.5276 -0.6163
 2259TIP3    H1 6783   6.031   1.744   1.587 -0.4824  1.4704  0.9778
 2259TIP3    H2 6784   6.044   1.886   1.535  0.3235  0.3879 -2.0314
 2260TIP3   OH2 6785   2.008   2.159   1.286 -0.1554 -0.4889 -0.0576
 2260TIP3    H1 6786   1.925   2.180   1.329  0.4883 -0.2228  1.0853
 2260TIP3    H2 6787   2.072   2.159   1.356  1.1829  1.3448 -1.1819
 2261TIP3   OH2 6788   5.395   3.180   1.258 -0.4555  0.0015  0.2806
 2261TIP3    H1 6789   5.395   3.170   1.353  0.0269 -0.2339  0.2595
 2261TIP3    H2 6790   5.340   3.108   1.226 -0.0050 -0.3740  0.3420
 2262TIP3   OH2 6791   3.965   1.415   4.706 -0.0410  0.5420  0.1410
 2262TIP3    H1 6792   3.914   1.336   4.725 -0.4032  1.0215  1.2162
 2262TIP3    H2 6793   4.016   1.431   4.785 -0.1625  1.5337  0.0360
 2263TIP3   OH2 6794   1.785   3.499   4.500 -0.1450 -0.0839  0.1005
 2263TIP3    H1 6795   1.697   3.467   4.521 -0.1441 -1.0915 -1.2730
 2263TIP3    H2 6796   1.781   3.519   4.406  1.5100 -1.6627 -0.3659
 2264TIP3   OH2 6797   4.143   1.039   4.955 -0.0124 -0.2353 -0.6821
 2264TIP3    H1 6798   4.194   1.118   4.935 -0.7423 -0.2600 -2.8451
 2264TIP3    H2 6799   4.174   1.013   5.041  0.4286  2.2705  0.0107
 2265TIP3   OH2 6800   5.484   5.050   2.601  0.8284  0.2316 -0.3266
 2265TIP3    H1 6801   5.536   4.984   2.555 -1.3257  0.3863 -3.2402
 2265TIP3    H2 6802   5.412   5.001   2.640  1.5967  0.3732  1.3580
 2266TIP3   OH2 6803   5.788   0.750   2.199 -0.0380 -0.1062  0.5046
 2266TIP3    H1 6804   5.870   0.798   2.201 -0.6699  0.9835  1.2021
 2266TIP3    H2 6805   5.791   0.691   2.274  1.1419 -1.9396 -0.8760
 2267TIP3   OH2 6806   2.181   3.673   3.158 -0.0481 -0.0980 -0.4172
 2267TIP3    H1 6807   2.088   3.651   3.154  0.0062 -0.2255 -1.3280
 2267TIP3    H2 6808   2.198   3.692   3.250 -0.6089 -1.6628  0.0365
 2268TIP3   OH2 6809   6.241   5.111   4.312 -0.7069 -0.2968 -0.0192
 2268TIP3    H1 6810   6.218   5.038   4.369  0.4749 -0.5480  0.1665
 2268TIP3    H2 6811   6.238   5.188   4.368  0.7047 -0.5748  0.4837
 2269TIP3   OH2 6812   5.316   2.573   2.170  0.4359 -0.4307  0.7316
 2269TIP3    H1 6813   5.409   2.561   2.187  0.2909 -2.0960  0.5014
 2269TIP3    H2 6814   5.302   2.531   2.085 -0.4024  0.4696  0.4004
 2270TIP3   OH2 6815   3.583   1.777   0.153 -0.0406  0.2461 -0.6129
 2270TIP3    H1 6816   3.616   1.701   0.106 -0.8392  0.5517 -1.7365
 2270TIP3    H2 6817   3.492   1.786   0.123 -0.7136  0.2639  1.2876
 2271TIP3   OH2 6818   1.022   0.987   4.620 -0.4855  0.5027 -0.3601
 2271TIP3    H1 6819   1.019   0.915   4.557  0.1214  0.5612 -0.4697
 2271TIP3    H2 6820   0.953   0.967   4.684 -0.1919 -0.2851 -0.2788
 2272TIP3   OH2 6821   5.973   5.655   3.257  0.4083  0.1362  0.3466
 2272TIP3    H1 6822   5.888   5.621   3.230  0.5769 -0.5502  0.6513
 2272TIP3    H2 6823   6.008   5.697   3.179  0.9363 -1.9115 -0.5957
 2273TIP3   OH2 6824   1.122   4.106   2.568 -0.3079  0.1855  0.5530
 2273TIP3    H1 6825   1.140   4.017   2.538 -0.3500  0.8159 -1.5204
 2273TIP3    H2 6826   1.100   4.097   2.661  1.2303 -1.7563  0.7789
 2274TIP3   OH2 6827   2.676   2.739   4.374  0.5913 -0.0348  0.1230
 2274TIP3    H1 6828   2.646   2.790   4.449  1.3210 -0.9301  1.0616
 2274TIP3    H2 6829   2.596   2.719   4.326 -0.0313 -0.2698  1.2111
 2275TIP3   OH2 6830   3.035   0.850   4.808 -0.3175  0.3049  0.3644
 2275TIP3    H1 6831   3.009   0.760   4.792 -0.3056  0.6699 -2.2266
 2275TIP3    H2 6832   2.953   0.896   4.827 -0.3662 -0.1692  1.3312
 2276TIP3   OH2 6833   4.699   4.418   4.036  0.0786 -0.5504 -0.2007
 2276TIP3    H1 6834   4.627   4.463   4.080  0.2645 -1.4121  1.0244
 2276TIP3    H2 6835   4.656   4.356   3.977 -0.2175 -1.3028  0.7744
 2277TIP3   OH2 6836   1.935   1.295   3.364  0.0144 -0.0194  0.1476
 2277TIP3    H1 6837   1.919   1.299   3.270 -0.6700  2.5354  0.2991
 2277TIP3    H2 6838   2.029   1.277   3.372  0.1945  0.3017 -1.0330
 2278TIP3   OH2 6839   4.416   2.727   4.960  0.1341 -0.3828  0.7359
 2278TIP3    H1 6840   4.394   2.818   4.940  2.3368  0.1231  0.3516
 2278TIP3    H2 6841   4.402   2.681   4.877  0.2115 -0.1485  0.5904
 2279TIP3   OH2 6842   3.201   2.041   1.702 -0.3764 -0.1419  0.1146
 2279TIP3    H1 6843   3.188   2.064   1.794 -0.4570 -1.6411  0.4994
 2279TIP3    H2 6844   3.113   2.036   1.665 -0.3577  0.1045  0.0277
 2280TIP3   OH2 6845   2.528   1.432   4.316  0.3289 -0.1100  0.2446
 2280TIP3    H1 6846   2.604   1.412   4.372  1.0012  0.2586 -0.5152
 2280TIP3    H2 6847   2.567   1.465   4.235 -0.5859 -1.8414 -0.9454
 2281TIP3   OH2 6848   5.006   1.882   2.407  0.0800  0.1535  0.8522
 2281TIP3    H1 6849   4.911   1.871   2.409  0.2565 -1.5150  2.1350
 2281TIP3    H2 6850   5.019   1.966   2.362 -1.9491  0.1313  0.0992
 2282TIP3   OH2 6851   1.714   0.349   0.853  1.3201  0.1293  0.2969
 2282TIP3    H1 6852   1.629   0.315   0.884  0.4847  0.7498 -1.2230
 2282TIP3    H2 6853   1.707   0.444   0.864  2.0645  0.1506  0.6842
 2283TIP3   OH2 6854   0.541   1.326   3.945 -0.1872 -0.5471 -0.1547
 2283TIP3    H1 6855   0.533   1.409   3.898  3.0953  0.7088  1.2010
 2283TIP3    H2 6856   0.585   1.268   3.883  0.7051 -0.1181  0.0685
 2284TIP3   OH2 6857   4.964   3.135   2.910 -0.2254 -0.5008  0.4195
 2284TIP3    H1 6858   4.936   3.218   2.873 -2.1221 -1.2703  0.0063
 2284TIP3    H2 6859   5.041   3.156   2.963 -1.7576  1.8509  1.8983
 2285TIP3   OH2 6860   5.143   5.622   0.431 -0.1240 -0.0526 -0.5793
 2285TIP3    H1 6861   5.117   5.597   0.520  0.8396  2.2958  0.4644
 2285TIP3    H2 6862   5.125   5.545   0.378 -2.9497 -0.7885  1.1959
 2286TIP3   OH2 6863   2.312   3.309   1.247  0.6624 -0.1073  0.1291
 2286TIP3    H1 6864   2.392   3.260   1.227  0.8649 -0.1244  0.9473
 2286TIP3    H2 6865   2.316   3.386   1.191  1.5571  0.1957  0.5861
 2287TIP3   OH2 6866   3.092   5.983   0.606 -0.3300  0.5793 -0.1344
 2287TIP3    H1 6867   3.167   5.936   0.641 -0.0821  1.0274 -0.0598
 2287TIP3    H2 6868   3.070   6.047   0.673 -0.8228  0.4060 -0.1260
 2288TIP3   OH2 6869   2.028   4.988   3.400 -0.2838 -0.1625  0.0094
 2288TIP3    H1 6870   2.019   4.980   3.305 -0.0099 -0.4252  0.0058
 2288TIP3    H2 6871   2.065   5.076   3.413  0.0338 -0.2713 -0.1488
 2289TIP3   OH2 6872   4.421   2.098   4.519 -0.6392  0.2714 -0.5941
 2289TIP3    H1 6873   4.471   2.121   4.598 -1.2158  2.7146 -0.8669
 2289TIP3    H2 6874   4.385   2.181   4.488 -2.9374 -1.0514 -1.7505
 2290TIP3   OH2 6875   6.038   4.275   0.720  0.7459 -0.2561  0.2712
 2290TIP3    H1 6876   6.025   4.289   0.814 -0.0159  0.3201  0.0934
 2290TIP3    H2 6877   6.124   4.311   0.702  1.6009 -1.8364  1.0369
 2291TIP3   OH2 6878   3.964   0.728   3.923  0.3214 -0.3146 -0.6618
 2291TIP3    H1 6879   3.947   0.702   3.833  0.8544  0.0036 -0.8599
 2291TIP3    H2 6880   3.980   0.646   3.970  2.1286 -0.3730 -1.3075
 2292TIP3   OH2 6881   3.113   4.348   2.592 -0.1308 -0.2362 -0.2015
 2292TIP3    H1 6882   3.203   4.318   2.599 -0.4080 -1.1439 -0.4738
 2292TIP3    H2 6883   3.104   4.414   2.660  0.5867 -0.5201  0.1685
 2293TIP3   OH2 6884   0.242   0.415   0.591 -0.4457 -0.2944  0.3801
 2293TIP3    H1 6885   0.274   0.371   0.670 -0.5547 -1.3254 -0.1263
 2293TIP3    H2 6886   0.320   0.449   0.548 -0.3881  0.2754  0.9330
 2294TIP3   OH2 6887   2.573   5.114   0.509  0.1264  0.0554 -0.1425
 2294TIP3    H1 6888   2.590   5.159   0.427  1.4790  1.0329  0.6274
 2294TIP3    H2 6889   2.627   5.160   0.573 -1.5724 -0.0851  1.4782
 2295TIP3   OH2 6890   5.346   0.501   4.666 -0.6483 -0.2949 -0.5313
 2295TIP3    H1 6891   5.377   0.543   4.586  1.0930  0.1709  0.3474
 2295TIP3    H2 6892   5.321   0.574   4.723  0.6966 -0.4871  0.3362
 2296TIP3   OH2 6893   0.519   2.866   0.707 -0.3907  0.3018 -0.4621
 2296TIP3    H1 6894   0.520   2.854   0.802  1.2296  2.5743 -0.0953
 2296TIP3    H2 6895   0.454   2.936   0.693  0.1667  0.7489 -0.8754
 2297TIP3   OH2 6896   1.360   1.841   2.305  0.0715 -0.6196  0.3618
 2297TIP3    H1 6897   1.267   1.853   2.324  0.0422 -0.6808  0.2596
 2297TIP3    H2 6898   1.395   1.929   2.298 -0.1305 -0.5881 -0.3301
 2298TIP3   OH2 6899   0.970   5.438   1.333 -0.2275 -0.1432  0.1207
 2298TIP3    H1 6900   0.969   5.531   1.358 -0.4831 -0.2369  0.4686
 2298TIP3    H2 6901   1.012   5.437   1.247 -1.1393  0.4168 -0.3495
 2299TIP3   OH2 6902   4.061   5.952   4.448  0.0448 -0.0638 -0.1439
 2299TIP3    H1 6903   4.132   5.966   4.511  0.7452 -0.4167 -0.8286
 2299TIP3    H2 6904   4.039   6.040   4.417 -0.6031  0.1528  0.8920
 2300TIP3   OH2 6905   6.060   5.538   1.077 -0.4365  0.5340  0.0257
 2300TIP3    H1 6906   6.020   5.609   1.127 -1.2282  0.1704 -0.0758
 2300TIP3    H2 6907   6.057   5.569   0.986 -0.8901  0.3257 -0.0325
 2301TIP3   OH2 6908   2.719   2.002   4.491  0.6331 -0.0052  0.3136
 2301TIP3    H1 6909   2.695   1.998   4.398  1.9188 -1.9823  0.0093
 2301TIP3    H2 6910   2.650   1.952   4.535 -0.5591  1.8072  0.6223
 2302TIP3   OH2 6911   1.907   5.702   3.561 -0.2558  0.2842 -0.0922
 2302TIP3    H1 6912   1.988   5.650   3.557 -0.5177 -0.3620  1.8846
 2302TIP3    H2 6913   1.880   5.697   3.653 -3.2264 -0.5859 -0.9044
 2303TIP3   OH2 6914   0.983   0.054   3.336  0.6379  0.5421  0.5577
 2303TIP3    H1 6915   1.037  -0.000   3.279 -0.1103  0.5480 -0.1681
 2303TIP3    H2 6916   1.018   0.039   3.424  0.9643 -0.4782  0.2614
 2304TIP3   OH2 6917   0.997   1.544   0.050  0.1965 -0.0801  0.1559
 2304TIP3    H1 6918   1.077   1.568   0.097  1.3054  0.8854 -2.1119
 2304TIP3    H2 6919   0.928   1.597   0.092  0.4470 -1.6853  2.8270
 2305TIP3   OH2 6920   0.013   4.938   2.852 -0.4905 -0.2160  0.4000
 2305TIP3    H1 6921  -0.057   4.960   2.913 -1.8207 -2.1249 -0.3590
 2305TIP3    H2 6922   0.088   4.990   2.882 -2.1603  1.8210  1.2875
 2306TIP3   OH2 6923   4.514   2.412   1.415 -0.0428 -0.2268 -0.0087
 2306TIP3    H1 6924   4.418   2.416   1.412 -0.1685 -1.6657  0.9251
 2306TIP3    H2 6925   4.539   2.482   1.475 -0.3926  0.9691 -1.2013
 2307TIP3   OH2 6926   1.608   1.293   0.290 -0.0123 -0.2519 -0.0399
 2307TIP3    H1 6927   1.666   1.282   0.366 -0.4565 -0.3031  0.2929
 2307TIP3    H2 6928   1.668   1.310   0.217  0.4427 -0.6912  0.2268
 2308TIP3   OH2 6929   3.138   4.055   3.132  0.4542 -0.0491 -0.4559
 2308TIP3    H1 6930   3.137   3.961   3.114  0.2123 -0.0308 -0.5296
 2308TIP3    H2 6931   3.048   4.083   3.119  0.0018 -0.2478  1.8748
 2309TIP3   OH2 6932   1.651   4.621   4.904  0.0894 -0.5495  0.2254
 2309TIP3    H1 6933   1.585   4.554   4.922 -0.6796  0.2671  0.5505
 2309TIP3    H2 6934   1.734   4.581   4.929 -0.2543 -1.6568 -0.3473
 2310TIP3   OH2 6935   0.575   1.622   4.604 -0.0157  0.5043  0.2183
 2310TIP3    H1 6936   0.503   1.580   4.650 -2.0499  1.0055 -2.2777
 2310TIP3    H2 6937   0.633   1.549   4.579  0.6015  0.1313  2.4947
 2311TIP3   OH2 6938   3.338   2.171   4.024  0.6419 -0.0950 -0.0293
 2311TIP3    H1 6939   3.307   2.199   3.938 -2.4733 -2.2843  0.1815
 2311TIP3    H2 6940   3.392   2.095   4.006  0.8759  0.0899 -0.1071
 2312TIP3   OH2 6941   1.761   2.126   1.734 -0.2396  0.2090 -0.6374
 2312TIP3    H1 6942   1.830   2.173   1.781 -2.6051  1.2465  2.0868
 2312TIP3    H2 6943   1.755   2.170   1.650 -0.0570  2.6169  0.5192
 2313TIP3   OH2 6944   3.883   1.055   0.374 -0.1554  0.5580  0.2682
 2313TIP3    H1 6945   3.863   1.060   0.468 -0.2753 -1.5463  0.4123
 2313TIP3    H2 6946   3.800   1.029   0.334  0.2440  0.0191 -0.2198
 2314TIP3   OH2 6947   5.926   2.015   0.034 -0.2881  0.5756  0.2895
 2314TIP3    H1 6948   5.953   2.107   0.024 -1.1809  0.8613  0.3866
 2314TIP3    H2 6949   6.008   1.965   0.030  0.1771  1.3490 -0.0850
 2315TIP3   OH2 6950   5.775   5.529   2.136 -0.4495 -0.4381 -0.4602
 2315TIP3    H1 6951   5.796   5.554   2.046  2.0145 -0.7259 -0.0285
 2315TIP3    H2 6952   5.722   5.602   2.168 -0.4697  0.1800 -1.8059
 2316TIP3   OH2 6953   4.665   2.164   1.049 -0.0673  0.5319  0.1069
 2316TIP3    H1 6954   4.602   2.198   0.986 -0.6932 -1.3355 -0.3466
 2316TIP3    H2 6955   4.614   2.104   1.104  1.3021 -1.2777 -0.4775
 2317TIP3   OH2 6956   0.160   3.564   1.839 -0.4572  0.3375 -0.1289
 2317TIP3    H1 6957   0.095   3.494   1.839 -0.0425 -0.1151  1.9776
 2317TIP3    H2 6958   0.132   3.623   1.909 -0.1555  1.6910 -1.1050
 2318TIP3   OH2 6959   6.315   4.755   3.139  0.2803 -0.1472  0.6033
 2318TIP3    H1 6960   6.275   4.828   3.094 -1.7678 -1.8644 -0.5613
 2318TIP3    H2 6961   6.252   4.731   3.208 -0.3626 -2.2722 -0.6129
 2319TIP3   OH2 6962   0.022   5.934   1.997 -0.3907 -0.4075 -0.3235
 2319TIP3    H1 6963   0.059   5.918   2.083  0.4849  0.0138 -0.6144
 2319TIP3    H2 6964  -0.069   5.959   2.014 -0.2586 -0.4562  0.4636
 2320TIP3   OH2 6965   5.840   2.268   2.643  0.2790  0.1794  0.0390
 2320TIP3    H1 6966   5.904   2.268   2.572  0.4099 -0.2766  0.1523
 2320TIP3    H2 6967   5.889   2.235   2.719 -0.5428 -1.9634 -0.2960
 2321TIP3   OH2 6968   3.160   4.904   1.592  0.1939  0.2225  0.2448
 2321TIP3    H1 6969   3.202   4.936   1.672 -0.0160 -0.4906  0.6519
 2321TIP3    H2 6970   3.070   4.886   1.618  0.8839 -3.1329  0.7521
 2322TIP3   OH2 6971   2.235   0.182   1.015 -0.2337  0.1125 -0.4523
 2322TIP3    H1 6972   2.233   0.255   1.078 -0.6591 -0.9102  0.7645
 2322TIP3    H2 6973   2.253   0.224   0.931 -2.8973  1.9715 -0.2470
 2323TIP3   OH2 6974   2.956   5.236   1.533 -0.8048 -0.2768  0.0486
 2323TIP3    H1 6975   2.976   5.190   1.452 -1.8813  1.7331 -1.4360
 2323TIP3    H2 6976   3.038   5.279   1.558 -1.1587  1.6021 -1.7442
 2324TIP3   OH2 6977   3.525   1.649   3.732 -0.3642 -0.3516  0.2670
 2324TIP3    H1 6978   3.515   1.642   3.637 -2.7431 -1.2141  0.4996
 2324TIP3    H2 6979   3.549   1.740   3.747 -0.1889 -0.1413 -1.1565
 2325TIP3   OH2 6980   1.874   3.252   4.618 -0.1964  0.7920 -0.3782
 2325TIP3    H1 6981   1.872   3.346   4.603 -0.7018  0.5425 -2.0681
 2325TIP3    H2 6982   1.791   3.220   4.582 -0.5476 -0.1890  1.1795
 2326TIP3   OH2 6983   2.441   4.329   1.647 -0.3024  0.0916 -0.1152
 2326TIP3    H1 6984   2.466   4.394   1.580  0.4614  0.0526  0.1233
 2326TIP3    H2 6985   2.478   4.363   1.728 -0.3435 -0.3844  0.1056
 2327TIP3   OH2 6986   0.951   4.379   2.823  0.2494 -0.5966 -0.2399
 2327TIP3    H1 6987   0.908   4.297   2.846  0.5146 -1.2787 -2.0073
 2327TIP3    H2 6988   0.893   4.447   2.856 -2.0085 -1.4884 -2.1086
 2328TIP3   OH2 6989   3.679   3.870   1.022 -0.3379  0.4514 -0.1064
 2328TIP3    H1 6990   3.677   3.776   1.004  0.4955  0.6751 -1.5582
 2328TIP3    H2 6991   3.615   3.908   0.962 -0.3160  0.8655  0.1246
 2329TIP3   OH2 6992   3.645   1.143   0.967 -0.2606 -0.3148  0.8115
 2329TIP3    H1 6993   3.613   1.227   1.000 -2.4421  0.5052 -2.7839
 2329TIP3    H2 6994   3.567   1.101   0.931  1.5718 -1.5236 -2.0563
 2330TIP3   OH2 6995   0.971   2.986   4.747 -0.2097 -0.4209  0.4438
 2330TIP3    H1 6996   0.938   3.058   4.801 -0.0016 -2.0605  2.9069
 2330TIP3    H2 6997   1.014   2.927   4.809  1.5318 -1.6245 -1.7766
 2331TIP3   OH2 6998   2.768   0.949   1.465 -0.1273 -0.2574  0.0192
 2331TIP3    H1 6999   2.808   0.872   1.424 -3.0481 -1.7514 -0.2651
 2331TIP3    H2 7000   2.771   0.931   1.559  0.1622 -0.1786  0.0273
 2332TIP3   OH2 7001   3.220   2.112   0.923 -0.0542 -0.0012  0.1342
 2332TIP3    H1 7002   3.278   2.135   0.996  2.0228 -1.2332 -1.0385
 2332TIP3    H2 7003   3.274   2.122   0.845 -1.5712 -0.7870 -1.0620
 2333TIP3   OH2 7004   2.761   5.101   3.537  0.0339 -0.2234  0.4462
 2333TIP3    H1 7005   2.741   5.097   3.443  0.6638 -1.1627  0.3414
 2333TIP3    H2 7006   2.806   5.185   3.548  0.0860 -0.1709 -0.1217
 2334TIP3   OH2 7007   4.316   3.507   4.887  0.8967  0.4839 -0.0811
 2334TIP3    H1 7008   4.398   3.458   4.887  0.7235  0.1825  0.2706
 2334TIP3    H2 7009   4.268   3.473   4.812  0.1545 -0.9821  1.0030
 2335TIP3   OH2 7010   2.599   4.165   5.034 -0.6983  0.2633 -0.2317
 2335TIP3    H1 7011   2.563   4.158   5.123  0.5348  0.7390  0.3307
 2335TIP3    H2 7012   2.537   4.116   4.980 -1.5490  0.0656  0.8655
 2336TIP3   OH2 7013   2.659   5.400   0.987  0.1542  0.3962 -0.0471
 2336TIP3    H1 7014   2.726   5.399   1.054  0.3307  0.4755 -0.2217
 2336TIP3    H2 7015   2.591   5.341   1.020  0.0766  0.7178  0.3659
 2337TIP3   OH2 7016   1.706   2.500   1.653 -1.0488 -0.3806 -0.3888
 2337TIP3    H1 7017   1.676   2.517   1.742 -0.0203  0.1209 -0.1166
 2337TIP3    H2 7018   1.627   2.479   1.604 -1.7173  0.0588  0.4796
 2338TIP3   OH2 7019   4.661   4.811   4.890 -0.1449  0.2749 -0.6007
 2338TIP3    H1 7020   4.638   4.900   4.863  0.4331  0.4149 -0.6422
 2338TIP3    H2 7021   4.743   4.792   4.845  0.6127  0.3529  0.6828
 2339TIP3   OH2 7022   1.313   4.570   0.536 -0.1097  0.0334 -0.5708
 2339TIP3    H1 7023   1.406   4.557   0.558  0.3180  1.9424 -1.1026
 2339TIP3    H2 7024   1.313   4.587   0.442 -1.0021  0.1584 -0.5532
 2340TIP3   OH2 7025   1.210   3.658   3.273  0.4049 -0.0391 -0.4843
 2340TIP3    H1 7026   1.160   3.577   3.282 -1.5889  1.3007  2.2445
 2340TIP3    H2 7027   1.231   3.664   3.180 -3.4361 -1.4408 -1.6342
 2341TIP3   OH2 7028   0.914   3.225   4.909 -0.8630  0.0818 -0.4130
 2341TIP3    H1 7029   0.889   3.302   4.857 -1.8065  0.2336  0.2306
 2341TIP3    H2 7030   0.965   3.261   4.982 -1.4414  0.1299 -0.0231
 2342TIP3   OH2 7031   0.675   1.166   3.759  0.2188  0.2066 -0.1581
 2342TIP3    H1 7032   0.609   1.106   3.723  0.8897  0.0282 -1.1113
 2342TIP3    H2 7033   0.704   1.218   3.685  0.1635  1.2505  0.5300
 2343TIP3   OH2 7034   0.913   5.173   3.310  0.1594 -0.3268  0.3601
 2343TIP3    H1 7035   0.956   5.256   3.331  0.3092 -0.4290  0.4665
 2343TIP3    H2 7036   0.825   5.197   3.282  0.4534 -0.0788 -0.3721
 2344TIP3   OH2 7037   1.678   0.851   3.356 -0.1497 -0.0060  0.1491
 2344TIP3    H1 7038   1.744   0.832   3.289  1.2783  1.5499  1.0482
 2344TIP3    H2 7039   1.657   0.943   3.343 -1.5159 -0.2494  0.4738
 2345TIP3   OH2 7040   0.358   3.449   0.673  0.2193  0.3260  0.0649
 2345TIP3    H1 7041   0.291   3.410   0.618  0.0651  0.0739  0.4313
 2345TIP3    H2 7042   0.441   3.414   0.639  0.2968  1.7311 -1.3029
 2346TIP3   OH2 7043   5.255   0.445   3.716 -0.0798 -0.0664 -0.2811
 2346TIP3    H1 7044   5.308   0.491   3.782 -0.8471  0.8770 -0.2965
 2346TIP3    H2 7045   5.317   0.426   3.646  0.5651 -0.3154  0.3378
 2347TIP3   OH2 7046   0.446   5.507   0.106 -0.0337  0.2884  0.0878
 2347TIP3    H1 7047   0.473   5.530   0.018 -1.3664 -1.3748 -0.8063
 2347TIP3    H2 7048   0.526   5.512   0.158  0.9684  0.3061 -1.4153
 2348TIP3   OH2 7049   3.012   1.066   3.111 -0.1066 -0.2661  0.4553
 2348TIP3    H1 7050   3.009   1.069   3.015 -1.1032 -0.7903  0.4588
 2348TIP3    H2 7051   3.074   1.135   3.135  0.8290 -0.7071 -0.5979
 2349TIP3   OH2 7052   1.160   4.325   0.455 -0.3306  0.9576 -0.3074
 2349TIP3    H1 7053   1.092   4.392   0.447  0.4967  1.6126 -2.3214
 2349TIP3    H2 7054   1.241   4.374   0.469  0.1810  0.3615 -1.0878
 2350TIP3   OH2 7055   0.928   1.869   1.065  0.2534 -0.0565 -0.2161
 2350TIP3    H1 7056   0.835   1.887   1.081  0.4949  2.5266 -1.2028
 2350TIP3    H2 7057   0.941   1.894   0.973  2.0720  0.3496  0.1311
 2351TIP3   OH2 7058   2.676   0.475   0.272  0.5933 -0.1475  0.5939
 2351TIP3    H1 7059   2.690   0.387   0.306  0.3169  0.6272  2.8861
 2351TIP3    H2 7060   2.587   0.497   0.298  0.2370  0.4098 -0.9823
 2352TIP3   OH2 7061   4.070   5.780   4.244 -0.1832  0.1121  0.1323
 2352TIP3    H1 7062   4.075   5.837   4.321 -1.1826 -0.3076  0.5206
 2352TIP3    H2 7063   4.140   5.812   4.186  1.5144 -0.4330  1.7867
 2353TIP3   OH2 7064   0.038   1.791   1.601  0.1905 -0.2257 -0.0668
 2353TIP3    H1 7065  -0.049   1.790   1.561 -0.1380  0.4400  0.6144
 2353TIP3    H2 7066   0.072   1.878   1.581  0.2109 -0.0522  0.7130
 2354TIP3   OH2 7067   3.973   3.708   3.914 -0.3306  0.0872 -0.1906
 2354TIP3    H1 7068   3.880   3.698   3.894 -0.7413  0.5037  1.3365
 2354TIP3    H2 7069   3.980   3.797   3.949  0.0936 -0.8952  2.4070
 2355TIP3   OH2 7070   3.624   3.951   2.636  0.0195 -0.3094  0.0169
 2355TIP3    H1 7071   3.659   3.966   2.724 -1.3905  1.1961  0.3742
 2355TIP3    H2 7072   3.691   3.987   2.578 -0.9685  3.0631  0.7167
 2356TIP3   OH2 7073   1.533   4.940   4.182  0.2100  0.2070 -0.0961
 2356TIP3    H1 7074   1.505   4.875   4.117  0.6704  0.7064 -0.8157
 2356TIP3    H2 7075   1.451   4.980   4.212  0.0533  1.3609 -1.8629
 2357TIP3   OH2 7076   5.367   0.496   5.068  0.1947 -0.0402  0.0680
 2357TIP3    H1 7077   5.319   0.430   5.117 -0.6540 -0.3686 -1.1545
 2357TIP3    H2 7078   5.300   0.539   5.014  0.8968  1.1308  0.0875
 2358TIP3   OH2 7079   6.084   2.723   3.545 -0.2217 -0.4948  0.0520
 2358TIP3    H1 7080   5.996   2.686   3.559 -0.8029  0.4540 -0.9232
 2358TIP3    H2 7081   6.099   2.712   3.451  1.1715 -1.5874  0.3722
 2359TIP3   OH2 7082   2.476   2.931   4.204 -0.9081  0.4624 -0.0156
 2359TIP3    H1 7083   2.540   2.871   4.166  1.9526  1.4363  2.8112
 2359TIP3    H2 7084   2.401   2.927   4.145  1.0871 -2.0259 -2.6557
 2360TIP3   OH2 7085   0.744   2.939   4.614 -0.6918  0.1041  0.0249
 2360TIP3    H1 7086   0.822   2.945   4.670 -0.4457  0.9837 -0.3881
 2360TIP3    H2 7087   0.767   2.990   4.536 -1.7205  0.4728 -0.0523
 2361TIP3   OH2 7088   3.515   1.081   3.827 -0.1877  0.6802 -0.3459
 2361TIP3    H1 7089   3.534   1.175   3.817  1.5474  0.3520 -0.4220
 2361TIP3    H2 7090   3.531   1.045   3.740 -0.5810  0.2557 -0.2446
 2362TIP3   OH2 7091   1.024   3.783   2.986  0.5633  0.3224  0.4833
 2362TIP3    H1 7092   1.089   3.713   2.978 -0.4253 -0.6081  0.2640
 2362TIP3    H2 7093   0.993   3.798   2.896  0.2758  0.5406  0.6164
 2363TIP3   OH2 7094   1.706   2.377   0.045 -0.0372  0.0094 -0.2351
 2363TIP3    H1 7095   1.644   2.380   0.119 -1.7948 -1.2457 -1.5624
 2363TIP3    H2 7096   1.790   2.401   0.083 -0.5046 -2.3310  2.5833
 2364TIP3   OH2 7097   0.104   2.906   2.787  0.1475 -0.6389 -0.3011
 2364TIP3    H1 7098   0.056   2.936   2.710  1.1236  0.3492 -0.5614
 2364TIP3    H2 7099   0.080   2.814   2.797 -1.3361 -0.3231 -0.7417
 2365TIP3   OH2 7100   2.321   5.519   2.901  0.3804  0.0987 -0.8247
 2365TIP3    H1 7101   2.333   5.570   2.821 -0.8695  0.2928 -0.9127
 2365TIP3    H2 7102   2.371   5.438   2.886  1.5627  0.8600 -1.0806
 2366TIP3   OH2 7103   2.396   0.512   0.708 -0.2860 -0.0435  0.0408
 2366TIP3    H1 7104   2.414   0.544   0.796  0.4321 -0.6098  0.1086
 2366TIP3    H2 7105   2.441   0.428   0.703  0.2505  0.2902 -1.1032
 2367TIP3   OH2 7106   5.488   2.196   1.283  0.2927  0.6245 -0.0860
 2367TIP3    H1 7107   5.583   2.194   1.289  0.2104 -0.5407  1.1968
 2367TIP3    H2 7108   5.459   2.111   1.316 -1.2313  1.3362  0.5230
 2368TIP3   OH2 7109   4.145   0.639   0.677 -0.2653 -0.0666  0.2143
 2368TIP3    H1 7110   4.217   0.654   0.615 -1.1901  1.1467 -0.6180
 2368TIP3    H2 7111   4.188   0.616   0.759  1.0494  0.1475 -0.3885
 2369TIP3   OH2 7112   5.162   1.815   2.107  0.1409  0.0110 -0.0722
 2369TIP3    H1 7113   5.178   1.900   2.146  0.2340  0.0826 -0.2650
 2369TIP3    H2 7114   5.081   1.784   2.148  1.3818 -0.8913  1.8451
 2370TIP3   OH2 7115   0.923   5.425   4.045 -0.0455  0.0879  0.2383
 2370TIP3    H1 7116   0.893   5.480   4.117 -1.1269 -1.3359  0.9256
 2370TIP3    H2 7117   0.867   5.347   4.049 -0.2033  0.0111 -2.2235
 2371TIP3   OH2 7118   5.459   2.763   0.022 -0.2591  0.0220 -0.4882
 2371TIP3    H1 7119   5.484   2.845   0.063 -1.2215  0.4262 -0.6846
 2371TIP3    H2 7120   5.453   2.700   0.094 -0.6207  0.4015 -0.1837
 2372TIP3   OH2 7121   1.691   4.315   0.091 -0.2264 -0.4400  0.0067
 2372TIP3    H1 7122   1.704   4.248   0.024  1.4835 -1.3505  1.1871
 2372TIP3    H2 7123   1.662   4.393   0.042 -2.4723 -2.0179 -1.3824
 2373TIP3   OH2 7124   0.133   1.233   0.172 -0.0183  0.3493 -0.4290
 2373TIP3    H1 7125   0.078   1.168   0.217  2.0289 -1.1707  0.0242
 2373TIP3    H2 7126   0.210   1.183   0.143  1.1722  2.3886 -0.9477
 2374TIP3   OH2 7127   2.656   4.291   0.046 -0.5601 -0.3522 -0.0719
 2374TIP3    H1 7128   2.675   4.225   0.113  0.7858 -0.1753 -0.2549
 2374TIP3    H2 7129   2.570   4.324   0.070 -0.6851 -1.2414  0.7967
 2375TIP3   OH2 7130   0.293   4.639   3.818  0.2323 -0.1820  0.0821
 2375TIP3    H1 7131   0.207   4.669   3.847 -0.4516 -1.1923 -0.8041
 2375TIP3    H2 7132   0.350   4.716   3.826 -0.9834  0.7824 -0.2559
 2376TIP3   OH2 7133   1.551   0.806   1.480  0.0411  0.1508  0.0506
 2376TIP3    H1 7134   1.589   0.866   1.415  0.7450  0.1036  0.4109
 2376TIP3    H2 7135   1.572   0.718   1.446 -1.9709  0.0419 -1.0748
 2377TIP3   OH2 7136   0.414   1.762   0.994 -0.0256  0.0927  0.0817
 2377TIP3    H1 7137   0.319   1.751   0.995 -0.0270 -0.0253  1.9534
 2377TIP3    H2 7138   0.448   1.678   1.025  0.5582  0.8555  1.6205
 2378TIP3   OH2 7139   6.023   1.192   1.135 -0.2503  0.0551 -0.4918
 2378TIP3    H1 7140   6.020   1.136   1.212 -1.7414  0.4009 -0.2662
 2378TIP3    H2 7141   5.959   1.261   1.153  0.6061  1.1107 -1.3132
 2379TIP3   OH2 7142   0.435   1.886   1.515 -0.1739  0.5995  0.5917
 2379TIP3    H1 7143   0.405   1.933   1.438  0.9267 -0.4997 -0.5411
 2379TIP3    H2 7144   0.514   1.933   1.542  0.1101  0.2711  0.3328
 2380TIP3   OH2 7145   5.533   4.907   5.131 -0.0235  0.0425  0.0634
 2380TIP3    H1 7146   5.510   4.887   5.222  0.1590  0.1254  0.1268
 2380TIP3    H2 7147   5.469   4.973   5.104  0.2131  0.3603  0.2778
 2381TIP3   OH2 7148   0.971   5.947   1.939 -0.8011  0.4198  0.5539
 2381TIP3    H1 7149   1.000   5.946   2.030  1.7807  1.5198 -0.1764
 2381TIP3    H2 7150   1.050   5.966   1.889 -2.2894  0.5535 -1.8846
 2382TIP3   OH2 7151   1.261   2.797   3.912  0.4309  0.0240 -0.0433
 2382TIP3    H1 7152   1.175   2.816   3.873  1.3061  0.7870 -1.6734
 2382TIP3    H2 7153   1.240   2.744   3.989 -1.4285 -0.8015 -1.0426
 2383TIP3   OH2 7154   6.118   2.653   2.527 -0.2233  0.0208 -0.9320
 2383TIP3    H1 7155   6.108   2.748   2.516  1.0292  0.4503  1.0396
 2383TIP3    H2 7156   6.202   2.633   2.486 -0.2478 -0.1529 -0.8991
 2384TIP3   OH2 7157   6.053   4.357   1.230  1.0026 -0.1085  0.3602
 2384TIP3    H1 7158   6.002   4.349   1.311 -0.9694  0.8005 -0.7279
 2384TIP3    H2 7159   6.140   4.326   1.254  0.4415 -0.0263  2.7912
 2385TIP3   OH2 7160   0.841   5.535   4.274 -0.1185 -0.2784  0.8513
 2385TIP3    H1 7161   0.814   5.613   4.322  1.0912  1.3941 -1.0298
 2385TIP3    H2 7162   0.918   5.503   4.322  0.2881  0.5837  0.7814
 2386TIP3   OH2 7163   5.782   4.464   0.281 -0.2062 -0.2753 -0.3234
 2386TIP3    H1 7164   5.802   4.511   0.200  0.5014 -0.9877 -0.5760
 2386TIP3    H2 7165   5.842   4.389   0.280 -0.2735 -0.3513  0.8024
 2387TIP3   OH2 7166   0.684   5.101   2.683 -0.4437 -0.3590 -0.0457
 2387TIP3    H1 7167   0.649   5.088   2.595  1.3041 -1.0740 -0.6797
 2387TIP3    H2 7168   0.772   5.137   2.669  0.3534 -1.6334  1.3414
 2388TIP3   OH2 7169   3.208   0.249   4.258 -0.3249  0.1461  0.3837
 2388TIP3    H1 7170   3.254   0.211   4.333  0.6841  0.2644 -0.1648
 2388TIP3    H2 7171   3.213   0.181   4.190 -0.8226  0.2236  0.2671
 2389TIP3   OH2 7172   4.620   1.670   3.133 -0.0918 -0.3959  0.2202
 2389TIP3    H1 7173   4.622   1.650   3.039 -1.2329  2.3118 -0.4642
 2389TIP3    H2 7174   4.537   1.632   3.163  0.4712 -1.6336  0.2578
 2390TIP3   OH2 7175   5.824   5.472   1.838 -0.3164  0.1982 -0.5220
 2390TIP3    H1 7176   5.854   5.380   1.838 -0.3164  0.1927  0.4133
 2390TIP3    H2 7177   5.900   5.522   1.868 -1.2120  0.1687  2.0495
 2391TIP3   OH2 7178   3.244   5.065   2.517 -0.0981 -0.4602 -0.3254
 2391TIP3    H1 7179   3.297   5.134   2.478  0.9661  0.6042  2.6760
 2391TIP3    H2 7180   3.307   4.998   2.543 -0.3426  0.0249  1.7097
 2392TIP3   OH2 7181   4.080   5.025   0.590  0.0385  0.7246  0.2695
 2392TIP3    H1 7182   4.022   5.055   0.521  1.1926  1.4380 -0.4263
 2392TIP3    H2 7183   4.166   5.017   0.548 -0.1620 -4.3282  0.1509
 2393TIP3   OH2 7184   1.040   3.925   2.220 -0.4725  0.4974 -0.5445
 2393TIP3    H1 7185   1.100   3.924   2.145 -0.2241 -1.0312 -0.3749
 2393TIP3    H2 7186   1.061   4.005   2.267  0.3141  0.8028 -1.3787
 2394TIP3   OH2 7187   4.285   0.546   0.897 -0.3790  0.0505  0.3492
 2394TIP3    H1 7188   4.250   0.465   0.935  0.6405  0.0856  1.4069
 2394TIP3    H2 7189   4.304   0.602   0.972 -0.4074  1.0026 -0.3375
 2395TIP3   OH2 7190   2.916   5.841   3.050  0.2666 -0.0502 -0.3735
 2395TIP3    H1 7191   2.911   5.747   3.070 -0.7820 -0.3265 -1.8339
 2395TIP3    H2 7192   2.931   5.844   2.956  0.8652  1.2610 -0.2483
 2396TIP3   OH2 7193   4.969   4.480   4.591 -0.0445 -0.0196  0.3037
 2396TIP3    H1 7194   4.930   4.501   4.506 -1.5573  1.0326  1.2073
 2396TIP3    H2 7195   5.051   4.437   4.569 -0.2061  0.5608 -1.6870
 2397TIP3   OH2 7196   2.801   1.303   0.816 -0.4848  0.7086  0.0419
 2397TIP3    H1 7197   2.732   1.351   0.771  0.4088  0.8015 -1.2752
 2397TIP3    H2 7198   2.802   1.339   0.904 -0.8141  2.0633 -0.4902
 2398TIP3   OH2 7199   1.746   1.835   3.040 -0.2222 -0.1305  0.8207
 2398TIP3    H1 7200   1.729   1.845   2.946 -2.5657 -0.7918  1.1192
 2398TIP3    H2 7201   1.820   1.893   3.057 -0.2212  0.5798 -1.2865
 2399TIP3   OH2 7202   2.787   0.592   2.821 -0.2770 -0.7520  0.3074
 2399TIP3    H1 7203   2.702   0.605   2.865  0.2185  0.7158  0.9030
 2399TIP3    H2 7204   2.849   0.641   2.875  0.8762 -1.4101 -0.3924
 2400TIP3   OH2 7205   5.467   2.575   2.927  0.0605 -0.6221 -0.2076
 2400TIP3    H1 7206   5.472   2.654   2.980  0.2960 -0.4396 -0.5045
 2400TIP3    H2 7207   5.557   2.543   2.923  0.0056 -0.7664 -0.3030
 2401TIP3   OH2 7208   0.645   0.418  -0.017 -0.1325 -0.0153 -0.1256
 2401TIP3    H1 7209   0.649   0.510  -0.043 -2.2926 -0.1931 -1.3355
 2401TIP3    H2 7210   0.601   0.420   0.068 -0.8880  0.0414 -0.5100
 2402TIP3   OH2 7211   3.493   4.536   3.348  0.0211  0.5734 -0.3657
 2402TIP3    H1 7212   3.476   4.604   3.283 -1.8971 -0.8452 -1.4478
 2402TIP3    H2 7213   3.529   4.463   3.297  1.3677  0.4820  0.6605
 2403TIP3   OH2 7214   0.892   2.162   0.063  0.5620  0.4104  0.1394
 2403TIP3    H1 7215   0.890   2.076   0.021 -2.6679  0.2694  0.3568
 2403TIP3    H2 7216   0.853   2.221  -0.002 -3.0852  0.4723  2.1124
 2404TIP3   OH2 7217   2.808   1.659   4.892  0.4037 -0.3148 -0.0726
 2404TIP3    H1 7218   2.889   1.686   4.937  1.0285 -3.4558  0.9237
 2404TIP3    H2 7219   2.800   1.566   4.911 -2.7087 -0.4355 -1.4110
 2405TIP3   OH2 7220   5.524   1.963   4.093  0.0272  0.2074 -0.1838
 2405TIP3    H1 7221   5.435   1.996   4.084 -0.0765 -0.4031 -1.7262
 2405TIP3    H2 7222   5.522   1.909   4.171 -1.4571 -1.2582 -1.1589
 2406TIP3   OH2 7223   0.166   3.184   1.570  0.2209  0.1459  0.0327
 2406TIP3    H1 7224   0.143   3.110   1.626 -2.0332  0.4742 -0.3854
 2406TIP3    H2 7225   0.159   3.260   1.627 -0.2415  0.2960 -0.2192
 2407TIP3   OH2 7226   4.727   1.833   3.388  0.2218 -0.0027  0.6167
 2407TIP3    H1 7227   4.742   1.880   3.306 -0.6793 -0.7151  0.0248
 2407TIP3    H2 7228   4.786   1.875   3.451  0.4216  1.0095 -0.2210
 2408TIP3   OH2 7229   3.786   5.858   4.059  0.0443 -0.5950 -0.3825
 2408TIP3    H1 7230   3.789   5.947   4.024 -1.7176 -0.4647 -0.2680
 2408TIP3    H2 7231   3.848   5.859   4.132  1.1909  0.0831 -1.3298
 2409TIP3   OH2 7232   3.413   1.307   2.654 -0.0473  0.1799  0.0579
 2409TIP3    H1 7233   3.413   1.221   2.611  0.7663 -0.6367  1.5982
 2409TIP3    H2 7234   3.372   1.365   2.591  2.5956 -0.5521 -2.6058
 2410TIP3   OH2 7235   6.103   1.792   4.741  0.5731  0.3379  0.6601
 2410TIP3    H1 7236   6.040   1.853   4.701  0.2764 -0.0611  0.4988
 2410TIP3    H2 7237   6.115   1.824   4.830  1.1572  1.1814  0.2893
 2411TIP3   OH2 7238   6.055   0.219   3.781  0.0400 -0.2413 -0.4285
 2411TIP3    H1 7239   6.104   0.163   3.841 -0.7266 -1.4914 -0.9277
 2411TIP3    H2 7240   5.969   0.227   3.822  0.7966  2.5547  0.8275
 2412TIP3   OH2 7241   2.004   4.040   3.000 -0.4115  0.2430  0.0772
 2412TIP3    H1 7242   1.942   4.101   2.960  0.6059  1.8043  0.7780
 2412TIP3    H2 7243   1.996   3.960   2.948 -3.3297  0.2018  0.4572
 2413TIP3   OH2 7244   1.595   4.238   2.733 -0.2257  0.3242 -0.1816
 2413TIP3    H1 7245   1.525   4.298   2.708  0.6592  0.5707 -2.2929
 2413TIP3    H2 7246   1.553   4.152   2.733 -1.1973  0.7427  1.6208
 2414TIP3   OH2 7247   1.147   1.768   0.698  0.2215 -0.2915  0.3270
 2414TIP3    H1 7248   1.087   1.699   0.726 -1.0471  1.3603  1.9218
 2414TIP3    H2 7249   1.141   1.768   0.603 -0.9137 -1.3569  0.3762
 2415TIP3   OH2 7250   0.927   2.210   2.685  0.4871  0.0274 -0.9330
 2415TIP3    H1 7251   0.863   2.226   2.754 -0.7539 -0.2423 -1.9713
 2415TIP3    H2 7252   1.012   2.215   2.729 -0.2200  0.7969  0.4088
 2416TIP3   OH2 7253   3.696   1.765   1.080 -0.4978  0.6573  0.2044
 2416TIP3    H1 7254   3.610   1.748   1.119  0.3569 -3.1716  0.7304
 2416TIP3    H2 7255   3.677   1.782   0.988 -1.8120 -0.6441  0.2053
 2417TIP3   OH2 7256   4.600   2.950   0.209 -0.4877 -0.8526 -0.1474
 2417TIP3    H1 7257   4.555   3.033   0.228  1.2923  0.1061  0.0821
 2417TIP3    H2 7258   4.657   2.936   0.284  1.2069 -0.8777 -1.3908
 2418TIP3   OH2 7259   2.065   2.622   0.898  0.3096  0.9673 -0.3877
 2418TIP3    H1 7260   2.122   2.678   0.844  2.7993 -0.4793  0.5866
 2418TIP3    H2 7261   2.056   2.542   0.847 -1.0656  1.2482 -0.6104
 2419TIP3   OH2 7262   5.993   3.950   4.504 -0.0223  0.0648 -0.4784
 2419TIP3    H1 7263   6.073   3.900   4.488 -0.2136 -0.7311  0.8680
 2419TIP3    H2 7264   6.024   4.038   4.523  0.3428  0.4245 -2.5383
 2420TIP3   OH2 7265   4.746   1.419   4.862 -0.4565 -0.1726 -0.2948
 2420TIP3    H1 7266   4.732   1.475   4.939 -0.5564 -0.4138 -0.1383
 2420TIP3    H2 7267   4.837   1.390   4.871 -0.3468  0.1062 -0.4708
 2421TIP3   OH2 7268   1.745   2.558   4.708 -0.3467 -0.1730 -0.1673
 2421TIP3    H1 7269   1.649   2.560   4.710 -0.3449  1.9577 -0.1860
 2421TIP3    H2 7270   1.771   2.567   4.800 -0.1778  0.3810 -0.2655
 2422TIP3   OH2 7271   1.808   0.541   0.015 -0.0519  0.3294  0.1485
 2422TIP3    H1 7272   1.817   0.622   0.065 -4.2220 -1.4174  4.3839
 2422TIP3    H2 7273   1.873   0.482   0.053 -0.8560  0.0449  1.1016
 2423TIP3   OH2 7274   1.002   0.414   0.433 -0.2777 -0.4679  0.2805
 2423TIP3    H1 7275   1.000   0.318   0.433  1.4082 -0.5328  0.2436
 2423TIP3    H2 7276   1.085   0.437   0.475 -2.1416  1.0817  3.4729
 2424TIP3   OH2 7277   1.087   2.580   2.473  0.2451 -0.7053  0.1749
 2424TIP3    H1 7278   1.136   2.534   2.542 -0.5932 -3.0058 -0.6744
 2424TIP3    H2 7279   1.030   2.513   2.436 -1.3071  1.1539 -0.9377
 2425TIP3   OH2 7280   5.316   2.235   2.370 -0.3769 -0.4754  0.0397
 2425TIP3    H1 7281   5.257   2.282   2.311 -1.9297 -0.5402  1.4647
 2425TIP3    H2 7282   5.286   2.144   2.367 -0.0903 -0.5884  0.4703
 2426TIP3   OH2 7283   4.357   5.841   3.163 -0.2628  0.2673 -0.2428
 2426TIP3    H1 7284   4.408   5.917   3.136 -0.5892  0.1900 -1.1334
 2426TIP3    H2 7285   4.267   5.863   3.140 -0.6346  0.3559  1.2104
 2427TIP3   OH2 7286   0.135   4.411   4.240 -0.2263 -0.4037 -0.1968
 2427TIP3    H1 7287   0.097   4.373   4.319  1.8654 -0.8791  0.6362
 2427TIP3    H2 7288   0.137   4.339   4.177 -2.1076  0.0331 -0.8223
 2428TIP3   OH2 7289   5.597   1.022   3.285 -0.1887 -0.1607 -0.6590
 2428TIP3    H1 7290   5.557   1.092   3.233 -1.1140  0.6579  1.0569
 2428TIP3    H2 7291   5.553   0.942   3.257 -1.5226  0.4342 -0.3212
 2429TIP3   OH2 7292   0.108   4.801   4.170 -0.3755 -0.7468  0.8309
 2429TIP3    H1 7293   0.140   4.807   4.080 -1.0257  1.0428  0.6894
 2429TIP3    H2 7294   0.174   4.846   4.223 -0.6116 -0.6929  1.0836
 2430TIP3   OH2 7295   4.336   1.621   4.384  0.3973  1.0065 -0.0049
 2430TIP3    H1 7296   4.285   1.566   4.443  2.3262 -1.4798 -0.5220
 2430TIP3    H2 7297   4.377   1.686   4.442  0.8553 -0.2851  1.1583
 2431TIP3   OH2 7298   2.848   1.552   1.307 -0.4730 -0.7358  0.1635
 2431TIP3    H1 7299   2.932   1.564   1.351 -0.4220 -1.3977  0.2583
 2431TIP3    H2 7300   2.819   1.641   1.286 -0.0831 -0.4584  0.7553
 2432TIP3   OH2 7301   6.065   5.259   0.726  0.0995 -0.1460  0.0386
 2432TIP3    H1 7302   6.102   5.205   0.796 -0.3284 -2.8767 -1.6844
 2432TIP3    H2 7303   6.108   5.228   0.646 -3.0938 -0.9090 -1.5643
 2433TIP3   OH2 7304   1.617   5.085   1.038 -0.1068  0.1229 -0.1392
 2433TIP3    H1 7305   1.673   5.113   1.110  0.1055  0.7207 -0.5244
 2433TIP3    H2 7306   1.674   5.087   0.961  0.0907 -1.9861 -0.1020
 2434TIP3   OH2 7307   0.945   2.660   1.023 -0.1134  0.3540  0.0256
 2434TIP3    H1 7308   0.887   2.699   0.958 -1.0578  0.5331  0.9514
 2434TIP3    H2 7309   0.989   2.734   1.064  0.9764  0.2075 -0.8317
 2435TIP3   OH2 7310   6.178   0.590   2.504  0.2395 -0.1423 -0.5927
 2435TIP3    H1 7311   6.242   0.661   2.502  0.8245 -0.6428  0.1543
 2435TIP3    H2 7312   6.192   0.543   2.421  0.2505  0.2544 -0.8204
 2436TIP3   OH2 7313   2.086   4.037   0.500 -0.4684  0.3567 -0.1991
 2436TIP3    H1 7314   2.181   4.033   0.490  0.1734  5.2479  1.1555
 2436TIP3    H2 7315   2.054   4.066   0.415 -0.4410  0.6777 -0.1037
 2437TIP3   OH2 7316   2.413   0.772   4.680 -0.2620  0.7530 -0.5034
 2437TIP3    H1 7317   2.428   0.762   4.586  1.6493  1.4531 -0.3115
 2437TIP3    H2 7318   2.324   0.739   4.694  0.4463 -2.1347 -2.0835
 2438TIP3   OH2 7319   3.511   5.402   0.975 -0.3190 -0.6486  0.2208
 2438TIP3    H1 7320   3.589   5.369   0.930  1.2812  1.7862  0.9951
 2438TIP3    H2 7321   3.526   5.496   0.983 -2.7570 -0.2877  1.6211
 2439TIP3   OH2 7322   5.224   0.744   5.172 -0.2486 -0.3383  0.1411
 2439TIP3    H1 7323   5.300   0.692   5.199 -0.3759 -0.5015  0.1863
 2439TIP3    H2 7324   5.164   0.681   5.132 -0.7444 -0.3676  0.9049
 2440TIP3   OH2 7325   0.728   3.276   0.118  0.2320  0.4285  0.0077
 2440TIP3    H1 7326   0.759   3.185   0.119  0.0066  0.3374  1.7144
 2440TIP3    H2 7327   0.633   3.269   0.124  0.0916  0.7822 -1.3750
 2441TIP3   OH2 7328   6.125   3.588   3.503 -0.0588  0.3950 -0.7474
 2441TIP3    H1 7329   6.164   3.508   3.539  0.6776  0.1167 -2.0983
 2441TIP3    H2 7330   6.178   3.659   3.539 -1.1268  0.3776  0.9990
 2442TIP3   OH2 7331   2.316   0.065   3.564 -0.3330  0.1940 -0.3294
 2442TIP3    H1 7332   2.391   0.121   3.544 -0.6890 -0.2311 -3.3358
 2442TIP3    H2 7333   2.327   0.041   3.656  1.2606  2.9766  0.3091
 2443TIP3   OH2 7334   2.248   2.174   3.361 -0.3124  0.4323 -0.3295
 2443TIP3    H1 7335   2.325   2.119   3.376 -0.9926 -0.4590 -0.0120
 2443TIP3    H2 7336   2.284   2.257   3.329  0.7776  0.0506 -0.1495
 2444TIP3   OH2 7337   1.679   0.102   1.147 -0.0109  0.4034  0.2225
 2444TIP3    H1 7338   1.637   0.101   1.061  1.9910  0.8244 -0.8042
 2444TIP3    H2 7339   1.606   0.093   1.209 -1.5949  1.0468 -1.4592
 2445TIP3   OH2 7340   2.814   1.614   0.323  0.2505 -0.4759  0.1157
 2445TIP3    H1 7341   2.777   1.701   0.335  1.0928  0.2294 -1.9358
 2445TIP3    H2 7342   2.898   1.629   0.279  1.2605 -2.2312  1.3277
 2446TIP3   OH2 7343   1.248   1.538   3.862  0.4921 -0.3093 -0.2623
 2446TIP3    H1 7344   1.228   1.513   3.772  1.6579 -1.6230 -0.1736
 2446TIP3    H2 7345   1.172   1.509   3.912  0.4377 -0.7971 -0.6242
 2447TIP3   OH2 7346   5.070   2.732   4.643  0.3898  0.3485  0.0199
 2447TIP3    H1 7347   5.129   2.804   4.664 -0.0708  0.5478  0.6530
 2447TIP3    H2 7348   4.991   2.750   4.694  0.8610 -1.4546  1.4925
 2448TIP3   OH2 7349   2.790   5.532   4.727 -0.1003  0.0312 -0.1960
 2448TIP3    H1 7350   2.861   5.512   4.666 -0.8056 -0.5107 -0.8681
 2448TIP3    H2 7351   2.716   5.553   4.670 -0.3471  1.1117  0.4921
 2449TIP3   OH2 7352   4.099   1.082   1.849  0.0181  0.3287  0.6286
 2449TIP3    H1 7353   4.090   1.104   1.941 -0.8713  1.6111  0.2724
 2449TIP3    H2 7354   4.090   1.166   1.804  3.7727  0.3266 -0.4830
 2450TIP3   OH2 7355   5.356   3.193   1.912  0.0852  0.1847  0.4838
 2450TIP3    H1 7356   5.330   3.110   1.953  0.2413  0.3216  0.8703
 2450TIP3    H2 7357   5.290   3.208   1.845  1.0805 -1.1930 -0.8771
 2451TIP3   OH2 7358   5.056   1.717   0.512 -0.4727  0.9092  0.0655
 2451TIP3    H1 7359   5.088   1.742   0.599 -1.8333  1.1654  0.5190
 2451TIP3    H2 7360   4.967   1.685   0.528  0.0375 -1.2207 -0.9223
 2452TIP3   OH2 7361   3.312   3.296   2.012  0.0840  0.3596  0.0455
 2452TIP3    H1 7362   3.270   3.219   2.052  1.8459 -0.6961 -0.0392
 2452TIP3    H2 7363   3.249   3.367   2.024 -1.1115 -0.8433  1.1467
 2453TIP3   OH2 7364   2.025   3.225   1.290 -0.3717  0.0541 -0.0163
 2453TIP3    H1 7365   2.042   3.213   1.383  0.5230 -2.3731 -0.4406
 2453TIP3    H2 7366   2.111   3.240   1.251 -0.5076 -0.8258 -0.6841
 2454TIP3   OH2 7367   6.331   0.641   0.887  0.1153 -0.1374  0.1464
 2454TIP3    H1 7368   6.417   0.667   0.921  0.3212  1.8849 -1.7257
 2454TIP3    H2 7369   6.272   0.650   0.962  1.2385  0.1315  1.0224
 2455TIP3   OH2 7370   2.492   4.882   4.305  0.0964 -0.1045 -0.2692
 2455TIP3    H1 7371   2.547   4.922   4.237  0.3058  0.3264  0.1498
 2455TIP3    H2 7372   2.443   4.815   4.258 -0.3580  0.7285 -1.0187
 2456TIP3   OH2 7373   6.099   5.662   3.709 -0.7137 -0.5009 -0.2707
 2456TIP3    H1 7374   6.118   5.658   3.802 -0.7681 -2.0785 -0.3012
 2456TIP3    H2 7375   6.182   5.689   3.668 -0.9894  1.3246  0.2915
 2457TIP3   OH2 7376   3.860   4.626   4.472 -0.1533 -0.3439 -0.0030
 2457TIP3    H1 7377   3.947   4.639   4.510 -0.2451 -1.7244  0.7382
 2457TIP3    H2 7378   3.800   4.626   4.547 -0.7295 -0.0686 -0.4470
 2458TIP3   OH2 7379   5.936   4.499   3.458  0.5960  0.3376 -0.0478
 2458TIP3    H1 7380   5.877   4.507   3.532 -2.0912 -1.8855 -1.7551
 2458TIP3    H2 7381   6.021   4.477   3.496 -0.5937 -0.3525  2.3632
 2459TIP3   OH2 7382   5.121   1.118   2.039  0.2234  0.2324  0.5830
 2459TIP3    H1 7383   5.075   1.034   2.035 -0.1046  0.4185  0.4616
 2459TIP3    H2 7384   5.052   1.183   2.041  0.4848  0.5157  0.3894
 2460TIP3   OH2 7385   6.179   2.015   1.288 -0.0603 -0.1233  0.1120
 2460TIP3    H1 7386   6.152   1.929   1.319  0.1498  0.0824  0.8916
 2460TIP3    H2 7387   6.233   1.997   1.211  0.9877 -0.7709  0.9746
 2461TIP3   OH2 7388   5.246   0.619   1.053  1.0620  0.0063  0.1195
 2461TIP3    H1 7389   5.221   0.595   0.964  1.6410  1.2088 -0.3781
 2461TIP3    H2 7390   5.312   0.687   1.043 -1.2600  2.6573  1.4408
 2462TIP3   OH2 7391   1.002   5.727   1.311 -0.2248 -0.1284 -0.1443
 2462TIP3    H1 7392   0.965   5.759   1.228  0.4211 -0.3926 -0.5387
 2462TIP3    H2 7393   1.096   5.740   1.302 -0.2819  2.0133  1.4861
 2463TIP3   OH2 7394   6.283   0.064   2.731  0.0640  0.0737  0.3225
 2463TIP3    H1 7395   6.361   0.087   2.680  1.2169 -0.0942  1.9176
 2463TIP3    H2 7396   6.293   0.112   2.813 -2.2363  1.1301  0.0517
 2464TIP3   OH2 7397   5.041   1.813   4.894  0.1281 -0.1144 -0.0978
 2464TIP3    H1 7398   5.003   1.879   4.952  2.0244  1.8271 -0.9332
 2464TIP3    H2 7399   5.073   1.745   4.952  0.5113  0.9844  1.0108
 2465TIP3   OH2 7400   1.078   3.066   3.745  0.0378 -0.2372  0.4258
 2465TIP3    H1 7401   1.100   3.096   3.833 -0.2148 -0.4089  0.5524
 2465TIP3    H2 7402   1.143   3.106   3.688 -0.9001  1.3985  0.4501
 2466TIP3   OH2 7403   3.864   0.059   0.302  0.1337  0.4033  0.0372
 2466TIP3    H1 7404   3.825   0.055   0.389 -1.0048  1.5961 -0.3930
 2466TIP3    H2 7405   3.956   0.078   0.318  0.6856 -2.6231  1.0807
 2467TIP3   OH2 7406   5.138   2.750   4.158 -0.0165  0.3255 -0.4995
 2467TIP3    H1 7407   5.161   2.658   4.166  1.2541  0.7813  1.8378
 2467TIP3    H2 7408   5.189   2.781   4.082 -0.3753 -0.8435 -1.2346
 2468TIP3   OH2 7409   2.089   1.476   0.102 -0.1379 -0.4428 -0.1646
 2468TIP3    H1 7410   2.038   1.535   0.157  2.6917  2.2870 -0.1731
 2468TIP3    H2 7411   2.136   1.534   0.042  1.2901 -2.8943 -1.5828
 2469TIP3   OH2 7412   2.547   1.572   3.982 -0.2105 -0.7758  0.1675
 2469TIP3    H1 7413   2.515   1.661   3.996 -0.0386 -0.8061  0.8088
 2469TIP3    H2 7414   2.467   1.521   3.968 -0.5170 -0.8839  1.9736
 2470TIP3   OH2 7415   5.073   3.231   4.329  0.6683  0.5297 -0.2941
 2470TIP3    H1 7416   5.009   3.234   4.258  2.2444  2.5801 -1.7600
 2470TIP3    H2 7417   5.022   3.246   4.408 -0.8683  0.3343 -1.2066
 2471TIP3   OH2 7418   0.291   2.797   0.105  0.3976  0.1635  0.1279
 2471TIP3    H1 7419   0.198   2.798   0.084  0.1708 -0.6441  1.0319
 2471TIP3    H2 7420   0.332   2.755   0.029 -0.0449 -0.0375 -0.0025
 2472TIP3   OH2 7421   3.792   0.239   4.372  0.0943 -0.1982  0.1054
 2472TIP3    H1 7422   3.867   0.281   4.415 -0.1812 -0.4551  0.8486
 2472TIP3    H2 7423   3.741   0.201   4.444  0.8250 -2.6647 -0.5583
 2473TIP3   OH2 7424   2.646   4.763   3.619 -0.4209 -0.2198  0.4343
 2473TIP3    H1 7425   2.697   4.837   3.653 -0.4797  0.2234 -0.4076
 2473TIP3    H2 7426   2.555   4.788   3.633 -0.4323 -0.4259  0.7377
 2474TIP3   OH2 7427   5.522   0.891   1.833  0.2308  0.2637 -0.2536
 2474TIP3    H1 7428   5.437   0.900   1.876 -0.9107  1.3766 -2.5673
 2474TIP3    H2 7429   5.540   0.797   1.835 -0.8238  0.0620  0.6661
 2475TIP3   OH2 7430   4.384   3.560   1.779  0.5528 -0.3772 -0.3076
 2475TIP3    H1 7431   4.382   3.465   1.767 -0.0197 -0.6128  1.3423
 2475TIP3    H2 7432   4.455   3.590   1.722  2.0685 -2.0382  0.5933
 2476TIP3   OH2 7433   3.649   2.090   1.478  0.6397  0.1101 -0.4305
 2476TIP3    H1 7434   3.576   2.030   1.492  0.7705 -0.9883 -3.5080
 2476TIP3    H2 7435   3.708   2.075   1.552 -1.1951 -0.5614  0.9714
 2477TIP3   OH2 7436   0.912   3.890   5.163  0.2062 -0.5835 -0.2085
 2477TIP3    H1 7437   0.819   3.911   5.164  0.4979  0.7815  0.1574
 2477TIP3    H2 7438   0.945   3.928   5.081  0.8895  1.2267  0.8312
 2478TIP3   OH2 7439   0.286   2.569   1.346  0.3505 -0.1909 -0.4100
 2478TIP3    H1 7440   0.216   2.605   1.401 -0.7020  1.5504 -2.6905
 2478TIP3    H2 7441   0.316   2.644   1.294  0.9749 -1.7705 -2.4561
 2479TIP3   OH2 7442   4.925   0.319   1.350 -0.0881  0.1730  0.1052
 2479TIP3    H1 7443   4.989   0.269   1.300  1.3641  0.1653  1.8654
 2479TIP3    H2 7444   4.843   0.271   1.339  0.3930 -0.3586 -1.4213
 2480TIP3   OH2 7445   0.035   4.184   2.313  0.2958 -0.2718 -0.3092
 2480TIP3    H1 7446   0.129   4.202   2.311  0.2069  0.5255  1.2806
 2480TIP3    H2 7447   0.024   4.121   2.385 -0.6315  1.4964  1.1650
 2481TIP3   OH2 7448   3.860   3.113   3.866  0.4886  0.1638  0.4483
 2481TIP3    H1 7449   3.897   3.035   3.908  1.2236 -0.0348 -0.5519
 2481TIP3    H2 7450   3.934   3.171   3.852  0.4301 -0.1694 -1.4273
 2482TIP3   OH2 7451   6.163   4.211   5.067  0.5403  0.6740 -0.3409
 2482TIP3    H1 7452   6.205   4.187   4.985 -0.4323  0.4474 -0.7919
 2482TIP3    H2 7453   6.170   4.133   5.122  1.1664  0.8164 -0.2071
 2483TIP3   OH2 7454   1.126   3.689   5.140 -0.5955  0.0616 -0.0248
 2483TIP3    H1 7455   1.174   3.723   5.064 -0.7216 -0.7336 -0.4735
 2483TIP3    H2 7456   1.074   3.763   5.170 -1.3037  0.1323 -1.3365
 2484TIP3   OH2 7457   2.621   2.964   3.051  0.2772 -0.0619 -0.0576
 2484TIP3    H1 7458   2.710   2.946   3.081  0.3987 -0.3622 -0.5833
 2484TIP3    H2 7459   2.582   2.878   3.037 -0.2293  0.0625  0.5283
 2485TIP3   OH2 7460   4.525   0.955   3.708  0.6599  0.1691 -0.1819
 2485TIP3    H1 7461   4.508   0.876   3.759  0.5581 -0.4551 -1.1712
 2485TIP3    H2 7462   4.444   1.006   3.714  0.9364  0.5109  0.9732
 2486TIP3   OH2 7463   4.800   2.355   1.185 -0.0125  0.2327 -0.4093
 2486TIP3    H1 7464   4.767   2.284   1.130 -0.2697  0.0675 -0.0427
 2486TIP3    H2 7465   4.893   2.363   1.161  0.1862 -0.6694  0.0132
 2487TIP3   OH2 7466   5.492   5.674   0.677 -0.5666 -0.2811  0.2031
 2487TIP3    H1 7467   5.582   5.671   0.711 -0.4781 -0.2782 -0.0236
 2487TIP3    H2 7468   5.437   5.685   0.754 -0.4426 -1.2386  0.4352
 2488TIP3   OH2 7469   3.871   3.632   2.409 -0.0897 -0.0231  0.7714
 2488TIP3    H1 7470   3.813   3.564   2.375 -0.6049 -1.0027  3.3605
 2488TIP3    H2 7471   3.826   3.715   2.390 -0.1512 -0.4554 -1.1321
 2489TIP3   OH2 7472   1.079   0.104   4.307  0.1940  0.0348 -0.8955
 2489TIP3    H1 7473   1.059   0.013   4.328  0.9942  0.3909  1.7716
 2489TIP3    H2 7474   1.163   0.100   4.261  0.8363 -0.5179  0.2825
 2490TIP3   OH2 7475   3.390   4.590   0.661  0.0198 -0.0158 -0.5870
 2490TIP3    H1 7476   3.480   4.597   0.693 -0.5161 -0.6028  1.1649
 2490TIP3    H2 7477   3.352   4.519   0.714 -1.6257  0.5901 -0.9173
 2491TIP3   OH2 7478   1.654   0.859   2.878 -0.0202 -0.3702  0.2643
 2491TIP3    H1 7479   1.733   0.825   2.835 -0.6884 -1.4220 -0.1722
 2491TIP3    H2 7480   1.677   0.864   2.971  0.1386 -1.9958  0.3419
 2492TIP3   OH2 7481   1.307   4.986   0.478 -0.4942  0.1661  0.2364
 2492TIP3    H1 7482   1.272   4.902   0.508 -1.4017  0.3291 -0.3442
 2492TIP3    H2 7483   1.372   5.009   0.544  0.6263 -1.5512 -0.1968
 2493TIP3   OH2 7484   0.904   2.038   2.472  0.0510  0.2335 -0.5527
 2493TIP3    H1 7485   0.915   2.095   2.548 -0.2753 -2.0026  1.2776
 2493TIP3    H2 7486   0.834   2.079   2.421 -0.5306  1.1981  0.9549
 2494TIP3   OH2 7487   1.276   0.083   4.155  0.2683 -0.3225 -0.3571
 2494TIP3    H1 7488   1.305  -0.001   4.120  1.6933 -0.1866  0.4154
 2494TIP3    H2 7489   1.333   0.148   4.113 -0.1929  0.1775 -0.2346
 2495TIP3   OH2 7490   2.403   0.153   3.980 -0.2383 -0.6234 -0.0788
 2495TIP3    H1 7491   2.489   0.154   4.023 -0.3434  2.2654  0.2755
 2495TIP3    H2 7492   2.343   0.188   4.046 -0.8886  1.3579 -1.6171
 2496TIP3   OH2 7493   5.919   4.239   3.696  0.0644  0.1506  0.3418
 2496TIP3    H1 7494   5.884   4.264   3.781 -0.8325 -0.8199  0.2739
 2496TIP3    H2 7495   5.867   4.288   3.632 -0.1956 -0.1716  0.3025
 2497TIP3   OH2 7496   2.808   5.383   0.080  0.0455 -0.0007  0.4208
 2497TIP3    H1 7497   2.770   5.471   0.070 -2.9234 -1.1362  0.7076
 2497TIP3    H2 7498   2.817   5.372   0.175  1.8849  0.4954  0.3454
 2498TIP3   OH2 7499   4.455   4.630   4.880  0.7291  0.4867  0.0389
 2498TIP3    H1 7500   4.519   4.696   4.906 -0.1972  0.6059  2.2245
 2498TIP3    H2 7501   4.506   4.550   4.869  1.3524  0.6957  1.2408
 2499TIP3   OH2 7502   3.751   0.548   3.490  0.1749 -0.0166  0.3307
 2499TIP3    H1 7503   3.727   0.461   3.458 -0.1022 -0.0920  0.7378
 2499TIP3    H2 7504   3.712   0.553   3.577  0.5860  0.3369  0.4988
 2500TIP3   OH2 7505   1.729   4.929   0.775  0.0840 -0.4529 -0.2763
 2500TIP3    H1 7506   1.801   4.899   0.720  0.5478  0.5752 -0.2430
 2500TIP3    H2 7507   1.666   4.856   0.774  0.7986 -1.0754 -0.8696
 2501TIP3   OH2 7508   1.771   3.411   2.564 -0.5271 -0.2696 -0.6358
 2501TIP3    H1 7509   1.765   3.365   2.647 -3.3208  0.7918 -0.1386
 2501TIP3    H2 7510   1.761   3.503   2.587 -1.8450  0.0052 -2.1391
 2502TIP3   OH2 7511   2.016   5.167   4.344 -0.2015 -0.0255  0.1693
 2502TIP3    H1 7512   2.006   5.257   4.313 -1.3169 -0.1036  0.2417
 2502TIP3    H2 7513   2.100   5.138   4.309  0.5731  1.3214  0.8398
 2503TIP3   OH2 7514   4.851   4.920   0.375 -0.0926  0.4233  0.4663
 2503TIP3    H1 7515   4.895   4.843   0.340 -2.3033 -0.6421 -0.1109
 2503TIP3    H2 7516   4.805   4.958   0.300 -1.6800  0.3799  1.3708
 2504TIP3   OH2 7517   4.745   1.058   4.662 -0.1560  0.2114 -0.0433
 2504TIP3    H1 7518   4.756   1.115   4.587 -0.7955  2.2958  1.3658
 2504TIP3    H2 7519   4.834   1.028   4.682  0.3637  1.5727 -0.1997
 2505TIP3   OH2 7520   0.695   1.908   4.569 -0.4401 -0.2011 -0.8119
 2505TIP3    H1 7521   0.752   1.985   4.581  1.2049 -1.2256 -1.6493
 2505TIP3    H2 7522   0.731   1.843   4.630 -0.2108 -1.1151 -1.8863
 2506TIP3   OH2 7523   3.980   1.569   3.392  0.5112  0.5890  0.5175
 2506TIP3    H1 7524   4.002   1.537   3.479  1.3788  2.5347  1.0721
 2506TIP3    H2 7525   3.914   1.636   3.407  2.1224  2.4186 -0.0250
 2507TIP3   OH2 7526   1.743   2.422   2.115  0.0918 -0.3219 -0.4343
 2507TIP3    H1 7527   1.705   2.453   2.032 -0.9862  0.5995  0.3786
 2507TIP3    H2 7528   1.793   2.497   2.147  1.1142 -0.9175 -0.5781
 2508TIP3   OH2 7529   3.111   1.681   4.024  0.0365 -0.2076  0.0504
 2508TIP3    H1 7530   3.153   1.678   4.110  2.7888 -1.0299 -1.2022
 2508TIP3    H2 7531   3.112   1.590   3.994 -0.1462  0.1735 -1.1648
 2509TIP3   OH2 7532   3.408   3.307   0.140 -0.0573  0.2461  0.7902
 2509TIP3    H1 7533   3.448   3.372   0.197 -0.1369 -0.0031  1.1312
 2509TIP3    H2 7534   3.482   3.254   0.109 -0.1791 -0.6272  1.9405
 2510TIP3   OH2 7535   5.321   0.969   2.201  0.4957  0.2982  0.4602
 2510TIP3    H1 7536   5.284   1.055   2.180 -1.3150 -0.9906 -2.2703
 2510TIP3    H2 7537   5.402   0.965   2.150 -2.0688 -1.4092 -4.1460
 2511TIP3   OH2 7538   4.740   5.321   1.088  0.6647 -0.3660  0.0023
 2511TIP3    H1 7539   4.733   5.233   1.049  1.8526  0.4261 -2.1795
 2511TIP3    H2 7540   4.829   5.349   1.066 -0.1164  1.8897 -0.4695
 2512TIP3   OH2 7541   5.081   3.716   1.114  0.2616 -0.2427 -0.0061
 2512TIP3    H1 7542   5.044   3.711   1.025  0.6196 -0.2205 -0.1550
 2512TIP3    H2 7543   5.174   3.730   1.101  0.2489  0.2126  0.3820
 2513TIP3   OH2 7544   0.844   0.672   2.473 -0.2195  0.0220  0.4405
 2513TIP3    H1 7545   0.781   0.630   2.532  0.7952 -0.4221  1.2379
 2513TIP3    H2 7546   0.900   0.601   2.443  0.9926  0.6380  1.1449
 2514TIP3   OH2 7547   3.821   4.043   2.029 -0.1432  0.0244 -0.4570
 2514TIP3    H1 7548   3.806   3.951   2.053 -0.7513  0.2224 -0.0678
 2514TIP3    H2 7549   3.773   4.093   2.094  2.7016  0.7334  1.2530
 2515TIP3   OH2 7550   1.103   1.206   2.260 -0.4709 -0.3838  0.5119
 2515TIP3    H1 7551   1.197   1.193   2.263 -0.3368  0.4515  0.2750
 2515TIP3    H2 7552   1.076   1.206   2.352 -0.1832 -0.2589  0.5966
 2516TIP3   OH2 7553   0.780   3.519   0.225  0.2714  0.0946  0.4370
 2516TIP3    H1 7554   0.731   3.444   0.190 -0.8536  1.2453 -0.5406
 2516TIP3    H2 7555   0.781   3.504   0.320 -2.0134  0.0162  0.5057
 2517TIP3   OH2 7556   3.891   1.897   1.235  0.0535  0.1036  0.3900
 2517TIP3    H1 7557   3.849   1.876   1.151 -0.3472 -1.4622  0.9435
 2517TIP3    H2 7558   3.852   1.835   1.297  0.4737  1.1190  1.7060
 2518TIP3   OH2 7559   4.977   5.833   3.315  0.5048  0.7843  0.2330
 2518TIP3    H1 7560   5.067   5.855   3.292  0.5704  0.4243  0.1510
 2518TIP3    H2 7561   4.927   5.853   3.236  0.8262 -1.1036 -0.4936
 2519TIP3   OH2 7562   4.862   3.807   4.014 -0.8151 -0.2355 -0.2309
 2519TIP3    H1 7563   4.878   3.869   4.085  0.1830 -1.2036  0.4172
 2519TIP3    H2 7564   4.896   3.723   4.046  0.8928 -0.4402 -2.3587
 2520TIP3   OH2 7565   3.524   0.651   1.176  0.5097  0.5130  0.2473
 2520TIP3    H1 7566   3.447   0.613   1.218 -0.0645  1.5982  0.1912
 2520TIP3    H2 7567   3.546   0.727   1.229  0.5683  1.1393 -0.6414
 2521TIP3   OH2 7568   3.142   1.850   2.040 -0.6715  0.1539  0.1279
 2521TIP3    H1 7569   3.151   1.823   2.132  0.1956 -1.4980 -0.4061
 2521TIP3    H2 7570   3.070   1.912   2.041  0.1500  1.1841  2.1281
 2522TIP3   OH2 7571   2.110   3.163   4.499  0.0080  0.4065 -0.4670
 2522TIP3    H1 7572   2.033   3.194   4.546 -0.1478 -1.2696  0.4861
 2522TIP3    H2 7573   2.096   3.068   4.490  2.0733 -0.0049  0.0017
 2523TIP3   OH2 7574   3.975   5.507   2.909 -0.0150 -0.1258  0.2251
 2523TIP3    H1 7575   3.903   5.445   2.898 -0.7772  0.8981 -0.6515
 2523TIP3    H2 7576   4.035   5.487   2.837 -1.3062  1.5208 -1.4007
 2524TIP3   OH2 7577   3.181   5.385   0.049 -0.1880  0.1966  0.2245
 2524TIP3    H1 7578   3.139   5.300   0.060  2.3448 -1.0733  0.9010
 2524TIP3    H2 7579   3.269   5.364   0.018  0.8014  2.5080  1.2508
 2525TIP3   OH2 7580   1.994   5.898   2.480  0.1189  0.1157  0.4681
 2525TIP3    H1 7581   1.910   5.922   2.440 -1.0387 -0.6071  2.3671
 2525TIP3    H2 7582   2.058   5.952   2.433 -0.9277 -1.4972 -3.1574
 2526TIP3   OH2 7583   2.608   1.032   3.945 -0.1501  0.1508 -0.5282
 2526TIP3    H1 7584   2.586   1.002   4.033 -1.7665 -1.2337 -1.3318
 2526TIP3    H2 7585   2.682   0.978   3.918  0.3144  0.5448 -0.0562
 2527TIP3   OH2 7586   3.018   0.610   0.658 -0.3948  0.0790  0.3045
 2527TIP3    H1 7587   2.930   0.616   0.695 -0.3262 -0.8026  0.6382
 2527TIP3    H2 7588   3.060   0.692   0.682 -1.7392  1.4007 -1.5587
 2528TIP3   OH2 7589   3.366   2.674   0.861  0.2704 -0.2415 -0.0811
 2528TIP3    H1 7590   3.350   2.766   0.880 -0.4762 -0.3550 -0.1662
 2528TIP3    H2 7591   3.454   2.658   0.897  0.8920  0.7806 -1.0833
 2529TIP3   OH2 7592   4.940   3.115   4.875  0.7330  0.2533  0.3106
 2529TIP3    H1 7593   4.989   3.197   4.870 -0.1649  0.7670 -0.4714
 2529TIP3    H2 7594   4.856   3.139   4.914  0.3045 -0.2025 -0.3058
 2530TIP3   OH2 7595   5.972   1.326   2.298  0.2699  0.2771  0.1666
 2530TIP3    H1 7596   5.996   1.265   2.368 -0.1238 -0.8179 -0.6176
 2530TIP3    H2 7597   6.055   1.360   2.265  0.6739 -1.5430 -0.8307
 2531TIP3   OH2 7598   0.735   4.954   4.912 -0.1075  0.2785 -0.0892
 2531TIP3    H1 7599   0.810   5.008   4.939  0.4303 -1.3636  1.9881
 2531TIP3    H2 7600   0.770   4.898   4.843  0.1054  0.6981 -0.3243
 2532TIP3   OH2 7601   0.167   2.365   5.147  0.2772  0.7119 -0.6023
 2532TIP3    H1 7602   0.244   2.404   5.106  0.7714  0.9419  0.5029
 2532TIP3    H2 7603   0.172   2.272   5.125  0.2776  0.9023 -1.4286
 2533TIP3   OH2 7604   0.895   2.544   2.249 -0.4725 -0.2095 -0.3048
 2533TIP3    H1 7605   0.913   2.490   2.172 -0.5810  0.9542 -1.1651
 2533TIP3    H2 7606   0.862   2.482   2.315  1.0943 -1.4839 -0.6391
 2534TIP3   OH2 7607   4.122   4.844   1.860  0.0521  0.4547  0.1316
 2534TIP3    H1 7608   4.146   4.786   1.788 -0.7044 -1.7596  1.5301
 2534TIP3    H2 7609   4.105   4.929   1.819  0.3721 -0.5131 -2.1454
 2535TIP3   OH2 7610   5.154   0.331   0.321 -0.5888  0.2997  0.1947
 2535TIP3    H1 7611   5.187   0.412   0.281 -0.6599  0.5156  0.5663
 2535TIP3    H2 7612   5.084   0.303   0.263  0.2313 -0.1574 -0.5943
 2536TIP3   OH2 7613   1.822   3.769   0.184  0.4684 -0.2602  0.4458
 2536TIP3    H1 7614   1.790   3.710   0.253 -2.4530 -0.0950 -0.6516
 2536TIP3    H2 7615   1.803   3.857   0.217  0.9573 -0.0877  0.2763
 2537TIP3   OH2 7616   0.145   2.634   5.176  0.4410  0.1511  0.2065
 2537TIP3    H1 7617   0.055   2.648   5.147 -0.0679  1.2752  2.1966
 2537TIP3    H2 7618   0.145   2.545   5.211  0.2624 -0.0593 -0.3189
 2538TIP3   OH2 7619   0.787   1.531   1.090 -0.3817 -0.0320  0.2714
 2538TIP3    H1 7620   0.792   1.568   1.178  1.2326 -0.0519  0.2179
 2538TIP3    H2 7621   0.827   1.597   1.034 -1.4879  0.0271 -0.4858
 2539TIP3   OH2 7622   2.883   5.411   1.177  0.7972 -0.3523  0.3966
 2539TIP3    H1 7623   2.912   5.322   1.199 -0.4471 -0.9657 -0.3391
 2539TIP3    H2 7624   2.872   5.454   1.262 -1.1506 -1.7792  0.9534
 2540TIP3   OH2 7625   4.458   5.672   3.548 -0.0461  0.1228 -0.2768
 2540TIP3    H1 7626   4.464   5.638   3.459 -1.9086 -2.4406  0.4669
 2540TIP3    H2 7627   4.456   5.594   3.604 -1.4609  1.5508  1.8269
 2541TIP3   OH2 7628   1.861   3.107   1.936 -0.0671 -0.3816 -0.1044
 2541TIP3    H1 7629   1.776   3.080   1.904 -0.7913  0.6688  0.8463
 2541TIP3    H2 7630   1.849   3.119   2.030  1.3047 -0.8374  0.1610
 2542TIP3   OH2 7631   0.033   0.173   2.971  0.5559 -0.3415 -0.3917
 2542TIP3    H1 7632   0.059   0.266   2.971  0.7284 -0.3878 -0.0081
 2542TIP3    H2 7633   0.116   0.126   2.979  0.3321 -0.4808  1.7418
 2543TIP3   OH2 7634   0.387   3.198   2.826  0.3180  0.2316 -0.4519
 2543TIP3    H1 7635   0.470   3.243   2.807  0.8537 -0.4997  0.1148
 2543TIP3    H2 7636   0.350   3.246   2.900  0.4825  0.2583 -0.3857
 2544TIP3   OH2 7637   3.586   1.909   5.097 -0.3441  0.3593 -0.3284
 2544TIP3    H1 7638   3.681   1.915   5.104 -0.2106  0.4736 -1.7801
 2544TIP3    H2 7639   3.570   1.885   5.005 -1.6512 -1.6176  0.3314
 2545TIP3   OH2 7640   5.699   2.131   2.230  0.2722  0.3444 -0.5385
 2545TIP3    H1 7641   5.668   2.121   2.140  0.9992 -0.4436 -0.7151
 2545TIP3    H2 7642   5.730   2.044   2.255 -0.0562  0.5132  0.5343
 2546TIP3   OH2 7643   3.813   5.353   1.309 -1.0063 -0.2752  0.0842
 2546TIP3    H1 7644   3.768   5.432   1.278 -0.6970 -0.6866 -1.4907
 2546TIP3    H2 7645   3.769   5.282   1.263 -0.1076 -0.8654  0.1333
 2547TIP3   OH2 7646   0.536   2.186   0.837 -0.0570 -0.3529 -0.1970
 2547TIP3    H1 7647   0.623   2.170   0.801 -0.4817  1.6663 -2.3110
 2547TIP3    H2 7648   0.477   2.186   0.761 -1.7052 -0.2466  1.0143
 2548TIP3   OH2 7649   3.262   1.608   3.461  0.4570  0.1743 -0.0994
 2548TIP3    H1 7650   3.261   1.554   3.540  0.6019 -0.8528 -0.7723
 2548TIP3    H2 7651   3.290   1.548   3.392 -0.4622  0.8404 -1.0824
 2549TIP3   OH2 7652   5.050   1.135   0.546 -0.1412 -0.2681 -0.0404
 2549TIP3    H1 7653   5.050   1.216   0.494 -1.1012 -0.3715 -0.2048
 2549TIP3    H2 7654   5.097   1.072   0.492  0.7507  0.2092  0.1524
 2550TIP3   OH2 7655   4.194   1.004   0.372 -0.0578 -0.1038  0.1301
 2550TIP3    H1 7656   4.101   1.013   0.353  0.2082  1.3643 -0.7381
 2550TIP3    H2 7657   4.223   1.094   0.388  1.5561 -0.2766 -1.5256
 2551TIP3   OH2 7658   4.200   2.405   2.670 -0.8157  0.0371  0.2301
 2551TIP3    H1 7659   4.220   2.397   2.763 -0.6101 -0.9446  0.1148
 2551TIP3    H2 7660   4.210   2.316   2.635  0.8518  0.6848 -1.0815
 2552TIP3   OH2 7661   1.175   1.467   5.142 -0.4759 -0.8526  0.4652
 2552TIP3    H1 7662   1.143   1.558   5.146 -0.0553 -0.7060  0.5952
 2552TIP3    H2 7663   1.271   1.476   5.139 -0.3722 -1.3143  1.7567
 2553TIP3   OH2 7664   3.091   1.279   4.927  0.0234  0.1460  0.1210
 2553TIP3    H1 7665   3.090   1.366   4.887  0.0431 -0.4622 -1.2287
 2553TIP3    H2 7666   3.004   1.270   4.967 -0.8233 -0.0740 -1.6737
 2554TIP3   OH2 7667   3.151   0.429   0.195  0.0315  0.1384 -0.1332
 2554TIP3    H1 7668   3.108   0.463   0.274  0.5184 -1.5100  0.8779
 2554TIP3    H2 7669   3.244   0.434   0.214  0.1467 -0.4217 -0.5227
 2555TIP3   OH2 7670   0.315   4.291   2.272 -0.1906  0.2126 -0.3527
 2555TIP3    H1 7671   0.402   4.256   2.291 -0.0635  1.3213  1.3027
 2555TIP3    H2 7672   0.331   4.362   2.209  0.3888  1.6476  1.3300
 2556TIP3   OH2 7673   6.262   1.713   0.502  0.6147 -0.4534  0.1545
 2556TIP3    H1 7674   6.324   1.785   0.501 -0.5436  0.5827  0.3850
 2556TIP3    H2 7675   6.216   1.722   0.585  0.5663 -1.5729  0.2642
 2557TIP3   OH2 7676   1.916   4.692   2.925  0.0295  0.8675  0.4689
 2557TIP3    H1 7677   1.944   4.667   2.837 -1.1070 -1.9368  0.7772
 2557TIP3    H2 7678   1.830   4.732   2.912 -0.9912 -1.2159  0.3435
 2558TIP3   OH2 7679   0.548   1.440   4.993 -0.4326  0.0935  0.4976
 2558TIP3    H1 7680   0.518   1.356   4.958 -1.3734 -0.8486  3.2271
 2558TIP3    H2 7681   0.576   1.419   5.083  1.1411  2.3867  0.6199
 2559TIP3   OH2 7682   4.387   0.515   0.495 -0.0210  0.4256 -0.3053
 2559TIP3    H1 7683   4.383   0.602   0.455 -1.0810  0.5343  0.0177
 2559TIP3    H2 7684   4.421   0.459   0.425  3.9136  1.6033  0.4384
 2560TIP3   OH2 7685   1.998   0.958   3.862 -0.1914  0.2060  0.1625
 2560TIP3    H1 7686   1.965   0.935   3.776 -3.3991  1.9138  0.7885
 2560TIP3    H2 7687   2.048   1.039   3.848 -1.5853  1.0677 -0.0199
 2561TIP3   OH2 7688   0.292   0.292   1.614  0.2596 -0.0733  0.3560
 2561TIP3    H1 7689   0.203   0.317   1.592  0.5342 -0.1428 -0.8861
 2561TIP3    H2 7690   0.284   0.206   1.655 -0.0169 -1.4574 -2.4131
 2562TIP3   OH2 7691   2.321   3.861   3.826  0.7876 -0.4384  0.1388
 2562TIP3    H1 7692   2.326   3.888   3.735  2.2165 -0.6927  0.1182
 2562TIP3    H2 7693   2.324   3.766   3.824 -0.7577 -0.5249  0.3981
 2563TIP3   OH2 7694   3.646   0.317   0.548  0.2547  0.4389  0.0234
 2563TIP3    H1 7695   3.672   0.378   0.617  1.0672 -0.9630  1.0203
 2563TIP3    H2 7696   3.634   0.372   0.471 -2.5372  2.3412  1.6381
 2564TIP3   OH2 7697   5.532   2.814   2.000 -0.4292  0.2579 -0.5841
 2564TIP3    H1 7698   5.536   2.720   1.978 -0.0948  0.0164  0.4570
 2564TIP3    H2 7699   5.558   2.818   2.092 -2.1416  1.1773 -0.0904
 2565TIP3   OH2 7700   2.402   4.836   2.415  0.5232 -0.6091  0.1450
 2565TIP3    H1 7701   2.415   4.922   2.374 -0.2869  0.7447  2.4789
 2565TIP3    H2 7702   2.466   4.835   2.487 -1.4710 -0.6080  2.0002
 2566TIP3   OH2 7703   3.933   2.794   3.516 -0.4971  0.4140 -0.5913
 2566TIP3    H1 7704   4.004   2.855   3.533  0.3492 -1.3431  3.7201
 2566TIP3    H2 7705   3.977   2.712   3.492 -1.1715 -0.1007 -0.1067
 2567TIP3   OH2 7706   4.001   4.257   3.206  0.2813 -0.3556 -0.3097
 2567TIP3    H1 7707   3.937   4.314   3.248 -0.2581 -1.2811  0.1635
 2567TIP3    H2 7708   3.984   4.266   3.113 -1.2634 -1.3737 -0.1562
 2568TIP3   OH2 7709   0.296   4.911   3.942  0.0945 -0.4434  0.2997
 2568TIP3    H1 7710   0.320   4.996   3.980 -2.4704 -0.0110  1.1441
 2568TIP3    H2 7711   0.203   4.920   3.919 -0.0246 -2.7368 -0.3942
 2569TIP3   OH2 7712   2.786   5.549   2.976 -0.2192  0.2323 -0.4301
 2569TIP3    H1 7713   2.707   5.569   3.027 -1.2039 -2.1354 -0.8809
 2569TIP3    H2 7714   2.756   5.485   2.911  1.7382  0.5884 -1.7389
 2570TIP3   OH2 7715   0.601   1.040   1.424 -0.2992  0.1100 -0.3358
 2570TIP3    H1 7716   0.559   1.120   1.455 -1.3101 -0.3404 -0.5070
 2570TIP3    H2 7717   0.579   0.974   1.490 -1.8269 -0.6728 -1.5679
 2571TIP3   OH2 7718   6.253   1.410   2.473  0.4102 -0.1793  0.1295
 2571TIP3    H1 7719   6.268   1.490   2.524  3.1731 -0.6490  0.2045
 2571TIP3    H2 7720   6.182   1.365   2.519  0.0166  1.3832  1.1182
 2572TIP3   OH2 7721   4.509   3.403   4.234  0.0149 -0.5006  0.2569
 2572TIP3    H1 7722   4.553   3.336   4.181  0.4009 -0.3726  0.4197
 2572TIP3    H2 7723   4.417   3.395   4.208  0.2739 -0.0301 -0.8921
 2573TIP3   OH2 7724   2.564   3.361   5.014 -0.1319  0.2104 -0.4015
 2573TIP3    H1 7725   2.641   3.373   5.069 -0.6450  0.3300  0.3118
 2573TIP3    H2 7726   2.597   3.366   4.924  0.9168 -1.2059 -0.1252
 2574TIP3   OH2 7727   3.432   3.026   3.938 -0.3371  0.0802 -0.3934
 2574TIP3    H1 7728   3.350   3.075   3.937  0.3007  1.1988  0.1618
 2574TIP3    H2 7729   3.455   3.019   4.031  0.8974  1.0325 -0.5926
 2575TIP3   OH2 7730   5.156   1.194   1.259 -0.5101  0.1609  0.5201
 2575TIP3    H1 7731   5.173   1.147   1.341 -2.1859  0.1044  0.8746
 2575TIP3    H2 7732   5.154   1.287   1.285  0.4163  0.2618  0.2589
 2576TIP3   OH2 7733   0.268   0.615   4.049 -0.0190  0.0830 -0.3702
 2576TIP3    H1 7734   0.263   0.542   3.987  1.4676  0.4469 -0.9355
 2576TIP3    H2 7735   0.251   0.693   3.996  1.2706  0.3961 -0.3525
 2577TIP3   OH2 7736   4.226   2.234   5.100 -0.5499 -0.0969 -0.4432
 2577TIP3    H1 7737   4.228   2.140   5.116  1.0072  0.1871  1.3127
 2577TIP3    H2 7738   4.270   2.245   5.016  0.1082 -0.8611 -0.2037
 2578TIP3   OH2 7739   0.023   1.102   1.442  0.6015  0.3967 -0.3911
 2578TIP3    H1 7740   0.042   1.139   1.529 -0.5247 -0.1220  0.0950
 2578TIP3    H2 7741   0.026   1.178   1.383  1.5951  0.7211  0.0481
 2579TIP3   OH2 7742   0.681   2.792   2.856 -0.1717 -0.0640 -0.4998
 2579TIP3    H1 7743   0.676   2.878   2.814  0.6130 -0.1834 -0.8535
 2579TIP3    H2 7744   0.637   2.804   2.940  0.1018  0.7379 -0.4577
 2580TIP3   OH2 7745   6.297   2.130   3.616  0.2972 -0.3345 -0.6785
 2580TIP3    H1 7746   6.333   2.081   3.689 -0.4428  0.1384  0.0200
 2580TIP3    H2 7747   6.204   2.106   3.615 -0.2875  1.6823  0.2235
 2581TIP3   OH2 7748   0.413   3.031   1.155  0.0087 -0.1205 -0.4001
 2581TIP3    H1 7749   0.432   2.944   1.121 -1.3609 -1.1595  1.3542
 2581TIP3    H2 7750   0.437   3.026   1.248 -2.7750  0.4115  0.4380
 2582TIP3   OH2 7751   2.517   3.386   4.537  0.0287 -0.0256  0.1605
 2582TIP3    H1 7752   2.447   3.371   4.600 -0.0804 -0.6444 -0.0941
 2582TIP3    H2 7753   2.539   3.478   4.545  0.1666 -0.1455  1.2602
 2583TIP3   OH2 7754   5.850   3.702   3.959  0.0803  0.4952 -0.1413
 2583TIP3    H1 7755   5.894   3.751   4.029 -0.3661  0.5851  0.0814
 2583TIP3    H2 7756   5.796   3.638   4.005 -0.2438  0.5796 -0.4055
 2584TIP3   OH2 7757   0.878   1.798   2.610  0.1256  0.3145  0.0770
 2584TIP3    H1 7758   0.871   1.822   2.702  2.5128 -0.1817  0.4657
 2584TIP3    H2 7759   0.865   1.881   2.562 -2.5706  0.3249  0.7150
 2585TIP3   OH2 7760   2.739   4.351   4.674 -0.5676  0.4627 -0.1447
 2585TIP3    H1 7761   2.737   4.266   4.630  2.1111 -0.0648  0.5574
 2585TIP3    H2 7762   2.651   4.363   4.708 -2.0800 -0.2314 -3.4641
 2586TIP3   OH2 7763   3.550   3.603   0.870  0.0014 -0.3931  0.6478
 2586TIP3    H1 7764   3.517   3.513   0.865 -0.9751 -0.0203 -0.0530
 2586TIP3    H2 7765   3.644   3.595   0.853 -0.4974 -1.0348 -2.5343
 2587TIP3   OH2 7766   0.528   4.996   1.260 -1.0788 -0.1216  0.0134
 2587TIP3    H1 7767   0.497   5.068   1.205 -1.3117 -0.9268 -0.9412
 2587TIP3    H2 7768   0.555   4.928   1.198  0.4338 -0.3508  0.8573
 2588TIP3   OH2 7769   1.984   4.964   0.646 -0.4935  0.0554  0.0823
 2588TIP3    H1 7770   1.960   5.056   0.655  0.2199  0.2219  0.3595
 2588TIP3    H2 7771   2.062   4.964   0.592  0.2675 -0.2668  1.1408
 2589TIP3   OH2 7772   2.376   1.294   1.561 -0.2991 -0.1226 -0.2559
 2589TIP3    H1 7773   2.330   1.376   1.574 -1.4982 -0.8014 -0.0414
 2589TIP3    H2 7774   2.410   1.299   1.472 -0.8385  0.3779 -0.4377
 2590TIP3   OH2 7775   0.504   3.632   0.094 -0.0388 -0.6990  0.2475
 2590TIP3    H1 7776   0.598   3.618   0.103 -0.1237 -0.3865  1.8946
 2590TIP3    H2 7777   0.468   3.613   0.181 -1.1465  1.9264  0.4392
 2591TIP3   OH2 7778   0.488   0.144   4.057  0.1743  0.2656  0.0861
 2591TIP3    H1 7779   0.504   0.075   4.121  2.1927  0.7908  0.2029
 2591TIP3    H2 7780   0.480   0.224   4.109 -0.0464  0.4240 -0.1889
 2592TIP3   OH2 7781   1.757   3.501   2.112 -0.2629  0.3932 -0.1055
 2592TIP3    H1 7782   1.825   3.442   2.078  0.7575  2.2487 -1.5017
 2592TIP3    H2 7783   1.801   3.552   2.180  0.2256  2.4537 -1.8424
 2593TIP3   OH2 7784   3.514   1.744   2.909  0.9583 -0.1987 -0.2767
 2593TIP3    H1 7785   3.515   1.725   3.003 -0.0670  1.7350  0.1816
 2593TIP3    H2 7786   3.589   1.801   2.894  1.6058 -1.1539 -0.8326
 2594TIP3   OH2 7787   5.817   4.454   4.913  0.0034 -0.6694  0.3599
 2594TIP3    H1 7788   5.750   4.429   4.850  1.0082 -0.5648 -0.7771
 2594TIP3    H2 7789   5.880   4.506   4.863 -0.1840  1.1468  1.8794
 2595TIP3   OH2 7790   2.238   4.760   2.839  0.1795  0.2023 -0.0856
 2595TIP3    H1 7791   2.218   4.848   2.806 -1.0952 -0.1303 -0.2426
 2595TIP3    H2 7792   2.179   4.703   2.790  2.2155 -0.9728 -1.2827
 2596TIP3   OH2 7793   4.940   4.769   4.817  0.5092  0.1840  0.6776
 2596TIP3    H1 7794   4.924   4.792   4.726  0.8687  0.3196  0.6472
 2596TIP3    H2 7795   4.904   4.680   4.826 -0.0417  0.3939  0.5578
 2597TIP3   OH2 7796   0.492   4.637   0.386  0.2767 -0.2019  0.1354
 2597TIP3    H1 7797   0.519   4.613   0.474 -0.2154 -0.1377  0.3105
 2597TIP3    H2 7798   0.396   4.629   0.388  0.3494 -1.7775 -0.8554
 2598TIP3   OH2 7799   2.639   1.273   1.663  0.1979 -0.0802 -0.0124
 2598TIP3    H1 7800   2.552   1.272   1.624  0.7659 -2.2611 -1.4395
 2598TIP3    H2 7801   2.698   1.295   1.590  0.8767  1.3484  0.9231
 2599TIP3   OH2 7802   2.971   2.545   1.139  0.5497  0.3833  0.7867
 2599TIP3    H1 7803   3.053   2.531   1.091  0.3204  1.7923 -0.0689
 2599TIP3    H2 7804   2.955   2.639   1.131 -2.3107 -0.1517 -0.9669
 2600TIP3   OH2 7805   1.477   2.329   2.714 -0.2181  0.2099 -0.1041
 2600TIP3    H1 7806   1.533   2.405   2.729 -1.5535  1.0586  0.8354
 2600TIP3    H2 7807   1.398   2.347   2.765 -1.1520 -1.1689 -0.9875
 2601TIP3   OH2 7808   3.222   0.634   2.747 -0.4333 -0.2551 -0.1812
 2601TIP3    H1 7809   3.139   0.668   2.712  0.6285  1.0644 -1.5538
 2601TIP3    H2 7810   3.283   0.640   2.673  1.9343  2.6078  1.7659
 2602TIP3   OH2 7811   5.217   0.724   0.496  0.1294 -0.3389  0.0101
 2602TIP3    H1 7812   5.210   0.663   0.570 -0.0240 -0.7423 -0.3305
 2602TIP3    H2 7813   5.214   0.810   0.536 -3.0675 -0.4436  0.3093
 2603TIP3   OH2 7814   2.069   2.318   1.088 -0.0864  0.3576 -0.1107
 2603TIP3    H1 7815   2.009   2.316   1.013 -1.5671  2.3815  0.9500
 2603TIP3    H2 7816   2.023   2.270   1.157 -0.9807  2.6033  0.9661
 2604TIP3   OH2 7817   0.208   2.317   0.232 -0.3309 -0.1884  0.2829
 2604TIP3    H1 7818   0.246   2.383   0.173 -0.7083 -0.6508 -0.5023
 2604TIP3    H2 7819   0.205   2.359   0.317 -2.8636  1.7362 -0.6532
 2605TIP3   OH2 7820   5.934   1.764   1.166 -0.5659 -0.0775 -0.2042
 2605TIP3    H1 7821   6.010   1.743   1.221 -0.6721 -1.4881 -0.5781
 2605TIP3    H2 7822   5.876   1.814   1.225  0.0847 -0.0889  0.4627
 2606TIP3   OH2 7823   3.373   5.693   3.471  0.1111 -0.3611 -0.6175
 2606TIP3    H1 7824   3.381   5.737   3.556  2.3294  0.3343 -1.1207
 2606TIP3    H2 7825   3.287   5.720   3.438 -0.8988 -0.8430  1.4701
 2607TIP3   OH2 7826   3.578   0.946   4.350 -0.4485  0.4130  0.4521
 2607TIP3    H1 7827   3.541   0.859   4.368 -0.3857  0.0784 -0.9391
 2607TIP3    H2 7828   3.570   0.992   4.433  0.2995 -1.2004  1.4729
 2608TIP3   OH2 7829   2.067   3.079   3.511  0.7386 -0.5044  0.2323
 2608TIP3    H1 7830   2.157   3.088   3.479  0.5875 -0.4828 -0.1903
 2608TIP3    H2 7831   2.076   3.073   3.607  1.0539  1.3258  0.3498
 2609TIP3   OH2 7832   5.273   5.843   4.365  0.0099  0.2107  0.7392
 2609TIP3    H1 7833   5.286   5.808   4.453 -0.5489  1.5855  1.3932
 2609TIP3    H2 7834   5.179   5.837   4.351  0.1280 -0.2954  0.0836
 2610TIP3   OH2 7835   2.732   4.134   3.448  0.8247 -0.3586  0.2433
 2610TIP3    H1 7836   2.692   4.174   3.526 -2.0496  0.2883 -1.4049
 2610TIP3    H2 7837   2.767   4.209   3.399 -0.3159 -0.3389 -0.5861
 2611TIP3   OH2 7838   1.542   4.655   2.986 -0.0080  0.0004 -0.3931
 2611TIP3    H1 7839   1.570   4.738   2.948 -0.8284 -0.3853 -1.9286
 2611TIP3    H2 7840   1.575   4.588   2.926 -1.0283 -0.6580 -0.2571
 2612TIP3   OH2 7841   1.836   2.302   0.956 -0.4287 -0.3045  0.0259
 2612TIP3    H1 7842   1.788   2.345   1.027  0.7879  0.5029  0.3755
 2612TIP3    H2 7843   1.787   2.325   0.877  1.0954  3.2613 -0.0477
 2613TIP3   OH2 7844  -0.001   3.116   2.583  0.6200 -0.3935 -0.6109
 2613TIP3    H1 7845  -0.056   3.177   2.535 -0.7289 -1.0326  0.0579
 2613TIP3    H2 7846   0.084   3.160   2.588 -0.5100  1.8773  0.6143
 2614TIP3   OH2 7847   5.480   2.250   2.806 -0.0083 -0.5468  0.1512
 2614TIP3    H1 7848   5.552   2.310   2.791  0.8298 -1.6493 -0.3918
 2614TIP3    H2 7849   5.419   2.298   2.862  2.2691 -0.3992  2.6956
 2615TIP3   OH2 7850   3.135   0.462   2.979  0.2164 -0.1898  0.4397
 2615TIP3    H1 7851   3.070   0.413   2.930  1.3325 -1.7845  0.4854
 2615TIP3    H2 7852   3.184   0.511   2.912 -1.6829  1.9718  0.4936
 2616TIP3   OH2 7853   1.070   0.227   4.877  0.1620  0.2944 -0.2307
 2616TIP3    H1 7854   0.977   0.225   4.898  0.3681  0.9521  0.8328
 2616TIP3    H2 7855   1.078   0.172   4.799 -0.9789 -0.4568  0.1543
 2617TIP3   OH2 7856   1.813   0.737   2.026  0.0675 -0.3208 -0.2429
 2617TIP3    H1 7857   1.828   0.643   2.017 -1.7668 -0.6068 -0.6016
 2617TIP3    H2 7858   1.882   0.777   1.973  0.2648 -1.4898 -0.9039
 2618TIP3   OH2 7859   3.967   2.867   2.127 -0.4883  0.1078  0.4396
 2618TIP3    H1 7860   3.964   2.881   2.033  1.2292 -2.3760 -0.0949
 2618TIP3    H2 7861   3.890   2.814   2.147 -0.6264  0.2806  0.3649
 2619TIP3   OH2 7862   0.815   3.324   1.473 -0.6025  0.5241  0.0645
 2619TIP3    H1 7863   0.770   3.345   1.555  1.3074  0.1903  1.2512
 2619TIP3    H2 7864   0.904   3.355   1.486  0.8609 -3.0738 -0.2630
 2620TIP3   OH2 7865   4.074   4.371   0.589  0.8612 -0.2128  0.2298
 2620TIP3    H1 7866   4.057   4.382   0.495  0.2561 -0.5637  0.2909
 2620TIP3    H2 7867   4.145   4.308   0.593  0.0327 -1.1927  0.0193
 2621TIP3   OH2 7868   0.934   2.476   1.448  0.2824 -0.0640  0.5356
 2621TIP3    H1 7869   0.963   2.441   1.364 -1.0329  1.0429 -0.4247
 2621TIP3    H2 7870   0.875   2.410   1.483  0.6710 -0.4358  0.4868
 2622TIP3   OH2 7871   2.838   3.453   0.879  0.1058 -0.3176  0.0660
 2622TIP3    H1 7872   2.845   3.517   0.950 -1.3240 -1.2281  1.0694
 2622TIP3    H2 7873   2.866   3.371   0.918  0.3104 -0.6395 -0.7353
 2623TIP3   OH2 7874   2.245   4.335   5.081 -0.1731  0.7510  0.0648
 2623TIP3    H1 7875   2.193   4.301   5.153 -0.2931  0.4213 -0.1749
 2623TIP3    H2 7876   2.304   4.399   5.121 -0.3739  0.7110  0.4217
 2624TIP3   OH2 7877   1.085   1.617   2.649  0.2149 -0.0142 -0.1185
 2624TIP3    H1 7878   1.151   1.668   2.696 -0.0597 -1.2870  1.7418
 2624TIP3    H2 7879   1.008   1.674   2.646  0.2658  0.1219  0.9167
 2625TIP3   OH2 7880   3.843   1.462   0.792 -0.5193  0.3784  0.3348
 2625TIP3    H1 7881   3.929   1.450   0.752 -0.7455  0.3590 -0.1524
 2625TIP3    H2 7882   3.783   1.413   0.736 -0.8511  0.3891  0.6731
 2626TIP3   OH2 7883   2.530   2.325   2.848 -0.2153  0.4033  0.0064
 2626TIP3    H1 7884   2.624   2.343   2.854 -0.4818  1.5567  1.5815
 2626TIP3    H2 7885   2.523   2.230   2.854  0.8721  0.2469 -0.8499
 2627TIP3   OH2 7886   0.969   4.888   3.297  0.7022  0.2158  1.0138
 2627TIP3    H1 7887   0.986   4.873   3.390  1.0927  1.1636  1.1049
 2627TIP3    H2 7888   0.948   4.981   3.290 -1.9231 -0.3408  0.5023
 2628TIP3   OH2 7889   3.803   2.709   2.415 -0.1166  0.2113  0.0770
 2628TIP3    H1 7890   3.776   2.794   2.449 -1.5160 -1.1427  2.6640
 2628TIP3    H2 7891   3.729   2.679   2.363  0.3690  0.5176 -0.8202
 2629TIP3   OH2 7892   0.695   5.454   3.223 -0.2524 -0.1366 -0.4693
 2629TIP3    H1 7893   0.688   5.424   3.314 -0.4900  0.0055 -0.4418
 2629TIP3    H2 7894   0.633   5.399   3.175 -0.4356  0.0766 -0.4760
 2630TIP3   OH2 7895   1.049   4.809   5.147 -0.1064 -0.2096  0.1890
 2630TIP3    H1 7896   1.090   4.893   5.165  3.0498 -1.3482 -1.0553
 2630TIP3    H2 7897   1.093   4.777   5.069 -3.1317 -1.8709 -1.0151
 2631TIP3   OH2 7898   2.176   0.741   0.805  0.6002 -0.1511  0.4721
 2631TIP3    H1 7899   2.135   0.695   0.878  0.5493  1.5581  1.5832
 2631TIP3    H2 7900   2.104   0.756   0.743  0.3255 -0.3441  0.7390
 2632TIP3   OH2 7901   1.747   5.571   4.191 -0.3237 -0.3699 -0.1226
 2632TIP3    H1 7902   1.703   5.546   4.110  0.8406 -3.8762  0.1452
 2632TIP3    H2 7903   1.773   5.662   4.178 -0.4825 -0.6833 -3.5222
 2633TIP3   OH2 7904   5.638   0.394   2.323 -0.4517  0.6760 -0.2693
 2633TIP3    H1 7905   5.596   0.308   2.316  0.1386  0.5145 -2.3804
 2633TIP3    H2 7906   5.722   0.377   2.365  0.5312 -0.1323 -2.4747
 2634TIP3   OH2 7907   3.985   3.679   4.573 -0.2846  0.1648 -0.6640
 2634TIP3    H1 7908   3.966   3.618   4.501  0.9394 -0.0438 -0.8358
 2634TIP3    H2 7909   3.904   3.728   4.584 -1.7884 -2.3210  0.3103
 2635TIP3   OH2 7910   3.166   1.098   1.368 -0.2223 -0.2450 -0.2133
 2635TIP3    H1 7911   3.072   1.100   1.383 -0.2602 -0.6096 -0.3847
 2635TIP3    H2 7912   3.201   1.042   1.437 -0.0296  0.5446  0.3392
 2636TIP3   OH2 7913   4.289   1.055   2.394 -0.1162  0.2353 -0.4819
 2636TIP3    H1 7914   4.384   1.063   2.395 -0.1671  0.8005  0.3167
 2636TIP3    H2 7915   4.259   1.115   2.461 -0.8297 -2.6859  2.0371
 2637TIP3   OH2 7916   1.969   4.869   4.203  0.2063  0.0345  0.5524
 2637TIP3    H1 7917   2.037   4.906   4.147 -1.3406  0.5232 -1.0748
 2637TIP3    H2 7918   1.917   4.944   4.231  1.0391 -0.1629  2.8991
 2638TIP3   OH2 7919   0.801   0.987   3.917  0.1998  0.0086  0.1538
 2638TIP3    H1 7920   0.794   0.919   3.850  3.0773  0.1997 -0.4863
 2638TIP3    H2 7921   0.764   1.065   3.877 -0.3112 -0.4530 -0.2889
 2639TIP3   OH2 7922   0.954   5.097   4.803 -0.2174  0.0823  0.7150
 2639TIP3    H1 7923   0.904   5.122   4.726  0.9786  0.1850 -0.0481
 2639TIP3    H2 7924   0.985   5.008   4.784  0.7616  0.4137  0.7130
 2640TIP3   OH2 7925   6.072   0.640   2.924 -0.5326 -0.2498  0.0423
 2640TIP3    H1 7926   6.068   0.548   2.899 -0.7349 -0.2934  0.2365
 2640TIP3    H2 7927   6.023   0.686   2.856  1.2174 -0.0513 -1.1634
 2641TIP3   OH2 7928   6.279   1.624   2.055  0.0597 -0.9185  0.3585
 2641TIP3    H1 7929   6.258   1.614   1.962  0.8982  1.4244 -0.1484
 2641TIP3    H2 7930   6.247   1.543   2.096 -0.5819 -1.8802 -1.9032
 2642TIP3   OH2 7931   5.004   5.962   4.542 -0.0480  0.6562  0.8026
 2642TIP3    H1 7932   4.943   6.022   4.500 -0.2154  1.0755  1.6199
 2642TIP3    H2 7933   4.999   5.882   4.490 -0.6690  0.9694  0.3701
 2643TIP3   OH2 7934   5.035   3.435   1.882  0.1106  0.1461  0.2601
 2643TIP3    H1 7935   5.110   3.483   1.848 -0.3270 -0.0063 -0.9556
 2643TIP3    H2 7936   5.005   3.381   1.809 -0.6174 -0.4974  1.0020
 2644TIP3   OH2 7937   0.001   0.706   1.822 -0.1697  0.0032 -0.2794
 2644TIP3    H1 7938   0.045   0.670   1.744  2.4342 -2.2797  2.0068
 2644TIP3    H2 7939  -0.028   0.629   1.870 -1.0727  1.3068  1.3588
 2645TIP3   OH2 7940   4.479   5.377   4.687 -0.1197  0.1494 -0.0136
 2645TIP3    H1 7941   4.561   5.396   4.640 -0.3250 -0.6184 -0.7053
 2645TIP3    H2 7942   4.500   5.394   4.779  0.5065  0.9892 -0.2859
 2646TIP3   OH2 7943   3.383   5.138   3.509  0.2126  0.0497  0.1439
 2646TIP3    H1 7944   3.454   5.177   3.560  0.3035  0.4307 -0.2579
 2646TIP3    H2 7945   3.427   5.102   3.432  0.1945 -1.3153  0.7468
 2647TIP3   OH2 7946   0.991   0.963   1.748 -0.1529  0.0595 -0.8017
 2647TIP3    H1 7947   1.066   1.004   1.793 -0.0132 -2.2970  1.3158
 2647TIP3    H2 7948   0.990   1.005   1.662  2.4220  1.5554 -0.2328
 2648TIP3   OH2 7949   1.848   3.424   3.752  0.1332 -0.2050 -0.2766
 2648TIP3    H1 7950   1.902   3.401   3.676 -1.0333 -0.4777 -1.0486
 2648TIP3    H2 7951   1.811   3.341   3.781 -0.3181  0.0525 -0.1103
 2649TIP3   OH2 7952   1.166   0.961   0.709 -0.0396  0.1676  0.0527
 2649TIP3    H1 7953   1.210   1.019   0.772 -0.8047 -0.1726  0.9291
 2649TIP3    H2 7954   1.080   0.945   0.748 -1.2229  1.3028 -1.9074
 2650TIP3   OH2 7955   6.234   0.775   3.149 -0.2606 -0.4908  0.3022
 2650TIP3    H1 7956   6.195   0.745   3.067 -2.0001 -1.0326  1.2617
 2650TIP3    H2 7957   6.163   0.769   3.213  0.5401  1.5813  1.4950
 2651TIP3   OH2 7958   0.031   0.420   3.233 -0.1214 -0.1048 -0.8600
 2651TIP3    H1 7959  -0.017   0.338   3.242 -0.0994  0.0485  1.2455
 2651TIP3    H2 7960   0.016   0.447   3.143 -0.9188 -1.9201 -1.3207
 2652TIP3   OH2 7961   2.817   3.794   0.875  0.1138 -0.6157 -0.4241
 2652TIP3    H1 7962   2.908   3.803   0.903  0.5441 -2.1435 -1.2337
 2652TIP3    H2 7963   2.776   3.740   0.942 -0.7663  1.6383  0.9813
 2653TIP3   OH2 7964   3.154   5.819   2.557 -0.1331 -0.1503 -0.4986
 2653TIP3    H1 7965   3.169   5.794   2.648 -1.0475  1.2543  0.0638
 2653TIP3    H2 7966   3.242   5.836   2.523  0.1171  1.1858  0.7071
 2654TIP3   OH2 7967   2.249   5.905   1.208  0.0648  0.2982  0.3103
 2654TIP3    H1 7968   2.180   5.972   1.216  0.3691  0.7635 -0.7734
 2654TIP3    H2 7969   2.221   5.851   1.134  0.6557  0.2531  0.1133
 2655TIP3   OH2 7970   0.913   4.481   3.159 -0.0072 -0.0622 -0.1315
 2655TIP3    H1 7971   0.871   4.528   3.088 -1.3155  0.5457  1.0062
 2655TIP3    H2 7972   0.846   4.421   3.192 -0.2373  1.2796  2.0477
 2656TIP3   OH2 7973   2.779   1.894   1.381 -0.1416 -0.0069  0.3040
 2656TIP3    H1 7974   2.756   1.838   1.307 -1.0810  0.9470 -0.1333
 2656TIP3    H2 7975   2.874   1.904   1.375 -0.1939 -0.0603 -0.6735
 2657TIP3   OH2 7976   3.154   5.266   2.181 -0.2750 -0.2352  0.2009
 2657TIP3    H1 7977   3.131   5.176   2.159 -0.2507  0.1673 -1.5702
 2657TIP3    H2 7978   3.073   5.315   2.170 -0.7021 -0.2308  2.6861
 2658TIP3   OH2 7979   0.539   5.084   1.765  0.4477 -0.0642 -0.0325
 2658TIP3    H1 7980   0.567   5.165   1.808  2.3858 -0.8626  0.2904
 2658TIP3    H2 7981   0.451   5.104   1.733  1.4490  2.7449 -1.3834
 2659TIP3   OH2 7982   3.993   2.893   1.843  0.0425 -0.5746 -0.2438
 2659TIP3    H1 7983   4.078   2.913   1.805 -1.0984  1.3172 -1.9801
 2659TIP3    H2 7984   3.984   2.798   1.832  1.7989 -0.7849 -0.2089
 2660TIP3   OH2 7985   6.049   5.351   4.168  0.1217 -0.1537  0.4200
 2660TIP3    H1 7986   5.970   5.314   4.208  0.6575 -1.1338  0.6053
 2660TIP3    H2 7987   6.049   5.317   4.079  1.0007 -1.2414  0.8127
 2661TIP3   OH2 7988   4.008   0.382   4.491 -0.9071 -0.6605  0.6420
 2661TIP3    H1 7989   4.100   0.392   4.465 -1.4471  1.5907 -0.7119
 2661TIP3    H2 7990   3.967   0.465   4.466 -2.8783 -0.7178  3.2581
 2662TIP3   OH2 7991   2.841   0.075   0.129 -0.0943 -0.5386 -0.1147
 2662TIP3    H1 7992   2.747   0.090   0.138  0.0457  0.9044 -0.7445
 2662TIP3    H2 7993   2.850   0.027   0.047 -0.2148  0.4073 -0.6994
 2663TIP3   OH2 7994   5.144   5.170   2.601 -0.0659 -0.3198  1.0250
 2663TIP3    H1 7995   5.207   5.099   2.593 -1.2716 -1.3349  0.2551
 2663TIP3    H2 7996   5.168   5.232   2.533  0.0193 -0.7671  0.6450
 2664TIP3   OH2 7997   0.636   5.090   3.264  0.1654 -0.5699  0.5719
 2664TIP3    H1 7998   0.609   5.058   3.350  1.3365 -0.9627  0.8106
 2664TIP3    H2 7999   0.654   5.011   3.213  2.0539 -0.3515  0.8288
 2665TIP3   OH2 8000   0.837   5.056   2.904 -0.4858 -0.5744  0.0792
 2665TIP3    H1 8001   0.832   5.151   2.893  1.0498 -0.4005  0.7193
 2665TIP3    H2 8002   0.780   5.022   2.834  0.1088  0.7729 -1.1241
 2666TIP3   OH2 8003   5.457   1.310   3.440  0.0257 -0.1366  0.1742
 2666TIP3    H1 8004   5.420   1.364   3.371 -2.9798 -0.1905  1.5737
 2666TIP3    H2 8005   5.422   1.348   3.521  0.1489 -2.4039  1.3668
 2667TIP3   OH2 8006   2.366   1.650   4.401 -0.2692  0.2591 -0.9424
 2667TIP3    H1 8007   2.405   1.688   4.480  1.5047  2.1388 -2.5906
 2667TIP3    H2 8008   2.407   1.563   4.394 -1.4914 -0.5116  0.8672
 2668TIP3   OH2 8009   1.493   1.260   4.351 -0.2527  0.0248  0.1956
 2668TIP3    H1 8010   1.445   1.250   4.433 -1.1959 -0.9181 -0.4368
 2668TIP3    H2 8011   1.585   1.263   4.377 -0.4851 -1.1093  1.2260
 2669TIP3   OH2 8012   5.320   5.606   5.143 -0.5556  0.1934 -0.0931
 2669TIP3    H1 8013   5.265   5.672   5.102 -2.7087 -1.3199  0.1902
 2669TIP3    H2 8014   5.324   5.632   5.235  0.0115  0.8016 -0.2792
 2670TIP3   OH2 8015   2.945   4.321   0.738  0.2131  0.3051 -0.0807
 2670TIP3    H1 8016   2.890   4.396   0.762 -1.7568 -0.3887 -2.0941
 2670TIP3    H2 8017   2.895   4.276   0.670  1.8012 -2.2748  0.3398
 2671TIP3   OH2 8018   1.480   0.920   4.931  0.1862  0.2849  0.2699
 2671TIP3    H1 8019   1.486   0.869   4.850  1.4828  1.7241 -0.6216
 2671TIP3    H2 8020   1.409   0.982   4.914  1.1269  1.2625 -0.2154
 2672TIP3   OH2 8021   0.648   2.471   0.787 -0.0151  0.0225  0.4015
 2672TIP3    H1 8022   0.717   2.521   0.743  0.4351 -2.1632 -1.5661
 2672TIP3    H2 8023   0.694   2.419   0.853  0.2839 -1.2630 -0.7578
 2673TIP3   OH2 8024   3.555   2.257   4.698  0.3819  0.0563  0.3493
 2673TIP3    H1 8025   3.568   2.332   4.756 -1.9093  0.6708  0.1608
 2673TIP3    H2 8026   3.470   2.273   4.657  1.2362 -1.1319 -2.0301
 2674TIP3   OH2 8027   0.296   5.118   4.539 -0.3872 -0.0404  0.6779
 2674TIP3    H1 8028   0.262   5.196   4.495 -0.3493 -0.5479 -0.2833
 2674TIP3    H2 8029   0.234   5.101   4.610 -0.4149  0.8386  0.8708
 2675TIP3   OH2 8030   3.841   5.109   3.782 -0.4875  0.2423  0.7096
 2675TIP3    H1 8031   3.782   5.184   3.792 -0.7177  0.3330 -1.0321
 2675TIP3    H2 8032   3.784   5.034   3.773 -0.3767  0.3532 -1.1674
 2676TIP3   OH2 8033   0.318   2.175   1.983 -0.0853  0.2928 -0.8964
 2676TIP3    H1 8034   0.313   2.108   1.915  2.9679  1.0613 -2.0730
 2676TIP3    H2 8035   0.328   2.127   2.064  0.2919 -0.7012 -1.5131
 2677TIP3   OH2 8036   5.587   4.916   0.294 -0.3340  0.8676 -0.5767
 2677TIP3    H1 8037   5.664   4.962   0.325 -0.7361  0.8944  0.3978
 2677TIP3    H2 8038   5.583   4.835   0.346 -0.3475  0.3346 -1.3820
 2678TIP3   OH2 8039   3.185   2.132   0.424 -0.5528 -0.3213  0.1844
 2678TIP3    H1 8040   3.148   2.197   0.485  3.8943  0.8318  2.0951
 2678TIP3    H2 8041   3.242   2.183   0.367  1.3649 -2.2286  0.2661
 2679TIP3   OH2 8042   3.157   5.226   1.298 -0.3509 -0.2824  0.4906
 2679TIP3    H1 8043   3.205   5.274   1.230 -1.9423  2.1976  0.9794
 2679TIP3    H2 8044   3.125   5.148   1.254  1.5180 -0.4766 -0.6371
 2680TIP3   OH2 8045   5.595   4.807   3.089  0.4019  0.2770 -0.2322
 2680TIP3    H1 8046   5.542   4.735   3.055  1.5947 -0.4828 -0.5794
 2680TIP3    H2 8047   5.552   4.886   3.057 -0.8019 -0.2861 -0.0505
 2681TIP3   OH2 8048   5.836   5.985   3.565 -0.1872  0.7024 -0.0251
 2681TIP3    H1 8049   5.752   5.975   3.520  0.7085  1.1986 -1.9132
 2681TIP3    H2 8050   5.883   5.904   3.547  0.7378  1.4764 -1.2927
 2682TIP3   OH2 8051   0.146   0.015   2.327  0.7551  0.8155  0.4626
 2682TIP3    H1 8052   0.101   0.014   2.242  1.8195 -2.5021 -0.1859
 2682TIP3    H2 8053   0.236   0.039   2.306  1.0116  0.0230  0.6177
 2683TIP3   OH2 8054   0.422   0.043   0.561 -0.1962 -0.0708 -0.2236
 2683TIP3    H1 8055   0.479   0.117   0.542  0.4698 -0.3475  0.6032
 2683TIP3    H2 8056   0.362   0.076   0.628 -1.2102  0.2972 -1.2721
 2684TIP3   OH2 8057   2.105   5.085   1.839 -0.2360  0.1703 -0.8771
 2684TIP3    H1 8058   2.091   5.070   1.932  0.4995  0.6120 -0.6883
 2684TIP3    H2 8059   2.197   5.110   1.832 -0.4930  0.9655 -1.6201
 2685TIP3   OH2 8060   2.520   5.491   0.150 -0.6042 -0.1914 -0.1651
 2685TIP3    H1 8061   2.499   5.565   0.207  2.5423  0.5319  0.1988
 2685TIP3    H2 8062   2.512   5.526   0.062  0.5394  0.5298  0.0004
 2686TIP3   OH2 8063   5.139   1.967   0.972 -0.0458  0.2936  0.3417
 2686TIP3    H1 8064   5.052   2.006   0.960 -0.1467 -0.1190 -0.3483
 2686TIP3    H2 8065   5.192   2.037   1.008 -0.4214  0.8448 -0.1603
 2687TIP3   OH2 8066   3.410   2.473   3.473 -0.2453 -0.2700  0.4819
 2687TIP3    H1 8067   3.462   2.473   3.554  1.1069 -0.4527 -0.3481
 2687TIP3    H2 8068   3.383   2.381   3.463  1.7803 -0.8098 -0.5757
 2688TIP3   OH2 8069   5.996   3.013   0.525  0.3495 -0.1906 -0.3983
 2688TIP3    H1 8070   5.981   2.918   0.524  0.4142 -0.1993 -0.6390
 2688TIP3    H2 8071   5.938   3.047   0.457  1.5639 -0.2499 -1.5161
 2689TIP3   OH2 8072   1.288   0.647   4.704  0.1257  0.2285 -0.1233
 2689TIP3    H1 8073   1.355   0.713   4.721 -0.0253  0.8891 -1.8788
 2689TIP3    H2 8074   1.335   0.564   4.707  1.0512  0.6828 -1.3330
 2690TIP3   OH2 8075   5.069   5.752   0.744 -0.1779 -0.4579  1.0566
 2690TIP3    H1 8076   5.115   5.812   0.686 -0.2233  0.2889  1.7787
 2690TIP3    H2 8077   4.977   5.779   0.739 -0.1535 -0.2541  1.6205
 2691TIP3   OH2 8078   4.666   5.117   1.319 -0.0096 -0.7273 -0.4809
 2691TIP3    H1 8079   4.682   5.190   1.260 -0.3868  0.6316  1.0269
 2691TIP3    H2 8080   4.754   5.084   1.340  0.2777  0.3632  0.0938
 2692TIP3   OH2 8081   2.520   1.362   1.354 -0.2263 -0.4733 -0.1936
 2692TIP3    H1 8082   2.533   1.394   1.264 -0.4718  1.6966  0.4794
 2692TIP3    H2 8083   2.608   1.360   1.392 -0.3747  1.4824  0.3665
 2693TIP3   OH2 8084   1.023   5.754   3.689  0.1558 -0.1292 -0.3515
 2693TIP3    H1 8085   1.094   5.690   3.693  0.2931  0.0300 -0.2510
 2693TIP3    H2 8086   0.964   5.720   3.621  0.2974 -0.2912 -0.3938
 2694TIP3   OH2 8087   3.615   0.579   3.721  0.3310  0.0658  0.2887
 2694TIP3    H1 8088   3.603   0.511   3.787 -3.0886 -0.5081 -0.6942
 2694TIP3    H2 8089   3.579   0.658   3.760 -0.2080  0.1074 -0.2690
 2695TIP3   OH2 8090   0.179   5.600   2.304 -0.3591 -0.5840  0.3732
 2695TIP3    H1 8091   0.152   5.673   2.360 -2.9052 -2.2455  1.5202
 2695TIP3    H2 8092   0.098   5.570   2.263  0.3328 -3.5312  0.9260
 2696TIP3   OH2 8093   1.995   1.583   3.617  0.0599 -0.3335 -0.6904
 2696TIP3    H1 8094   2.044   1.563   3.537  3.1039  0.0686  0.9069
 2696TIP3    H2 8095   1.995   1.502   3.667  0.2877  0.0324 -0.0847
 2697TIP3   OH2 8096   0.608   1.122   2.477 -0.1838  0.1915  0.0193
 2697TIP3    H1 8097   0.613   1.184   2.404  1.7176 -0.5114 -0.4987
 2697TIP3    H2 8098   0.633   1.038   2.439  1.0598 -0.1527  1.5061
 2698TIP3   OH2 8099   1.695   1.797   2.774  0.0872  0.5740 -0.3099
 2698TIP3    H1 8100   1.729   1.708   2.762 -0.7661  0.4093 -1.6849
 2698TIP3    H2 8101   1.707   1.839   2.689 -0.7084  1.3682 -0.0386
 2699TIP3   OH2 8102   1.746   1.345   4.419 -0.3281  0.4858 -0.3049
 2699TIP3    H1 8103   1.777   1.305   4.500 -1.2452  0.1563 -0.1072
 2699TIP3    H2 8104   1.800   1.423   4.409 -1.1971  1.3663  1.4339
 2700TIP3   OH2 8105   1.206   4.237   3.768 -0.1559  0.1679  0.3072
 2700TIP3    H1 8106   1.246   4.234   3.681  0.4508  1.1713  0.5250
 2700TIP3    H2 8107   1.281   4.229   3.828 -0.2832  1.7281  0.7235
 2701TIP3   OH2 8108   3.202   5.246   0.767 -0.0353 -0.0706  0.1578
 2701TIP3    H1 8109   3.262   5.197   0.711 -0.3727  1.0916 -1.2803
 2701TIP3    H2 8110   3.236   5.232   0.856  0.8844 -1.4408 -0.3695
 2702TIP3   OH2 8111   4.576   5.317   2.044  0.5563  0.0485 -0.1295
 2702TIP3    H1 8112   4.594   5.327   1.950  1.4494 -0.0120  0.0252
 2702TIP3    H2 8113   4.532   5.233   2.051  0.7170 -0.0662 -0.4636
 2703TIP3   OH2 8114   3.773   0.782   0.077  0.2003 -0.1875 -0.1910
 2703TIP3    H1 8115   3.819   0.745   0.152  0.7474  0.4336 -0.2037
 2703TIP3    H2 8116   3.785   0.719   0.007  0.9507 -0.0879 -0.1598
 2704TIP3   OH2 8117   3.476   4.100   4.712 -0.1321 -0.7169  0.4353
 2704TIP3    H1 8118   3.516   4.067   4.631  0.3812 -0.5947  0.6354
 2704TIP3    H2 8119   3.548   4.103   4.775 -0.9775 -3.1290  1.6327
 2705TIP3   OH2 8120   4.268   2.786   0.976 -0.1060 -0.3473 -0.5383
 2705TIP3    H1 8121   4.308   2.854   1.030  0.9627 -1.2879 -0.0925
 2705TIP3    H2 8122   4.264   2.709   1.033 -3.4129 -0.1127 -0.2706
 2706TIP3   OH2 8123   5.205   3.654   2.259  0.0347  0.6812  0.2079
 2706TIP3    H1 8124   5.175   3.611   2.179  0.1498 -0.3738  0.7108
 2706TIP3    H2 8125   5.125   3.665   2.310  0.0778  0.5634  0.3026
 2707TIP3   OH2 8126   1.811   2.999   4.494 -0.2560 -0.1020 -0.2515
 2707TIP3    H1 8127   1.898   2.960   4.483 -0.2215  0.1117 -0.7664
 2707TIP3    H2 8128   1.800   3.055   4.417 -0.6071  0.3372  0.1154
 2708TIP3   OH2 8129   1.341   2.665   2.379  0.5196  0.0697 -0.2908
 2708TIP3    H1 8130   1.264   2.659   2.435 -0.1031  1.1137 -0.9906
 2708TIP3    H2 8131   1.306   2.675   2.290  1.4679 -0.2030 -0.7139
 2709TIP3   OH2 8132   3.014   5.526   4.583 -0.0095  0.2701  0.1440
 2709TIP3    H1 8133   2.992   5.481   4.501  2.3325 -0.2305 -0.2796
 2709TIP3    H2 8134   3.083   5.472   4.622  0.8680  1.9714  1.0602
 2710TIP3   OH2 8135   4.426   1.223   1.654  0.1259  0.2616 -0.1311
 2710TIP3    H1 8136   4.344   1.249   1.611  0.5102 -1.0529 -1.7797
 2710TIP3    H2 8137   4.488   1.212   1.582  0.7751 -2.1142  0.6985
 2711TIP3   OH2 8138   5.257   5.826   4.027  0.2876  0.9250  0.1746
 2711TIP3    H1 8139   5.299   5.771   4.093 -1.2836  0.0075  0.4645
 2711TIP3    H2 8140   5.197   5.882   4.076  1.0898  2.1727 -0.2316
 2712TIP3   OH2 8141   2.083   5.563   5.146  0.0700  0.0082  0.3916
 2712TIP3    H1 8142   1.993   5.595   5.154  0.2389  0.3862  0.8679
 2712TIP3    H2 8143   2.088   5.491   5.208 -0.7745 -2.1036 -1.8051
 2713TIP3   OH2 8144   5.893   0.440   0.337  0.1687 -0.4067 -0.4054
 2713TIP3    H1 8145   5.954   0.478   0.275 -0.2782 -0.1994 -0.7262
 2713TIP3    H2 8146   5.910   0.486   0.419  1.1599 -1.0884 -0.2164
 2714TIP3   OH2 8147   5.088   4.487   3.664 -0.4619 -0.7197  0.1156
 2714TIP3    H1 8148   5.102   4.488   3.569 -0.7708 -0.7409  0.0692
 2714TIP3    H2 8149   5.006   4.438   3.675 -0.6028 -0.4268  0.3683
 2715TIP3   OH2 8150   3.979   5.424   1.881 -0.0860 -0.0961  0.2967
 2715TIP3    H1 8151   3.981   5.485   1.807  0.9610 -0.0278  0.3602
 2715TIP3    H2 8152   3.890   5.430   1.915 -0.5835 -0.1156 -0.9398
 2716TIP3   OH2 8153   5.363   3.127   3.777 -0.2962 -0.1185  0.0318
 2716TIP3    H1 8154   5.416   3.078   3.713 -0.3416 -0.0640 -0.0476
 2716TIP3    H2 8155   5.424   3.192   3.812 -0.8027  1.2637 -1.4923
 2717TIP3   OH2 8156   3.127   5.087   2.807  0.1123 -0.0921  0.8254
 2717TIP3    H1 8157   3.172   5.138   2.740 -0.4225  0.3833  0.8249
 2717TIP3    H2 8158   3.154   4.996   2.790 -0.7350 -0.1088 -0.6103
 2718TIP3   OH2 8159   2.031   1.354   1.259 -0.2001  0.5046 -0.1837
 2718TIP3    H1 8160   1.985   1.352   1.343 -1.4900  0.9112 -0.8561
 2718TIP3    H2 8161   2.003   1.435   1.218  0.8352  0.5742 -0.7966
 2719TIP3   OH2 8162   1.490   5.761   4.721 -0.4295  0.0451 -0.2539
 2719TIP3    H1 8163   1.555   5.693   4.705 -1.0246 -0.6639  0.2498
 2719TIP3    H2 8164   1.459   5.744   4.809 -1.5576  0.1406 -0.6145
 2720TIP3   OH2 8165   4.354   5.210   1.741  0.1785 -0.1192 -0.4479
 2720TIP3    H1 8166   4.404   5.129   1.724  0.1035  0.1197 -1.9451
 2720TIP3    H2 8167   4.398   5.276   1.688  0.8036  1.0860  1.4536
 2721TIP3   OH2 8168   1.469   0.777   5.176  0.3663  0.0015  0.1758
 2721TIP3    H1 8169   1.375   0.757   5.179  0.7131 -1.6644  0.9725
 2721TIP3    H2 8170   1.483   0.811   5.088 -1.0313  0.5563  0.1396
 2722TIP3   OH2 8171   4.861   3.632   0.671 -0.2848 -0.1790 -0.2371
 2722TIP3    H1 8172   4.787   3.574   0.686  0.1419 -0.6332  0.1712
 2722TIP3    H2 8173   4.883   3.666   0.758  0.1249 -0.2328 -0.3152
 2723TIP3   OH2 8174   5.428   3.858   2.835  0.7833 -0.6076  0.2658
 2723TIP3    H1 8175   5.450   3.767   2.853  0.2309 -0.5937  1.0993
 2723TIP3    H2 8176   5.403   3.893   2.921 -0.4787 -0.0919 -0.2821
 2724TIP3   OH2 8177   2.879   5.137   1.266  0.1786  0.1249 -0.0463
 2724TIP3    H1 8178   2.788   5.110   1.252  0.4470 -0.4836 -0.6476
 2724TIP3    H2 8179   2.931   5.071   1.220  0.9044  0.8752 -0.3145
 2725TIP3   OH2 8180   0.038   4.326   3.918  0.1967 -0.3469  0.1752
 2725TIP3    H1 8181   0.112   4.267   3.934  0.2508 -1.9757 -4.4872
 2725TIP3    H2 8182   0.046   4.351   3.826 -2.8777  2.7369  0.5158
 2726TIP3   OH2 8183   0.530   0.067   3.788  0.2317 -0.0240 -0.0248
 2726TIP3    H1 8184   0.506   0.092   3.877  1.5663 -1.8754  0.9083
 2726TIP3    H2 8185   0.585   0.140   3.757  4.3145 -1.5563  2.7344
 2727TIP3   OH2 8186   3.741   4.822   0.951  0.0197 -0.6327 -0.6960
 2727TIP3    H1 8187   3.818   4.770   0.977  0.0114 -0.2395  0.1528
 2727TIP3    H2 8188   3.700   4.846   1.034 -0.3298  0.2044 -1.1009
 2728TIP3   OH2 8189   5.087   3.286   1.246 -0.0604 -0.3480 -0.4099
 2728TIP3    H1 8190   5.178   3.274   1.218  0.4270  1.5464  0.1998
 2728TIP3    H2 8191   5.038   3.288   1.164  0.7677  0.7541 -0.9176
 2729TIP3   OH2 8192   5.009   5.772   4.356  0.4604  0.2037  0.4504
 2729TIP3    H1 8193   4.990   5.679   4.365 -1.8074  0.6189  0.6921
 2729TIP3    H2 8194   4.987   5.792   4.265 -2.1820  1.0485  1.1875
 2730TIP3   OH2 8195   1.167   0.540   0.631  0.0150 -0.2957  0.0013
 2730TIP3    H1 8196   1.129   0.622   0.601 -1.4689 -1.4944 -1.6034
 2730TIP3    H2 8197   1.261   0.556   0.634 -0.2472  1.4381 -0.2582
 2731TIP3   OH2 8198   2.735   1.924   3.324  0.2461 -0.2582 -0.0900
 2731TIP3    H1 8199   2.784   1.995   3.283 -1.4462  1.1832  0.2484
 2731TIP3    H2 8200   2.802   1.865   3.358  1.7012  0.2797 -1.8800
 2732TIP3   OH2 8201   6.282   4.280   1.010 -0.2451 -0.2030  0.4810
 2732TIP3    H1 8202   6.194   4.304   0.980 -0.1436  0.0293  0.3632
 2732TIP3    H2 8203   6.277   4.285   1.105 -0.8035 -1.7689  0.5523
 2733TIP3   OH2 8204   6.088   2.237   0.064  0.2191  0.0508 -0.0575
 2733TIP3    H1 8205   6.041   2.319   0.048 -0.9081 -0.7619 -1.1623
 2733TIP3    H2 8206   6.180   2.261   0.061 -0.0635  1.0792 -1.7097
 2734TIP3   OH2 8207   4.044   2.412   1.839  0.1908  0.0357  0.1305
 2734TIP3    H1 8208   3.986   2.358   1.895 -0.5493  0.3500 -0.3226
 2734TIP3    H2 8209   4.082   2.349   1.778  0.3008 -0.1701  0.4056
 2735TIP3   OH2 8210   1.552   1.123   1.822  0.6769  0.3699 -0.2624
 2735TIP3    H1 8211   1.627   1.064   1.813  0.8559  0.4483  0.6102
 2735TIP3    H2 8212   1.566   1.168   1.906  0.6899  1.8568 -1.0223
 2736TIP3   OH2 8213   0.514   2.245   1.806  0.2070  0.4321 -0.4205
 2736TIP3    H1 8214   0.443   2.196   1.849  1.2270 -0.0159  0.8254
 2736TIP3    H2 8215   0.582   2.179   1.790  1.4911  1.3185  1.0196
 2737TIP3   OH2 8216   4.468   0.112   0.573 -0.3674 -0.0433  0.4373
 2737TIP3    H1 8217   4.397   0.054   0.601 -1.2852  1.1719  0.6783
 2737TIP3    H2 8218   4.489   0.083   0.484 -0.6245 -0.9147  0.6529
 2738TIP3   OH2 8219   2.407   2.707   1.164  0.0559  0.0050  0.1281
 2738TIP3    H1 8220   2.425   2.716   1.257  1.0851 -1.4632  0.1063
 2738TIP3    H2 8221   2.392   2.613   1.151 -2.2585  0.4274 -0.8455
 2739TIP3   OH2 8222   3.753   0.291   1.591  0.2552 -0.4461 -0.0303
 2739TIP3    H1 8223   3.740   0.308   1.498  0.9592  0.5116  0.0379
 2739TIP3    H2 8224   3.841   0.253   1.596  0.3703 -0.1405  0.2830
 2740TIP3   OH2 8225   2.734   5.143   4.830 -1.0991  0.1585 -0.3782
 2740TIP3    H1 8226   2.823   5.148   4.796 -0.8110  0.6155  0.4167
 2740TIP3    H2 8227   2.716   5.050   4.837  0.0233  0.0257  1.2132
 2741TIP3   OH2 8228   2.909   4.834   2.670 -0.1983  0.1816  0.5910
 2741TIP3    H1 8229   2.987   4.834   2.615 -0.5564  1.5934  0.0359
 2741TIP3    H2 8230   2.943   4.826   2.760  0.6039  0.9034  0.3694
 2742TIP3   OH2 8231   1.154   0.208   0.052 -0.3000  0.1106  0.0173
 2742TIP3    H1 8232   1.208   0.159  -0.010  0.2855  1.9350 -0.9864
 2742TIP3    H2 8233   1.079   0.151   0.068  1.6165 -2.2952  1.0616
 2743TIP3   OH2 8234   0.368   1.999   2.769 -0.3047  0.0146 -0.4162
 2743TIP3    H1 8235   0.321   1.972   2.690  0.0001 -0.3549 -0.4786
 2743TIP3    H2 8236   0.396   1.916   2.808 -1.8366  0.1024  0.9499
 2744TIP3   OH2 8237   0.107   5.539   1.933  0.1817 -0.5568 -0.2488
 2744TIP3    H1 8238   0.048   5.533   1.858  1.6175  1.1571 -1.6142
 2744TIP3    H2 8239   0.050   5.541   2.009 -1.3894 -1.0121 -1.3591
 2745TIP3   OH2 8240   3.171   0.346   3.936 -0.5790  0.0131  0.2153
 2745TIP3    H1 8241   3.213   0.418   3.889  0.7438 -0.2816  0.8971
 2745TIP3    H2 8242   3.229   0.271   3.921 -0.0832 -0.0755  2.3529
 2746TIP3   OH2 8243   1.691   5.952   0.850 -0.2108 -0.4885  0.2800
 2746TIP3    H1 8244   1.761   5.942   0.916  1.2686 -3.3430 -1.4794
 2746TIP3    H2 8245   1.624   5.889   0.877  0.6486 -2.0757 -1.1106
 2747TIP3   OH2 8246   5.661   5.459   3.667 -0.1161  0.5754  0.1042
 2747TIP3    H1 8247   5.633   5.523   3.602  1.4994  1.9859  0.7255
 2747TIP3    H2 8248   5.585   5.446   3.723 -0.9651  0.7051 -0.9868
 2748TIP3   OH2 8249   3.151   5.163   3.314  1.1540  0.2648  0.1608
 2748TIP3    H1 8250   3.173   5.172   3.221  4.3380 -3.3948  0.2902
 2748TIP3    H2 8251   3.225   5.201   3.361  0.2482  0.8237  1.1839
 2749TIP3   OH2 8252   2.919   0.783   1.334  0.5220 -0.1866  0.0834
 2749TIP3    H1 8253   2.988   0.734   1.379  1.8778  0.8644 -0.7614
 2749TIP3    H2 8254   2.965   0.833   1.266 -1.2930 -0.7317 -1.6459
 2750TIP3   OH2 8255   4.719   4.241   1.533 -0.1036 -0.3483 -0.2371
 2750TIP3    H1 8256   4.755   4.212   1.449 -1.2401  2.3137 -1.7759
 2750TIP3    H2 8257   4.670   4.166   1.566  1.5031 -1.9089 -1.2458
 2751TIP3   OH2 8258   5.754   2.038   0.867 -0.3149  0.8878  0.3254
 2751TIP3    H1 8259   5.780   1.966   0.809 -0.7460  1.3996 -0.5186
 2751TIP3    H2 8260   5.832   2.055   0.919 -0.5929 -1.0451  1.4697
 2752TIP3   OH2 8261   6.188   2.419   1.469  0.1880  0.4081  0.0252
 2752TIP3    H1 8262   6.191   2.375   1.554 -1.0132  0.1431 -0.0585
 2752TIP3    H2 8263   6.229   2.358   1.409 -0.1244  0.0413  0.1831
 2753TIP3   OH2 8264   4.271   0.487   4.433 -0.0241  0.0523  0.3777
 2753TIP3    H1 8265   4.317   0.413   4.395 -1.8401 -1.7003  1.3650
 2753TIP3    H2 8266   4.282   0.476   4.528 -1.2392  0.4222  0.5767
 2754TIP3   OH2 8267   0.653   3.393   1.723 -0.7822  0.3566  0.0770
 2754TIP3    H1 8268   0.657   3.316   1.779 -0.2075 -0.9128 -1.6185
 2754TIP3    H2 8269   0.560   3.407   1.709 -0.9489  0.8874  1.5595
 2755TIP3   OH2 8270   5.183   5.366   0.301 -0.3788  0.4809  0.2864
 2755TIP3    H1 8271   5.171   5.272   0.304 -0.8644  0.5390  0.1888
 2755TIP3    H2 8272   5.278   5.378   0.308 -0.3848  0.0380  1.2813
 2756TIP3   OH2 8273   4.392   5.127   3.101  0.4760 -0.6269  0.2437
 2756TIP3    H1 8274   4.379   5.033   3.113 -0.5161 -0.3929  1.2266
 2756TIP3    H2 8275   4.455   5.150   3.169 -1.2732 -0.1691  1.8007
 2757TIP3   OH2 8276   1.801   5.705   4.965  0.5174 -0.9708  0.1388
 2757TIP3    H1 8277   1.762   5.792   4.958  0.3727 -0.9411  1.1404
 2757TIP3    H2 8278   1.729   5.645   4.945  0.8212 -0.8724 -1.4031
 2758TIP3   OH2 8279   4.377   2.946   1.157  0.0568 -0.2772  0.1039
 2758TIP3    H1 8280   4.359   2.891   1.233 -1.3003 -0.9341 -0.6566
 2758TIP3    H2 8281   4.472   2.957   1.157  0.2600 -1.7785  0.8639
 2759TIP3   OH2 8282   0.029   3.457   2.567 -0.0024  0.4223 -0.8257
 2759TIP3    H1 8283   0.057   3.391   2.632  0.9882 -0.2098 -1.8431
 2759TIP3    H2 8284  -0.023   3.519   2.617  3.6088  1.9644  1.4328
 2760TIP3   OH2 8285   0.377   4.257   4.315 -0.8960 -0.5412  0.2989
 2760TIP3    H1 8286   0.411   4.274   4.227 -0.5017  0.4026  0.6169
 2760TIP3    H2 8287   0.315   4.328   4.331 -0.3678 -0.2405  1.0781
 2761TIP3   OH2 8288   5.417   2.849   4.766  0.5639  0.5324  0.3550
 2761TIP3    H1 8289   5.452   2.824   4.680 -0.3251 -0.8021  0.3670
 2761TIP3    H2 8290   5.337   2.898   4.745  0.4849  0.4318  0.4286
 2762TIP3   OH2 8291   2.570   3.305   1.497  0.1174 -0.3164  0.6072
 2762TIP3    H1 8292   2.492   3.335   1.543 -0.9281 -0.6753 -0.8472
 2762TIP3    H2 8293   2.581   3.367   1.425  0.4194 -0.9923  0.0527
 2763TIP3   OH2 8294   5.375   0.700   2.285  0.0797 -0.0815  0.2686
 2763TIP3    H1 8295   5.313   0.768   2.257 -1.6157 -0.5562  2.5719
 2763TIP3    H2 8296   5.421   0.739   2.359 -1.6999 -1.6906  2.3568
 2764TIP3   OH2 8297   5.335   0.025   4.809 -0.3731 -0.1175 -0.2435
 2764TIP3    H1 8298   5.342   0.058   4.719  1.9287 -0.3612 -0.2123
 2764TIP3    H2 8299   5.424   0.028   4.842 -1.0846 -0.6068  1.8594
 2765TIP3   OH2 8300   5.357   2.749   1.071 -0.0798 -0.4333  0.4152
 2765TIP3    H1 8301   5.451   2.732   1.078  0.0887  0.5012  0.5784
 2765TIP3    H2 8302   5.350   2.819   1.006 -0.6109 -0.0416  0.8838
 2766TIP3   OH2 8303   3.597   3.617   4.716 -0.5513 -0.1463  0.4156
 2766TIP3    H1 8304   3.664   3.596   4.781  0.5074  0.2498 -0.5135
 2766TIP3    H2 8305   3.565   3.531   4.687 -0.2409 -0.3479  0.6606
 2767TIP3   OH2 8306   2.086   4.950   3.022 -0.1126  0.3462 -0.1947
 2767TIP3    H1 8307   2.175   4.933   3.052  0.7082  1.5054 -1.8365
 2767TIP3    H2 8308   2.071   4.885   2.953  0.2681  1.4224 -1.3343
 2768TIP3   OH2 8309   4.216   4.237   1.495 -0.7096  0.1424  0.1272
 2768TIP3    H1 8310   4.188   4.215   1.584  0.3744 -1.1069  0.1857
 2768TIP3    H2 8311   4.223   4.153   1.450 -0.5313  0.6992 -0.9292
 2769TIP3   OH2 8312   1.130   1.770   1.210 -0.1431  0.6817  0.6874
 2769TIP3    H1 8313   1.050   1.810   1.176 -0.7225 -1.2810 -0.3818
 2769TIP3    H2 8314   1.102   1.688   1.250  1.3215  0.0176  0.4270
 2770TIP3   OH2 8315   2.961   1.837   0.570 -0.5763 -0.0085  0.5063
 2770TIP3    H1 8316   2.939   1.851   0.478  1.7730 -0.2609 -0.1711
 2770TIP3    H2 8317   2.979   1.925   0.604  2.3786 -0.1091 -0.4460
 2771TIP3   OH2 8318   2.856   3.961   2.052  0.6895  0.3902  0.2013
 2771TIP3    H1 8319   2.825   3.901   1.984 -1.1850  0.3778  1.0242
 2771TIP3    H2 8320   2.892   3.904   2.119 -0.0524  0.2365  0.4744
 2772TIP3   OH2 8321   5.577   2.595   4.331 -0.4410 -0.2720 -0.3925
 2772TIP3    H1 8322   5.505   2.534   4.314  0.8482 -1.8931 -0.2350
 2772TIP3    H2 8323   5.656   2.541   4.330  0.9725  1.6602 -1.9219
 2773TIP3   OH2 8324   6.195   1.485   1.516 -0.3873  0.0525  0.0023
 2773TIP3    H1 8325   6.290   1.491   1.506 -0.5585 -0.4293 -2.5941
 2773TIP3    H2 8326   6.177   1.391   1.512 -0.8207 -0.1581  3.4920
 2774TIP3   OH2 8327   4.888   3.729   3.097 -0.4926 -0.0936 -0.3163
 2774TIP3    H1 8328   4.979   3.750   3.080 -0.3226  0.6773  1.3968
 2774TIP3    H2 8329   4.883   3.713   3.191 -2.4492  1.8358  0.0002
 2775TIP3   OH2 8330   3.909   4.594   2.489  0.4584 -0.1834  0.1794
 2775TIP3    H1 8331   3.835   4.642   2.527 -0.2328 -1.8229  1.0243
 2775TIP3    H2 8332   3.973   4.591   2.559  1.7236  1.9050 -0.8002
 2776TIP3   OH2 8333   0.194   3.209   2.145  0.4947  0.0135 -0.2562
 2776TIP3    H1 8334   0.180   3.175   2.057  1.4263 -1.3005  0.0642
 2776TIP3    H2 8335   0.273   3.263   2.138  0.3597  0.2058 -0.2983
 2777TIP3   OH2 8336   1.713   2.653   4.010  0.5006  0.2911 -0.0129
 2777TIP3    H1 8337   1.715   2.680   3.918  0.3531 -0.6747 -0.3148
 2777TIP3    H2 8338   1.704   2.734   4.059 -1.6473  0.6822 -0.9561
 2778TIP3   OH2 8339   0.391   4.221   5.126  0.1623  0.1309  0.5055
 2778TIP3    H1 8340   0.352   4.146   5.082 -0.4411  0.1557  0.9957
 2778TIP3    H2 8341   0.332   4.241   5.198  0.9700  0.2986  1.1393
 2779TIP3   OH2 8342   0.502   2.231   1.531  0.3028  0.0877  0.1257
 2779TIP3    H1 8343   0.509   2.240   1.626 -1.1769 -0.3880  0.3081
 2779TIP3    H2 8344   0.417   2.270   1.510  0.9230  0.8244 -1.1057
 2780TIP3   OH2 8345   6.315   0.493   1.317 -0.2122 -0.4872  0.5771
 2780TIP3    H1 8346   6.249   0.464   1.380  0.7241  1.7499  2.7324
 2780TIP3    H2 8347   6.386   0.430   1.326  0.3783  0.4078  2.6672
 2781TIP3   OH2 8348   6.041   2.044   4.314 -0.6870  0.2268  0.1995
 2781TIP3    H1 8349   6.092   2.090   4.380 -1.3817 -2.0162  2.4919
 2781TIP3    H2 8350   5.951   2.075   4.326 -1.0372 -1.0868  1.2794
 2782TIP3   OH2 8351   4.047   5.425   3.936 -0.0762  0.0316  0.5690
 2782TIP3    H1 8352   3.958   5.461   3.934  0.3628  1.1921  0.6958
 2782TIP3    H2 8353   4.053   5.382   4.021  0.1246  1.7479  1.4619
 2783TIP3   OH2 8354   1.405   4.333   2.171 -0.7339  0.1256 -0.1458
 2783TIP3    H1 8355   1.443   4.420   2.170  1.7112 -0.8137  1.4427
 2783TIP3    H2 8356   1.430   4.294   2.088 -0.8040  0.5449 -0.3632
 2784TIP3   OH2 8357   4.941   5.465   0.212 -0.0973  0.1401 -0.3785
 2784TIP3    H1 8358   4.881   5.395   0.186 -0.7346  1.2394 -2.1203
 2784TIP3    H2 8359   5.023   5.421   0.233 -1.3201 -1.3608  1.5017
 2785TIP3   OH2 8360   4.062   1.596   2.874 -0.5728  0.1657 -0.5070
 2785TIP3    H1 8361   4.022   1.559   2.795 -1.9454 -0.2604  0.3386
 2785TIP3    H2 8362   4.145   1.551   2.882  0.4142  1.4412 -2.6145
 2786TIP3   OH2 8363   1.223   4.377   1.349  0.7387 -0.1322 -0.0468
 2786TIP3    H1 8364   1.174   4.406   1.272  2.2373  1.1554 -0.5888
 2786TIP3    H2 8365   1.294   4.323   1.314  0.5098 -0.8672  0.5898
 2787TIP3   OH2 8366   2.565   2.863   3.814 -0.2341  0.3207  0.3485
 2787TIP3    H1 8367   2.533   2.799   3.750 -1.1681  1.0606  0.0513
 2787TIP3    H2 8368   2.516   2.943   3.794  2.2034  1.6958 -0.5117
 2788TIP3   OH2 8369   0.366   2.492   5.044 -0.4492 -0.0900  0.0548
 2788TIP3    H1 8370   0.432   2.424   5.041  0.2090  0.5021  0.8547
 2788TIP3    H2 8371   0.389   2.551   4.971 -0.8800 -0.5760 -0.4868
 2789TIP3   OH2 8372   2.836   5.888   0.725 -0.4151 -0.2866  0.2953
 2789TIP3    H1 8373   2.822   5.858   0.814  1.1774  1.0791  1.0558
 2789TIP3    H2 8374   2.898   5.826   0.687 -2.0666 -1.6238 -0.3604
 2790TIP3   OH2 8375   5.243   1.159   4.980  0.3802 -0.3340  0.4706
 2790TIP3    H1 8376   5.240   1.162   5.076 -0.0937 -1.5025  0.5082
 2790TIP3    H2 8377   5.307   1.226   4.956 -1.5998  2.0684  1.4464
 2791TIP3   OH2 8378   2.543   0.174   2.998 -0.4688 -0.0646  0.5169
 2791TIP3    H1 8379   2.606   0.245   3.010 -1.8553  0.8434  3.4428
 2791TIP3    H2 8380   2.498   0.195   2.917  2.4823 -0.4615 -1.3777
 2792TIP3   OH2 8381   0.805   5.435   1.572 -0.1893 -0.5937  0.2703
 2792TIP3    H1 8382   0.721   5.405   1.537  0.2556  1.4023 -2.9489
 2792TIP3    H2 8383   0.869   5.413   1.503  1.7172 -0.7643  1.9873
 2793TIP3   OH2 8384   5.917   0.294   1.304 -0.0253 -1.0602  0.0411
 2793TIP3    H1 8385   5.826   0.324   1.313  0.4559  0.0053  1.7900
 2793TIP3    H2 8386   5.970   0.366   1.339  1.4203 -2.1911  0.2741
 2794TIP3   OH2 8387   0.498   3.820   5.168 -0.0388  0.5125 -0.0805
 2794TIP3    H1 8388   0.459   3.737   5.138  0.8937  0.1609 -0.3663
 2794TIP3    H2 8389   0.426   3.866   5.210 -0.6207 -0.3733 -0.0686
 2795TIP3   OH2 8390   0.253   5.226   3.809 -0.0700 -0.3516 -0.2137
 2795TIP3    H1 8391   0.303   5.294   3.853 -0.7742  1.1986 -1.7041
 2795TIP3    H2 8392   0.198   5.189   3.878  0.9029  0.0381  0.7906
 2796TIP3   OH2 8393   4.733   2.751   2.078 -0.4357  0.0852 -0.6682
 2796TIP3    H1 8394   4.713   2.717   2.165  1.0051  0.8713 -0.0011
 2796TIP3    H2 8395   4.684   2.834   2.073 -0.2826  0.1857 -0.4935
 2797TIP3   OH2 8396   3.850   3.501   3.274  0.6024  0.4969  0.1555
 2797TIP3    H1 8397   3.823   3.562   3.343  0.8158  2.0006 -1.0240
 2797TIP3    H2 8398   3.773   3.493   3.218  0.3478 -0.9154  0.6636
 2798TIP3   OH2 8399   5.153   2.724   2.322  0.3903  0.6605  0.0126
 2798TIP3    H1 8400   5.120   2.651   2.375 -2.3775  0.9364 -1.1757
 2798TIP3    H2 8401   5.211   2.683   2.258 -1.1429 -0.5480 -0.6571
 2799TIP3   OH2 8402   1.368   2.795   0.464  0.1981  0.3597  0.0454
 2799TIP3    H1 8403   1.343   2.850   0.389  0.4306  0.6673  0.1897
 2799TIP3    H2 8404   1.370   2.856   0.538  0.5542  0.1739  0.1892
 2800TIP3   OH2 8405   5.279   0.548   2.511 -0.3466  0.4570  0.3490
 2800TIP3    H1 8406   5.241   0.632   2.536  0.1219  0.7929 -0.0359
 2800TIP3    H2 8407   5.309   0.562   2.421 -0.0461 -0.0422  0.3688
 2801TIP3   OH2 8408   4.584   1.146   2.369  0.1126 -0.3669 -0.0694
 2801TIP3    H1 8409   4.672   1.116   2.346 -0.8072 -3.5405  0.0622
 2801TIP3    H2 8410   4.553   1.193   2.291  2.1477  1.5796  0.2005
 2802TIP3   OH2 8411   5.430   5.073   4.795 -0.5992  0.5681 -0.2341
 2802TIP3    H1 8412   5.490   5.126   4.848 -0.8078 -0.6147  1.2476
 2802TIP3    H2 8413   5.350   5.068   4.848 -1.6587  1.2343 -1.6996
 2803TIP3   OH2 8414   1.953   4.878   1.385  0.2749  0.8303  0.3148
 2803TIP3    H1 8415   1.994   4.953   1.426 -0.3902  0.3048  2.0524
 2803TIP3    H2 8416   1.981   4.803   1.439 -0.7933  0.1320 -0.0688
 2804TIP3   OH2 8417   3.334   5.920   0.759  0.0030 -0.7168 -0.6832
 2804TIP3    H1 8418   3.410   5.978   0.749 -1.4080  1.1120 -1.4356
 2804TIP3    H2 8419   3.359   5.860   0.829  1.6042  0.7427  0.0758
 2805TIP3   OH2 8420   1.069   4.430   1.566 -0.1986 -0.0209 -0.1276
 2805TIP3    H1 8421   1.120   4.396   1.492 -0.5005  0.2780 -0.4710
 2805TIP3    H2 8422   1.024   4.353   1.601 -0.3705 -0.0944 -0.5037
 2806TIP3   OH2 8423   1.628   0.496   0.278  0.0678 -0.7181 -0.6161
 2806TIP3    H1 8424   1.593   0.584   0.289  1.9128  0.0106 -0.2083
 2806TIP3    H2 8425   1.686   0.502   0.202  1.8857 -0.9819  0.6716
 2807TIP3   OH2 8426   1.517   0.702   3.515  0.0789  0.3716 -0.0865
 2807TIP3    H1 8427   1.561   0.760   3.453 -1.6165  0.3666 -1.3659
 2807TIP3    H2 8428   1.585   0.678   3.577  1.6734  0.9772 -1.5088
 2808TIP3   OH2 8429   0.324   4.326   0.319  0.0077  0.6611 -0.5845
 2808TIP3    H1 8430   0.325   4.319   0.415  1.1580  0.5304 -0.5839
 2808TIP3    H2 8431   0.398   4.384   0.299  1.0690 -0.9420 -1.4925
 2809TIP3   OH2 8432   4.819   5.900   0.083 -0.8221 -0.3349 -0.5225
 2809TIP3    H1 8433   4.902   5.852   0.077 -1.3422 -1.2763 -0.3794
 2809TIP3    H2 8434   4.834   5.966   0.151  0.5501  1.0724 -2.0959
 2810TIP3   OH2 8435   5.805   0.928   4.788 -0.0424 -0.3988  0.0080
 2810TIP3    H1 8436   5.786   0.846   4.743 -0.1193 -1.0519  1.1784
 2810TIP3    H2 8437   5.759   0.995   4.737 -1.4680 -1.3137  0.0316
 2811TIP3   OH2 8438   3.342   3.277   4.900  0.0943  0.0769  0.5670
 2811TIP3    H1 8439   3.310   3.356   4.945 -0.8613 -0.3160  0.5994
 2811TIP3    H2 8440   3.408   3.310   4.839 -0.0236  0.8578  0.8431
 2812TIP3   OH2 8441   5.301   0.034   3.567 -0.6475 -0.1017 -0.2245
 2812TIP3    H1 8442   5.271  -0.006   3.485  1.3455 -0.8389 -0.6532
 2812TIP3    H2 8443   5.333   0.121   3.542  0.6583 -0.6076 -0.4147
 2813TIP3   OH2 8444   0.171   0.978   3.464  0.1144 -0.1730  0.3058
 2813TIP3    H1 8445   0.209   0.901   3.507  0.2272  0.6556  1.7532
 2813TIP3    H2 8446   0.246   1.031   3.439  0.0079 -0.1504  0.0304
 2814TIP3   OH2 8447   4.520   5.891   1.983 -0.2955  0.9534  0.0910
 2814TIP3    H1 8448   4.546   5.884   1.891 -2.6209 -0.7312 -0.5168
 2814TIP3    H2 8449   4.560   5.815   2.025 -0.1813  1.0878  0.2264
 2815TIP3   OH2 8450   0.843   1.784   1.964  0.0940 -0.0887 -0.0352
 2815TIP3    H1 8451   0.898   1.711   1.938 -1.1802 -1.3215  0.6278
 2815TIP3    H2 8452   0.820   1.766   2.055  0.3081  1.5035  0.3641
 2816TIP3   OH2 8453   0.629   4.851   3.141 -0.0415  0.2414  0.2018
 2816TIP3    H1 8454   0.691   4.778   3.147  1.0066  0.9023 -1.6942
 2816TIP3    H2 8455   0.545   4.809   3.121 -0.0374 -0.5955  1.7672
 2817TIP3   OH2 8456   4.963   2.838   1.996  0.1638  0.1368 -0.4497
 2817TIP3    H1 8457   4.880   2.806   2.032  1.0908 -0.3636  1.3660
 2817TIP3    H2 8458   5.011   2.870   2.072  2.1650 -0.8187 -1.2439
 2818TIP3   OH2 8459   0.565   3.180   1.523 -0.3734  0.1421 -0.4339
 2818TIP3    H1 8460   0.599   3.265   1.550  1.6248 -0.4106 -1.0381
 2818TIP3    H2 8461   0.544   3.191   1.430 -0.0942 -0.0093 -0.5176
 2819TIP3   OH2 8462   0.033   4.932   3.372  0.1420  0.3147  0.4600
 2819TIP3    H1 8463   0.091   4.964   3.441  0.7223  0.5208 -0.1041
 2819TIP3    H2 8464   0.018   4.840   3.393  1.4123  0.0135  0.1402
 2820TIP3   OH2 8465   5.363   4.870   4.322 -0.3778 -0.0607  0.2733
 2820TIP3    H1 8466   5.330   4.812   4.391  1.7610  1.0981  2.4206
 2820TIP3    H2 8467   5.336   4.958   4.350  0.4131  0.4189 -0.4296
 2821TIP3   OH2 8468   2.504   5.733   4.743 -0.0629  0.0068  0.0508
 2821TIP3    H1 8469   2.423   5.695   4.707  1.6838 -1.6946 -2.3762
 2821TIP3    H2 8470   2.574   5.690   4.695  2.3046  2.4626  1.0711
 2822TIP3   OH2 8471   3.448   0.029   2.263 -0.4427  0.0080 -0.2853
 2822TIP3    H1 8472   3.515  -0.039   2.256  0.7080  1.0625  0.1745
 2822TIP3    H2 8473   3.426   0.031   2.357 -0.9960 -0.1951 -0.4042
 2823TIP3   OH2 8474   3.495   0.429   2.044  0.1771  0.2196 -0.2502
 2823TIP3    H1 8475   3.451   0.345   2.060 -0.5353  0.6867  0.3016
 2823TIP3    H2 8476   3.473   0.451   1.953  0.3130 -0.1512 -0.3763
 2824TIP3   OH2 8477   2.822   5.630   4.964  0.0691  0.4558 -0.0908
 2824TIP3    H1 8478   2.861   5.714   4.940  2.0597 -0.5869 -0.7299
 2824TIP3    H2 8479   2.826   5.578   4.883 -0.7529 -0.4010  0.3963
 2825TIP3   OH2 8480   3.141   0.344   1.025 -0.2479 -0.3617 -0.2071
 2825TIP3    H1 8481   3.173   0.307   0.943  2.8457 -1.4892  1.3469
 2825TIP3    H2 8482   3.218   0.350   1.081 -1.9062  1.9723  2.0888
 2826TIP3   OH2 8483   1.585   1.483   3.926  0.6794  0.0877 -0.1410
 2826TIP3    H1 8484   1.534   1.404   3.907 -0.0651  0.8650 -1.5782
 2826TIP3    H2 8485   1.585   1.490   4.021 -0.4392 -0.8726 -0.0468
 2827TIP3   OH2 8486   5.477   3.140   1.530  0.5335  0.2208 -0.2508
 2827TIP3    H1 8487   5.467   3.060   1.581  1.7373  0.8232  1.0034
 2827TIP3    H2 8488   5.566   3.169   1.548  0.7747  0.8362 -2.2092
 2828TIP3   OH2 8489   5.945   3.066   4.444  0.0727 -0.0760  0.3443
 2828TIP3    H1 8490   5.902   3.043   4.526  1.2688 -1.8521  0.5172
 2828TIP3    H2 8491   5.999   3.143   4.467  0.9330 -0.9647  1.4279
 2829TIP3   OH2 8492   4.810   4.394   3.713 -0.3206 -0.1349  0.4459
 2829TIP3    H1 8493   4.819   4.397   3.618 -0.0562  0.9015  0.4892
 2829TIP3    H2 8494   4.836   4.305   3.737  0.0932 -0.2545 -0.4036
 2830TIP3   OH2 8495   3.145   4.977   2.140  1.2442  0.2582 -0.8947
 2830TIP3    H1 8496   3.221   4.925   2.165  1.1929  0.7906  0.4690
 2830TIP3    H2 8497   3.072   4.916   2.143  0.8727  0.6815  2.5269
 2831TIP3   OH2 8498   4.951   4.801   4.278 -0.1959  0.3485  0.7568
 2831TIP3    H1 8499   5.042   4.776   4.261 -0.7248 -0.4702 -1.0983
 2831TIP3    H2 8500   4.905   4.718   4.290 -0.5833  0.7808  2.5992
 2832TIP3   OH2 8501   0.622   3.900   0.053 -0.4442  0.4047 -0.0726
 2832TIP3    H1 8502   0.539   3.854   0.049  0.4711 -1.3831  0.3107
 2832TIP3    H2 8503   0.675   3.849   0.114  1.3812  0.7095 -1.3042
 2833TIP3   OH2 8504   3.117   5.938   5.120  0.4339  0.6196 -0.0607
 2833TIP3    H1 8505   3.132   5.851   5.083 -0.8101 -0.9183  2.7175
 2833TIP3    H2 8506   3.205   5.969   5.143  0.7499 -1.4838  2.0012
 2834TIP3   OH2 8507   5.621   2.973   0.691 -0.1498 -0.4834  0.5482
 2834TIP3    H1 8508   5.606   3.054   0.643 -1.7900 -0.7293  0.5773
 2834TIP3    H2 8509   5.701   2.989   0.741 -0.1235  0.8951  0.1123
 2835TIP3   OH2 8510   5.459   2.397   3.493 -0.1688  0.8631 -0.0475
 2835TIP3    H1 8511   5.508   2.409   3.574 -0.9827 -0.0690  0.5999
 2835TIP3    H2 8512   5.461   2.302   3.478  0.3958  1.0649 -1.3948
 2836TIP3   OH2 8513   1.267   3.666   3.915 -0.2934 -0.3280  0.2256
 2836TIP3    H1 8514   1.174   3.647   3.926 -0.2778 -0.3694  0.2879
 2836TIP3    H2 8515   1.277   3.687   3.822 -0.7482  1.7445  0.5937
 2837TIP3   OH2 8516   2.857   2.630   3.415  0.0067 -0.4533  0.2028
 2837TIP3    H1 8517   2.869   2.655   3.323  1.2392 -0.5038  0.3431
 2837TIP3    H2 8518   2.781   2.682   3.443  0.3788  0.5010 -0.4945
 2838TIP3   OH2 8519   0.244   0.092   4.153  0.1453 -0.1736  0.4590
 2838TIP3    H1 8520   0.291   0.147   4.215 -0.7796 -0.4502  1.4365
 2838TIP3    H2 8521   0.276   0.120   4.067 -0.0055  1.6024  0.9465
 2839TIP3   OH2 8522   5.934   1.243   0.136 -0.3894  0.7261 -0.1364
 2839TIP3    H1 8523   5.964   1.334   0.144 -0.7540  0.8728 -0.4310
 2839TIP3    H2 8524   5.963   1.202   0.218 -1.4412  1.4609  0.6447
 2840TIP3   OH2 8525   4.338   5.007   3.411  0.0398  0.2428  0.1459
 2840TIP3    H1 8526   4.389   5.086   3.396  0.1757 -0.0821 -1.2947
 2840TIP3    H2 8527   4.247   5.038   3.416 -0.3760  0.3070 -3.8777
 2841TIP3   OH2 8528   4.651   3.446   1.683 -0.3764 -0.1011 -0.4578
 2841TIP3    H1 8529   4.716   3.383   1.713  0.4454  1.5165  1.4471
 2841TIP3    H2 8530   4.679   3.469   1.595  1.3002  0.0610  0.0813
 2842TIP3   OH2 8531   2.772   0.847   2.697 -0.1422  0.4560 -0.0446
 2842TIP3    H1 8532   2.716   0.831   2.621  1.6665 -1.1557 -1.1184
 2842TIP3    H2 8533   2.789   0.760   2.733  1.5410  0.8962  0.3203
 2843TIP3   OH2 8534   4.586   0.963   3.086  0.3090  0.2495 -0.0722
 2843TIP3    H1 8535   4.637   0.941   3.008 -0.5519 -0.2098 -0.5261
 2843TIP3    H2 8536   4.651   0.972   3.156  0.9077 -1.6568 -0.3233
 2844TIP3   OH2 8537   3.618   2.162   2.777 -0.0375 -0.2891  0.4524
 2844TIP3    H1 8538   3.524   2.150   2.764  0.2740 -0.6851 -1.9244
 2844TIP3    H2 8539   3.630   2.257   2.778 -0.2577 -0.1901 -1.6420
 2845TIP3   OH2 8540   0.234   4.157   4.028  0.5517  0.6088 -0.3111
 2845TIP3    H1 8541   0.201   4.068   4.032 -0.4012  0.9550 -0.2283
 2845TIP3    H2 8542   0.309   4.158   4.088 -1.2176  0.5848  2.0308
 2846TIP3   OH2 8543   1.147   5.695   0.235 -0.4207 -0.2800 -0.2680
 2846TIP3    H1 8544   1.084   5.758   0.271  1.2333  0.2421  1.9550
 2846TIP3    H2 8545   1.147   5.623   0.297  0.0964 -0.9607 -1.0384
 2847TIP3   OH2 8546   0.735   0.253   1.914  0.0848 -0.1563 -0.3726
 2847TIP3    H1 8547   0.760   0.283   1.827 -0.8502  1.0097 -0.2721
 2847TIP3    H2 8548   0.759   0.325   1.972 -1.2692  0.0158  0.0292
 2848TIP3   OH2 8549   4.463   5.175   4.313  0.2585  0.0018 -0.0916
 2848TIP3    H1 8550   4.386   5.157   4.258 -0.1269 -0.4950  0.5904
 2848TIP3    H2 8551   4.533   5.123   4.273 -0.0093 -0.3298 -0.1397
 2849TIP3   OH2 8552   4.041   5.955   5.172 -0.1023  0.1436 -0.0313
 2849TIP3    H1 8553   3.998   5.995   5.097  0.4224  0.6221 -0.0844
 2849TIP3    H2 8554   4.092   6.026   5.212  3.0083 -0.9824 -1.6572
 2850TIP3   OH2 8555   3.110   4.561   2.766  0.0345  0.0887  0.0902
 2850TIP3    H1 8556   3.129   4.549   2.859 -0.4947  0.2449  0.2234
 2850TIP3    H2 8557   3.144   4.648   2.745 -1.1298  0.6733  0.5046
 2851TIP3   OH2 8558   0.359   4.579   1.723  0.3212 -0.5939  0.1489
 2851TIP3    H1 8559   0.444   4.618   1.743 -0.5466  2.2126 -1.0332
 2851TIP3    H2 8560   0.317   4.568   1.809  1.2477 -0.3792  0.6387
 2852TIP3   OH2 8561   0.127   3.205   4.023  0.0387 -0.3346 -0.2239
 2852TIP3    H1 8562   0.070   3.148   3.971  0.3400 -1.8968  1.0586
 2852TIP3    H2 8563   0.185   3.145   4.069  1.9789  1.1562 -0.5976
 2853TIP3   OH2 8564   0.543   2.724   3.428 -0.0539  0.2356  0.4223
 2853TIP3    H1 8565   0.591   2.719   3.510  0.0278  1.6816  0.4781
 2853TIP3    H2 8566   0.461   2.767   3.451 -1.1280 -1.5934  0.1986
 2854TIP3   OH2 8567   4.587   5.879   3.716 -0.2219  0.1808 -0.1053
 2854TIP3    H1 8568   4.596   5.897   3.623 -0.5286 -2.5512 -0.7506
 2854TIP3    H2 8569   4.655   5.933   3.758  0.8925  0.3794 -2.0608
 2855TIP3   OH2 8570   5.837   4.499   1.351 -0.0397  0.1542  0.5313
 2855TIP3    H1 8571   5.810   4.568   1.290 -0.1581  0.1769  0.6092
 2855TIP3    H2 8572   5.923   4.526   1.382  0.3787 -0.2538 -0.2349
 2856TIP3   OH2 8573   2.544   5.687   2.238  0.2051 -0.2652 -0.3919
 2856TIP3    H1 8574   2.580   5.735   2.313  1.7754 -0.1474 -1.1852
 2856TIP3    H2 8575   2.512   5.605   2.276 -0.3319  0.3916  0.6194
 2857TIP3   OH2 8576   5.457   3.997   3.714 -0.4874 -0.3181  0.2786
 2857TIP3    H1 8577   5.405   4.077   3.703 -1.0595 -0.4394  1.8230
 2857TIP3    H2 8578   5.468   3.989   3.808 -2.7925 -3.4838  0.4480
 2858TIP3   OH2 8579   4.342   2.679   4.324  0.3319 -0.0680 -0.1379
 2858TIP3    H1 8580   4.247   2.665   4.325 -0.0222  1.5333 -2.7587
 2858TIP3    H2 8581   4.378   2.596   4.294 -0.1135 -0.8739  1.4043
 2859TIP3   OH2 8582   4.575   2.288   3.878 -0.7039 -0.2887  0.0829
 2859TIP3    H1 8583   4.656   2.238   3.877 -1.0211 -0.8164 -1.0845
 2859TIP3    H2 8584   4.511   2.229   3.919 -0.5680  0.0369  0.7829
 2860TIP3   OH2 8585   4.395   1.882   1.922  0.8323  0.1874  0.0055
 2860TIP3    H1 8586   4.445   1.947   1.971  1.2570 -0.5532  0.5687
 2860TIP3    H2 8587   4.456   1.848   1.856  0.6263  0.3288 -0.2586
 2861TIP3   OH2 8588   3.723   0.608   2.178  0.0165 -0.0639  0.2013
 2861TIP3    H1 8589   3.757   0.562   2.255  0.9904 -1.0228 -0.7632
 2861TIP3    H2 8590   3.681   0.540   2.126  0.0664  0.4174 -0.4872
 2862TIP3   OH2 8591   5.042   3.650   4.917  0.2833 -0.2868  0.0472
 2862TIP3    H1 8592   5.086   3.644   5.002  1.1638  1.3839 -0.2499
 2862TIP3    H2 8593   4.977   3.720   4.928 -1.3527 -1.7281  0.0359
 2863TIP3   OH2 8594   3.184   1.817   3.796 -0.1943  0.0278 -0.1058
 2863TIP3    H1 8595   3.122   1.758   3.751  0.6954 -0.4221 -0.7686
 2863TIP3    H2 8596   3.193   1.779   3.883 -0.2462 -0.3592 -0.2646
 2864TIP3   OH2 8597   0.624   4.666   1.743  0.1809 -0.1701  0.4565
 2864TIP3    H1 8598   0.625   4.658   1.839  0.8599  0.8904  0.5662
 2864TIP3    H2 8599   0.687   4.601   1.713  0.2104 -0.2860  0.7629
 2865TIP3   OH2 8600   4.874   1.930   3.608  0.0893 -0.0821  0.2408
 2865TIP3    H1 8601   4.922   1.953   3.688  1.3780 -0.5812 -0.3704
 2865TIP3    H2 8602   4.929   1.866   3.564 -0.1595  0.8511 -1.5076
 2866TIP3   OH2 8603   3.749   5.415   0.545 -0.2075 -0.0379  0.0026
 2866TIP3    H1 8604   3.676   5.354   0.554  0.9488 -1.9397 -2.2359
 2866TIP3    H2 8605   3.757   5.428   0.450  1.6053  1.0309  0.2618
 2867TIP3   OH2 8606   0.501   4.189   1.105  0.1578 -0.2049 -0.2585
 2867TIP3    H1 8607   0.471   4.248   1.175 -1.3485 -0.5077 -0.6249
 2867TIP3    H2 8608   0.571   4.238   1.062  1.0330  0.0533  1.3574
 2868TIP3   OH2 8609   5.549   3.601   0.544  0.2343 -0.3371 -0.0798
 2868TIP3    H1 8610   5.576   3.633   0.458 -0.7912  0.9841  0.0554
 2868TIP3    H2 8611   5.619   3.541   0.571  1.4306  0.5692 -1.0703
 2869TIP3   OH2 8612   1.702   1.726   4.247  0.1346 -0.3941 -0.0824
 2869TIP3    H1 8613   1.635   1.776   4.201 -0.3694 -0.9857  0.0017
 2869TIP3    H2 8614   1.668   1.637   4.249  0.8277 -0.6544  0.1501
 2870TIP3   OH2 8615   2.766   2.572   4.558  0.4626 -0.1145 -0.3907
 2870TIP3    H1 8616   2.750   2.642   4.494  0.5008 -0.0065 -0.2840
 2870TIP3    H2 8617   2.697   2.508   4.542  0.2170  0.1120 -0.2637
 2871TIP3   OH2 8618   2.629   1.107   3.062  0.0738 -0.0880 -0.0660
 2871TIP3    H1 8619   2.710   1.073   3.026  0.4944 -2.0801  2.4236
 2871TIP3    H2 8620   2.561   1.079   3.000  0.9807 -1.1364 -0.6198
 2872TIP3   OH2 8621   2.593   0.754   0.095  0.1377 -0.3879  0.3094
 2872TIP3    H1 8622   2.661   0.802   0.141  0.3045  0.1462 -0.4657
 2872TIP3    H2 8623   2.515   0.762   0.150  0.5092 -0.3668  0.8319
 2873TIP3   OH2 8624   2.198   5.489   1.070  0.4006  0.8094 -0.3934
 2873TIP3    H1 8625   2.188   5.532   0.985  0.2085  2.2857  0.3415
 2873TIP3    H2 8626   2.268   5.539   1.113  0.5356  0.0391  0.2938
 2874TIP3   OH2 8627   1.276   3.000   2.197 -0.7051  0.1533  0.0531
 2874TIP3    H1 8628   1.315   3.060   2.134 -1.6643  0.6542 -0.0666
 2874TIP3    H2 8629   1.182   3.006   2.183 -1.0730  1.3187  2.4250
 2875TIP3   OH2 8630   2.810   0.038   2.764  0.2493  0.4859 -0.1551
 2875TIP3    H1 8631   2.831   0.014   2.854  0.9709  2.0514  0.1326
 2875TIP3    H2 8632   2.859  -0.025   2.711 -0.0856 -0.3747  0.5226
 2876TIP3   OH2 8633   0.404   0.379   0.130  0.7255 -0.7176 -0.2621
 2876TIP3    H1 8634   0.320   0.400   0.090 -0.0225 -1.8690  0.6598
 2876TIP3    H2 8635   0.407   0.433   0.210  1.0919 -0.3164 -0.5401
 2877TIP3   OH2 8636   4.697   2.934   3.710  0.5935 -0.0822 -0.1869
 2877TIP3    H1 8637   4.764   3.002   3.704  1.7398 -1.2914 -2.1268
 2877TIP3    H2 8638   4.617   2.977   3.680  0.3131  1.4795  2.4799
 2878TIP3   OH2 8639   2.703   3.912   3.577  0.9594  0.0906  0.4541
 2878TIP3    H1 8640   2.696   3.838   3.517  0.5403 -0.1201  0.7588
 2878TIP3    H2 8641   2.736   3.984   3.523 -0.3604  0.1842 -0.2626
 2879TIP3   OH2 8642   5.355   0.334   1.278 -0.1061  0.6967 -0.2570
 2879TIP3    H1 8643   5.321   0.361   1.192 -0.9193  1.1078  0.1809
 2879TIP3    H2 8644   5.315   0.396   1.339 -1.3966 -0.9893  0.6883
 2880TIP3   OH2 8645   4.557   2.173   4.729 -0.6090 -0.0530 -0.0035
 2880TIP3    H1 8646   4.543   2.124   4.810 -2.5001  0.2343 -0.1077
 2880TIP3    H2 8647   4.577   2.262   4.757 -0.8082 -0.0599  0.1666
 2881TIP3   OH2 8648   1.329   3.205   3.678 -0.0655 -0.2458  0.7185
 2881TIP3    H1 8649   1.305   3.297   3.683  1.9393  0.2915  1.8976
 2881TIP3    H2 8650   1.423   3.206   3.658  0.0276 -2.0092  0.9135
 2882TIP3   OH2 8651   3.417   3.232   2.906 -0.1452  0.6403 -0.2189
 2882TIP3    H1 8652   3.399   3.221   2.999  0.0293  0.7816 -0.1686
 2882TIP3    H2 8653   3.493   3.176   2.890 -0.9503 -0.4099 -0.5504
 2883TIP3   OH2 8654   1.815   4.325   1.702 -0.1975 -0.3818 -0.4955
 2883TIP3    H1 8655   1.773   4.392   1.648 -2.1167 -1.5349 -0.5286
 2883TIP3    H2 8656   1.893   4.368   1.737  0.5831  0.7592 -3.2963
 2884TIP3   OH2 8657   2.917   0.267   4.816 -0.0558  0.5349 -0.8437
 2884TIP3    H1 8658   2.849   0.209   4.781 -0.3004  0.9637 -1.0940
 2884TIP3    H2 8659   2.999   0.223   4.797 -0.2888 -0.3326  0.0926
 2885TIP3   OH2 8660   2.663   1.993   5.174 -0.8564  0.3689  0.6404
 2885TIP3    H1 8661   2.741   2.043   5.199 -0.3513  0.3184 -0.7434
 2885TIP3    H2 8662   2.651   2.012   5.081 -1.9749 -0.3398  0.6164
 2886TIP3   OH2 8663   0.833   3.008   0.136 -0.2227 -0.0922 -0.5053
 2886TIP3    H1 8664   0.892   3.003   0.061 -0.7118  0.1559 -0.9099
 2886TIP3    H2 8665   0.751   2.969   0.105 -0.9003  1.3137 -0.5840
 2887TIP3   OH2 8666   4.191   1.694   4.155 -0.4950  0.1973 -0.7486
 2887TIP3    H1 8667   4.244   1.653   4.223 -0.9485  1.1011  0.1911
 2887TIP3    H2 8668   4.251   1.710   4.082  0.2902  0.2979 -0.0885
 2888TIP3   OH2 8669   3.614   2.421   0.571 -0.1735  0.5521 -0.3258
 2888TIP3    H1 8670   3.661   2.391   0.493  1.0061 -0.4199  0.7129
 2888TIP3    H2 8671   3.682   2.437   0.636 -1.2244 -0.5025  1.1162
 2889TIP3   OH2 8672   1.666   3.050   0.424 -0.6869 -0.1394 -0.1337
 2889TIP3    H1 8673   1.643   2.984   0.358  0.8393  0.3528 -1.2131
 2889TIP3    H2 8674   1.610   3.028   0.499 -1.1395 -1.8709 -0.9040
 2890TIP3   OH2 8675   5.430   5.128   4.432 -0.4122 -0.3130  0.5508
 2890TIP3    H1 8676   5.492   5.058   4.409 -0.7786 -0.1208 -1.1484
 2890TIP3    H2 8677   5.434   5.133   4.528  0.8681 -1.5105  0.5937
 2891TIP3   OH2 8678   2.026   0.156   3.541 -0.1899 -0.0171 -0.3878
 2891TIP3    H1 8679   2.018   0.213   3.618 -0.1512  3.1131 -2.4925
 2891TIP3    H2 8680   2.120   0.156   3.522 -0.2977 -0.0564 -0.9142
 2892TIP3   OH2 8681   3.213   2.759   3.223 -0.0426 -0.2434 -0.2879
 2892TIP3    H1 8682   3.294   2.737   3.268 -0.7841  0.2247  1.3664
 2892TIP3    H2 8683   3.155   2.790   3.292 -1.9064 -1.2949 -1.2933
 2893TIP3   OH2 8684   4.359   5.205   3.689 -0.3018 -0.7013  0.0501
 2893TIP3    H1 8685   4.335   5.265   3.618  0.6360 -1.0507 -0.5888
 2893TIP3    H2 8686   4.284   5.207   3.748 -1.2562 -0.6221 -1.1101
 2894TIP3   OH2 8687   2.178   5.497   3.403 -0.3484 -0.5524 -0.3218
 2894TIP3    H1 8688   2.195   5.534   3.316  0.1369  0.1826  0.0760
 2894TIP3    H2 8689   2.248   5.532   3.458 -1.2297 -0.1877  0.5987
 2895TIP3   OH2 8690   1.220   0.040   0.821  0.5133  0.0177  0.1912
 2895TIP3    H1 8691   1.246  -0.048   0.795  0.3244  0.6040 -2.2503
 2895TIP3    H2 8692   1.279   0.098   0.772  0.4634  1.2619  1.5392
 2896TIP3   OH2 8693   2.230   5.458   4.910  0.9333  0.1817  0.3528
 2896TIP3    H1 8694   2.192   5.509   4.982 -0.9348 -0.9879  0.2659
 2896TIP3    H2 8695   2.205   5.506   4.831  2.7522  1.3163  0.3890
 2897TIP3   OH2 8696   1.665   1.217   2.918 -0.6627 -0.1811  0.5152
 2897TIP3    H1 8697   1.706   1.203   2.832  1.6235 -1.3735  1.7204
 2897TIP3    H2 8698   1.649   1.311   2.921 -2.2910 -0.2751 -1.7991
 2898TIP3   OH2 8699   0.608   2.253   4.383 -0.2894 -0.7179  0.0458
 2898TIP3    H1 8700   0.615   2.324   4.318  1.8924 -0.0708  0.8825
 2898TIP3    H2 8701   0.540   2.282   4.443  1.0671  1.1151  0.7982
 2899TIP3   OH2 8702   1.254   5.530   0.461  0.3948 -0.1652  0.8194
 2899TIP3    H1 8703   1.256   5.451   0.516  1.3168  0.0206  1.0718
 2899TIP3    H2 8704   1.321   5.587   0.499  0.4613  0.3083  0.0010
 2900TIP3   OH2 8705   5.922  -0.012   0.734  0.0219 -0.3859 -0.0514
 2900TIP3    H1 8706   6.007   0.032   0.733 -0.5735  0.8696  1.1661
 2900TIP3    H2 8707   5.883   0.009   0.649 -0.1900  1.3897  0.4381
 2901TIP3   OH2 8708   6.237   5.419   3.895  0.1081  0.2992  0.1878
 2901TIP3    H1 8709   6.295   5.477   3.846  0.2637  0.0062  0.0231
 2901TIP3    H2 8710   6.191   5.477   3.955 -0.7683  0.8155 -0.9405
 2902TIP3   OH2 8711   2.675   5.171   3.246 -0.2018 -0.5164 -0.0558
 2902TIP3    H1 8712   2.618   5.208   3.178  0.3142 -0.0368 -0.2342
 2902TIP3    H2 8713   2.649   5.080   3.252 -1.2190 -0.2297  0.0954
 2903TIP3   OH2 8714   2.540   4.428   3.325 -0.6180 -0.1241 -0.1306
 2903TIP3    H1 8715   2.456   4.474   3.330 -1.2183 -1.1474 -0.5113
 2903TIP3    H2 8716   2.554   4.394   3.413 -0.0189  1.0218  0.2345
 2904TIP3   OH2 8717   4.137   1.450   3.187  0.1388 -0.2581  0.1750
 2904TIP3    H1 8718   4.066   1.477   3.245  1.4850  0.9652  1.3443
 2904TIP3    H2 8719   4.195   1.526   3.184  1.2185 -1.0816 -1.0566
 2905TIP3   OH2 8720   3.363   3.858   1.765  0.1418  0.4872  1.2860
 2905TIP3    H1 8721   3.330   3.902   1.843 -1.1385  0.0024  1.0309
 2905TIP3    H2 8722   3.396   3.930   1.710 -1.6422  1.1490  1.0035
 2906TIP3   OH2 8723   2.228   1.375   2.000 -0.3045 -0.6427  0.0419
 2906TIP3    H1 8724   2.233   1.280   1.986 -0.3335 -0.4896 -1.1480
 2906TIP3    H2 8725   2.272   1.390   2.083  1.5300 -1.4967 -0.7216
 2907TIP3   OH2 8726   0.949   3.609   0.903 -0.1546 -0.4083  0.9185
 2907TIP3    H1 8727   1.000   3.682   0.938 -0.2354  0.8421 -1.3910
 2907TIP3    H2 8728   0.864   3.616   0.947  0.8573 -1.1985  3.1759
 2908TIP3   OH2 8729   6.190   0.978   2.861 -0.3569 -0.1695  0.4050
 2908TIP3    H1 8730   6.247   0.909   2.828  0.5643  0.9062 -0.2926
 2908TIP3    H2 8731   6.216   0.989   2.952 -2.2441 -2.4622  1.3343
 2909TIP3   OH2 8732   5.753   4.707   1.173  0.1573  0.1900  0.2207
 2909TIP3    H1 8733   5.683   4.662   1.127  0.4067 -2.0722  1.8752
 2909TIP3    H2 8734   5.810   4.740   1.104 -0.7962 -0.8331 -1.1058
 2910TIP3   OH2 8735   6.112   2.945   3.102 -0.1583  0.4092 -0.0978
 2910TIP3    H1 8736   6.073   2.889   3.035  0.1867 -0.4186  0.3714
 2910TIP3    H2 8737   6.051   3.017   3.112 -0.4649  0.2751 -0.9370
 2911TIP3   OH2 8738   1.904   1.676   5.193 -0.0252 -1.2509 -0.3805
 2911TIP3    H1 8739   1.869   1.714   5.113 -0.0993 -0.9405 -0.2028
 2911TIP3    H2 8740   1.891   1.744   5.260 -0.7004 -1.8065  0.0712
 2912TIP3   OH2 8741   4.817   3.155   4.168 -0.3254 -0.3925 -0.5504
 2912TIP3    H1 8742   4.901   3.109   4.162 -0.0655 -0.3890  1.9500
 2912TIP3    H2 8743   4.754   3.093   4.130  0.6543 -0.8371 -1.5012
 2913TIP3   OH2 8744   5.786   4.174   2.955 -0.0560  0.1134 -0.0434
 2913TIP3    H1 8745   5.848   4.103   2.937 -0.0672 -0.5719  2.2882
 2913TIP3    H2 8746   5.841   4.252   2.959  0.1646  0.0334 -1.1978
 2914TIP3   OH2 8747   0.461   2.586   1.606  0.1207 -0.3937  0.0020
 2914TIP3    H1 8748   0.442   2.639   1.529  0.4864  1.6263  1.2413
 2914TIP3    H2 8749   0.386   2.600   1.664  0.4733 -0.8071  0.5739
 2915TIP3   OH2 8750   2.734   1.523   1.782 -0.0924 -0.8404  0.4324
 2915TIP3    H1 8751   2.669   1.593   1.779  0.9111  0.0933  0.0999
 2915TIP3    H2 8752   2.683   1.443   1.766 -1.0594 -0.0656 -0.5506
 2916TIP3   OH2 8753   5.138   4.829   4.999  0.8506 -0.5784 -0.4155
 2916TIP3    H1 8754   5.059   4.813   4.947  1.2597  1.1551 -1.6470
 2916TIP3    H2 8755   5.207   4.781   4.953  0.8971 -0.4297 -0.5009
 2917TIP3   OH2 8756   1.455   5.183   2.477 -0.5467  0.2921  0.7621
 2917TIP3    H1 8757   1.442   5.204   2.570  0.1096  1.2451  0.6581
 2917TIP3    H2 8758   1.375   5.139   2.451 -1.1427  0.8813  1.5431
 2918TIP3   OH2 8759   2.730   3.483   4.292 -0.2184 -0.2329  0.3706
 2918TIP3    H1 8760   2.755   3.428   4.217 -1.2535 -0.5659  0.2494
 2918TIP3    H2 8761   2.786   3.560   4.286 -0.0742 -0.4031 -0.5725
 2919TIP3   OH2 8762   0.108   1.474   3.338 -0.1824  0.1294 -0.2050
 2919TIP3    H1 8763   0.097   1.389   3.297  1.0101 -1.8785  3.2328
 2919TIP3    H2 8764   0.051   1.472   3.415 -0.1680  2.4889 -0.0359
 2920TIP3   OH2 8765   2.738   3.969   4.913 -0.3608  0.0213  0.7155
 2920TIP3    H1 8766   2.693   4.040   4.959  0.6321  1.6568 -0.6946
 2920TIP3    H2 8767   2.746   3.899   4.977  1.6522  2.4208  3.3420
 2921TIP3   OH2 8768   1.691   4.009   0.498  0.6583 -0.1403 -0.1769
 2921TIP3    H1 8769   1.715   4.026   0.589 -1.8953 -1.2393  0.8085
 2921TIP3    H2 8770   1.669   4.095   0.462  1.9084  0.3241  0.1426
 2922TIP3   OH2 8771   5.236   1.396   4.630 -0.7492 -0.1028  0.4744
 2922TIP3    H1 8772   5.159   1.416   4.576 -0.5692 -0.3333  0.1277
 2922TIP3    H2 8773   5.279   1.481   4.642  0.9108 -0.3919 -2.3554
 2923TIP3   OH2 8774   5.287   5.108   0.543  0.1447  0.3806 -0.0350
 2923TIP3    H1 8775   5.339   5.107   0.463  1.9278  0.8683  1.0488
 2923TIP3    H2 8776   5.304   5.193   0.583 -2.0095  0.8104  0.0961
 2924TIP3   OH2 8777   2.675   2.692   2.388 -0.5229 -0.2432  0.9094
 2924TIP3    H1 8778   2.588   2.670   2.421 -1.0192 -0.3677 -0.4082
 2924TIP3    H2 8779   2.716   2.607   2.371 -1.3515 -0.2392 -1.4344
 2925TIP3   OH2 8780   5.039   4.493   1.505 -0.1653 -0.5269 -0.4222
 2925TIP3    H1 8781   4.989   4.493   1.423 -0.6106 -0.0365 -0.1616
 2925TIP3    H2 8782   5.127   4.520   1.480 -0.7464  1.4611 -0.5048
 2926TIP3   OH2 8783   2.232   5.841   3.294 -0.8754 -0.1052 -0.1434
 2926TIP3    H1 8784   2.252   5.830   3.387 -0.5794 -0.6937 -0.2687
 2926TIP3    H2 8785   2.318   5.856   3.253 -0.9939  0.0538 -0.3329
 2927TIP3   OH2 8786   0.417   4.459   0.828  0.1863 -0.0906  0.5340
 2927TIP3    H1 8787   0.353   4.390   0.811  1.5525 -0.9703 -1.4898
 2927TIP3    H2 8788   0.482   4.417   0.884 -0.2819  0.3806  1.4469
 2928TIP3   OH2 8789   1.556   0.501   2.364 -0.5607  0.3875  0.0646
 2928TIP3    H1 8790   1.517   0.535   2.283 -0.3870  2.0004  0.6274
 2928TIP3    H2 8791   1.486   0.507   2.429 -1.2249 -2.3965 -0.2453
 2929TIP3   OH2 8792   4.663   4.258   0.399 -0.2998 -0.2648  0.5406
 2929TIP3    H1 8793   4.750   4.292   0.415  0.2982 -2.3923  2.3356
 2929TIP3    H2 8794   4.668   4.217   0.312  0.1554  0.5561  0.1772
 2930TIP3   OH2 8795   1.772   2.320   3.719  0.0034  0.1331  0.2946
 2930TIP3    H1 8796   1.789   2.398   3.666  0.1034  0.5484  0.9194
 2930TIP3    H2 8797   1.810   2.341   3.804 -0.6339 -0.2957  0.6947
 2931TIP3   OH2 8798   0.953   4.624   4.058 -0.0999  0.7679  1.1027
 2931TIP3    H1 8799   0.911   4.675   4.127 -0.6168 -0.6343  1.8677
 2931TIP3    H2 8800   0.881   4.589   4.006  0.0696 -1.0322  1.9792
 2932TIP3   OH2 8801   4.232   3.421   4.591  0.0894  0.4688 -0.0161
 2932TIP3    H1 8802   4.162   3.392   4.533 -0.2062 -0.9017  0.9840
 2932TIP3    H2 8803   4.296   3.461   4.532 -1.3231  1.3806 -0.9908
 2933TIP3   OH2 8804   6.344   3.003   3.890  0.7999 -0.4145 -0.1962
 2933TIP3    H1 8805   6.379   2.951   3.962 -1.6887 -1.9638  0.0260
 2933TIP3    H2 8806   6.250   3.007   3.907  0.6561  2.9290 -1.0645
 2934TIP3   OH2 8807   0.848   1.876   4.818  0.0912  0.0573 -0.3356
 2934TIP3    H1 8808   0.836   1.788   4.854  0.1062 -0.1720 -0.8814
 2934TIP3    H2 8809   0.932   1.872   4.773 -0.2394  0.1365 -0.9735
 2935TIP3   OH2 8810   3.695   2.435   2.033  0.1187  0.7695 -0.2614
 2935TIP3    H1 8811   3.762   2.375   2.069  0.0369 -0.2091 -1.6733
 2935TIP3    H2 8812   3.638   2.454   2.108  0.9999  0.2604  0.5672
 2936TIP3   OH2 8813   1.509   4.947   1.423  0.0469  0.0037 -0.3915
 2936TIP3    H1 8814   1.483   4.914   1.509  2.3013 -0.2292  0.2627
 2936TIP3    H2 8815   1.501   5.042   1.430  2.3381  0.1858  0.9320
 2937TIP3   OH2 8816   3.586   4.350   2.830 -0.3857  0.3753 -0.1350
 2937TIP3    H1 8817   3.491   4.346   2.834 -0.3078 -3.3607  1.4110
 2937TIP3    H2 8818   3.611   4.276   2.775  1.6793  1.9876 -1.5373
 2938TIP3   OH2 8819   1.311   1.848   1.486 -0.2830  0.2605  0.4748
 2938TIP3    H1 8820   1.393   1.864   1.439 -0.1720  0.6682  0.8065
 2938TIP3    H2 8821   1.306   1.753   1.491  1.5529  0.1965  2.8204
 2939TIP3   OH2 8822   4.971   0.077   2.404  0.1485  0.1324  0.5566
 2939TIP3    H1 8823   4.993   0.129   2.481  3.4969  0.3566 -0.4075
 2939TIP3    H2 8824   4.978  -0.014   2.434  1.6621  0.2156  0.5422
 2940TIP3   OH2 8825   6.339   5.284   3.068  0.3735  0.2964  0.5247
 2940TIP3    H1 8826   6.279   5.261   2.997  0.9566  0.2316  0.0402
 2940TIP3    H2 8827   6.288   5.342   3.125 -0.8901 -1.5106  1.3414
 2941TIP3   OH2 8828   1.113   4.396   0.755 -0.2436  0.3341 -0.3374
 2941TIP3    H1 8829   1.117   4.470   0.695 -0.8909  0.3664 -0.3438
 2941TIP3    H2 8830   1.160   4.426   0.833 -0.1412  0.5988 -0.4999
 2942TIP3   OH2 8831   2.792   2.595   0.855 -0.4216 -0.0134 -0.0947
 2942TIP3    H1 8832   2.834   2.524   0.904 -2.3455 -0.3246  1.1803
 2942TIP3    H2 8833   2.799   2.672   0.913  1.0023  0.7167 -1.1600
 2943TIP3   OH2 8834   1.044   4.827   3.578 -0.4117  0.4019  0.1668
 2943TIP3    H1 8835   1.098   4.749   3.568 -0.4961  0.5054 -1.2216
 2943TIP3    H2 8836   1.099   4.889   3.627 -0.4996 -0.6492  1.6656
 2944TIP3   OH2 8837   1.658   3.492   1.655  0.1401  0.0172  0.2995
 2944TIP3    H1 8838   1.675   3.560   1.590  0.6207  0.5348  0.9529
 2944TIP3    H2 8839   1.736   3.436   1.652  0.7801  0.8174  1.3642
 2945TIP3   OH2 8840   1.533   3.631   0.589  0.5049  0.4553  0.3446
 2945TIP3    H1 8841   1.619   3.599   0.616  0.6223 -0.0095 -0.5678
 2945TIP3    H2 8842   1.528   3.719   0.627  0.9110  0.0660  1.3532
 2946TIP3   OH2 8843   1.175   2.238   3.808 -0.6595 -0.4426 -0.3600
 2946TIP3    H1 8844   1.167   2.196   3.894 -0.9415 -2.2627 -1.2185
 2946TIP3    H2 8845   1.233   2.180   3.758  1.0748  1.5689 -0.8524
 2947TIP3   OH2 8846   3.908   2.539   4.996  0.0899  0.0680 -0.2217
 2947TIP3    H1 8847   3.916   2.488   5.076 -1.0069  2.5460  1.5975
 2947TIP3    H2 8848   3.816   2.531   4.970  0.2553 -0.0668 -0.7959
 2948TIP3   OH2 8849   6.265   5.209   3.680 -0.1425  0.0421 -0.2794
 2948TIP3    H1 8850   6.176   5.180   3.701 -0.4119  0.4395 -0.8355
 2948TIP3    H2 8851   6.299   5.243   3.763  0.0053 -1.3721  0.2604
 2949TIP3   OH2 8852   0.061   0.512   3.525 -0.5477 -0.4405 -0.3188
 2949TIP3    H1 8853   0.131   0.508   3.460  0.1820 -1.4109  0.5047
 2949TIP3    H2 8854  -0.019   0.513   3.473  0.0516  1.4282 -1.3072
 2950TIP3   OH2 8855   1.915   5.972   3.458 -0.0650 -0.2785  1.0320
 2950TIP3    H1 8856   1.904   5.884   3.494 -0.6402 -0.2839  0.8608
 2950TIP3    H2 8857   1.841   5.983   3.398  2.2797 -1.3235 -2.3516
 2951TIP3   OH2 8858   0.199   4.248   0.881 -0.4186  0.5171 -0.3649
 2951TIP3    H1 8859   0.116   4.229   0.925  0.4487  0.3113  1.2629
 2951TIP3    H2 8860   0.235   4.161   0.861 -0.6961  0.6069 -1.3364
 2952TIP3   OH2 8861   0.322   2.624   4.041 -0.9958 -0.0482 -0.0234
 2952TIP3    H1 8862   0.255   2.652   3.978 -1.0828  0.5111  0.3105
 2952TIP3    H2 8863   0.390   2.582   3.988 -0.4113  1.6371 -0.6613
 2953TIP3   OH2 8864   4.005   2.545   3.417 -0.2784  0.4239 -0.1880
 2953TIP3    H1 8865   3.930   2.502   3.457  2.0084 -1.7509  2.1431
 2953TIP3    H2 8866   4.024   2.492   3.339 -0.1034 -0.1934  0.2608
 2954TIP3   OH2 8867   3.346   2.252   0.246  0.5242  0.5258 -0.1800
 2954TIP3    H1 8868   3.426   2.225   0.200  1.1990  2.1541 -0.0125
 2954TIP3    H2 8869   3.378   2.299   0.323 -0.6141 -0.1471  0.7376
 2955TIP3   OH2 8870   1.145   2.302   4.469 -0.3093  0.3117  0.1049
 2955TIP3    H1 8871   1.073   2.362   4.449 -0.1088  0.0692 -1.4339
 2955TIP3    H2 8872   1.217   2.358   4.498 -1.3874  0.4962  2.6879
 2956TIP3   OH2 8873   0.613   3.017   3.723 -0.1435 -0.0871 -0.0794
 2956TIP3    H1 8874   0.548   2.976   3.666  0.2327 -0.2880 -0.3651
 2956TIP3    H2 8875   0.592   2.983   3.810 -1.7569  1.4867  0.2050
 2957TIP3   OH2 8876   4.784   5.212   0.242 -0.2052 -0.3679  0.6362
 2957TIP3    H1 8877   4.755   5.185   0.155 -1.3180 -1.1004  1.2044
 2957TIP3    H2 8878   4.706   5.250   0.282 -0.1537 -1.4776  1.8643
 2958TIP3   OH2 8879   6.324   4.851   4.496 -0.0512 -0.4349  0.7057
 2958TIP3    H1 8880   6.230   4.857   4.478 -0.4399 -0.5331  2.5600
 2958TIP3    H2 8881   6.359   4.803   4.421 -1.4729 -0.4307 -0.0020
 2959TIP3   OH2 8882   5.549   1.690   2.556  0.0253  0.2741  0.6453
 2959TIP3    H1 8883   5.558   1.751   2.483  2.2561 -1.2421 -0.4386
 2959TIP3    H2 8884   5.613   1.719   2.621  1.4715 -1.1411 -0.0965
 2960TIP3   OH2 8885   5.047   0.840   0.825 -0.0338 -0.3523 -0.2714
 2960TIP3    H1 8886   5.088   0.754   0.824  0.9611  0.1028 -0.4209
 2960TIP3    H2 8887   5.005   0.847   0.739 -0.4836 -0.8484 -0.0963
 2961TIP3   OH2 8888   3.046   2.574   4.554  0.2653 -0.2410 -0.2223
 2961TIP3    H1 8889   2.984   2.647   4.547  1.1259  0.4071 -1.3290
 2961TIP3    H2 8890   3.125   2.613   4.590  0.4472 -0.8134 -0.0006
 2962TIP3   OH2 8891   0.428   1.116   1.056  0.3040  0.0567  0.4379
 2962TIP3    H1 8892   0.374   1.046   1.092  0.0655  0.7650  1.5077
 2962TIP3    H2 8893   0.378   1.196   1.072  0.4289  0.4639 -1.0448
 2963TIP3   OH2 8894   4.981   2.942   0.023  0.3329  0.0188 -0.0006
 2963TIP3    H1 8895   5.069   2.914  -0.002  0.7951  0.2031  1.3226
 2963TIP3    H2 8896   4.982   3.037   0.010  0.8063  0.2131  1.3028
 2964TIP3   OH2 8897   2.122   3.375   3.558 -0.4096  0.1439  0.0546
 2964TIP3    H1 8898   2.081   3.434   3.494 -1.1522 -1.9619 -1.4969
 2964TIP3    H2 8899   2.121   3.289   3.516  3.5324 -0.5066  0.8882
 2965TIP3   OH2 8900   1.224   3.107   4.270  0.1428  0.3019 -0.0988
 2965TIP3    H1 8901   1.193   3.138   4.185  2.2338  1.4241 -0.5012
 2965TIP3    H2 8902   1.153   3.128   4.331 -0.7365  0.8813 -1.2892
 2966TIP3   OH2 8903   1.048   3.633   2.544  0.3730  0.4032  0.0601
 2966TIP3    H1 8904   1.008   3.694   2.606  1.0630  2.0867 -1.0870
 2966TIP3    H2 8905   1.061   3.553   2.595 -0.5373  1.1943  1.6280
 2967TIP3   OH2 8906   2.813   2.343   1.230 -0.4590 -0.2233  0.4060
 2967TIP3    H1 8907   2.844   2.414   1.173 -2.7423  1.3593  1.0229
 2967TIP3    H2 8908   2.858   2.265   1.197 -0.5557  0.8720 -2.5933
 2968TIP3   OH2 8909   4.275   2.583   1.930 -0.1463  0.0673 -0.3831
 2968TIP3    H1 8910   4.198   2.640   1.924  0.0373  0.3958  0.2735
 2968TIP3    H2 8911   4.252   2.505   1.879 -1.2809 -0.2407  0.5689
 2969TIP3   OH2 8912   6.103   4.552   3.860  0.2012 -0.0890 -0.1971
 2969TIP3    H1 8913   6.122   4.519   3.948  2.1810  0.0488 -0.5437
 2969TIP3    H2 8914   6.011   4.527   3.845  0.6366 -2.6250  0.7879
 2970TIP3   OH2 8915   2.696   1.321   3.989 -0.1976  0.4647  0.4065
 2970TIP3    H1 8916   2.637   1.385   3.951  0.3502  1.0981  0.6015
 2970TIP3    H2 8917   2.649   1.238   3.983 -1.9518  1.2299  2.3172
 2971TIP3   OH2 8918   2.727   4.546   0.187  0.6397 -0.3164  0.2635
 2971TIP3    H1 8919   2.786   4.612   0.151  0.6849 -0.6099 -0.2074
 2971TIP3    H2 8920   2.723   4.478   0.120  0.1578 -0.5322  0.5044
 2972TIP3   OH2 8921   6.250   1.648   1.780  0.1585 -0.3440  0.0085
 2972TIP3    H1 8922   6.176   1.701   1.751 -0.3556 -0.1973  1.5523
 2972TIP3    H2 8923   6.315   1.659   1.710 -1.2997 -0.5836 -1.4386
 2973TIP3   OH2 8924   5.772   0.671   2.604  0.1704 -0.2676  0.2643
 2973TIP3    H1 8925   5.729   0.605   2.659 -1.3583  0.4648 -0.0058
 2973TIP3    H2 8926   5.804   0.621   2.528  1.5596 -1.1441  1.3647
 2974TIP3   OH2 8927   3.904   5.768   1.232 -0.8870 -0.3208  0.1919
 2974TIP3    H1 8928   3.878   5.851   1.272 -0.8573  0.1037 -0.6481
 2974TIP3    H2 8929   3.821   5.722   1.217 -0.9802 -0.0233 -0.2281
 2975TIP3   OH2 8930   2.661   5.319   1.770  0.5313 -0.4832 -0.6588
 2975TIP3    H1 8931   2.570   5.297   1.752 -0.1740  1.6584  0.0905
 2975TIP3    H2 8932   2.706   5.305   1.686 -1.0660  1.2277 -1.8691
 2976TIP3   OH2 8933   5.279   3.683   1.355  0.1981 -0.1772  0.2796
 2976TIP3    H1 8934   5.192   3.702   1.320 -0.1664 -2.0943  0.0555
 2976TIP3    H2 8935   5.316   3.620   1.293  1.9042  0.8698  0.1909
 2977TIP3   OH2 8936   3.014   1.499   5.149  0.2336  0.3941  0.2445
 2977TIP3    H1 8937   2.936   1.484   5.095  0.5099  0.7026 -0.2529
 2977TIP3    H2 8938   2.982   1.500   5.239 -0.6622  2.4569 -0.0420
 2978TIP3   OH2 8939   5.581   1.800   4.305 -0.1517  0.5763  0.1287
 2978TIP3    H1 8940   5.510   1.812   4.368  1.3121  3.0502  1.4405
 2978TIP3    H2 8941   5.653   1.764   4.357  0.8601  2.0049 -0.2211
 2979TIP3   OH2 8942   1.936   4.510   1.045  0.6278 -0.4446  0.6985
 2979TIP3    H1 8943   1.981   4.467   0.972  0.8678  0.6844  0.1530
 2979TIP3    H2 8944   1.972   4.599   1.045 -1.0568  0.2744  0.7162
 2980TIP3   OH2 8945   3.164   5.809   2.837  0.1639  0.5926  0.3633
 2980TIP3    H1 8946   3.132   5.724   2.869  0.7739  0.7563  1.4376
 2980TIP3    H2 8947   3.219   5.842   2.908 -0.3419  2.0485  0.1034
 2981TIP3   OH2 8948   0.545   5.276   3.079 -0.2513  0.6292  0.5298
 2981TIP3    H1 8949   0.574   5.197   3.124 -1.0005  0.6137  1.0077
 2981TIP3    H2 8950   0.449   5.269   3.077 -0.3638  1.7826  1.0510
 2982TIP3   OH2 8951   4.120   0.329   5.188  0.2669 -0.0318  0.2760
 2982TIP3    H1 8952   4.087   0.417   5.170 -0.4523 -0.4485 -0.5737
 2982TIP3    H2 8953   4.189   0.315   5.123 -1.3658 -1.0109 -1.3704
 2983TIP3   OH2 8954   0.925   2.300   2.079 -0.5192  0.1218  0.3476
 2983TIP3    H1 8955   0.919   2.333   1.989 -1.0939 -0.1165  0.2968
 2983TIP3    H2 8956   0.851   2.241   2.088 -2.5622  2.7076  2.0525
 2984TIP3   OH2 8957   4.213   1.310   1.511  0.3696  0.2996  0.2362
 2984TIP3    H1 8958   4.150   1.285   1.444 -1.4413 -0.5207  2.1130
 2984TIP3    H2 8959   4.268   1.377   1.470 -0.5532 -0.2837 -2.0511
 2985TIP3   OH2 8960   5.879   2.858   4.269  0.1927 -0.1625 -0.0182
 2985TIP3    H1 8961   5.953   2.799   4.261  0.5929  0.5110 -2.1574
 2985TIP3    H2 8962   5.906   2.923   4.334  0.7674 -0.9108  0.4957
 2986TIP3   OH2 8963   5.322   1.946   2.441  0.3862  0.2972 -0.1456
 2986TIP3    H1 8964   5.331   1.982   2.529  1.2208 -0.5475  0.1314
 2986TIP3    H2 8965   5.279   1.861   2.454  1.7894 -0.4806 -0.3794
 2987TIP3   OH2 8966   1.952   4.050   1.075  0.0676 -0.3968 -0.0830
 2987TIP3    H1 8967   1.984   4.045   0.985  1.0988 -1.0613  0.3064
 2987TIP3    H2 8968   1.987   3.972   1.117 -0.3323 -0.0465  0.9217
 2988TIP3   OH2 8969   5.987   2.829   5.106 -0.5296 -0.6476 -0.1665
 2988TIP3    H1 8970   5.894   2.824   5.126 -0.7245  0.9385 -0.5131
 2988TIP3    H2 8971   6.003   2.922   5.089  0.8707 -1.0437 -1.2584
 2989TIP3   OH2 8972   2.318   2.625   0.723  0.0833 -0.0500 -0.6211
 2989TIP3    H1 8973   2.309   2.604   0.630  0.0396  0.9819 -0.8656
 2989TIP3    H2 8974   2.369   2.552   0.759  1.0694  0.0863 -1.6808
 2990TIP3   OH2 8975   1.968   5.575   4.787 -0.1929 -0.3057 -0.0475
 2990TIP3    H1 8976   1.932   5.487   4.789  1.6859 -1.1110  1.0287
 2990TIP3    H2 8977   1.910   5.626   4.845 -1.9820 -0.4754 -1.5880
 2991TIP3   OH2 8978   5.285   2.643   2.689  0.1988 -0.5399  0.0607
 2991TIP3    H1 8979   5.232   2.710   2.647  1.3832  0.4969  0.1348
 2991TIP3    H2 8980   5.311   2.682   2.772  0.9238 -1.0784  0.1012
 2992TIP3   OH2 8981   2.532   2.966   2.754  0.4212  0.1438 -0.2097
 2992TIP3    H1 8982   2.490   2.890   2.795 -0.3341  0.9980  0.6427
 2992TIP3    H2 8983   2.480   2.982   2.675 -0.1294  0.4728  0.2163
 2993TIP3   OH2 8984   1.674   5.360   0.506  0.2366 -0.9596 -0.1784
 2993TIP3    H1 8985   1.629   5.341   0.423  0.1076 -3.0465  0.2979
 2993TIP3    H2 8986   1.766   5.367   0.481  0.0819 -0.4756 -0.6402
 2994TIP3   OH2 8987   1.820   1.250   3.892 -0.3081 -0.0454  0.3291
 2994TIP3    H1 8988   1.840   1.238   3.985 -1.5299  1.2858  0.8063
 2994TIP3    H2 8989   1.730   1.284   3.891 -0.6880 -0.9803 -1.4033
 2995TIP3   OH2 8990   2.004   5.325   1.720 -0.9501 -0.0786  0.0654
 2995TIP3    H1 8991   1.996   5.418   1.744  0.4808 -0.0354  0.4528
 2995TIP3    H2 8992   2.054   5.286   1.792 -2.0248 -1.2923  0.2019
 2996TIP3   OH2 8993   1.526   2.885   3.515  0.0795 -0.0056  0.3732
 2996TIP3    H1 8994   1.467   2.840   3.575  0.6778  1.1540  1.8698
 2996TIP3    H2 8995   1.569   2.814   3.467 -0.3445 -0.9651  1.3646
 2997TIP3   OH2 8996   3.583   3.331   1.641 -0.0091 -0.2969 -0.6663
 2997TIP3    H1 8997   3.639   3.268   1.596 -2.8952 -2.7253 -1.1936
 2997TIP3    H2 8998   3.521   3.360   1.574  0.8949  2.8756 -0.3018
 2998TIP3   OH2 8999   4.388   4.611   1.383  0.1473 -0.7109  0.4835
 2998TIP3    H1 9000   4.421   4.624   1.294 -0.6087 -0.7660  0.1841
 2998TIP3    H2 9001   4.316   4.674   1.391 -1.1547 -2.1124  0.3107
 2999TIP3   OH2 9002   6.274   2.054   4.828 -0.0039 -0.0843 -0.0354
 2999TIP3    H1 9003   6.264   2.049   4.732 -0.7378  0.3472  0.0124
 2999TIP3    H2 9004   6.364   2.025   4.844 -0.2625 -1.4004 -0.7445
 3000TIP3   OH2 9005   4.644   5.752   0.550  1.0063 -0.2055  0.1726
 3000TIP3    H1 9006   4.692   5.718   0.474  0.1134 -0.2087 -0.4105
 3000TIP3    H2 9007   4.643   5.847   0.537  1.2234 -0.1688  0.4134
 3001TIP3   OH2 9008   1.636   2.703   4.940  0.0524 -0.1934 -0.7617
 3001TIP3    H1 9009   1.651   2.797   4.945  0.3620 -0.2333 -0.8910
 3001TIP3    H2 9010   1.722   2.664   4.957  0.0061 -0.4427 -1.0739
 3002TIP3   OH2 9011   3.360   4.256   2.036  0.1549  0.3953 -0.7044
 3002TIP3    H1 9012   3.287   4.307   2.002 -1.4809 -0.8134  0.8013
 3002TIP3    H2 9013   3.341   4.166   2.008  2.2197  0.3283 -2.0943
 3003TIP3   OH2 9014   4.012   3.932   1.882 -0.3449  1.0060  0.4915
 3003TIP3    H1 9015   4.034   3.840   1.898 -0.8423  1.0337  1.4361
 3003TIP3    H2 9016   3.939   3.950   1.941  1.6137  2.8016  2.5710
 3004TIP3   OH2 9017   4.183   4.518   3.370  0.1630  0.2606  0.2851
 3004TIP3    H1 9018   4.258   4.565   3.406  0.7901 -0.5435  0.0712
 3004TIP3    H2 9019   4.183   4.434   3.416 -0.6266  0.2566  0.2943
 3005TIP3   OH2 9020   4.927   4.914   0.650  0.3417  0.3023  0.2358
 3005TIP3    H1 9021   5.013   4.955   0.642 -0.0158  0.8010 -1.2258
 3005TIP3    H2 9022   4.885   4.926   0.565 -0.5919 -1.2895  0.4147
 3006TIP3   OH2 9023   6.186   3.294   2.447 -0.1853 -0.0047 -0.0978
 3006TIP3    H1 9024   6.119   3.341   2.497  0.4056  0.1329  0.5780
 3006TIP3    H2 9025   6.252   3.361   2.427  0.2048 -0.3365  0.0659
 3007TIP3   OH2 9026   2.623   4.888   2.941  0.4465 -0.3346 -0.2549
 3007TIP3    H1 9027   2.601   4.915   3.030 -0.6420  0.8631 -0.8534
 3007TIP3    H2 9028   2.566   4.812   2.924 -0.9431  0.7485 -0.6432
 3008TIP3   OH2 9029   3.384   0.349   2.842  0.0236 -0.5571  0.0274
 3008TIP3    H1 9030   3.393   0.409   2.767 -1.0947  1.3257  1.3315
 3008TIP3    H2 9031   3.314   0.289   2.816 -2.1393  1.6307  0.4495
 3009TIP3   OH2 9032   4.065   0.152   4.227  0.1717  0.3773  0.5730
 3009TIP3    H1 9033   4.064   0.061   4.256  0.7673  0.8541  2.2189
 3009TIP3    H2 9034   3.974   0.180   4.235  0.0504  0.0287  0.4248
 3010TIP3   OH2 9035   5.063   5.642   2.518 -0.1776 -0.5408 -0.1681
 3010TIP3    H1 9036   5.002   5.620   2.448 -0.2326 -0.8641 -0.0190
 3010TIP3    H2 9037   5.075   5.561   2.567 -0.5169 -0.2042  0.4858
 3011TIP3   OH2 9038   4.677   1.392   1.529 -0.9394  0.5786  0.0522
 3011TIP3    H1 9039   4.607   1.456   1.515 -0.7327  0.8958  0.4440
 3011TIP3    H2 9040   4.679   1.341   1.448 -1.4906  0.6952 -0.0422
 3012TIP3   OH2 9041   3.884   5.839   4.923  0.2605 -0.0000 -0.0083
 3012TIP3    H1 9042   3.838   5.760   4.953 -0.1491 -0.0899 -0.8511
 3012TIP3    H2 9043   3.879   5.835   4.828 -0.3857  1.3990 -0.0661
 3013TIP3   OH2 9044   0.569   1.651   3.374 -0.2243 -0.5748  0.5184
 3013TIP3    H1 9045   0.649   1.628   3.422  0.3366 -1.3082 -0.7307
 3013TIP3    H2 9046   0.502   1.656   3.442  0.6842 -0.9104  1.4729
 3014TIP3   OH2 9047   1.318   2.984   1.518  0.2495 -0.5426  0.0450
 3014TIP3    H1 9048   1.303   3.044   1.444  0.5879 -1.0501 -0.4423
 3014TIP3    H2 9049   1.294   3.035   1.595  0.0727  0.0628 -0.4003
 3015TIP3   OH2 9050   1.063   5.837   4.835 -0.1259  0.2662  0.8372
 3015TIP3    H1 9051   0.983   5.785   4.840  1.2285 -1.8503  1.5963
 3015TIP3    H2 9052   1.033   5.927   4.850 -2.3922 -0.4048  0.7873
 3016TIP3   OH2 9053   3.015   4.578   1.891 -0.7244 -0.0924  0.5724
 3016TIP3    H1 9054   2.928   4.561   1.927 -1.0864 -2.3801 -1.1250
 3016TIP3    H2 9055   2.999   4.630   1.813 -0.4317  0.4624  0.8730
 3017TIP3   OH2 9056   1.957   4.861   1.776 -0.3391 -0.0375  0.3429
 3017TIP3    H1 9057   1.992   4.820   1.697  0.6869 -0.8728  1.2020
 3017TIP3    H2 9058   2.018   4.932   1.796 -0.2483 -0.2178  0.7191
 3018TIP3   OH2 9059   4.802   5.239   5.165  0.2014  0.3721 -0.2227
 3018TIP3    H1 9060   4.861   5.212   5.094  1.3748 -2.6410  1.6775
 3018TIP3    H2 9061   4.742   5.164   5.175  0.8047  0.1965  2.6438
 3019TIP3   OH2 9062   5.776   0.655   3.484  0.1826  0.2389  0.4451
 3019TIP3    H1 9063   5.797   0.665   3.391  1.8870  0.6357  0.8493
 3019TIP3    H2 9064   5.726   0.734   3.505  2.7403  1.9027  0.6270
 3020TIP3   OH2 9065   1.667   4.664   1.131 -0.0840 -0.1111  0.4042
 3020TIP3    H1 9066   1.710   4.742   1.096  1.3823 -0.5842  1.0607
 3020TIP3    H2 9067   1.656   4.683   1.225  0.7863 -0.8975  0.6757
 3021TIP3   OH2 9068   4.000   2.340   0.489 -0.0329 -0.5321 -0.4832
 3021TIP3    H1 9069   4.052   2.347   0.569  1.9586 -2.0300 -1.5587
 3021TIP3    H2 9070   4.023   2.418   0.439 -2.7536  1.4708  1.0501
 3022TIP3   OH2 9071   0.293   3.719   0.652 -0.3589  0.2623 -0.3223
 3022TIP3    H1 9072   0.343   3.639   0.668  0.2520  0.9312  1.3030
 3022TIP3    H2 9073   0.226   3.720   0.720  0.3147  1.6440  0.3502
 3023TIP3   OH2 9074   3.383   3.916   1.424 -0.0532 -0.4843 -0.0465
 3023TIP3    H1 9075   3.290   3.912   1.449 -0.1736 -0.2094 -0.4344
 3023TIP3    H2 9076   3.421   3.980   1.485  0.5108 -2.6324  1.9762
 3024TIP3   OH2 9077   3.992   3.543   4.194 -0.8786  0.5911 -0.2567
 3024TIP3    H1 9078   3.935   3.556   4.270  0.1157 -0.9242  0.8042
 3024TIP3    H2 9079   4.042   3.624   4.187 -0.9104  0.7114  0.7831
 3025TIP3   OH2 9080   5.290   4.175   1.840  0.1135  0.4439 -0.2458
 3025TIP3    H1 9081   5.216   4.228   1.809  0.2180  0.6931 -0.0800
 3025TIP3    H2 9082   5.287   4.096   1.787  0.6001  1.0789 -1.2747
 3026TIP3   OH2 9083   1.246   2.498   3.692 -0.4482 -0.1709 -0.0815
 3026TIP3    H1 9084   1.227   2.405   3.675 -1.4098  0.0108 -0.0733
 3026TIP3    H2 9085   1.176   2.525   3.751 -1.4385  1.1180 -1.7816
 3027TIP3   OH2 9086   5.305   4.193   2.432 -0.1237  0.6655  0.0458
 3027TIP3    H1 9087   5.218   4.222   2.403 -0.7623 -0.9066  0.2592
 3027TIP3    H2 9088   5.319   4.111   2.386  1.2483  0.8837  0.0531
 3028TIP3   OH2 9089   2.201   2.312   2.410  0.2739  0.3794  0.3607
 3028TIP3    H1 9090   2.204   2.218   2.393 -0.4460  0.2226  1.0283
 3028TIP3    H2 9091   2.232   2.322   2.500 -0.4726  0.6759  0.5962
 3029TIP3   OH2 9092   2.366   5.669   4.030  0.3621  0.2565  0.4775
 3029TIP3    H1 9093   2.430   5.736   4.007  1.6729 -1.1337 -0.0685
 3029TIP3    H2 9094   2.399   5.631   4.111 -0.4456  0.3439  0.8569
 3030TIP3   OH2 9095   5.560   2.436   4.016 -0.7386 -0.1294 -0.4724
 3030TIP3    H1 9096   5.583   2.513   3.964 -0.8501  1.7075  2.0126
 3030TIP3    H2 9097   5.640   2.414   4.064 -0.9516 -1.0276 -0.5091
 3031TIP3   OH2 9098   4.437   1.851   4.871  0.3778  0.2576 -0.0798
 3031TIP3    H1 9099   4.388   1.928   4.843  3.6390  1.6511 -2.6530
 3031TIP3    H2 9100   4.496   1.884   4.939  2.3564  0.3450 -1.7535
 3032TIP3   OH2 9101   0.252   2.434   0.491  0.1018 -0.1407 -0.5458
 3032TIP3    H1 9102   0.187   2.496   0.525  0.9350 -1.3969  4.1544
 3032TIP3    H2 9103   0.334   2.482   0.493  0.6269 -0.9614  2.4031
 3033TIP3   OH2 9104   2.830   1.049   2.878 -0.8548  0.0667  0.1789
 3033TIP3    H1 9105   2.861   1.119   2.821  1.7555  1.2269  2.7714
 3033TIP3    H2 9106   2.824   0.972   2.822  2.1150  0.9904 -1.5872
 3034TIP3   OH2 9107   4.825   3.247   1.712  0.0585 -0.0223  0.9253
 3034TIP3    H1 9108   4.863   3.196   1.640 -0.2322 -0.4769  1.0908
 3034TIP3    H2 9109   4.883   3.232   1.786  0.7669  1.0212  0.6105
 3035TIP3   OH2 9110   0.957   2.049   1.588  0.3574 -0.2300 -0.2331
 3035TIP3    H1 9111   0.973   2.141   1.563 -2.0748  0.6465  1.1093
 3035TIP3    H2 9112   1.028   2.028   1.648  0.3691  1.1705  0.2870
 3036TIP3   OH2 9113   3.156   3.144   2.533  0.3279 -0.1136  0.0102
 3036TIP3    H1 9114   3.206   3.107   2.605  0.8202 -1.7328 -1.1197
 3036TIP3    H2 9115   3.180   3.237   2.533  2.1016 -0.5257  0.5078
 3037TIP3   OH2 9116   2.754   3.076   3.301  0.1477 -0.8635 -0.1246
 3037TIP3    H1 9117   2.723   3.060   3.390 -0.0512 -0.1784 -0.0602
 3037TIP3    H2 9118   2.716   3.006   3.249 -0.7344 -0.5848  0.1239
 3038TIP3   OH2 9119   5.686   2.041   2.657  0.0872 -0.6606  0.6660
 3038TIP3    H1 9120   5.610   2.099   2.650 -0.8690 -1.9751 -0.3132
 3038TIP3    H2 9121   5.761   2.099   2.646 -0.8418  0.3604 -0.7696
 3039TIP3   OH2 9122   0.045   1.751   3.972  0.1409  0.6541  0.0540
 3039TIP3    H1 9123   0.054   1.656   3.973  2.0569  0.7948 -0.3262
 3039TIP3    H2 9124   0.110   1.781   3.908 -1.2539  2.1571 -0.7424
 3040TIP3   OH2 9125   3.233   1.065   3.631  0.1604 -0.2663  0.2945
 3040TIP3    H1 9126   3.277   1.148   3.611 -0.6341 -0.0900 -0.8490
 3040TIP3    H2 9127   3.294   0.998   3.600  0.2200 -0.0679 -0.0256
 3041TIP3   OH2 9128   3.328   2.117   4.588 -0.1886 -0.0982  0.0039
 3041TIP3    H1 9129   3.278   2.113   4.506  1.6972  0.2937 -1.2369
 3041TIP3    H2 9130   3.417   2.091   4.563  0.8741  1.7912  1.5605
 3042TIP3   OH2 9131   4.872   0.308   4.529  0.0969  0.4403 -0.0337
 3042TIP3    H1 9132   4.925   0.230   4.511 -1.5351 -0.4946 -1.0492
 3042TIP3    H2 9133   4.921   0.380   4.489  0.1380 -0.5488 -1.8705
 3043TIP3   OH2 9134   5.299   2.032   1.872  0.1692 -0.0943  0.0378
 3043TIP3    H1 9135   5.204   2.031   1.869  0.1602 -1.1489  0.0529
 3043TIP3    H2 9136   5.325   2.107   1.819 -0.6496 -0.1684 -0.4804
 3044TIP3   OH2 9137   3.642   5.920   2.811  0.0509 -0.2191  0.1241
 3044TIP3    H1 9138   3.642   5.863   2.734 -0.5167 -1.8280  1.2504
 3044TIP3    H2 9139   3.696   5.873   2.875 -0.2452  0.6300  1.0176
 3045TIP3   OH2 9140   0.584   2.307   5.016  0.3557 -0.1358 -0.3090
 3045TIP3    H1 9141   0.663   2.272   4.973  0.6297  0.5008 -0.3364
 3045TIP3    H2 9142   0.616   2.339   5.100  0.6264  2.3088 -1.2522
 3046TIP3   OH2 9143   1.861   2.103   0.047 -0.0753 -0.0952  0.4303
 3046TIP3    H1 9144   1.885   2.189   0.012  0.0780 -0.1201  0.4733
 3046TIP3    H2 9145   1.928   2.085   0.113 -0.8349  0.3286  1.3332
 3047TIP3   OH2 9146   1.006   5.603   5.058 -0.1471 -0.1583  0.5805
 3047TIP3    H1 9147   1.089   5.640   5.088  0.1423  0.2350 -0.6280
 3047TIP3    H2 9148   0.955   5.680   5.030  0.6922 -0.5924 -2.5564
 3048TIP3   OH2 9149   1.344   4.662   0.266 -0.2421 -0.3819 -0.2545
 3048TIP3    H1 9150   1.388   4.581   0.241 -0.6788 -0.5594 -0.4572
 3048TIP3    H2 9151   1.413   4.728   0.267  0.3766 -1.0154  1.2265
 3049TIP3   OH2 9152   5.119   1.351   2.549 -0.4110 -0.0039 -0.3621
 3049TIP3    H1 9153   5.028   1.370   2.527 -0.3461  1.6768  0.6365
 3049TIP3    H2 9154   5.150   1.429   2.595  1.1588 -1.0430  0.4668
 3050TIP3   OH2 9155   4.833   4.386   3.447 -0.2916 -0.1081  0.1902
 3050TIP3    H1 9156   4.827   4.330   3.370  0.7919  0.9528 -0.7109
 3050TIP3    H2 9157   4.847   4.474   3.412 -0.9930  0.5880  1.5850
 3051TIP3   OH2 9158   1.943   2.802   0.701  0.0320 -0.4291 -0.0776
 3051TIP3    H1 9159   1.964   2.757   0.783  0.6509  0.3022  0.1698
 3051TIP3    H2 9160   1.881   2.871   0.727 -1.5050 -1.5818 -0.5659
 3052TIP3   OH2 9161   2.473   3.892   3.338 -0.2037 -0.6168  0.3182
 3052TIP3    H1 9162   2.561   3.858   3.323  0.2189  0.7421 -0.4306
 3052TIP3    H2 9163   2.459   3.955   3.266 -2.2557 -1.6975 -0.3104
 3053TIP3   OH2 9164   0.406   4.225   1.856  0.5360  0.0097  0.3907
 3053TIP3    H1 9165   0.361   4.169   1.920  0.5914  0.5756  0.9402
 3053TIP3    H2 9166   0.353   4.304   1.852  0.7538  0.1385  0.0297
 3054TIP3   OH2 9167   0.276   2.258   4.505 -0.1689 -0.4500  0.0269
 3054TIP3    H1 9168   0.332   2.181   4.509  0.8747  0.3085  0.1949
 3054TIP3    H2 9169   0.255   2.278   4.596  1.2956  0.6937  0.1443
 3055TIP3   OH2 9170   1.835   5.074   2.356 -0.3363 -0.3385  0.1770
 3055TIP3    H1 9171   1.896   5.023   2.302 -0.1853 -1.9569  1.7717
 3055TIP3    H2 9172   1.892   5.133   2.406 -0.0918 -1.4617  1.2616
 3056TIP3   OH2 9173   2.713   2.583   3.113 -0.1648 -0.5403 -0.2519
 3056TIP3    H1 9174   2.806   2.576   3.131 -0.1137 -0.1065 -0.3468
 3056TIP3    H2 9175   2.674   2.507   3.157  0.6038 -2.6645 -2.9876
 3057TIP3   OH2 9176   3.546   0.892   4.711 -0.0140 -0.4805  0.1328
 3057TIP3    H1 9177   3.465   0.878   4.761 -1.7724  2.1312 -1.6784
 3057TIP3    H2 9178   3.546   0.985   4.692  2.8366 -0.6258 -1.0305
 3058TIP3   OH2 9179   2.119   5.234   3.319  0.5215 -0.1403  0.3515
 3058TIP3    H1 9180   2.033   5.248   3.360  0.5223  0.2255  0.2302
 3058TIP3    H2 9181   2.163   5.318   3.328  0.4316  0.0191 -0.6143
 3059TIP3   OH2 9182   2.182   4.927   0.467 -0.0402 -0.2460 -0.0616
 3059TIP3    H1 9183   2.240   4.860   0.431 -0.1027  0.4321 -1.5111
 3059TIP3    H2 9184   2.241   4.994   0.500  0.1412  1.4413 -3.4283
 3060TIP3   OH2 9185   2.814   1.054   3.347  0.0131 -0.1308  0.1485
 3060TIP3    H1 9186   2.772   0.976   3.312 -0.5111  0.4387 -0.5275
 3060TIP3    H2 9187   2.872   1.084   3.277  0.2708  0.0420  0.4323
 3061TIP3   OH2 9188   1.246   0.081   1.094 -0.3572 -0.1816 -0.8055
 3061TIP3    H1 9189   1.164   0.089   1.143 -1.3429 -0.8557 -2.2554
 3061TIP3    H2 9190   1.218   0.075   1.002  1.4682  3.1212 -1.7592
 3062TIP3   OH2 9191   2.895   1.069   1.264  0.3076  0.0706  0.1460
 3062TIP3    H1 9192   2.846   1.041   1.341 -0.3694 -1.0324 -0.6492
 3062TIP3    H2 9193   2.828   1.098   1.202  0.7029 -0.6119 -0.6267
 3063TIP3   OH2 9194   2.522   5.979   4.934  0.5147  0.2706  0.2583
 3063TIP3    H1 9195   2.497   5.893   4.899  0.3460  0.1112  0.7635
 3063TIP3    H2 9196   2.584   6.014   4.870 -1.5737  1.0252 -1.4697
 3064TIP3   OH2 9197   3.176   0.429   1.607  0.1065  0.4182  0.5552
 3064TIP3    H1 9198   3.164   0.435   1.701 -0.2241 -1.7505  0.7071
 3064TIP3    H2 9199   3.180   0.335   1.589  3.1896  0.7354 -1.2314
 3065TIP3   OH2 9200   0.258   3.563   5.156 -0.1688  0.3576  0.1052
 3065TIP3    H1 9201   0.262   3.573   5.251  1.8016  1.5691 -0.0385
 3065TIP3    H2 9202   0.165   3.570   5.134 -0.4743  2.3226  1.7586
 3066TIP3   OH2 9203   2.758   4.299   1.759 -0.1812  0.0490 -0.8242
 3066TIP3    H1 9204   2.847   4.263   1.755 -0.1488  0.0859 -0.4838
 3066TIP3    H2 9205   2.702   4.222   1.770 -0.0575  0.1260  0.6227
 3067TIP3   OH2 9206   6.015   4.324   3.118 -0.0002  0.7506 -0.3298
 3067TIP3    H1 9207   6.107   4.329   3.093 -0.2597 -0.3341 -1.6289
 3067TIP3    H2 9208   5.980   4.411   3.099  0.8849  1.3864  0.8279
 3068TIP3   OH2 9209   1.876   0.930   4.261 -0.0970 -0.6750  0.1426
 3068TIP3    H1 9210   1.892   0.899   4.350  0.6093  0.1044  0.2956
 3068TIP3    H2 9211   1.957   0.913   4.214  0.7166  1.7976  0.4955
 3069TIP3   OH2 9212   1.260   4.314   1.766  0.3637 -0.5902 -0.2094
 3069TIP3    H1 9213   1.258   4.404   1.733  1.4604 -0.1402  0.9088
 3069TIP3    H2 9214   1.179   4.305   1.816  0.5420 -0.0188  0.1877
 3070TIP3   OH2 9215   0.371   0.112   4.740  0.2903  0.5057 -0.5160
 3070TIP3    H1 9216   0.411   0.176   4.799 -1.0166 -0.0130  1.0090
 3070TIP3    H2 9217   0.419   0.031   4.757 -0.2397  0.3006  0.0165
 3071TIP3   OH2 9218   3.718   0.455   0.318  0.0690 -0.1139 -0.0892
 3071TIP3    H1 9219   3.713   0.439   0.224 -0.2416  0.0273 -0.0950
 3071TIP3    H2 9220   3.772   0.534   0.326 -0.3594  0.1941 -0.1792
 3072TIP3   OH2 9221   4.251   0.799   4.470  0.1294  0.3838  0.2869
 3072TIP3    H1 9222   4.193   0.761   4.536  0.3036  1.4639  1.0984
 3072TIP3    H2 9223   4.322   0.736   4.462  0.7187  0.7659  2.0453
 3073TIP3   OH2 9224   1.715   4.553   1.967  0.6637  0.2277 -0.5824
 3073TIP3    H1 9225   1.772   4.617   2.010  1.1952 -1.1064  0.8073
 3073TIP3    H2 9226   1.769   4.473   1.963 -0.7064 -0.7461 -0.2656
 3074TIP3   OH2 9227   2.317   0.156   1.482 -0.0315  0.3547 -0.4607
 3074TIP3    H1 9228   2.399   0.204   1.498  1.2420 -1.4470 -1.1934
 3074TIP3    H2 9229   2.329   0.073   1.529 -1.6353  0.2225 -0.2375
 3075TIP3   OH2 9230   5.534   0.748   4.689 -0.2387 -0.3051 -0.4388
 3075TIP3    H1 9231   5.586   0.668   4.678  0.2437 -0.0960  0.2778
 3075TIP3    H2 9232   5.542   0.770   4.781 -2.4079 -0.8058 -0.0662
 3076TIP3   OH2 9233   0.479   0.608   2.648 -0.4713 -0.5379 -0.0722
 3076TIP3    H1 9234   0.524   0.589   2.730 -0.5705 -0.9480 -0.1132
 3076TIP3    H2 9235   0.512   0.694   2.622 -0.7476 -0.2184  0.6078
 3077TIP3   OH2 9236   6.107   0.860   0.222 -0.1470 -0.2555 -0.4659
 3077TIP3    H1 9237   6.111   0.765   0.231  2.2843  0.0184  5.2934
 3077TIP3    H2 9238   6.013   0.879   0.218 -0.7841 -2.8232  0.4064
 3078TIP3   OH2 9239   3.957   2.046   4.021 -0.7916  0.0894 -0.2557
 3078TIP3    H1 9240   3.982   2.138   4.022  0.3786 -0.1376 -2.0143
 3078TIP3    H2 9241   4.038   2.000   3.998 -1.0563 -1.5203  1.7859
 3079TIP3   OH2 9242   0.902   4.607   0.288  0.2700 -0.0617  0.1115
 3079TIP3    H1 9243   0.904   4.563   0.373 -0.3068 -0.2259  0.0464
 3079TIP3    H2 9244   0.891   4.537   0.224  1.9388 -0.0622 -0.2182
 3080TIP3   OH2 9245   1.430   2.672   3.752 -0.2198  1.0535  0.2903
 3080TIP3    H1 9246   1.369   2.603   3.725  0.9773 -0.3540  1.0150
 3080TIP3    H2 9247   1.379   2.729   3.810 -0.5811 -0.7459  1.8380
 3081TIP3   OH2 9248   6.246   5.266   1.684 -0.2512  0.0191 -0.1079
 3081TIP3    H1 9249   6.276   5.357   1.686  0.7772 -0.1853 -2.6016
 3081TIP3    H2 9250   6.244   5.240   1.776 -0.1556  2.4185  0.6406
 3082TIP3   OH2 9251   4.207   1.432   4.529  0.4652 -0.8868  0.1670
 3082TIP3    H1 9252   4.120   1.431   4.570 -0.1773  0.1139 -1.0871
 3082TIP3    H2 9253   4.254   1.359   4.570 -0.7721 -1.1035  1.2715
 3083TIP3   OH2 9254   5.079   4.077   2.831  0.4472 -0.1179  0.3973
 3083TIP3    H1 9255   5.156   4.073   2.773  1.4756 -1.4302  1.7664
 3083TIP3    H2 9256   5.004   4.069   2.772  1.3922  0.2964 -0.8984
 3084TIP3   OH2 9257   1.052   0.594   3.367 -0.3054  0.3834  0.3302
 3084TIP3    H1 9258   0.962   0.577   3.338  0.1291 -0.4085 -0.6274
 3084TIP3    H2 9259   1.082   0.510   3.403  1.5128 -0.8725 -3.4866
 3085TIP3   OH2 9260   4.326   0.187   1.786 -0.2781  0.5093  0.4859
 3085TIP3    H1 9261   4.298   0.191   1.877  0.2195 -0.5850  0.7173
 3085TIP3    H2 9262   4.386   0.260   1.776 -0.5927  0.8340  0.9449
 3086TIP3   OH2 9263   5.596   3.153   2.531 -0.7169 -0.1523  0.0731
 3086TIP3    H1 9264   5.674   3.199   2.559 -0.2515 -0.4008 -0.7737
 3086TIP3    H2 9265   5.524   3.197   2.577 -0.1127  0.2442  0.6529
 3087TIP3   OH2 9266   1.595   4.832   4.760 -0.4292  0.8125  0.9617
 3087TIP3    H1 9267   1.679   4.844   4.716 -0.6213  0.9235  0.6211
 3087TIP3    H2 9268   1.607   4.754   4.814 -0.4282  0.2290  0.1365
 3088TIP3   OH2 9269   3.843   0.391   2.486 -0.3004  0.4968  0.3774
 3088TIP3    H1 9270   3.887   0.339   2.553  0.0776  1.5438  0.9594
 3088TIP3    H2 9271   3.760   0.345   2.471  1.0844 -1.6942 -0.9927
 3089TIP3   OH2 9272   4.249   3.518   2.664 -0.0441  0.1800 -0.1281
 3089TIP3    H1 9273   4.233   3.541   2.572  0.8964  2.6353  0.2562
 3089TIP3    H2 9274   4.165   3.536   2.708 -0.6812 -1.5738 -0.5524
 3090TIP3   OH2 9275   3.248   1.234   3.094 -0.2386  0.4885  0.2843
 3090TIP3    H1 9276   3.184   1.280   3.038 -1.0192  1.8137  2.1547
 3090TIP3    H2 9277   3.333   1.269   3.067 -0.5745  0.9319 -0.2269
 3091TIP3   OH2 9278   5.629   5.403   0.752  0.0333 -0.0067  0.1485
 3091TIP3    H1 9279   5.694   5.380   0.687  0.2336 -0.2865  0.4428
 3091TIP3    H2 9280   5.545   5.389   0.709  0.1658  0.3876 -0.2429
 3092TIP3   OH2 9281   2.253   1.681   4.688  0.0790  0.4798 -0.2894
 3092TIP3    H1 9282   2.218   1.593   4.674  0.5681  0.3555 -0.7635
 3092TIP3    H2 9283   2.191   1.723   4.747 -0.8386  0.2465 -1.0752
 3093TIP3   OH2 9284   4.610   0.753   1.155 -0.3258 -0.3509  0.1953
 3093TIP3    H1 9285   4.623   0.658   1.147  0.5719 -0.0695 -2.9503
 3093TIP3    H2 9286   4.695   0.786   1.183  0.5748 -0.2251 -2.3981
 3094TIP3   OH2 9287   1.880   0.013   2.048  0.0033 -0.0409 -0.1068
 3094TIP3    H1 9288   1.812   0.000   2.115  0.3579 -0.6645  0.1498
 3094TIP3    H2 9289   1.833   0.013   1.965 -0.4355  0.6580  0.1391
 3095TIP3   OH2 9290   1.410   5.167   1.831  0.2397 -0.2171 -0.3320
 3095TIP3    H1 9291   1.418   5.136   1.922 -0.2132 -1.0837 -0.5788
 3095TIP3    H2 9292   1.499   5.195   1.808  0.7902 -1.7619 -0.2351
 3096TIP3   OH2 9293   3.210   1.478   0.924 -0.3165 -0.6378  0.1462
 3096TIP3    H1 9294   3.296   1.516   0.941  0.0076 -1.7747  1.2142
 3096TIP3    H2 9295   3.219   1.435   0.839 -0.1453  0.0904 -0.2135
 3097TIP3   OH2 9296   5.607   0.342   0.496 -0.1722  0.1069  0.5714
 3097TIP3    H1 9297   5.548   0.413   0.471  1.0741  0.9329 -0.1137
 3097TIP3    H2 9298   5.687   0.357   0.444  0.1099 -1.8248  0.3610
 3098TIP3   OH2 9299   4.411   4.954   2.715  0.5369  0.2070  0.5111
 3098TIP3    H1 9300   4.480   4.891   2.736  1.0879  0.7331  0.2942
 3098TIP3    H2 9301   4.456   5.024   2.667 -0.6807 -1.0032 -2.6285
 3099TIP3   OH2 9302   2.794   1.020   3.622  0.4333  0.0898  0.2305
 3099TIP3    H1 9303   2.853   1.060   3.686  1.1647  0.4466 -0.6432
 3099TIP3    H2 9304   2.842   1.026   3.539 -0.8111  0.3394 -0.4909
 3100TIP3   OH2 9305   3.461   1.405   1.341  0.2840  0.0210  0.5090
 3100TIP3    H1 9306   3.437   1.490   1.378 -1.5020 -0.4400  0.4989
 3100TIP3    H2 9307   3.464   1.347   1.416  0.3544 -0.1437  0.3776
 3101TIP3   OH2 9308   4.286   4.936   3.679  0.0569  0.4830  0.1478
 3101TIP3    H1 9309   4.282   5.028   3.651  0.2512  0.3435 -0.3486
 3101TIP3    H2 9310   4.194   4.907   3.679 -0.1078  0.9420  1.2400
 3102TIP3   OH2 9311   1.917   3.763   1.339 -0.0186  0.1826  0.4870
 3102TIP3    H1 9312   1.823   3.780   1.332 -0.7191 -3.4573 -1.9194
 3102TIP3    H2 9313   1.928   3.675   1.302  4.1824 -0.1530  2.0046
 3103TIP3   OH2 9314   4.182   4.355   1.783 -0.4301  0.5050  0.1291
 3103TIP3    H1 9315   4.217   4.383   1.868  0.9455 -0.0377 -0.2353
 3103TIP3    H2 9316   4.116   4.421   1.762 -0.7079  0.7196  1.5614
 3104TIP3   OH2 9317   2.388   3.539   2.249 -0.3268  0.0232 -0.3893
 3104TIP3    H1 9318   2.340   3.614   2.215 -0.4936 -0.0119 -0.2345
 3104TIP3    H2 9319   2.338   3.512   2.326  0.2101  0.2943  0.0639
 3105TIP3   OH2 9320   1.216   4.920   0.993  0.0933 -0.1033 -0.1308
 3105TIP3    H1 9321   1.294   4.925   1.048  0.2552  1.5472 -0.4530
 3105TIP3    H2 9322   1.188   5.011   0.982 -0.6928 -0.4914 -1.6953
 3106TIP3   OH2 9323   4.637   5.479   2.633 -0.1686 -0.0272 -0.0972
 3106TIP3    H1 9324   4.556   5.481   2.683 -0.0190  2.0371  0.1576
 3106TIP3    H2 9325   4.697   5.535   2.682  0.5160  0.7129 -1.6928
 3107TIP3   OH2 9326   3.280   5.582   0.356  0.2529  0.3228  0.1735
 3107TIP3    H1 9327   3.237   5.608   0.437  1.0151  0.1345  0.6458
 3107TIP3    H2 9328   3.254   5.490   0.343 -0.2791  0.5015 -0.0788
 3108TIP3   OH2 9329   5.703   5.555   1.613 -0.0587 -0.5466  0.1219
 3108TIP3    H1 9330   5.619   5.510   1.612 -1.1726  1.3854 -1.4818
 3108TIP3    H2 9331   5.749   5.519   1.689 -2.2297 -1.7948  0.9388
 3109TIP3   OH2 9332   0.179   0.068   3.827 -0.3294 -0.1728 -0.0707
 3109TIP3    H1 9333   0.094   0.027   3.844 -0.3015 -1.0178 -1.7220
 3109TIP3    H2 9334   0.232  -0.002   3.789  0.6969  0.6641 -0.2192
 3110TIP3   OH2 9335   3.651   1.375   3.315 -0.0525 -0.3264 -0.3611
 3110TIP3    H1 9336   3.696   1.343   3.393  1.2551 -0.3434 -1.0849
 3110TIP3    H2 9337   3.719   1.378   3.248 -1.0282  0.1906 -1.3647
 3111TIP3   OH2 9338   5.167   1.892   4.663  0.1092  0.0376  0.2672
 3111TIP3    H1 9339   5.134   1.862   4.749 -0.2818  0.7827  0.3816
 3111TIP3    H2 9340   5.102   1.861   4.601  2.3119 -4.1009 -0.3485
 3112TIP3   OH2 9341   2.845   2.395   4.796 -0.1452 -0.0071 -0.4404
 3112TIP3    H1 9342   2.890   2.408   4.880 -0.6056 -1.8462  0.1375
 3112TIP3    H2 9343   2.759   2.434   4.809  0.1084  0.5546 -0.4004
 3113TIP3   OH2 9344   1.347   0.588   1.518  0.1913 -0.1230  0.1209
 3113TIP3    H1 9345   1.357   0.558   1.609  2.4095  0.8291  0.2645
 3113TIP3    H2 9346   1.303   0.673   1.526  1.1101  0.3399  0.4001
 3114TIP3   OH2 9347   1.138   2.283   1.781 -0.1051 -0.0415 -0.0508
 3114TIP3    H1 9348   1.047   2.256   1.780  0.1533 -0.9464 -0.0246
 3114TIP3    H2 9349   1.187   2.205   1.754  0.8982 -0.6532  3.0714
 3115TIP3   OH2 9350   3.953   4.041   1.482 -0.4323  0.0025  0.3095
 3115TIP3    H1 9351   3.978   4.017   1.393  0.7531  0.7090  0.4214
 3115TIP3    H2 9352   4.029   4.017   1.535 -0.6374  0.6904  0.9353
 3116TIP3   OH2 9353   3.137   0.292   2.123 -0.1327  0.0817  0.7254
 3116TIP3    H1 9354   3.182   0.331   2.197  1.0565 -0.1010  0.1170
 3116TIP3    H2 9355   3.200   0.231   2.085 -0.7904  0.0085 -0.3079
 3117TIP3   OH2 9356   1.292   0.090   2.359 -0.6653  0.4511  0.0350
 3117TIP3    H1 9357   1.310   0.170   2.408 -0.7508  1.3571 -1.3257
 3117TIP3    H2 9358   1.300   0.020   2.423  2.6914  1.1958  0.6318
 3118TIP3   OH2 9359   3.931   4.643   1.027 -0.0601 -0.5794  0.3788
 3118TIP3    H1 9360   3.975   4.718   0.987  0.4973 -1.6102 -1.0096
 3118TIP3    H2 9361   4.001   4.596   1.073 -0.5419  0.1108  1.9086
 3119TIP3   OH2 9362   4.900   0.795   0.594  0.3781  0.5583  0.2672
 3119TIP3    H1 9363   4.881   0.706   0.624  0.9688  0.5466  0.6343
 3119TIP3    H2 9364   4.916   0.785   0.500 -1.3329  0.5709 -0.0437
 3120TIP3   OH2 9365   5.512   4.688   0.457  0.1918  0.3829  0.2967
 3120TIP3    H1 9366   5.545   4.601   0.435  1.0504  0.7100  0.2596
 3120TIP3    H2 9367   5.530   4.697   0.551  1.8025  1.2330 -0.0713
 3121TIP3   OH2 9368   0.480   3.298   4.976 -0.4078  0.5161 -0.0054
 3121TIP3    H1 9369   0.516   3.293   4.887 -0.6402 -0.0074 -0.0742
 3121TIP3    H2 9370   0.387   3.276   4.965 -0.9040  2.3510  0.0877
 3122TIP3   OH2 9371   3.235   5.784   3.877 -0.2651 -1.0123  0.4266
 3122TIP3    H1 9372   3.272   5.847   3.815 -0.3934 -1.5426 -0.2064
 3122TIP3    H2 9373   3.301   5.776   3.945 -1.0041  1.1246  1.4557
 3123TIP3   OH2 9374   3.848   3.587   0.216 -0.4714  0.7327  0.1665
 3123TIP3    H1 9375   3.830   3.494   0.229 -0.1106  0.5240 -0.7160
 3123TIP3    H2 9376   3.886   3.616   0.299 -0.5006  0.0728  0.4198
 3124TIP3   OH2 9377   2.234   3.332   4.285 -0.0845 -0.2314 -0.0083
 3124TIP3    H1 9378   2.318   3.308   4.246  0.8651  1.3900  0.9335
 3124TIP3    H2 9379   2.234   3.287   4.369 -1.3744 -2.3451 -1.0640
 3125TIP3   OH2 9380   3.179   2.480   0.987 -0.3616  0.9419  0.1060
 3125TIP3    H1 9381   3.253   2.531   0.954  0.8115 -1.1808 -0.7613
 3125TIP3    H2 9382   3.115   2.482   0.916  0.0424  0.5244 -0.2759
 3126TIP3   OH2 9383   3.136   2.758   4.318 -0.1186  0.4922  0.4034
 3126TIP3    H1 9384   3.111   2.666   4.306 -0.9019  0.5632  1.3581
 3126TIP3    H2 9385   3.063   2.797   4.366 -0.0031  1.7363 -0.3864
 3127TIP3   OH2 9386   6.066  -0.003   0.033 -0.4641  0.0926 -0.6008
 3127TIP3    H1 9387   5.987   0.034   0.071 -0.7722 -0.1703 -0.9797
 3127TIP3    H2 9388   6.104   0.069  -0.018 -0.5173  0.1846 -0.5113
 3128TIP3   OH2 9389   2.789   3.146   1.439  0.2239 -0.6297 -0.2525
 3128TIP3    H1 9390   2.713   3.201   1.455  1.5681  0.9938  0.9671
 3128TIP3    H2 9391   2.754   3.057   1.430 -1.8178  0.1262 -0.2525
 3129TIP3   OH2 9392   0.472   4.543   5.133 -0.2860  0.4302  0.3842
 3129TIP3    H1 9393   0.483   4.454   5.101  0.9224  0.1804  1.4301
 3129TIP3    H2 9394   0.550   4.560   5.187 -1.5694  1.2886  2.0820
 3130TIP3   OH2 9395   1.824   2.454   2.471  0.0626 -0.3141 -0.3154
 3130TIP3    H1 9396   1.747   2.511   2.481  0.3211  0.4636 -2.3161
 3130TIP3    H2 9397   1.874   2.494   2.400  3.2822  0.2371  2.0512
 3131TIP3   OH2 9398   4.233   4.353   2.621 -0.2230  0.1706  0.2331
 3131TIP3    H1 9399   4.183   4.284   2.666 -1.3404  1.5520  1.2128
 3131TIP3    H2 9400   4.324   4.330   2.636 -0.3906 -2.9720 -2.3982
 3132TIP3   OH2 9401   4.345   0.989   3.221 -0.4376  0.8113 -0.0916
 3132TIP3    H1 9402   4.311   1.078   3.224 -1.1586  0.5448  2.3363
 3132TIP3    H2 9403   4.427   0.995   3.173 -0.1740  2.9001  0.5413
 3133TIP3   OH2 9404   4.008   4.375   4.368  0.3427  0.0094  0.3682
 3133TIP3    H1 9405   3.949   4.450   4.356 -1.3084 -1.1634  0.7648
 3133TIP3    H2 9406   4.055   4.394   4.449  0.1261  0.7279  0.3318
 3134TIP3   OH2 9407   5.069   3.654   4.598 -0.5733 -0.0811 -0.2474
 3134TIP3    H1 9408   4.981   3.619   4.584  0.2057 -1.2368 -2.9397
 3134TIP3    H2 9409   5.111   3.592   4.657 -1.3883  0.2138  0.6573
 3135TIP3   OH2 9410   4.848   4.907   3.830  0.0298  0.1251 -0.5356
 3135TIP3    H1 9411   4.759   4.911   3.795 -0.0856  1.1764 -0.1711
 3135TIP3    H2 9412   4.865   4.814   3.843 -0.3751 -0.2041 -2.1926
 3136TIP3   OH2 9413   2.797   3.370   3.303 -0.3162  0.1121  0.3144
 3136TIP3    H1 9414   2.888   3.393   3.325 -0.1565  0.0898 -0.2983
 3136TIP3    H2 9415   2.792   3.276   3.317 -0.2890  0.1375  0.4990
 3137TIP3   OH2 9416   4.789   2.599   0.171  0.4631 -0.4066 -0.3931
 3137TIP3    H1 9417   4.722   2.626   0.233  0.7530 -1.5577  0.4560
 3137TIP3    H2 9418   4.742   2.584   0.089 -0.3446 -1.2843  0.2117
 3138TIP3   OH2 9419   4.350   1.191   5.042  0.2989 -0.0291  0.3318
 3138TIP3    H1 9420   4.389   1.179   5.128 -0.2875 -0.7130  0.5073
 3138TIP3    H2 9421   4.425   1.189   4.981  0.6411 -0.2615  0.7566
 3139TIP3   OH2 9422   3.509   3.532   0.256 -0.2155  0.0232  0.3589
 3139TIP3    H1 9423   3.605   3.531   0.254 -0.1646  0.6476  1.5693
 3139TIP3    H2 9424   3.487   3.625   0.245 -0.6816 -0.1124  0.1596
 3140TIP3   OH2 9425   0.488   2.620   1.071  0.0185 -0.5395 -0.2806
 3140TIP3    H1 9426   0.539   2.677   1.014 -0.8615 -0.5934 -1.1331
 3140TIP3    H2 9427   0.408   2.670   1.090  0.6427 -0.1530  1.6185
 3141TIP3   OH2 9428   3.923   4.952   2.436 -0.0477 -0.0032 -0.5040
 3141TIP3    H1 9429   3.989   4.996   2.383  0.7512  0.7249  1.0077
 3141TIP3    H2 9430   3.964   4.944   2.523 -1.5003 -0.6233  0.1615
 3142TIP3   OH2 9431   4.645   3.731   1.058 -0.0037  0.7880  0.1842
 3142TIP3    H1 9432   4.628   3.714   0.965  1.1320  0.6319 -0.0125
 3142TIP3    H2 9433   4.729   3.687   1.075 -1.5095 -1.6513  1.9902
 3143TIP3   OH2 9434   2.489   2.349   2.103  0.2291 -0.0263  0.8103
 3143TIP3    H1 9435   2.538   2.418   2.058 -0.0937 -1.5102 -2.0264
 3143TIP3    H2 9436   2.549   2.274   2.104 -1.0555 -1.1289 -0.5349
 3144TIP3   OH2 9437  -0.007   3.492   2.290 -0.2335  0.5986  0.5860
 3144TIP3    H1 9438   0.028   3.472   2.377  1.1262 -1.9210 -0.4253
 3144TIP3    H2 9439   0.048   3.562   2.257  1.1536 -0.3830  0.7042
 3145TIP3   OH2 9440   5.001   5.840   0.335 -0.0113  0.3220 -0.0796
 3145TIP3    H1 9441   4.918   5.826   0.380 -0.6371  0.3812 -1.1741
 3145TIP3    H2 9442   5.056   5.767   0.362 -0.6722 -0.1234  0.0882
 3146TIP3   OH2 9443   2.071   0.910   5.083  0.0238 -0.0276  0.2556
 3146TIP3    H1 9444   2.006   0.852   5.045  0.2576  1.1196 -2.0693
 3146TIP3    H2 9445   2.033   0.997   5.075 -0.3796  0.2460  3.7688
 3147TIP3   OH2 9446   5.780   5.258   4.594  0.1144  0.0338  0.1401
 3147TIP3    H1 9447   5.686   5.271   4.578  0.1250 -0.2285 -0.1302
 3147TIP3    H2 9448   5.821   5.266   4.508  0.3519  0.2190  0.2676
 3148TIP3   OH2 9449   4.783   0.059   0.555 -0.3197 -0.1068 -0.2272
 3148TIP3    H1 9450   4.833  -0.009   0.600 -0.7658  0.5455  1.3381
 3148TIP3    H2 9451   4.847   0.102   0.498  0.5373 -0.3101  0.5482
 3149TIP3   OH2 9452   4.894   0.677   3.390  0.6358 -0.0312 -0.6887
 3149TIP3    H1 9453   4.803   0.652   3.409  0.6130 -0.5032 -1.3785
 3149TIP3    H2 9454   4.937   0.675   3.476 -0.0236  0.3087 -0.3379
 3150TIP3   OH2 9455   3.928   4.726   1.334  0.1803 -0.4837  0.1068
 3150TIP3    H1 9456   3.987   4.659   1.299  1.1756  1.1138 -1.4295
 3150TIP3    H2 9457   3.840   4.695   1.310  0.6153 -1.2256 -0.5767
 3151TIP3   OH2 9458   5.680   3.241   5.013 -0.1682  0.1907  0.4563
 3151TIP3    H1 9459   5.593   3.206   4.995  0.2027 -0.5288  0.0173
 3151TIP3    H2 9460   5.673   3.334   4.993 -1.2806  0.4993  2.0302
 3152TIP3   OH2 9461   1.272   0.048   1.917  0.6511 -0.0705  0.2683
 3152TIP3    H1 9462   1.259   0.143   1.917 -0.5171 -0.1955 -0.9947
 3152TIP3    H2 9463   1.240   0.019   2.002  0.5550  0.6140  0.4696
 3153TIP3   OH2 9464   5.100   2.548   2.916 -0.2066 -0.1240  0.1434
 3153TIP3    H1 9465   5.182   2.522   2.872 -1.0151 -0.8225 -1.0222
 3153TIP3    H2 9466   5.116   2.638   2.945  2.0528 -1.2129  2.7002
 3154TIP3   OH2 9467   1.766   2.731   0.058 -0.9099 -0.4393 -0.1026
 3154TIP3    H1 9468   1.730   2.777   0.134 -1.6855 -0.2569 -0.5645
 3154TIP3    H2 9469   1.782   2.801  -0.006  1.5611 -0.3231  0.5437
 3155TIP3   OH2 9470   1.973   5.206   3.686 -0.2110  0.2384 -0.1871
 3155TIP3    H1 9471   2.067   5.206   3.668 -0.3238 -0.5617 -0.8974
 3155TIP3    H2 9472   1.934   5.242   3.607 -0.5583 -0.5752 -0.4004
 3156TIP3   OH2 9473   0.478   5.241   4.068 -0.3924 -0.2909 -0.0458
 3156TIP3    H1 9474   0.388   5.221   4.095 -0.4457  1.2593  1.0555
 3156TIP3    H2 9475   0.521   5.271   4.148  0.5796  0.7455 -0.9348
 3157TIP3   OH2 9476   5.920   4.359   2.079  0.5025  0.0177  0.1238
 3157TIP3    H1 9477   5.945   4.340   2.169  0.6253 -1.6676 -0.2248
 3157TIP3    H2 9478   5.831   4.393   2.084  0.3554 -0.4711  0.8487
 3158TIP3   OH2 9479   3.047   1.579   1.971 -0.3450  0.3380 -0.3277
 3158TIP3    H1 9480   3.088   1.660   2.003 -0.0977  0.0491  0.0985
 3158TIP3    H2 9481   2.974   1.564   2.031  0.9922 -0.9976  1.0533
 3159TIP3   OH2 9482   5.582   4.416   1.440  0.3471 -0.0151  0.3549
 3159TIP3    H1 9483   5.667   4.460   1.433 -0.0841  0.8217  0.2320
 3159TIP3    H2 9484   5.565   4.383   1.352  0.2183  0.4569  0.1974
 3160TIP3   OH2 9485   0.118   0.536   2.620  0.0592  0.0504 -0.2073
 3160TIP3    H1 9486   0.046   0.475   2.636 -0.3922  0.6027 -0.0998
 3160TIP3    H2 9487   0.194   0.480   2.603 -0.0909 -0.5482  1.0034
 3161TIP3   OH2 9488   1.661   4.323   0.414  0.3325 -0.4570 -0.3269
 3161TIP3    H1 9489   1.649   4.401   0.359 -3.0594 -0.8257 -0.2680
 3161TIP3    H2 9490   1.582   4.272   0.402  0.1719 -1.4413  3.5620
 3162TIP3   OH2 9491   1.406   2.225   0.800 -0.2862  0.1875  0.3210
 3162TIP3    H1 9492   1.363   2.276   0.731 -0.1202 -0.5625 -0.3466
 3162TIP3    H2 9493   1.334   2.188   0.851 -0.4121  0.4289  0.3210
 3163TIP3   OH2 9494   1.580   5.379   3.721  0.4444 -0.0141  0.0885
 3163TIP3    H1 9495   1.493   5.365   3.759  0.2232  1.0836  0.0054
 3163TIP3    H2 9496   1.582   5.320   3.645 -0.3379  0.1593 -0.0751
 3164TIP3   OH2 9497   2.308   3.388   4.721 -0.1228 -0.1837 -0.6196
 3164TIP3    H1 9498   2.307   3.314   4.782  2.1864  0.2628  0.0396
 3164TIP3    H2 9499   2.258   3.456   4.765  0.9855 -0.0784  0.5394
 3165TIP3   OH2 9500   5.937   4.662   2.693 -0.3863 -0.0976  0.4174
 3165TIP3    H1 9501   5.863   4.604   2.679 -0.8425  0.6184 -0.1803
 3165TIP3    H2 9502   5.901   4.750   2.685  0.0456  0.3242  2.5163
 3166TIP3   OH2 9503   5.227   2.677   0.271 -0.5589  0.1858  0.7139
 3166TIP3    H1 9504   5.168   2.603   0.264 -0.0929 -0.0437 -1.5903
 3166TIP3    H2 9505   5.315   2.639   0.271 -0.2859  0.7138 -1.2902
 3167TIP3   OH2 9506   0.132   1.563   3.703  0.2405 -0.0932 -0.1329
 3167TIP3    H1 9507   0.161   1.482   3.745  1.2504  0.9575  1.2966
 3167TIP3    H2 9508   0.195   1.578   3.633  0.0545 -0.5220 -0.3978
 3168TIP3   OH2 9509   3.469   4.070   1.652 -0.0211  0.2839  0.4553
 3168TIP3    H1 9510   3.439   4.148   1.698 -0.8405 -0.3300  1.0011
 3168TIP3    H2 9511   3.564   4.077   1.651 -0.1139  2.3731 -1.4539
 3169TIP3   OH2 9512   3.722   1.751   2.107  0.1224 -0.2315  0.6805
 3169TIP3    H1 9513   3.646   1.756   2.165 -0.5538  1.1570 -0.2843
 3169TIP3    H2 9514   3.786   1.809   2.148 -0.4204  0.8884 -0.0418
 3170TIP3   OH2 9515   6.096   3.306   4.468  0.5997 -0.4012 -0.0823
 3170TIP3    H1 9516   6.074   3.367   4.538  0.9569  1.7074 -1.6992
 3170TIP3    H2 9517   6.189   3.288   4.480  1.0356  1.1554 -0.8012
 3171TIP3   OH2 9518   3.690   5.409   1.854 -0.2057  0.9533  0.0880
 3171TIP3    H1 9519   3.722   5.388   1.766 -0.9250 -0.7878  0.2148
 3171TIP3    H2 9520   3.615   5.350   1.867 -0.2669  1.3637  1.7771
 3172TIP3   OH2 9521   0.767   2.695   0.529  0.2267 -0.0521 -0.3240
 3172TIP3    H1 9522   0.694   2.634   0.534 -0.6437  0.9138 -1.0524
 3172TIP3    H2 9523   0.801   2.685   0.440  0.7183 -0.1704 -0.1313
 3173TIP3   OH2 9524   1.040   4.846   2.738 -0.1658 -0.2250  0.1661
 3173TIP3    H1 9525   1.041   4.858   2.833 -0.5919 -2.0036  0.4266
 3173TIP3    H2 9526   1.110   4.903   2.706 -0.5107  0.9817  1.4558
 3174TIP3   OH2 9527   5.612   5.110   4.224 -0.1891  0.1004  0.0523
 3174TIP3    H1 9528   5.598   5.083   4.133  0.6400  0.5224 -0.2088
 3174TIP3    H2 9529   5.543   5.175   4.240 -0.8203 -0.5374 -0.0162
 3175TIP3   OH2 9530   4.797   5.255   2.550  0.2413  0.0710  0.7175
 3175TIP3    H1 9531   4.876   5.286   2.506 -0.1410 -1.1949 -0.9798
 3175TIP3    H2 9532   4.741   5.332   2.556 -0.4246  0.0378 -2.7694
 3176TIP3   OH2 9533   4.498   0.391   0.771 -0.0663 -0.0738  0.4576
 3176TIP3    H1 9534   4.533   0.473   0.737  2.0886 -1.0302  0.2589
 3176TIP3    H2 9535   4.416   0.416   0.815 -0.1512  1.9571 -0.7578
 3177TIP3   OH2 9536   4.655   3.035   1.141 -0.2120 -0.1738 -0.0886
 3177TIP3    H1 9537   4.735   2.985   1.122 -0.4058 -0.5108 -0.0279
 3177TIP3    H2 9538   4.676   3.084   1.220 -0.3524 -0.9279  0.4294
 3178TIP3   OH2 9539   3.021   5.293   0.350 -0.7308  0.6413 -0.1727
 3178TIP3    H1 9540   2.968   5.300   0.429 -1.6460  1.8260 -0.8581
 3178TIP3    H2 9541   3.106   5.261   0.381 -1.5593 -0.5050  1.0590
 3179TIP3   OH2 9542   4.850   2.422   4.897 -0.6981 -0.0178  0.1645
 3179TIP3    H1 9543   4.765   2.453   4.866 -1.8516 -2.2214  0.8658
 3179TIP3    H2 9544   4.862   2.466   4.981 -0.6756  1.0512 -0.3918
 3180TIP3   OH2 9545   2.054   2.670   0.077 -0.0053 -0.3683  0.2589
 3180TIP3    H1 9546   2.095   2.730   0.139  0.1168 -0.8076  0.6131
 3180TIP3    H2 9547   1.963   2.698   0.073  0.0440 -0.1792  0.4446
 3181TIP3   OH2 9548   1.813   2.521   3.526  0.1641  0.2880  0.4776
 3181TIP3    H1 9549   1.906   2.543   3.516 -0.1606  1.7649  0.5417
 3181TIP3    H2 9550   1.767   2.586   3.474 -0.8412 -0.5514  0.2953
 3182TIP3   OH2 9551   4.990   0.206   3.239 -0.0240 -0.7710  0.2470
 3182TIP3    H1 9552   4.969   0.195   3.331  1.7461  0.5124  0.8440
 3182TIP3    H2 9553   5.079   0.241   3.238 -1.0952  2.2906 -1.8011
 3183TIP3   OH2 9554   5.389   1.641   0.287  0.3843 -0.5201  0.2586
 3183TIP3    H1 9555   5.463   1.686   0.247 -0.0567 -0.1048 -0.0906
 3183TIP3    H2 9556   5.410   1.548   0.278  0.3569 -0.4346 -0.8106
 3184TIP3   OH2 9557   4.372   3.401   0.211  0.1888 -0.1061 -0.2182
 3184TIP3    H1 9558   4.397   3.439   0.127 -0.9231 -1.9408 -1.4407
 3184TIP3    H2 9559   4.280   3.425   0.222  0.0726 -0.6389  0.0129
 3185TIP3   OH2 9560   4.300   0.303   4.978 -0.6881  0.7407  0.2563
 3185TIP3    H1 9561   4.347   0.229   5.018 -0.3426  0.6876 -0.2343
 3185TIP3    H2 9562   4.306   0.287   4.884  1.1104  2.4011  0.0316
 3186TIP3   OH2 9563   4.228   5.980   4.707  0.2667  0.5031 -0.2374
 3186TIP3    H1 9564   4.194   5.924   4.777  2.3868 -0.9067 -0.2320
 3186TIP3    H2 9565   4.284   6.043   4.752  1.5727 -0.3558 -0.5946
 3187TIP3   OH2 9566   2.268   1.800   3.197 -0.1413 -0.0546 -0.6005
 3187TIP3    H1 9567   2.341   1.747   3.229 -0.5801  0.1255  0.7622
 3187TIP3    H2 9568   2.242   1.853   3.272 -0.7482  0.9328 -1.4815
 3188TIP3   OH2 9569   1.262   3.841   4.963  0.1265 -0.0522  0.0897
 3188TIP3    H1 9570   1.279   3.936   4.966  0.6826 -0.0935 -0.9927
 3188TIP3    H2 9571   1.346   3.802   4.987 -0.4541 -0.3015  1.8654
 3189TIP3   OH2 9572   1.260   2.405   2.149  0.2625 -0.4976 -0.3954
 3189TIP3    H1 9573   1.253   2.420   2.055  0.5511  0.8599 -0.2205
 3189TIP3    H2 9574   1.183   2.352   2.171 -0.7312  0.6125 -1.1260
 3190TIP3   OH2 9575   2.348   5.618   0.509 -0.8958  0.4866 -0.2232
 3190TIP3    H1 9576   2.353   5.714   0.503 -0.3072  0.4552 -0.3354
 3190TIP3    H2 9577   2.439   5.591   0.527 -1.1181 -0.0251  0.1493
 3191TIP3   OH2 9578   0.597   3.248   4.029 -0.5218  0.4854 -0.5133
 3191TIP3    H1 9579   0.661   3.179   4.017 -0.2841  0.0296  2.6039
 3191TIP3    H2 9580   0.584   3.284   3.942  2.5635 -0.6241 -1.5520
 3192TIP3   OH2 9581   1.404   2.611   0.058  0.4450  0.2993 -0.4313
 3192TIP3    H1 9582   1.416   2.692   0.009  1.7364 -0.0688 -0.7552
 3192TIP3    H2 9583   1.471   2.613   0.126  0.9512 -0.7879 -0.8599
 3193TIP3   OH2 9584   1.906   5.132   3.134 -0.2570 -0.6524  0.7529
 3193TIP3    H1 9585   1.961   5.062   3.097 -2.0715 -1.7068 -0.0530
 3193TIP3    H2 9586   1.953   5.213   3.113  0.0307 -1.3787 -1.6813
 3194TIP3   OH2 9587   3.218   1.566   4.845  0.0873 -1.0363 -0.2567
 3194TIP3    H1 9588   3.250   1.647   4.805  0.0816 -0.8872  0.0339
 3194TIP3    H2 9589   3.187   1.594   4.932 -1.6817 -1.0034 -0.8616
 3195TIP3   OH2 9590   5.746   2.030   3.919  0.0992  0.4745 -0.0249
 3195TIP3    H1 9591   5.717   2.038   4.010  0.3086  2.1138 -0.0716
 3195TIP3    H2 9592   5.665   2.027   3.868 -0.0147 -0.2600  0.1804
 3196TIP3   OH2 9593   3.602   5.857   3.435  0.6301  0.1835  0.0718
 3196TIP3    H1 9594   3.544   5.813   3.497  0.4192 -0.1867 -0.3775
 3196TIP3    H2 9595   3.544   5.916   3.386  0.5919 -0.2962 -0.4801
 3197TIP3   OH2 9596   6.136   4.711   3.386 -0.5090  0.6562 -0.4464
 3197TIP3    H1 9597   6.093   4.741   3.466  0.4261  1.1838 -0.1303
 3197TIP3    H2 9598   6.137   4.616   3.393 -1.5082  0.6391 -0.4061
 3198TIP3   OH2 9599   6.043   2.930   1.882 -0.0156 -0.2329 -0.2657
 3198TIP3    H1 9600   6.030   2.848   1.834  0.2697 -1.1529  1.1465
 3198TIP3    H2 9601   5.956   2.970   1.887 -0.2526 -0.7139 -0.5235
 3199TIP3   OH2 9602   1.023   4.062   3.457 -0.1353  0.6724 -0.2839
 3199TIP3    H1 9603   1.038   4.025   3.544  1.1804  0.8436 -0.4269
 3199TIP3    H2 9604   1.075   4.007   3.398 -1.2866  0.3432 -1.0258
 3200TIP3   OH2 9605   0.396   2.560   3.721  0.2929 -0.1673 -0.5502
 3200TIP3    H1 9606   0.303   2.582   3.732  0.6909  0.3465  3.0028
 3200TIP3    H2 9607   0.423   2.607   3.642 -1.8219  2.0173 -0.0929
 3201TIP3   OH2 9608   4.045   0.550   2.413 -0.2841  0.0338  0.6830
 3201TIP3    H1 9609   4.006   0.635   2.391  0.1813 -0.2517 -1.4193
 3201TIP3    H2 9610   3.972   0.500   2.450 -0.7122  1.1224  1.3814
 3202TIP3   OH2 9611   1.430   1.984   3.199 -0.3395 -0.2798 -0.6023
 3202TIP3    H1 9612   1.365   1.998   3.268  0.6796 -0.3513  0.4036
 3202TIP3    H2 9613   1.475   2.068   3.190 -0.7594 -0.1398 -1.5108
 3203TIP3   OH2 9614   1.112   5.255   2.839  0.2420 -0.2998 -0.4180
 3203TIP3    H1 9615   1.135   5.319   2.772 -0.4570 -0.4326 -0.8075
 3203TIP3    H2 9616   1.054   5.302   2.899  0.2099 -0.4024 -0.3681
 3204TIP3   OH2 9617   0.781   1.721   3.137 -0.4180 -0.0873  0.2252
 3204TIP3    H1 9618   0.854   1.659   3.129 -0.2406  0.2145 -0.6055
 3204TIP3    H2 9619   0.771   1.733   3.232  0.4826 -0.2872  0.3630
 3205TIP3   OH2 9620   0.021   1.165   2.118  0.1557  0.0593  0.5115
 3205TIP3    H1 9621  -0.028   1.100   2.067 -0.6320  1.0729 -0.0538
 3205TIP3    H2 9622   0.103   1.176   2.071 -0.9718  1.7349 -1.1665
 3206TIP3   OH2 9623   1.875   1.542   2.732  0.1471  0.2944 -0.2343
 3206TIP3    H1 9624   1.959   1.519   2.770 -0.5109 -0.5204  0.7707
 3206TIP3    H2 9625   1.880   1.512   2.641  1.0832  0.6486 -0.3065
 3207TIP3   OH2 9626   4.011   4.088   5.029  0.1333 -0.4705  0.0787
 3207TIP3    H1 9627   4.049   4.172   5.055  0.1134 -0.7772  1.1241
 3207TIP3    H2 9628   4.085   4.029   5.019  0.0187 -0.9203  1.5804
 3208TIP3   OH2 9629   3.450   1.786   2.496  0.0761  0.1184 -0.3518
 3208TIP3    H1 9630   3.371   1.731   2.495  0.3633 -0.3589  1.1453
 3208TIP3    H2 9631   3.450   1.825   2.584  1.1775  0.6099 -0.5632
 3209TIP3   OH2 9632   3.018   1.468   3.226 -0.3275 -0.4017 -0.1500
 3209TIP3    H1 9633   2.983   1.557   3.218  0.7066 -0.0016 -0.5201
 3209TIP3    H2 9634   3.030   1.456   3.320 -1.7071 -0.6598 -0.0007
 3210TIP3   OH2 9635   2.177   1.336   0.696 -0.4653 -0.4099 -0.1606
 3210TIP3    H1 9636   2.150   1.261   0.643 -0.2208 -1.1059  0.6738
 3210TIP3    H2 9637   2.206   1.402   0.632 -1.7028 -0.6100 -0.9487
 3211TIP3   OH2 9638   4.114   3.178   1.667  0.4451  0.1438  0.6337
 3211TIP3    H1 9639   4.024   3.207   1.651  0.2070  0.4773  2.3970
 3211TIP3    H2 9640   4.134   3.120   1.593 -1.9569 -1.6493  1.2783
 3212TIP3   OH2 9641   4.153   1.429   4.894 -0.4240 -0.2035 -0.0307
 3212TIP3    H1 9642   4.180   1.393   4.979 -1.2101  1.1491  0.8125
 3212TIP3    H2 9643   4.215   1.389   4.832 -0.8328 -2.4859  0.9091
 3213TIP3   OH2 9644   1.368   5.555   2.792 -0.3099 -0.2975 -1.6201
 3213TIP3    H1 9645   1.440   5.604   2.831 -0.6556 -0.2736 -0.9955
 3213TIP3    H2 9646   1.326   5.617   2.732 -1.1352  0.4006 -0.3650
 3214TIP3   OH2 9647   1.804   1.198   1.199 -0.1519  0.1809 -0.0706
 3214TIP3    H1 9648   1.897   1.180   1.209 -0.5151 -1.6996  0.2041
 3214TIP3    H2 9649   1.784   1.261   1.268  0.6640 -0.3338  0.6515
 3215TIP3   OH2 9650   6.052   2.486   2.306  0.0042 -0.3358  0.1256
 3215TIP3    H1 9651   6.075   2.507   2.396 -0.5309 -0.1392  0.2160
 3215TIP3    H2 9652   6.078   2.563   2.256 -1.9323  0.5860  0.4531
 3216TIP3   OH2 9653   2.881   1.153   0.405 -0.1807 -0.2177 -0.7820
 3216TIP3    H1 9654   2.914   1.207   0.333 -1.8424 -0.4476 -1.7795
 3216TIP3    H2 9655   2.934   1.073   0.402  0.1245  0.0035 -1.4176
 3217TIP3   OH2 9656   4.102   5.404   4.874  0.4300  0.6054  0.3023
 3217TIP3    H1 9657   4.066   5.461   4.806  0.3455  0.4697  0.2333
 3217TIP3    H2 9658   4.131   5.326   4.827 -1.8508 -0.5732  0.6783
 3218TIP3   OH2 9659   0.724   4.141   4.816  0.1594  0.2083  0.4123
 3218TIP3    H1 9660   0.709   4.188   4.898  1.2087  0.1798  0.6267
 3218TIP3    H2 9661   0.645   4.087   4.805  0.2872 -0.2941  1.7582
 3219TIP3   OH2 9662   2.101   4.005   1.471 -0.1511  0.2272 -0.0520
 3219TIP3    H1 9663   2.032   4.069   1.456  1.3444  1.9918  0.2956
 3219TIP3    H2 9664   2.129   3.979   1.383 -0.3189  0.5464 -0.2000
 3220TIP3   OH2 9665   5.959   0.892   3.911 -0.2156  0.4463  0.2001
 3220TIP3    H1 9666   5.937   0.834   3.838 -0.3767 -0.0612  0.6426
 3220TIP3    H2 9667   5.907   0.971   3.895  0.1914  0.5727 -0.5381
 3221TIP3   OH2 9668   3.081   4.583   2.312  0.4841 -0.0986 -0.0045
 3221TIP3    H1 9669   3.075   4.677   2.329  0.7707 -0.0816  0.0137
 3221TIP3    H2 9670   3.007   4.546   2.359  0.6559  0.0659  0.4054
 3222TIP3   OH2 9671   5.477   4.573   1.687 -0.0646 -0.5907  0.2247
 3222TIP3    H1 9672   5.538   4.553   1.617 -0.6903  2.6800 -1.4360
 3222TIP3    H2 9673   5.533   4.598   1.761  0.6129 -0.3438 -0.3615
 3223TIP3   OH2 9674   3.038   0.814   2.613  0.1847 -0.1339 -0.3249
 3223TIP3    H1 9675   3.001   0.767   2.538 -2.4469  0.8010  0.3015
 3223TIP3    H2 9676   2.963   0.831   2.670  1.3241  3.1074  0.3971
 3224TIP3   OH2 9677   0.394   3.840   2.770 -0.0621 -0.4570  0.3269
 3224TIP3    H1 9678   0.370   3.793   2.850 -1.6093 -0.2950 -0.0081
 3224TIP3    H2 9679   0.414   3.929   2.800 -2.6359  0.1781  0.3531
 3225TIP3   OH2 9680   5.535   3.690   4.532 -0.4697  0.3291 -0.5068
 3225TIP3    H1 9681   5.580   3.606   4.546  2.1378  1.5068 -1.2631
 3225TIP3    H2 9682   5.528   3.698   4.437 -0.2340  1.1910 -0.4534
 3226TIP3   OH2 9683   0.736   1.290   4.224 -0.0995 -0.1796 -0.0320
 3226TIP3    H1 9684   0.801   1.350   4.260  0.5087 -1.7547  1.6781
 3226TIP3    H2 9685   0.784   1.208   4.211 -1.6110 -1.2798  0.9398
 3227TIP3   OH2 9686   3.697   4.616   1.953 -0.0202 -0.0817  0.3393
 3227TIP3    H1 9687   3.692   4.711   1.950  1.7667  0.0376 -2.3896
 3227TIP3    H2 9688   3.616   4.587   1.910 -0.1911  0.2150  0.4568
 3228TIP3   OH2 9689   1.073   3.409   1.588  0.0369  0.0439  0.2001
 3228TIP3    H1 9690   1.165   3.432   1.602  0.0357  1.3536 -1.5986
 3228TIP3    H2 9691   1.057   3.336   1.648  2.0410  0.2474  1.0618
 3229TIP3   OH2 9692   0.947   1.259   1.214  0.1558 -0.1064 -0.1366
 3229TIP3    H1 9693   0.990   1.316   1.151 -1.0965 -1.3451 -2.2246
 3229TIP3    H2 9694   1.005   1.184   1.223  1.3920  0.9799  1.9728
 3230TIP3   OH2 9695   4.325   1.285   4.729 -0.0806 -0.5706  0.5943
 3230TIP3    H1 9696   4.316   1.196   4.697  2.1981 -0.2641 -1.2148
 3230TIP3    H2 9697   4.419   1.301   4.728 -0.4114  1.7652  1.0794
 3231TIP3   OH2 9698   1.783   0.937   1.769 -0.1452  0.1144 -0.1226
 3231TIP3    H1 9699   1.825   0.972   1.690  1.2770  1.3808  1.1306
 3231TIP3    H2 9700   1.839   0.865   1.797 -0.2561  0.1217  0.1229
 3232TIP3   OH2 9701   1.921   5.871   1.003  0.2656 -0.1715 -0.5447
 3232TIP3    H1 9702   1.916   5.811   1.078  0.8272  0.4746  0.0304
 3232TIP3    H2 9703   1.987   5.833   0.946  1.6360  0.5772  0.4796
 3233TIP3   OH2 9704   0.664   5.175   0.978 -0.1224  0.2716 -0.3552
 3233TIP3    H1 9705   0.585   5.135   1.015  0.6507  0.2207  1.3236
 3233TIP3    H2 9706   0.652   5.269   0.994  0.6694  0.1642  1.0212
 3234TIP3   OH2 9707   4.244   2.833   4.525 -0.4451 -0.2893  0.3440
 3234TIP3    H1 9708   4.255   2.770   4.454 -1.1082  1.5054 -1.4609
 3234TIP3    H2 9709   4.178   2.793   4.582  1.3997 -2.5914  1.0424
 3235TIP3   OH2 9710   6.033   1.089   4.613 -0.4995 -0.3205 -0.2310
 3235TIP3    H1 9711   5.944   1.123   4.623  0.2443  1.7669 -0.2481
 3235TIP3    H2 9712   6.085   1.165   4.585  1.2084 -1.5928 -0.6802
 3236TIP3   OH2 9713   4.476   4.601   3.062 -0.2873  0.3704  0.3748
 3236TIP3    H1 9714   4.427   4.523   3.039 -0.4743  0.2342  1.1888
 3236TIP3    H2 9715   4.520   4.628   2.981 -0.4035 -0.4389  0.0407
 3237TIP3   OH2 9716   2.585   1.417   0.677 -0.1513  0.0512 -0.3837
 3237TIP3    H1 9717   2.546   1.504   0.685 -0.3077 -0.0620  0.0796
 3237TIP3    H2 9718   2.522   1.367   0.624 -1.1848 -0.4466  1.2322
 3238TIP3   OH2 9719   5.317   1.581   2.225  0.1583 -0.0553  0.1849
 3238TIP3    H1 9720   5.347   1.524   2.155 -1.2538 -0.4366 -0.1500
 3238TIP3    H2 9721   5.318   1.669   2.187 -0.8745 -0.2941 -0.4307
 3239TIP3   OH2 9722   3.768   5.453   1.584  0.5409  0.3362 -0.6258
 3239TIP3    H1 9723   3.706   5.521   1.557  1.8487  1.6866 -0.3554
 3239TIP3    H2 9724   3.768   5.391   1.511 -0.3914  0.8147 -1.0594
 3240TIP3   OH2 9725   3.087   3.142   3.358  0.2564 -0.2259  0.1415
 3240TIP3    H1 9726   3.017   3.175   3.415  0.4411  1.8052 -0.7434
 3240TIP3    H2 9727   3.155   3.209   3.362  0.4006 -0.1559 -2.2308
 3241TIP3   OH2 9728   4.194   0.573   1.248 -0.2397  0.0736  0.1638
 3241TIP3    H1 9729   4.199   0.622   1.330  1.1431  0.9322 -0.3986
 3241TIP3    H2 9730   4.280   0.533   1.238  0.0020  0.8974 -1.4050
 3242TIP3   OH2 9731   1.096   1.143   4.237  0.3587  0.3649 -0.4130
 3242TIP3    H1 9732   1.145   1.086   4.178 -0.1457  0.7995 -1.2808
 3242TIP3    H2 9733   1.163   1.198   4.278  0.9125 -1.1897  0.8668
 3243TIP3   OH2 9734   5.804   2.443   1.777  0.4764 -0.7692 -0.0023
 3243TIP3    H1 9735   5.834   2.373   1.835  1.3603 -0.0839  0.3986
 3243TIP3    H2 9736   5.836   2.523   1.818 -0.8666 -0.0883 -0.2438
 3244TIP3   OH2 9737   3.437   1.844   3.292 -0.0288  0.1332 -0.0932
 3244TIP3    H1 9738   3.500   1.774   3.309  2.7400  2.7980  1.7707
 3244TIP3    H2 9739   3.373   1.836   3.363  0.1008 -0.6313 -0.0508
 3245TIP3   OH2 9740   2.990   0.411   2.540 -0.4332  0.2085  0.5535
 3245TIP3    H1 9741   3.053   0.377   2.475  0.9129  0.9455  1.4260
 3245TIP3    H2 9742   2.943   0.480   2.494 -0.1960  0.0436  0.0520
 3246TIP3   OH2 9743   2.242   0.618   2.111  0.4431  0.0243 -0.0942
 3246TIP3    H1 9744   2.274   0.554   2.174  0.3862 -0.4395 -0.5381
 3246TIP3    H2 9745   2.147   0.606   2.110  0.0789  1.9868  1.8816
 3247TIP3   OH2 9746   4.767   3.465   1.415 -0.0038  0.1953  0.0444
 3247TIP3    H1 9747   4.801   3.505   1.335  0.0627  0.3324  0.1391
 3247TIP3    H2 9748   4.843   3.461   1.473 -0.4658  1.9711  0.8435
 3248TIP3   OH2 9749   3.422   2.580   2.448 -0.2580 -0.2545 -0.1395
 3248TIP3    H1 9750   3.440   2.625   2.531 -2.3658 -0.0568  0.2881
 3248TIP3    H2 9751   3.334   2.544   2.460 -1.0320  0.5784 -2.6282
 3249TIP3   OH2 9752   6.083   1.235   1.483  0.6385  0.3258 -0.2408
 3249TIP3    H1 9753   6.010   1.179   1.458 -0.0955  1.7171 -1.3845
 3249TIP3    H2 9754   6.147   1.176   1.522  0.0812 -1.3559 -1.7551
 3250TIP3   OH2 9755   2.294   1.890   0.300  0.5000  0.3573  0.0122
 3250TIP3    H1 9756   2.373   1.938   0.327 -0.1602  1.2425  0.4190
 3250TIP3    H2 9757   2.313   1.799   0.323  0.9559  0.7250  1.1890
 3251TIP3   OH2 9758   5.770   2.745   3.792 -0.0235  0.1252  0.1811
 3251TIP3    H1 9759   5.693   2.733   3.736  0.6274 -0.0296 -0.7130
 3251TIP3    H2 9760   5.839   2.694   3.749  0.4540 -0.1445  1.2360
 3252TIP3   OH2 9761   0.128   5.247   0.216  0.6109 -0.3387 -0.3271
 3252TIP3    H1 9762   0.048   5.288   0.183  1.2157 -0.4341 -1.9932
 3252TIP3    H2 9763   0.183   5.321   0.243 -0.5573 -0.3136  2.2206
 3253TIP3   OH2 9764   5.984   2.442   3.254 -0.0438  0.0737 -0.1375
 3253TIP3    H1 9765   5.968   2.520   3.307  0.1572 -0.2768  0.4478
 3253TIP3    H2 9766   6.079   2.433   3.254  0.1408  1.2364 -2.2774
 3254TIP3   OH2 9767   2.473   4.220   2.613 -0.6078  0.3311 -0.7271
 3254TIP3    H1 9768   2.532   4.153   2.646 -1.0916 -1.1127 -2.6049
 3254TIP3    H2 9769   2.444   4.267   2.691  0.5271 -0.9864  0.5496
 3255TIP3   OH2 9770   5.169   3.688   0.018 -0.5047  0.2535 -0.0472
 3255TIP3    H1 9771   5.169   3.675   0.113 -0.3557 -1.9678 -0.2923
 3255TIP3    H2 9772   5.260   3.708  -0.003 -0.1221 -1.2445  0.0859
 3256TIP3   OH2 9773   5.626   0.556   3.814  0.2202  0.1914 -0.2072
 3256TIP3    H1 9774   5.541   0.596   3.835  1.2108  1.1059  2.5247
 3256TIP3    H2 9775   5.688   0.600   3.872  2.1755 -2.1169 -0.3860
 3257TIP3   OH2 9776   1.655   3.349   0.219 -0.4848  0.1890  0.3159
 3257TIP3    H1 9777   1.631   3.442   0.216 -0.7217  0.1317  0.3802
 3257TIP3    H2 9778   1.706   3.335   0.139  0.8512  0.7194  1.0417
 3258TIP3   OH2 9779   3.506   4.999   4.608  0.4422 -0.3073  0.6390
 3258TIP3    H1 9780   3.530   4.967   4.521  0.5341  1.2670  0.0441
 3258TIP3    H2 9781   3.542   4.935   4.668  0.6215 -1.2856 -0.4760
 3259TIP3   OH2 9782   6.001   1.771   3.454 -0.4336 -0.1688 -0.0853
 3259TIP3    H1 9783   5.984   1.719   3.533 -0.6941 -1.1864 -0.7947
 3259TIP3    H2 9784   5.918   1.814   3.435  0.0212  1.2901  1.0256
 3260TIP3   OH2 9785   6.185   2.696   0.804 -0.1296 -0.4908  0.7285
 3260TIP3    H1 9786   6.183   2.661   0.715  2.0227 -0.9290  0.7864
 3260TIP3    H2 9787   6.123   2.642   0.853  0.1307 -1.5736 -0.0862
 3261TIP3   OH2 9788   4.293   2.011   1.547 -0.5818 -0.0241 -0.1028
 3261TIP3    H1 9789   4.223   1.964   1.591 -0.5470  0.3104  0.3167
 3261TIP3    H2 9790   4.263   2.020   1.457 -1.5495  1.0278  0.3042
 3262TIP3   OH2 9791   2.594   4.052   1.857 -0.5370 -0.1158 -0.4225
 3262TIP3    H1 9792   2.666   3.989   1.859 -1.4288 -1.1452  0.2696
 3262TIP3    H2 9793   2.527   4.010   1.803 -1.1253  0.2796 -0.0107
 3263TIP3   OH2 9794   6.335   3.387   0.911  0.4521 -0.3817  0.0200
 3263TIP3    H1 9795   6.321   3.358   0.821  0.7327 -0.3730 -0.0303
 3263TIP3    H2 9796   6.360   3.308   0.959  1.9030 -0.1384 -0.2685
 3264TIP3   OH2 9797   4.143   4.514   0.327 -0.3505 -0.0177 -0.2607
 3264TIP3    H1 9798   4.227   4.485   0.291 -0.1714  0.4303 -0.2136
 3264TIP3    H2 9799   4.082   4.443   0.307  0.2444 -0.7747  0.5404
 3265TIP3   OH2 9800   1.631   5.362   0.765 -0.1122 -0.1230  0.7948
 3265TIP3    H1 9801   1.704   5.420   0.785 -0.9906  1.8152 -1.2794
 3265TIP3    H2 9802   1.647   5.332   0.676 -2.4053  1.3849 -0.2195
 3266TIP3   OH2 9803   0.636   4.517   2.661 -0.0378 -0.0609  0.0647
 3266TIP3    H1 9804   0.700   4.588   2.662 -1.5130  1.3774 -1.7231
 3266TIP3    H2 9805   0.596   4.522   2.574 -2.9440 -0.5617  1.2629
 3267TIP3   OH2 9806   4.170   0.809   3.406 -0.5403  0.0130  0.3753
 3267TIP3    H1 9807   4.238   0.840   3.346 -2.0989  0.5483 -1.2237
 3267TIP3    H2 9808   4.115   0.886   3.422 -2.2226 -0.9431 -0.4851
 3268TIP3   OH2 9809   1.543   0.228   3.764 -0.9693  0.2093  0.4735
 3268TIP3    H1 9810   1.583   0.160   3.710 -0.3116  0.9894 -0.0431
 3268TIP3    H2 9811   1.450   0.222   3.745 -0.8590 -0.2173  0.0471
 3269TIP3   OH2 9812   5.103   2.593   1.429  0.8745  0.5570 -0.8488
 3269TIP3    H1 9813   5.021   2.572   1.384 -0.1871  0.9021  0.8472
 3269TIP3    H2 9814   5.094   2.685   1.454  1.9481  0.7035 -0.9475
 3270TIP3   OH2 9815   2.401   3.451   0.374 -0.1549  0.5904 -0.3418
 3270TIP3    H1 9816   2.366   3.518   0.433 -1.5332 -1.2741  1.1143
 3270TIP3    H2 9817   2.365   3.369   0.409 -0.5112 -0.6860 -3.4203
 3271TIP3   OH2 9818   3.969   1.287   1.053 -0.0317  0.7513 -0.0606
 3271TIP3    H1 9819   4.026   1.361   1.074 -1.1113  1.3869  0.7378
 3271TIP3    H2 9820   3.884   1.326   1.037 -0.1305 -0.1241 -1.9189
 3272TIP3   OH2 9821   5.837   1.097   1.408  0.0936 -0.1574 -0.1718
 3272TIP3    H1 9822   5.788   1.033   1.460 -0.5115 -0.7947 -1.4974
 3272TIP3    H2 9823   5.815   1.182   1.448  0.4651 -0.7046  1.2454
 3273TIP3   OH2 9824   1.235   1.895   4.184  0.1130 -0.2485  0.1864
 3273TIP3    H1 9825   1.327   1.905   4.206  0.1071  2.6628 -0.6060
 3273TIP3    H2 9826   1.190   1.959   4.239 -1.2862 -0.7852 -0.2741
 3274TIP3   OH2 9827   2.206   4.712   3.973  0.2478 -0.9139  0.0784
 3274TIP3    H1 9828   2.205   4.806   3.990  0.1702 -0.7717 -0.6578
 3274TIP3    H2 9829   2.287   4.681   4.015  0.8678 -0.3193 -0.6366
 3275TIP3   OH2 9830   5.436   4.462   2.503  0.1573  0.4013  0.3125
 3275TIP3    H1 9831   5.514   4.435   2.454 -0.7228 -0.2643 -0.7732
 3275TIP3    H2 9832   5.373   4.392   2.487 -0.8838  1.2457  0.6416
 3276TIP3   OH2 9833   4.277   2.119   1.107 -0.3756 -0.7444  0.2890
 3276TIP3    H1 9834   4.333   2.049   1.073 -0.1799 -0.2035 -0.5396
 3276TIP3    H2 9835   4.229   2.150   1.030 -0.5513 -0.0610  0.6698
 3277TIP3   OH2 9836   4.584   5.732   3.299  0.3152  0.0336 -0.2722
 3277TIP3    H1 9837   4.636   5.759   3.223  0.0058  2.5688  0.3339
 3277TIP3    H2 9838   4.494   5.750   3.274  0.0210 -0.9229  0.0425
 3278TIP3   OH2 9839   4.276   5.584   3.298  0.3573 -0.4901 -0.7124
 3278TIP3    H1 9840   4.265   5.679   3.306 -0.9011 -0.6089 -0.8166
 3278TIP3    H2 9841   4.264   5.567   3.205 -0.0948 -0.8134 -0.6016
 3279TIP3   OH2 9842   3.391   0.937   3.185 -0.2631 -0.5443 -0.4280
 3279TIP3    H1 9843   3.351   0.881   3.118 -1.8000  0.6259 -0.5361
 3279TIP3    H2 9844   3.368   1.026   3.158  1.6815  0.1324  0.0301
 3280TIP3   OH2 9845   6.000   0.791   3.314 -0.8067 -1.2057  0.3355
 3280TIP3    H1 9846   5.999   0.855   3.385  0.5022 -1.2054  0.3744
 3280TIP3    H2 9847   5.943   0.830   3.247  1.0583  0.7719 -0.2485
 3281TIP3   OH2 9848   4.925   5.181   3.513  0.2590 -0.0855  0.0115
 3281TIP3    H1 9849   4.962   5.121   3.577  0.7991  1.4083  1.1607
 3281TIP3    H2 9850   4.874   5.126   3.454  0.3654 -1.5959  1.2858
 3282TIP3   OH2 9851   5.351   2.576   1.703  0.0194 -0.2523 -0.0074
 3282TIP3    H1 9852   5.436   2.618   1.715  1.3287 -2.6262 -0.2635
 3282TIP3    H2 9853   5.366   2.511   1.634 -2.3522  0.0793 -0.9463
 3283TIP3   OH2 9854   0.657   1.991   4.298 -0.0988 -0.3232 -0.1330
 3283TIP3    H1 9855   0.619   1.927   4.358  2.5240 -2.0165 -0.1010
 3283TIP3    H2 9856   0.649   2.074   4.344  0.9146 -1.4114  2.2150
 3284TIP3   OH2 9857   2.604   5.616   0.625 -0.0990 -0.8210  0.1681
 3284TIP3    H1 9858   2.683   5.613   0.680 -0.8404 -1.5761  1.2411
 3284TIP3    H2 9859   2.551   5.686   0.663  0.1446 -0.1468 -0.7048
 3285TIP3   OH2 9860   2.781   1.050   0.671 -0.0796  0.2220 -0.1363
 3285TIP3    H1 9861   2.819   1.089   0.592  0.2025 -0.3532 -0.2835
 3285TIP3    H2 9862   2.833   1.085   0.743 -0.2199  0.6016 -0.2163
 3286TIP3   OH2 9863   4.350   2.890   4.146 -0.0340 -0.4440 -0.2693
 3286TIP3    H1 9864   4.340   2.797   4.167 -0.1606 -0.1622  1.0539
 3286TIP3    H2 9865   4.324   2.935   4.227 -0.0281  0.7415 -0.9116
 3287TIP3   OH2 9866   5.642   4.951   0.931  0.5908  0.4106 -0.3709
 3287TIP3    H1 9867   5.661   5.014   0.862 -1.7905  2.2615  0.5389
 3287TIP3    H2 9868   5.647   4.866   0.887 -0.9122  1.5173 -2.8867
 3288TIP3   OH2 9869   3.421   4.108   0.275 -0.0279  0.3171  0.3268
 3288TIP3    H1 9870   3.378   4.193   0.263 -1.5186 -0.3924  0.4015
 3288TIP3    H2 9871   3.349   4.045   0.277  1.0045 -0.8801  1.0109
 3289TIP3   OH2 9872   3.595   3.979   3.426  0.2300 -0.2005 -0.3520
 3289TIP3    H1 9873   3.622   3.890   3.406  0.6850 -0.0604 -0.3551
 3289TIP3    H2 9874   3.513   3.991   3.377  0.0348 -0.6992 -0.1508
 3290TIP3   OH2 9875   3.161   0.916   1.785  0.2197  0.2467 -0.3103
 3290TIP3    H1 9876   3.178   0.866   1.705  0.0761  0.6391 -0.5877
 3290TIP3    H2 9877   3.089   0.975   1.762  1.2385  1.4999 -0.3831
 3291TIP3   OH2 9878   3.941   5.781   0.190 -0.1200 -0.7439  0.1789
 3291TIP3    H1 9879   3.971   5.860   0.145 -1.0975 -0.1990  0.4699
 3291TIP3    H2 9880   3.959   5.798   0.282 -1.3855 -0.3635  0.3712
 3292TIP3   OH2 9881   3.076   2.411   2.745 -0.1668 -0.6339  0.2080
 3292TIP3    H1 9882   3.057   2.319   2.765 -0.7492 -1.0276 -1.9258
 3292TIP3    H2 9883   3.168   2.421   2.769  0.0603 -1.9342 -0.0228
 3293TIP3   OH2 9884   4.998   3.251   2.209 -0.2556  0.2170  0.0419
 3293TIP3    H1 9885   5.073   3.297   2.171 -0.0447  0.1050  0.3245
 3293TIP3    H2 9886   5.029   3.218   2.293 -1.1947  1.8346  1.0582
 3294TIP3   OH2 9887   5.240   5.271   1.715 -0.0782 -0.2593  0.1656
 3294TIP3    H1 9888   5.205   5.213   1.782 -0.5004  0.0337  0.1994
 3294TIP3    H2 9889   5.270   5.212   1.646 -0.4725 -0.5195  0.2176
 3295TIP3   OH2 9890   6.297   5.535   2.179 -0.1458 -0.3160 -0.6778
 3295TIP3    H1 9891   6.210   5.570   2.197 -0.6229 -2.6000  2.1532
 3295TIP3    H2 9892   6.281   5.460   2.122 -0.2976 -1.6883  1.0950
 3296TIP3   OH2 9893   4.834   1.820   1.523 -0.1001 -0.3049  0.2970
 3296TIP3    H1 9894   4.740   1.824   1.503  0.0090  0.5344 -0.1115
 3296TIP3    H2 9895   4.858   1.910   1.541  1.1357 -0.0695 -2.0937
 3297TIP3   OH2 9896   5.233   3.129   2.991 -0.5076  0.6355 -0.1094
 3297TIP3    H1 9897   5.311   3.104   2.942 -0.7171  2.1294 -1.2846
 3297TIP3    H2 9898   5.242   3.084   3.075  0.8658 -0.3942 -0.7748
 3298TIP3   OH2 9899   0.725   0.771   4.566 -0.2469 -0.5460 -1.0292
 3298TIP3    H1 9900   0.692   0.853   4.531 -1.0294 -0.7366 -0.7633
 3298TIP3    H2 9901   0.787   0.797   4.634 -0.1204 -0.1825 -1.2801
 3299TIP3   OH2 9902   1.716   4.428   0.907  0.1246 -0.1055 -0.2993
 3299TIP3    H1 9903   1.779   4.489   0.947  1.6923 -1.1649 -1.0232
 3299TIP3    H2 9904   1.694   4.367   0.977 -0.4636  0.5197  0.0762
 3300TIP3   OH2 9905   1.731   2.014   1.124 -0.7664  0.2191  0.6536
 3300TIP3    H1 9906   1.741   2.109   1.126 -0.3071  0.2007 -0.2628
 3300TIP3    H2 9907   1.664   1.998   1.058 -1.8239 -0.0323  1.7737
 3301TIP3   OH2 9908   4.515   5.387   2.331 -0.5837  0.6690 -0.1345
 3301TIP3    H1 9909   4.557   5.341   2.258  1.7026  1.1259  0.8165
 3301TIP3    H2 9910   4.539   5.479   2.319 -1.3842  0.9606  0.4191
 3302TIP3   OH2 9911   3.091   0.142   2.990 -0.1863  0.1359  0.1426
 3302TIP3    H1 9912   3.008   0.178   2.960 -0.9869  0.2410  2.2997
 3302TIP3    H2 9913   3.090   0.156   3.085  1.6256 -1.2355  0.4157
 3303TIP3   OH2 9914   5.724   3.209   4.041  0.2179 -0.4191 -0.3170
 3303TIP3    H1 9915   5.722   3.116   4.016 -0.2188 -0.4541 -0.1515
 3303TIP3    H2 9916   5.797   3.215   4.103  0.0492 -0.7126 -0.0854
 3304TIP3   OH2 9917   4.506   5.759   1.215 -0.0358  0.0719 -0.0231
 3304TIP3    H1 9918   4.503   5.678   1.163  0.3482 -0.3426  0.5813
 3304TIP3    H2 9919   4.415   5.777   1.238 -0.1689  0.0555 -0.5300
 3305TIP3   OH2 9920   4.426   3.586   3.167  1.0548  0.3537 -0.1789
 3305TIP3    H1 9921   4.424   3.495   3.199 -2.7659  0.8096  1.4255
 3305TIP3    H2 9922   4.446   3.638   3.245 -0.3502  1.0262 -0.2340
 3306TIP3   OH2 9923   6.026   3.914   0.295  0.1305  0.1029 -0.2467
 3306TIP3    H1 9924   6.103   3.952   0.338 -0.1241  0.1251  0.1892
 3306TIP3    H2 9925   5.994   3.848   0.357  0.6900 -0.9928 -1.0783
 3307TIP3   OH2 9926   5.253   0.864   1.946 -0.2707 -0.0997 -0.7981
 3307TIP3    H1 9927   5.209   0.895   2.025 -2.2273 -1.2583 -1.3556
 3307TIP3    H2 9928   5.225   0.773   1.937  0.8206 -0.3321 -2.2210
 3308TIP3   OH2 9929   2.002   2.257   1.774 -0.3252  0.1493 -0.1101
 3308TIP3    H1 9930   2.024   2.215   1.858  1.6182  0.3899 -0.4704
 3308TIP3    H2 9931   2.010   2.350   1.791 -0.4328  0.2192 -0.4389
 3309TIP3   OH2 9932   1.244   1.715   2.850  0.1577 -0.4616  0.0762
 3309TIP3    H1 9933   1.298   1.636   2.850  1.0368  0.0900  1.9164
 3309TIP3    H2 9934   1.301   1.784   2.884 -1.3764  0.3770  1.0934
 3310TIP3   OH2 9935   1.133   1.226   1.973 -0.5801 -0.1998 -0.1156
 3310TIP3    H1 9936   1.119   1.184   2.058 -0.3610  0.0049  0.0209
 3310TIP3    H2 9937   1.190   1.300   1.992 -0.7656  0.0142 -0.3979
 3311TIP3   OH2 9938   1.136   4.183   2.307 -0.0513  0.5626 -0.1771
 3311TIP3    H1 9939   1.142   4.162   2.401  0.1641  0.1776 -0.2727
 3311TIP3    H2 9940   1.226   4.207   2.282 -0.2505  1.3879 -0.1243
 3312TIP3   OH2 9941   5.726   1.376   0.309 -0.1073  0.1902 -0.2505
 3312TIP3    H1 9942   5.651   1.423   0.274  1.4321  1.5604 -1.9280
 3312TIP3    H2 9943   5.801   1.433   0.291  1.4631 -1.4848  0.5749
 3313TIP3   OH2 9944   1.300   2.422   0.602  0.2979  0.0127  0.1396
 3313TIP3    H1 9945   1.308   2.505   0.650  1.8598  0.2126 -0.4093
 3313TIP3    H2 9946   1.271   2.447   0.515 -1.0419 -0.2160  0.4933
 3314TIP3   OH2 9947   2.042   1.176   5.010  0.0173  0.0503 -0.1485
 3314TIP3    H1 9948   1.977   1.246   5.016  1.5985  1.5338  0.4443
 3314TIP3    H2 9949   2.073   1.179   4.919 -0.8210 -0.7728 -0.4799
 3315TIP3   OH2 9950   2.571   4.658   0.554 -0.1542  0.2077  0.5792
 3315TIP3    H1 9951   2.664   4.636   0.560  0.1519  0.4443 -2.2668
 3315TIP3    H2 9952   2.531   4.582   0.511 -1.5427 -0.3755  2.7466
 3316TIP3   OH2 9953   4.857   4.671   5.131 -0.2019 -0.4991 -0.1310
 3316TIP3    H1 9954   4.876   4.659   5.038  0.7648 -0.2525  0.0198
 3316TIP3    H2 9955   4.761   4.676   5.136 -0.3143 -1.6075 -0.9673
 3317TIP3   OH2 9956   0.591   0.991   4.777  0.0097  0.2858  0.0106
 3317TIP3    H1 9957   0.560   0.999   4.687  0.1891  0.5393 -0.0283
 3317TIP3    H2 9958   0.669   1.045   4.781  1.0978 -1.2111 -0.1893
 3318TIP3   OH2 9959   3.990   2.535   0.301 -0.0730  0.7825  0.1991
 3318TIP3    H1 9960   4.026   2.623   0.292 -1.8384  1.5751  0.3379
 3318TIP3    H2 9961   4.006   2.493   0.216  3.5483  0.0435  1.0834
 3319TIP3   OH2 9962   2.990   4.781   3.835 -0.5822  0.4441 -0.3323
 3319TIP3    H1 9963   3.042   4.762   3.757 -0.7603 -0.4417 -0.2464
 3319TIP3    H2 9964   2.962   4.871   3.824  0.9841  0.9554 -0.3760
 3320TIP3   OH2 9965   4.742   0.240   2.911  0.4836  0.3692  0.1255
 3320TIP3    H1 9966   4.820   0.294   2.926  0.5944  0.0747  0.6411
 3320TIP3    H2 9967   4.755   0.164   2.967  0.8479 -0.7228 -1.3975
 3321TIP3   OH2 9968   2.896   0.593   3.397  0.3018 -0.3732 -0.3067
 3321TIP3    H1 9969   2.851   0.530   3.453 -0.2087 -0.8382 -1.2212
 3321TIP3    H2 9970   2.988   0.567   3.402  0.0776 -1.2755 -0.7809
 3322TIP3   OH2 9971   3.534   2.464   3.752  0.2768 -0.1589 -0.0398
 3322TIP3    H1 9972   3.534   2.496   3.842 -0.6121 -1.3540  0.4301
 3322TIP3    H2 9973   3.584   2.528   3.702  1.2837  0.2172  1.4124
 3323TIP3   OH2 9974   3.859   2.111   0.177  0.1099  0.2562  0.3857
 3323TIP3    H1 9975   3.863   2.015   0.172  0.5234  0.2583  0.5789
 3323TIP3    H2 9976   3.949   2.139   0.160  0.1455  0.5728  1.0514
 3324TIP3   OH2 9977   3.976   4.687   4.092 -0.0634 -0.7657 -0.4033
 3324TIP3    H1 9978   4.069   4.668   4.080  0.0921  0.3159 -1.0863
 3324TIP3    H2 9979   3.940   4.685   4.003 -0.6643 -1.0293 -0.1559
 3325TIP3   OH2 9980   5.065   1.832   0.117 -0.6099  0.1753 -0.0486
 3325TIP3    H1 9981   5.103   1.847   0.203 -1.0470 -0.8024  0.3349
 3325TIP3    H2 9982   5.140   1.821   0.059 -0.2970 -0.4238  0.4535
 3326TIP3   OH2 9983   5.387   0.664   3.823  0.5093  0.1966  0.1912
 3326TIP3    H1 9984   5.354   0.738   3.773 -0.5775  0.1851  0.8799
 3326TIP3    H2 9985   5.338   0.665   3.905  1.7505 -0.2202  0.9761
 3327TIP3   OH2 9986   2.504   5.077   1.448 -0.3697 -0.1029  0.2662
 3327TIP3    H1 9987   2.583   5.124   1.476  0.1561 -0.4243 -0.6256
 3327TIP3    H2 9988   2.534   4.988   1.432 -0.4838  0.1759 -1.8030
 3328TIP3   OH2 9989   0.449   3.297   0.240  0.2538  0.1382  0.0441
 3328TIP3    H1 9990   0.459   3.385   0.278 -0.8555  0.7005 -0.8959
 3328TIP3    H2 9991   0.385   3.309   0.169  1.5839 -1.0457 -1.4175
 3329TIP3   OH2 9992   0.059   5.587   3.142  1.1144  0.3179  0.1982
 3329TIP3    H1 9993  -0.010   5.562   3.203  1.5135 -2.2411 -0.2637
 3329TIP3    H2 9994   0.137   5.598   3.197  1.0613 -0.1442  0.3719
 3330TIP3   OH2 9995   4.629   2.285   4.292  0.3716 -0.5932  0.5703
 3330TIP3    H1 9996   4.689   2.212   4.279  1.9259  0.7500 -0.1838
 3330TIP3    H2 9997   4.661   2.328   4.372  1.2512  0.8274 -0.4816
 3331TIP3   OH2 9998   0.561   1.733   0.269 -0.2576  0.0573  0.4191
 3331TIP3    H1 9999   0.480   1.691   0.298 -1.4402  1.7038 -0.3474
 3331TIP3    H210000   0.583   1.792   0.341  0.4211 -0.5512  0.7256
 3332TIP3   OH210001   3.265   1.508   3.715  0.2801  0.1690 -0.3468
 3332TIP3    H110002   3.348   1.541   3.748 -0.0674 -0.0541  0.7807
 3332TIP3    H210003   3.204   1.517   3.789 -0.4995 -0.4177 -0.8995
 3333TIP3   OH210004   1.868   0.565   2.978 -0.1632  0.2793 -0.2499
 3333TIP3    H110005   1.866   0.566   2.882  0.7169  0.3693 -0.2760
 3333TIP3    H210006   1.811   0.493   3.003 -0.8309  0.5967 -0.8240
 3334TIP3   OH210007   5.199   1.548   4.921 -0.0328 -0.0793  0.6955
 3334TIP3    H110008   5.279   1.548   4.868 -0.0018  1.3940  0.6895
 3334TIP3    H210009   5.224   1.507   5.003  0.1335 -1.6546 -0.1065
 3335TIP3   OH210010   3.200   1.156   0.020  0.4286 -0.1970 -0.5198
 3335TIP3    H110011   3.280   1.172  -0.030  0.3812  1.1593 -0.2158
 3335TIP3    H210012   3.210   1.211   0.098 -1.6563  1.5882 -1.4228
 3336TIP3   OH210013   1.008   5.661   4.574 -0.7141  0.6061 -0.0488
 3336TIP3    H110014   1.029   5.692   4.661 -0.7910  0.8747 -0.1250
 3336TIP3    H210015   0.984   5.740   4.525  0.7105  0.6622 -0.7252
 3337TIP3   OH210016   1.877   2.709   1.334  0.1939 -0.0992  0.1601
 3337TIP3    H110017   1.875   2.799   1.302  1.0746  0.9727  2.7874
 3337TIP3    H210018   1.940   2.664   1.278  1.1525  1.4653 -0.0683
 3338TIP3   OH210019   5.079   1.072   2.436  0.0920  0.3207  0.5728
 3338TIP3    H110020   5.138   1.001   2.461  0.8302 -0.0990 -2.0550
 3338TIP3    H210021   5.123   1.152   2.466  0.6141 -0.1658  1.1217
 3339TIP3   OH210022   4.201   0.255   2.035  0.1635  0.2671  0.4086
 3339TIP3    H110023   4.282   0.300   2.060 -0.2348  0.4822  1.3424
 3339TIP3    H210024   4.134   0.292   2.092 -0.8443  0.9524 -1.1575
 3340TIP3   OH210025   5.206   2.495   4.727 -0.4030  0.0737 -0.1700
 3340TIP3    H110026   5.163   2.573   4.691  0.8623  0.9752  0.2375
 3340TIP3    H210027   5.133   2.436   4.748 -1.3471  0.8337 -1.1448
 3341TIP3   OH210028   0.753   3.716   1.487 -0.9753  0.4603 -0.4809
 3341TIP3    H110029   0.676   3.691   1.436  0.2291  0.5931 -2.4611
 3341TIP3    H210030   0.825   3.667   1.448  0.0551  0.6989  1.0197
 3342TIP3   OH210031   4.395   0.680   1.555  0.2610  0.2185  0.0055
 3342TIP3    H110032   4.370   0.637   1.637  2.4635 -0.9314  0.1590
 3342TIP3    H210033   4.467   0.738   1.580  1.1782 -0.3958 -1.1293
 3343TIP3   OH210034   2.810   2.107   3.998 -0.1789  1.1137 -0.7708
 3343TIP3    H110035   2.811   2.017   3.964 -1.6045  1.1428 -0.9330
 3343TIP3    H210036   2.757   2.156   3.935  0.2190  1.9751 -0.4432
 3344TIP3   OH210037   6.151   5.756   4.467  0.1493  0.3697  0.0885
 3344TIP3    H110038   6.186   5.772   4.555 -0.0675 -1.3408  0.5110
 3344TIP3    H210039   6.081   5.692   4.481  0.1827  0.0006 -1.3494
 3345TIP3   OH210040   3.422   3.311   0.471  0.1176 -0.0734  0.0625
 3345TIP3    H110041   3.426   3.362   0.552  3.3601 -2.2256  1.5115
 3345TIP3    H210042   3.448   3.372   0.403 -1.4596  1.4927  0.8140
 3346TIP3   OH210043   3.802   2.886   0.252 -0.2589  0.2632  0.4579
 3346TIP3    H110044   3.738   2.952   0.225 -1.9573 -1.2628  0.5293
 3346TIP3    H210045   3.832   2.914   0.338 -0.9656  0.9153  0.4966
 3347TIP3   OH210046   3.230   4.136   1.200  0.8123 -0.2183  0.2099
 3347TIP3    H110047   3.297   4.166   1.262  1.1456 -0.5962  0.0317
 3347TIP3    H210048   3.177   4.073   1.249  2.0234 -1.7041 -0.3303
 3348TIP3   OH210049   1.282   2.787   5.095  0.2942 -0.5390 -0.0828
 3348TIP3    H110050   1.272   2.749   5.182  2.2824 -2.8364 -0.7531
 3348TIP3    H210051   1.358   2.845   5.104  0.2529 -0.4706 -0.1865
 3349TIP3   OH210052   2.907   2.683   0.450 -0.2707 -0.0898  0.1941
 3349TIP3    H110053   2.877   2.774   0.449 -0.5902  0.0286  3.8376
 3349TIP3    H210054   2.976   2.680   0.384  0.2723  3.0428  0.4473
 3350TIP3   OH210055   2.759   4.095   0.178 -0.1380  0.2246  0.4887
 3350TIP3    H110056   2.844   4.111   0.218 -0.0742 -1.0962  0.9216
 3350TIP3    H210057   2.762   4.003   0.151 -0.5330  0.7905 -1.6976
 3351TIP3   OH210058   3.689   2.057   0.547  0.7563 -0.3096  0.1773
 3351TIP3    H110059   3.692   1.976   0.495  2.8429 -0.3483  0.2571
 3351TIP3    H210060   3.693   2.127   0.483  0.1206 -0.2947  0.1549
 3352TIP3   OH210061   0.785   3.934   2.326  0.0405 -0.0757  0.0519
 3352TIP3    H110062   0.879   3.916   2.330 -0.3552 -2.7535 -0.4610
 3352TIP3    H210063   0.778   4.011   2.270  1.9483  0.3474  0.3311
 3353TIP3   OH210064   2.907   3.743   0.392  0.4066 -0.3212 -0.2995
 3353TIP3    H110065   2.999   3.753   0.415  0.3731  0.7203 -0.5722
 3353TIP3    H210066   2.895   3.800   0.316 -0.5231 -0.2570 -0.1181
 3354TIP3   OH210067   4.303   2.823   0.190 -0.6774 -0.2388 -0.3581
 3354TIP3    H110068   4.342   2.907   0.169 -0.6600 -0.4761 -1.3319
 3354TIP3    H210069   4.378   2.764   0.201 -0.6403  0.0639  1.3352
 3355TIP3   OH210070   6.324   2.789   3.685 -0.0180 -0.2638 -0.1307
 3355TIP3    H110071   6.269   2.835   3.748 -0.1845 -0.8247  0.1404
 3355TIP3    H210072   6.265   2.762   3.615  0.3102  1.0921 -0.9620
 3356TIP3   OH210073   1.947   0.987   2.944 -0.3081 -0.2433 -0.1717
 3356TIP3    H110074   1.932   0.923   2.874 -0.9803  0.0498 -0.3031
 3356TIP3    H210075   1.913   0.944   3.023 -0.4232 -0.1984 -0.1960
 3357TIP3   OH210076   6.072   1.295   3.786  0.5506  0.7072 -0.0833
 3357TIP3    H110077   6.120   1.374   3.761  1.2716  0.5098  0.6279
 3357TIP3    H210078   6.059   1.304   3.880  2.2873 -0.8545  0.3795
 3358TIP3   OH210079   3.030   3.087   3.098  0.9141 -0.0330  0.0927
 3358TIP3    H110080   2.958   3.034   3.129 -0.3796  2.1949  1.1570
 3358TIP3    H210081   3.081   3.108   3.177  0.7992  1.1125 -0.1168
 3359TIP3   OH210082   2.069   5.723   1.479  0.2650  0.0182 -0.1037
 3359TIP3    H110083   2.080   5.745   1.386  0.2719  0.2307 -0.0531
 3359TIP3    H210084   2.052   5.807   1.521  0.4482 -0.0547  0.1162
 3360TIP3   OH210085   4.073   3.280   2.620 -0.3869 -0.3556  0.5319
 3360TIP3    H110086   4.043   3.196   2.654  0.0377 -1.3100 -1.3388
 3360TIP3    H210087   4.007   3.343   2.650 -2.6691 -1.9136 -0.9226
 3361TIP3   OH210088   1.812   4.122   0.743  0.1001 -0.5652  0.4020
 3361TIP3    H110089   1.784   4.207   0.778 -1.0390 -0.6499 -0.2745
 3361TIP3    H210090   1.907   4.124   0.751 -0.0404 -0.2439  2.7156
 3362TIP3   OH210091   1.844   5.353   1.456 -0.8057  0.4822 -0.0777
 3362TIP3    H110092   1.863   5.362   1.549 -1.0088  0.0769  0.0018
 3362TIP3    H210093   1.926   5.379   1.413 -0.5500  0.1795  0.2242
 3363TIP3   OH210094   5.736   2.368   4.705 -0.1591 -0.6469 -0.1844
 3363TIP3    H110095   5.764   2.452   4.668  0.8626 -0.1714  1.5466
 3363TIP3    H210096   5.653   2.388   4.749  0.9404 -0.0367  1.7615
 3364TIP3   OH210097   4.711   5.165   3.034 -0.6497 -0.3106 -0.0690
 3364TIP3    H110098   4.659   5.244   3.049 -0.0498 -0.0592  0.7334
 3364TIP3    H210099   4.716   5.122   3.119  0.9618 -0.0091  0.0174
 3365TIP3   OH210100   2.519   1.155   0.863  0.4580  0.2040  0.4271
 3365TIP3    H110101   2.558   1.223   0.808 -2.9866  1.8604 -0.2643
 3365TIP3    H210102   2.519   1.193   0.951  2.2908 -0.7432  0.8780
 3366TIP3   OH210103   2.811   5.138   2.151 -0.4720 -0.4957  0.0961
 3366TIP3    H110104   2.778   5.169   2.236 -0.1690 -0.6404  0.2683
 3366TIP3    H210105   2.867   5.210   2.120 -0.4020 -0.5380  0.1252
 3367TIP3   OH210106   6.257   1.264   4.780 -0.0511 -0.1553 -0.5745
 3367TIP3    H110107   6.273   1.321   4.705  0.4304  0.4981  0.0147
 3367TIP3    H210108   6.185   1.307   4.828 -0.1278 -0.3876 -0.4796
 3368TIP3   OH210109   4.804   0.726   1.397  0.5018  0.5956 -0.7321
 3368TIP3    H110110   4.803   0.821   1.406 -0.0001  0.5243  0.1319
 3368TIP3    H210111   4.887   0.699   1.438 -0.1401  0.5503  0.6036
 3369TIP3   OH210112   1.606   3.553   3.816 -0.1418 -0.3524  0.1384
 3369TIP3    H110113   1.586   3.548   3.910 -1.1164 -2.3191 -0.1349
 3369TIP3    H210114   1.693   3.513   3.808  0.4243  0.7746  0.2827
 3370TIP3   OH210115   1.765   2.496   2.898 -0.0606  0.2809 -0.5184
 3370TIP3    H110116   1.691   2.532   2.850 -0.1458 -2.0225 -2.2606
 3370TIP3    H210117   1.842   2.527   2.851  0.1057  1.7655  0.6455
 3371TIP3   OH210118   2.616   1.187   4.582 -0.5309 -0.6394 -0.3477
 3371TIP3    H110119   2.659   1.119   4.529 -1.7192 -1.7831  0.1039
 3371TIP3    H210120   2.586   1.141   4.660  1.8876  1.1658  1.8064
 3372TIP3   OH210121   3.006   2.219   3.687 -0.3151  0.4355 -0.1833
 3372TIP3    H110122   2.938   2.239   3.622  0.6596  1.1333 -1.0114
 3372TIP3    H210123   2.981   2.133   3.722  0.5620 -1.2498 -3.3860
 3373TIP3   OH210124   2.424   5.524   4.262 -0.3204  0.1114  0.8788
 3373TIP3    H110125   2.429   5.444   4.209 -1.8607  1.4405 -1.4154
 3373TIP3    H210126   2.356   5.504   4.327  0.1240 -0.8365  1.0702
 3374TIP3   OH210127   2.709   0.645   3.918 -0.1018 -0.0717  0.0489
 3374TIP3    H110128   2.636   0.604   3.965 -1.8627  1.2433 -1.3921
 3374TIP3    H210129   2.775   0.576   3.911 -1.7948 -1.7628  0.1289
 3375TIP3   OH210130   3.294   2.416   3.064 -0.0861 -0.0455 -0.0937
 3375TIP3    H110131   3.214   2.370   3.087 -1.2256  1.3129 -1.2130
 3375TIP3    H210132   3.340   2.427   3.148 -1.6824  0.2846  0.7666
 3376TIP3   OH210133   0.882   2.219   0.504  0.4984  0.4562 -0.5665
 3376TIP3    H110134   0.953   2.162   0.475 -1.1288 -1.7047 -0.6214
 3376TIP3    H210135   0.821   2.221   0.430  1.0041  3.3013 -1.0131
 3377TIP3   OH210136   5.394   3.151   3.352 -0.6525 -0.2728 -0.6612
 3377TIP3    H110137   5.436   3.237   3.356 -1.2070  0.0589 -1.7041
 3377TIP3    H210138   5.446   3.097   3.412 -0.0579  0.6787 -0.2875
 3378TIP3   OH210139   5.990   0.715   3.683  0.1168  0.0855 -0.0526
 3378TIP3    H110140   5.918   0.697   3.622  0.9036 -3.8775 -0.0588
 3378TIP3    H210141   6.058   0.652   3.660  1.8178  0.7027  2.7862
 3379TIP3   OH210142   4.188   5.246   0.212 -0.3206 -0.0646 -0.2057
 3379TIP3    H110143   4.250   5.319   0.209  0.1785 -0.4421  0.7679
 3379TIP3    H210144   4.107   5.285   0.247 -0.4416  0.2859 -0.8661
 3380TIP3   OH210145  -0.028   0.215   4.235 -0.2427  0.5431  0.2553
 3380TIP3    H110146   0.007   0.273   4.302  0.1840  0.1850  0.3432
 3380TIP3    H210147   0.043   0.155   4.215 -0.7601 -0.1174  0.3491
 3381TIP3   OH210148   5.346   4.251   1.295 -0.6146 -0.2389  0.2441
 3381TIP3    H110149   5.393   4.205   1.225 -1.0291 -0.1279 -0.1073
 3381TIP3    H210150   5.284   4.308   1.250 -0.8091 -0.0842  0.6996
 3382TIP3   OH210151   3.444   4.471   5.137 -0.3249  0.0682  0.2835
 3382TIP3    H110152   3.448   4.513   5.223  1.4226 -1.4697  1.0179
 3382TIP3    H210153   3.417   4.381   5.156  0.3195 -0.3528 -0.7328
 3383TIP3   OH210154   0.606   3.419   3.200 -0.0488 -0.0747 -0.5770
 3383TIP3    H110155   0.665   3.492   3.180  0.2572  0.0408  0.6846
 3383TIP3    H210156   0.518   3.457   3.195  0.1119  0.4240  0.1810
 3384TIP3   OH210157   6.025   5.954   4.148  0.3812  0.6790 -0.1938
 3384TIP3    H110158   5.976   5.874   4.128 -0.6840  1.1897  0.3078
 3384TIP3    H210159   5.971   6.000   4.213  0.4717  2.3027 -1.2285
 3385TIP3   OH210160   5.942   5.992   3.180 -0.9259  0.3171  0.5359
 3385TIP3    H110161   5.859   6.033   3.154 -1.4356 -1.0007 -0.0114
 3385TIP3    H210162   5.974   5.951   3.099  0.4413  1.0842  0.6652
 3386TIP3   OH210163   2.827   1.959   1.647 -0.7588  0.3913  0.3734
 3386TIP3    H110164   2.866   2.045   1.628  2.3739 -1.0616 -0.5141
 3386TIP3    H210165   2.803   1.924   1.562 -0.0613 -0.3986  0.4791
 3387TIP3   OH210166   4.515   0.447   3.496 -0.1505 -0.5977 -0.1886
 3387TIP3    H110167   4.470   0.516   3.446 -1.4247 -1.3578 -0.1453
 3387TIP3    H210168   4.537   0.488   3.579 -1.2107 -0.3231 -0.0283
 3388TIP3   OH210169   1.661   0.066   2.524  0.3082 -0.3118 -0.0742
 3388TIP3    H110170   1.574   0.072   2.483  0.3137 -0.9588 -0.1921
 3388TIP3    H210171   1.679   0.155   2.554  0.9125  0.5475 -2.7201
 3389TIP3   OH210172   6.029   5.107   0.163 -0.4412 -0.1786  0.3767
 3389TIP3    H110173   5.964   5.113   0.233  0.1366 -0.5144  0.9438
 3389TIP3    H210174   6.092   5.042   0.193 -0.7233 -1.0857 -0.8980
 3390TIP3   OH210175   1.368   5.274   0.693  0.4043 -0.5625  0.2225
 3390TIP3    H110176   1.278   5.278   0.660 -0.5824 -0.7095  2.7275
 3390TIP3    H210177   1.385   5.181   0.704  1.1636 -0.5778 -0.8928
 3391TIP3   OH210178   1.863   0.181   4.525  0.4085 -0.3888 -0.2943
 3391TIP3    H110179   1.917   0.259   4.534 -0.4611  0.1774  0.0942
 3391TIP3    H210180   1.844   0.154   4.615 -1.2196  0.3215 -0.4019
 3392TIP3   OH210181   1.139   3.377   0.846  0.1951  0.3047  0.1110
 3392TIP3    H110182   1.094   3.442   0.900 -0.2964  0.9991 -1.0901
 3392TIP3    H210183   1.199   3.428   0.792  1.3476 -0.4669  0.6292
 3393TIP3   OH210184   1.210   0.746   1.080  0.5030  0.4243 -0.0264
 3393TIP3    H110185   1.193   0.652   1.079  2.2388  0.0650 -0.1845
 3393TIP3    H210186   1.282   0.756   1.142  0.5629  1.6078 -0.2624
 3394TIP3   OH210187   4.272   3.967   3.528  0.3047 -0.8139  0.2450
 3394TIP3    H110188   4.204   3.908   3.557 -0.9839  0.2941 -0.4047
 3394TIP3    H210189   4.273   3.958   3.432  1.1807 -0.9180  0.2504
 3395TIP3   OH210190   5.531   2.355   2.262  0.2163  0.0761  0.4304
 3395TIP3    H110191   5.461   2.330   2.322  0.8333 -0.8577  0.7869
 3395TIP3    H210192   5.588   2.277   2.258  0.6740  0.4516 -0.6482
 3396TIP3   OH210193   4.415   3.985   2.735 -0.5996  0.6911 -0.1741
 3396TIP3    H110194   4.468   3.905   2.738 -2.5826 -0.6845  1.0222
 3396TIP3    H210195   4.470   4.052   2.776  0.7461 -0.2885 -0.3110
 3397TIP3   OH210196   4.814   1.394   3.296  0.6244  0.0331  0.3413
 3397TIP3    H110197   4.833   1.325   3.233 -0.4419 -1.1610  1.2775
 3397TIP3    H210198   4.846   1.474   3.255  1.3493 -0.9271 -1.0270
 3398TIP3   OH210199   0.056   4.837   0.914  0.1361 -0.3825  0.4681
 3398TIP3    H110200   0.043   4.757   0.965  0.3937  0.4937  1.9731
 3398TIP3    H210201   0.151   4.845   0.904  0.1354 -0.0258  0.7242
 3399TIP3   OH210202   6.101   0.857   5.102 -0.0855 -0.7099 -0.2479
 3399TIP3    H110203   6.091   0.798   5.177  0.1113  0.5697  0.8313
 3399TIP3    H210204   6.180   0.826   5.058 -0.8733 -2.2288 -0.6660
 3400TIP3   OH210205   5.922   5.558   2.694  0.2723 -0.6817 -0.6922
 3400TIP3    H110206   5.871   5.481   2.669  1.3235 -1.2449 -1.1673
 3400TIP3    H210207   6.008   5.544   2.655  0.6557  0.4732 -0.3129
 3401TIP3   OH210208   4.894   4.134   3.685 -0.3094 -0.3195  0.0438
 3401TIP3    H110209   4.957   4.087   3.741  1.3098  1.1977 -0.4038
 3401TIP3    H210210   4.922   4.114   3.596  0.1150  1.0861 -0.1499
 3402TIP3   OH210211   4.682   1.833   2.562  0.0446  0.7049  0.2710
 3402TIP3    H110212   4.692   1.924   2.590  1.1838  0.5782  0.3212
 3402TIP3    H210213   4.740   1.783   2.620  0.1371  0.0624 -0.3586
 3403TIP3   OH210214   0.132   1.647   2.687 -0.4014  0.8313  0.3565
 3403TIP3    H110215   0.149   1.697   2.766 -1.0671  0.5215  0.7008
 3403TIP3    H210216   0.194   1.574   2.690  0.4353  1.5033 -0.0473
 3404TIP3   OH210217   1.587   0.885   2.054  0.0894 -0.2834 -0.1947
 3404TIP3    H110218   1.533   0.831   1.996 -1.2249 -1.3851  1.9212
 3404TIP3    H210219   1.672   0.841   2.054 -0.4263 -1.3373  0.0620
 3405TIP3   OH210220   2.172   1.721   5.120  0.0412  0.0609  0.4327
 3405TIP3    H110221   2.161   1.774   5.041 -0.4425  0.0909  0.5194
 3405TIP3    H210222   2.083   1.693   5.143 -0.1011  1.7434  2.1305
 3406TIP3   OH210223   0.889   1.009   3.238  0.4595  0.7876 -0.0370
 3406TIP3    H110224   0.905   0.988   3.330 -0.3899  0.4225  0.0379
 3406TIP3    H210225   0.977   1.013   3.199  0.7929 -2.1600  0.1108
 3407TIP3   OH210226   0.161   2.043   1.578  0.0970  0.0271 -0.0717
 3407TIP3    H110227   0.235   2.102   1.566 -1.3960  1.6107 -2.1341
 3407TIP3    H210228   0.094   2.096   1.621 -1.4094  0.0586 -2.3034
 3408TIP3   OH210229   5.020   5.379   0.954  0.0145  0.3564  0.3611
 3408TIP3    H110230   5.087   5.314   0.974 -0.0908  0.0524 -0.2611
 3408TIP3    H210231   5.021   5.387   0.859  0.1409  1.3938  0.4358
 3409TIP3   OH210232   2.678   1.873   3.053 -0.0592 -0.0279 -0.3693
 3409TIP3    H110233   2.587   1.844   3.041 -0.5457  0.5923  1.4852
 3409TIP3    H210234   2.683   1.899   3.145  2.0444 -0.1502 -0.3969
 3410TIP3   OH210235   0.740   3.462   0.512 -0.1570  0.3093  0.2488
 3410TIP3    H110236   0.776   3.373   0.505 -0.1988  0.3956 -2.6463
 3410TIP3    H210237   0.814   3.517   0.536  0.2517 -0.2979  0.3856
 3411TIP3   OH210238   2.005   0.026   4.317 -0.0268 -0.3785  0.2274
 3411TIP3    H110239   1.931   0.028   4.257 -0.8621 -0.6579  1.2328
 3411TIP3    H210240   1.968   0.048   4.402  1.0461 -0.5007  0.7421
 3412TIP3   OH210241   0.084   2.502   4.149 -0.7317 -0.0316 -0.2360
 3412TIP3    H110242   0.144   2.466   4.084 -1.3450  0.2976 -0.9997
 3412TIP3    H210243   0.115   2.592   4.163 -0.2961 -0.2584  0.3199
 3413TIP3   OH210244   2.255   2.053   2.376  0.2557 -0.4386 -0.6825
 3413TIP3    H110245   2.219   2.020   2.293 -0.3972  1.1626 -1.0814
 3413TIP3    H210246   2.201   2.013   2.443  0.7318 -1.6868 -1.0241
 3414TIP3   OH210247   0.600   3.084   0.861 -0.3669 -0.1764  0.4799
 3414TIP3    H110248   0.635   3.012   0.913  0.3322  0.7597  1.3346
 3414TIP3    H210249   0.517   3.106   0.903 -1.2254 -1.2937 -0.5496
 3415TIP3   OH210250   6.152   2.369   4.234  0.2166 -0.0592  0.4640
 3415TIP3    H110251   6.166   2.293   4.177  2.0607  1.6230 -1.5042
 3415TIP3    H210252   6.223   2.364   4.298 -1.6278 -1.7333  2.5188
 3416TIP3   OH210253   0.786   1.265   4.563  0.3142 -0.4157  0.0892
 3416TIP3    H110254   0.812   1.314   4.485  0.0176  0.2351  0.3936
 3416TIP3    H210255   0.855   1.281   4.626  1.0972 -1.7984 -0.3693
 3417TIP3   OH210256   1.621   1.690   0.345 -0.5450  0.3385 -0.7411
 3417TIP3    H110257   1.682   1.621   0.322 -1.2223 -0.5734  0.1370
 3417TIP3    H210258   1.567   1.653   0.415 -0.9890  1.7151 -0.3194
 3418TIP3   OH210259   6.380   3.347   1.764 -0.2446  0.3641  0.3319
 3418TIP3    H110260   6.305   3.306   1.721  0.5009 -0.5950 -0.0820
 3418TIP3    H210261   6.373   3.320   1.855  0.8615 -1.7035 -0.1370
 3419TIP3   OH210262   1.308   2.768   1.753  0.1389  0.0319  0.4093
 3419TIP3    H110263   1.364   2.845   1.749  0.8972 -0.5681 -0.8981
 3419TIP3    H210264   1.225   2.797   1.716  0.2323  0.3613  0.4518
 3420TIP3   OH210265   2.933   5.620   1.012 -0.4800 -0.4090  0.1982
 3420TIP3    H110266   2.923   5.544   1.070  1.2148 -0.6687  0.1939
 3420TIP3    H210267   2.950   5.693   1.071  0.1284 -0.4609  0.0886
 3421TIP3   OH210268   6.086   5.801   2.656  0.2944  0.0014  0.2531
 3421TIP3    H110269   6.026   5.813   2.581  0.1231  1.9206  0.6438
 3421TIP3    H210270   6.028   5.781   2.729  0.2219  0.6626  0.3828
 3422TIP3   OH210271   1.674   0.074   4.371 -0.2505 -0.2813 -0.4693
 3422TIP3    H110272   1.740   0.099   4.435 -0.5824 -0.6511  0.0253
 3422TIP3    H210273   1.627   0.002   4.412 -0.5475 -0.4449 -1.0815
 3423TIP3   OH210274   2.505   2.755   4.820 -0.7046 -0.1752 -0.1443
 3423TIP3    H110275   2.537   2.826   4.875 -0.4250 -0.0175 -0.5080
 3423TIP3    H210276   2.421   2.786   4.787 -1.0798 -0.4469  0.5323
 3424TIP3   OH210277   3.426   2.258   1.998  0.9711  0.1242 -0.3662
 3424TIP3    H110278   3.337   2.237   1.968  1.0957  0.1064 -0.7375
 3424TIP3    H210279   3.432   2.353   1.988  0.1935  0.4607  1.9108
 3425TIP3   OH210280   1.124   1.523   2.193  0.1440  0.1532 -0.5292
 3425TIP3    H110281   1.213   1.555   2.206 -0.8001  2.0256  2.3257
 3425TIP3    H210282   1.129   1.429   2.211  1.6171  0.1273 -0.9493
 3426TIP3   OH210283   0.772   2.862   2.575 -0.4784  0.4170  0.0256
 3426TIP3    H110284   0.757   2.782   2.626 -0.2644  0.1351 -0.3564
 3426TIP3    H210285   0.712   2.926   2.615  0.1910  0.4064  1.0981
 3427TIP3   OH210286   5.821   3.118   0.328 -0.1452  0.2584 -0.0117
 3427TIP3    H110287   5.877   3.165   0.266 -1.3358  0.8256 -0.6971
 3427TIP3    H210288   5.733   3.152   0.311 -0.5418  0.2736  1.8729
 3428TIP3   OH210289   0.844   5.703   3.230 -0.4082 -0.2190 -0.2168
 3428TIP3    H110290   0.791   5.625   3.247 -1.9078  1.1408  1.6834
 3428TIP3    H210291   0.926   5.687   3.278  0.5813 -1.8531 -2.2861
 3429TIP3   OH210292   6.298   2.369   2.472  0.2192 -0.4443  0.2682
 3429TIP3    H110293   6.384   2.332   2.453  0.0621 -0.8173  0.2729
 3429TIP3    H210294   6.302   2.458   2.437  0.7088 -0.3570  0.5363
 3430TIP3   OH210295   3.016   3.914   5.193  0.0487 -0.3128  0.1947
 3430TIP3    H110296   3.097   3.936   5.147 -0.2852 -1.0783 -0.7953
 3430TIP3    H210297   2.999   3.823   5.169  0.4305 -1.1206  2.7029
 3431TIP3   OH210298   1.632   1.218   5.071 -0.0412 -0.1099  0.7011
 3431TIP3    H110299   1.699   1.151   5.056 -0.3933 -0.5325  0.9868
 3431TIP3    H210300   1.603   1.203   5.161 -0.9735 -0.3495  0.3731
 3432TIP3   OH210301   6.093   1.820   5.103 -0.0125 -0.1339 -0.2993
 3432TIP3    H110302   6.029   1.769   5.054 -0.4849  2.0161 -2.1087
 3432TIP3    H210303   6.080   1.794   5.194 -1.8793 -1.4168 -0.8796
 3433TIP3   OH210304   4.283   2.522   3.610  0.3823 -0.0364 -0.1873
 3433TIP3    H110305   4.276   2.440   3.561 -0.6252 -0.5809  0.8466
 3433TIP3    H210306   4.356   2.508   3.670  0.9993  0.2875 -0.8404
 3434TIP3   OH210307   3.307   4.304   2.873  0.2251  0.3299  0.0354
 3434TIP3    H110308   3.276   4.321   2.962 -0.2610  1.1287 -0.2759
 3434TIP3    H210309   3.233   4.261   2.830 -0.0344  1.1302 -0.3502
 3435TIP3   OH210310   3.917   3.849   5.214 -0.2296  0.1603 -0.6707
 3435TIP3    H110311   3.825   3.834   5.194 -0.2743 -0.2845 -0.1492
 3435TIP3    H210312   3.952   3.889   5.134 -0.2829 -1.9893 -1.8617
 3436TIP3   OH210313   4.271   5.626   2.248  0.5339 -0.5748  0.1314
 3436TIP3    H110314   4.360   5.648   2.222  0.0207  0.3061 -0.9789
 3436TIP3    H210315   4.266   5.530   2.239  0.7839 -0.4346 -1.7839
 3437TIP3   OH210316   6.113   3.710   0.160 -0.1141  0.0714 -0.2530
 3437TIP3    H110317   6.033   3.701   0.108 -0.3233  3.4156 -0.7369
 3437TIP3    H210318   6.094   3.782   0.221  1.5329 -1.0745  1.7435
 3438TIP3   OH210319   5.443   4.289   0.249 -0.3751 -0.2154 -0.1437
 3438TIP3    H110320   5.377   4.336   0.198  1.0804  2.3607  0.1471
 3438TIP3    H210321   5.511   4.267   0.186 -0.5923 -1.0720 -0.0899
 3439TIP3   OH210322   2.242   5.224   3.608 -0.3372  0.0849  0.7261
 3439TIP3    H110323   2.329   5.206   3.645  0.5603 -0.9499 -1.6522
 3439TIP3    H210324   2.259   5.292   3.542 -1.2039 -0.5397 -0.1612
 3440TIP3   OH210325   2.910   3.289   2.326  0.6401  0.2266 -0.4066
 3440TIP3    H110326   2.843   3.350   2.358  1.1396 -0.6215  2.5865
 3440TIP3    H210327   2.989   3.313   2.375  1.9600 -0.2146 -2.2297
 3441TIP3   OH210328   0.476   2.484   4.579  0.2410  0.6975 -0.1270
 3441TIP3    H110329   0.537   2.557   4.577  0.4519  0.5241 -2.0542
 3441TIP3    H210330   0.390   2.525   4.589  0.1839  1.4202 -2.8508
 3442TIP3   OH210331   1.251   4.759   4.349  0.3147  0.1924  0.0511
 3442TIP3    H110332   1.328   4.803   4.384  0.0560  0.7806 -0.1166
 3442TIP3    H210333   1.189   4.829   4.332 -0.1975 -0.2657  0.0283
 3443TIP3   OH210334   6.186   4.464   0.429  0.0190 -0.1918 -0.2783
 3443TIP3    H110335   6.184   4.369   0.439 -1.0362 -0.2854 -1.1483
 3443TIP3    H210336   6.187   4.478   0.334 -0.4000  0.6619 -0.1700
 3444TIP3   OH210337   4.488   3.042   2.325 -0.3557  0.0685 -0.1972
 3444TIP3    H110338   4.469   3.131   2.352  0.7738 -0.0093  0.9302
 3444TIP3    H210339   4.425   2.988   2.373 -0.0977  0.1516  0.2401
 3445TIP3   OH210340   3.345   4.570   4.750 -0.0306 -0.1637 -0.4411
 3445TIP3    H110341   3.326   4.477   4.763 -2.3993  0.1904 -0.8806
 3445TIP3    H210342   3.423   4.571   4.694  1.3960 -1.7986  1.3667
 3446TIP3   OH210343   2.451   2.409   2.367  0.1882  0.0500  0.1854
 3446TIP3    H110344   2.374   2.352   2.367 -0.4171  0.8424 -0.2387
 3446TIP3    H210345   2.472   2.422   2.275  1.2515 -0.6956  0.3087
 3447TIP3   OH210346   4.914   1.338   2.132 -0.6015 -0.0970  0.1496
 3447TIP3    H110347   4.844   1.380   2.082  1.0824 -0.6041 -2.9192
 3447TIP3    H210348   4.970   1.410   2.160  0.1883  0.0809 -1.7006
 3448TIP3   OH210349   5.934   3.168   3.060  0.3034  0.7464  0.5739
 3448TIP3    H110350   5.969   3.177   2.971  2.6850  0.8757  1.4677
 3448TIP3    H210351   5.887   3.250   3.076 -1.9955 -0.0926 -1.2438
 3449TIP3   OH210352   3.255   2.266   3.761 -0.5369 -0.6192  0.1431
 3449TIP3    H110353   3.165   2.256   3.730 -1.4375  1.2484  1.8837
 3449TIP3    H210354   3.262   2.359   3.783  1.5497 -0.8928  0.8543
 3450TIP3   OH210355   5.969   0.839   2.702  0.4841 -0.1408  0.1077
 3450TIP3    H110356   5.992   0.907   2.638  1.3282 -0.0242  0.5174
 3450TIP3    H210357   5.895   0.793   2.663  0.3628  0.5602 -0.5022
 3451TIP3   OH210358   2.664   2.213   0.760  0.1870  0.1846 -0.5347
 3451TIP3    H110359   2.714   2.222   0.841 -0.3170  1.9834 -0.3900
 3451TIP3    H210360   2.612   2.293   0.754  1.6384  1.0515 -3.6221
 3452TIP3   OH210361   6.187   5.396   4.407  0.1498 -0.1909  1.0432
 3452TIP3    H110362   6.145   5.362   4.328  1.3017  1.0837 -0.1807
 3452TIP3    H210363   6.142   5.479   4.424 -0.7186 -0.9060  2.2953
 3453TIP3   OH210364   2.082   2.359   0.756  0.1437 -0.5540  0.0111
 3453TIP3    H110365   2.043   2.376   0.671 -0.0215  0.7765  0.3290
 3453TIP3    H210366   2.151   2.295   0.739 -0.1107 -0.5517 -1.0622
 3454TIP3   OH210367   0.850   1.184   0.359 -0.5977  0.2378 -0.3707
 3454TIP3    H110368   0.828   1.171   0.451  0.2787 -0.1706 -0.2132
 3454TIP3    H210369   0.907   1.110   0.337 -1.4820 -0.1508 -1.4764
 3455TIP3   OH210370   1.942   4.332   4.791  0.2367 -0.0329  0.3322
 3455TIP3    H110371   1.882   4.299   4.859  1.1927  0.7904  1.6212
 3455TIP3    H210372   1.959   4.423   4.817  0.3016  0.4394 -1.2762
 3456TIP3   OH210373   0.398   3.489   3.838  0.6372 -0.1005 -0.4999
 3456TIP3    H110374   0.362   3.495   3.926  1.7441  0.8155 -0.0928
 3456TIP3    H210375   0.361   3.408   3.803 -0.2385 -0.2018  0.6058
 3457TIP3   OH210376   5.076   2.360   1.616 -0.6762  0.6440  0.0739
 3457TIP3    H110377   4.995   2.372   1.568  0.7112  1.9368 -2.1255
 3457TIP3    H210378   5.123   2.443   1.605  2.2716 -1.0401 -1.4469
 3458TIP3   OH210379   2.004   2.881   1.792 -0.5955  0.4375 -0.0600
 3458TIP3    H110380   2.065   2.869   1.865 -2.1011 -0.0451  1.1679
 3458TIP3    H210381   1.954   2.959   1.815  0.6861  1.9213 -1.9305
 3459TIP3   OH210382   1.815   3.592   0.405  0.0903  0.4554 -0.1553
 3459TIP3    H110383   1.866   3.661   0.447 -0.7270  1.8800 -1.3837
 3459TIP3    H210384   1.749   3.568   0.470 -0.4505  1.8170 -0.1692
 3460TIP3   OH210385   1.828   2.244   3.007 -0.6434 -0.0964 -0.1065
 3460TIP3    H110386   1.744   2.209   2.978 -1.2430  2.5707 -1.9516
 3460TIP3    H210387   1.813   2.338   3.018  1.8005  0.2762  0.7359
 3461TIP3   OH210388   4.935   5.553   3.382  0.0949 -0.5485 -0.5847
 3461TIP3    H110389   4.940   5.641   3.346 -0.6281 -0.6170 -0.8824
 3461TIP3    H210390   4.987   5.556   3.461 -0.0628  0.1969 -0.5009
 3462TIP3   OH210391   4.554   1.401   3.793  0.3355  0.2058 -0.4005
 3462TIP3    H110392   4.471   1.415   3.838 -0.4338 -0.1258 -1.6635
 3462TIP3    H210393   4.530   1.389   3.701  1.9677  2.6115 -1.2448
 3463TIP3   OH210394   0.988   2.834   2.415 -0.2779  0.5492  1.0738
 3463TIP3    H110395   0.908   2.848   2.465  0.6709 -0.1813  2.9020
 3463TIP3    H210396   1.019   2.747   2.442  0.2028  0.0177 -0.9619
 3464TIP3   OH210397   5.109   3.538   5.159  0.2926  0.5997  0.6233
 3464TIP3    H110398   5.041   3.473   5.177  1.1548 -0.7228 -0.6499
 3464TIP3    H210399   5.179   3.516   5.221  0.6633  0.1515  0.0620
 3465TIP3   OH210400   1.336   2.313   3.036  0.1056 -0.0752  0.1026
 3465TIP3    H110401   1.382   2.275   3.111 -1.1360  0.7479  1.3046
 3465TIP3    H210402   1.374   2.400   3.026  0.0354 -0.0584 -0.0268
 3466TIP3   OH210403   3.047   0.480   4.211 -0.8600  0.0002  0.3633
 3466TIP3    H110404   3.104   0.403   4.209  0.3323  0.8706 -1.0863
 3466TIP3    H210405   3.092   0.545   4.157 -2.0626  1.5724  1.1583
 3467TIP3   OH210406   0.124   2.343   4.796  0.2210  0.3173 -0.3675
 3467TIP3    H110407   0.075   2.273   4.840 -0.4593  0.4250 -0.9350
 3467TIP3    H210408   0.186   2.373   4.862  0.7888 -1.0700 -0.2214
 3468TIP3   OH210409   2.890   1.658   0.784  0.3734  0.0775  0.3622
 3468TIP3    H110410   2.927   1.694   0.703  1.5279  0.2997  0.9616
 3468TIP3    H210411   2.826   1.722   0.813  0.8518  0.6032  0.2716
 3469TIP3   OH210412   4.348   5.905   5.066  0.2627 -0.1466  0.2702
 3469TIP3    H110413   4.261   5.875   5.040  0.2422  0.3580 -0.2666
 3469TIP3    H210414   4.408   5.859   5.008  0.3172 -0.0835  0.2766
 3470TIP3   OH210415   5.030   0.591   3.165 -0.1442  0.2242 -0.0904
 3470TIP3    H110416   4.979   0.597   3.245 -1.5927 -3.2934 -0.5486
 3470TIP3    H210417   4.980   0.641   3.100 -0.9366  0.0559  0.3795
 3471TIP3   OH210418   6.156   0.941   3.688 -0.1459  0.4209  0.0412
 3471TIP3    H110419   6.137   1.005   3.757  0.0848  0.0942  0.4123
 3471TIP3    H210420   6.123   0.858   3.722 -0.0102  0.2511 -0.2339
 3472TIP3   OH210421   2.095   1.969   4.969 -0.2360 -0.3580  0.3408
 3472TIP3    H110422   2.067   1.999   5.055 -0.7824 -0.0608  0.0687
 3472TIP3    H210423   2.160   2.034   4.941 -0.8870  0.1849  0.0594
 3473TIP3   OH210424   5.578   1.758   2.918 -0.5704 -0.4707 -0.0466
 3473TIP3    H110425   5.510   1.825   2.930 -0.1377  0.0239 -0.3140
 3473TIP3    H210426   5.617   1.748   3.005 -0.6124 -0.3494 -0.0137
 3474TIP3   OH210427   3.376   4.360   0.823 -0.1543 -0.5002 -0.0357
 3474TIP3    H110428   3.293   4.352   0.869 -0.0360  0.0090  0.2697
 3474TIP3    H210429   3.442   4.366   0.892 -0.0035  0.5850 -0.2555
 3475TIP3   OH210430   2.813   3.672   2.066 -0.2173 -0.1861  0.4558
 3475TIP3    H110431   2.877   3.605   2.044 -1.1819 -1.0962  0.3702
 3475TIP3    H210432   2.768   3.638   2.143 -2.1420 -0.6580 -0.8006
 3476TIP3   OH210433   4.864   3.474   0.450  0.0445  0.0373  0.1866
 3476TIP3    H110434   4.887   3.558   0.490 -0.8731 -0.3795  1.6741
 3476TIP3    H210435   4.873   3.411   0.522 -3.3311 -0.5005  0.2822
 3477TIP3   OH210436   2.227   0.411   2.329  0.2542  0.1334  0.3268
 3477TIP3    H110437   2.247   0.373   2.414  0.8707  0.6963  0.4388
 3477TIP3    H210438   2.147   0.366   2.301 -0.7690  0.9368  1.8338
 3478TIP3   OH210439   0.713   2.747   2.330  0.4823 -0.3428 -0.3109
 3478TIP3    H110440   0.782   2.681   2.321  1.3710  0.4975  0.1390
 3478TIP3    H210441   0.723   2.780   2.419 -0.0552  0.2814 -0.4750
 3479TIP3   OH210442   2.779   1.294   2.296 -0.2796  0.3581 -0.3964
 3479TIP3    H110443   2.709   1.245   2.339  0.0789  0.7619  0.6815
 3479TIP3    H210444   2.843   1.227   2.271 -0.0368  0.2014  0.5965
 3480TIP3   OH210445   4.599   3.580   0.428 -0.1242 -0.3003 -0.0433
 3480TIP3    H110446   4.592   3.581   0.333  0.8972  0.0301 -0.1237
 3480TIP3    H210447   4.690   3.555   0.446  0.0386  0.8138  0.8209
 3481TIP3   OH210448   0.861   1.087   4.840 -0.1677  0.3795  0.1558
 3481TIP3    H110449   0.947   1.121   4.863  0.4060 -0.4837 -0.6517
 3481TIP3    H210450   0.811   1.089   4.922  1.1550 -0.6845  1.0192
 3482TIP3   OH210451   4.751   2.101   2.632  0.0062  0.5843  0.0571
 3482TIP3    H110452   4.830   2.155   2.632 -0.2519  1.0277  1.8265
 3482TIP3    H210453   4.700   2.134   2.558  1.3881  0.3727 -1.0360
 3483TIP3   OH210454   1.582   1.353   4.823  0.0006 -0.1916  0.0005
 3483TIP3    H110455   1.571   1.336   4.917  0.9027 -2.6894 -0.2692
 3483TIP3    H210456   1.515   1.418   4.802 -0.4776  0.1230  2.2867
 3484TIP3   OH210457   4.756   1.511   2.346 -0.3433 -0.0532  0.2198
 3484TIP3    H110458   4.690   1.575   2.321  0.7586  0.6114 -1.1336
 3484TIP3    H210459   4.830   1.529   2.287  0.9224 -0.9619  1.4749
 3485TIP3   OH210460   2.606   2.500   4.872 -0.6741  0.0864 -0.2792
 3485TIP3    H110461   2.670   2.537   4.933 -0.8664 -0.4627  0.2682
 3485TIP3    H210462   2.539   2.568   4.863 -1.2200 -0.2458  1.0108
 3486TIP3   OH210463   2.297   1.486   0.924  0.5807 -0.5938  0.1094
 3486TIP3    H110464   2.257   1.424   0.862 -1.8166  0.3494  0.6036
 3486TIP3    H210465   2.313   1.434   1.002  0.3850 -1.0310 -0.1340
 3487TIP3   OH210466   4.433   1.471   3.105  0.1663  0.3553  0.5323
 3487TIP3    H110467   4.473   1.389   3.077  1.6724  0.4525  2.1865
 3487TIP3    H210468   4.432   1.466   3.201 -1.7530  1.3606  0.6083
 3488TIP3   OH210469   0.718   4.325   3.222  0.2692 -0.2775  0.1539
 3488TIP3    H110470   0.685   4.273   3.296 -1.4843 -1.2784 -1.2481
 3488TIP3    H210471   0.649   4.389   3.207 -0.2350 -1.1892 -1.6672
 3489TIP3   OH210472   0.311   0.911   4.212 -0.4632 -0.0549  0.3315
 3489TIP3    H110473   0.342   0.821   4.201  0.4887 -0.1959  3.2895
 3489TIP3    H210474   0.391   0.964   4.215 -1.0179  1.0317 -1.7098
 3490TIP3   OH210475   1.243   5.216   4.087 -0.3738 -0.3667 -0.1530
 3490TIP3    H110476   1.271   5.206   4.178 -0.7650  2.9050  0.4510
 3490TIP3    H210477   1.173   5.152   4.076  1.1792 -2.3927  1.0976
 3491TIP3   OH210478   4.516   5.157   0.038  0.0659 -0.5864  0.2855
 3491TIP3    H110479   4.596   5.177  -0.011 -0.4545 -2.0414 -1.2458
 3491TIP3    H210480   4.458   5.231   0.019 -1.0370 -2.1870 -3.4970
 3492TIP3   OH210481   4.769   1.617   5.048 -0.2400  0.1911 -0.4288
 3492TIP3    H110482   4.709   1.637   5.119  0.3122 -0.9801  0.4158
 3492TIP3    H210483   4.855   1.646   5.080  0.0091 -0.3243 -0.6032
 3493TIP3   OH210484   3.506   2.893   3.062 -0.0918  0.0720  0.4889
 3493TIP3    H110485   3.479   2.972   3.110 -0.0610 -0.5333  1.5395
 3493TIP3    H210486   3.425   2.842   3.053  0.3558 -1.1114  2.4301
 3494TIP3   OH210487   2.670   5.374   0.576  0.4600 -0.2863 -0.1481
 3494TIP3    H110488   2.698   5.362   0.485  0.5762 -0.2883 -0.1128
 3494TIP3    H210489   2.665   5.469   0.587 -0.3974 -0.2950 -0.4087
 3495TIP3   OH210490   5.785   4.585   3.702 -0.1939  0.5048  0.7128
 3495TIP3    H110491   5.705   4.622   3.740 -0.3945  0.2955  0.5028
 3495TIP3    H210492   5.756   4.504   3.661 -0.0580  0.9247 -0.2395
 3496TIP3   OH210493   1.680   5.795   0.201  0.0678  0.1794 -0.0959
 3496TIP3    H110494   1.714   5.769   0.116 -1.4797  0.6298 -0.8932
 3496TIP3    H210495   1.710   5.885   0.213  0.1558  0.1690 -0.2418
 3497TIP3   OH210496   3.846   2.513   4.387  0.6728 -0.2268 -0.3220
 3497TIP3    H110497   3.939   2.504   4.406 -0.2065 -1.5705  4.5455
 3497TIP3    H210498   3.809   2.427   4.405 -1.8363  0.9338  0.5128
 3498TIP3   OH210499   3.138   0.997   2.434 -0.0513  0.0024  0.3789
 3498TIP3    H110500   3.058   1.044   2.412  0.8464  0.8857 -1.2119
 3498TIP3    H210501   3.112   0.936   2.503 -1.5840  1.7766  1.4434
 3499TIP3   OH210502   1.515   1.042   2.518  0.5683 -0.7938 -0.0008
 3499TIP3    H110503   1.512   0.948   2.535 -1.7016 -0.9019 -0.7264
 3499TIP3    H210504   1.492   1.082   2.602  1.2971 -0.8740  0.2448
 3500TIP3   OH210505   2.278   0.459   3.287  0.0819  0.0472  0.1521
 3500TIP3    H110506   2.314   0.473   3.374  0.2336 -0.3189  0.1494
 3500TIP3    H210507   2.238   0.372   3.291 -1.9755  0.9390  0.5504
 3501TIP3   OH210508   1.503   0.775   2.611  0.0118  0.2311  0.2872
 3501TIP3    H110509   1.471   0.789   2.701  1.2553  0.2966  0.7313
 3501TIP3    H210510   1.532   0.684   2.610 -2.7280 -0.7552 -0.9497
 3502TIP3   OH210511   2.215   2.342   5.093  0.0992  0.3650 -0.2159
 3502TIP3    H110512   2.120   2.341   5.082 -0.1959 -1.5454  1.7516
 3502TIP3    H210513   2.232   2.418   5.149 -0.6485 -0.7474  1.6099
 3503TIP3   OH210514   3.166   4.733   3.615 -0.3390  0.4671  0.0838
 3503TIP3    H110515   3.193   4.667   3.551  0.7173  0.9360  0.0173
 3503TIP3    H210516   3.133   4.806   3.562 -1.7383 -0.0801  0.1642
 3504TIP3   OH210517   1.690   3.313   5.093  0.2983  0.9480 -0.1341
 3504TIP3    H110518   1.667   3.275   5.178 -0.2464  0.4054 -0.5240
 3504TIP3    H210519   1.775   3.275   5.072 -0.8886 -1.2831 -1.2188
 3505TIP3   OH210520   4.380   3.215   1.753  0.1119  0.6027 -0.0143
 3505TIP3    H110521   4.286   3.213   1.734  0.1865 -1.6739 -0.4644
 3505TIP3    H210522   4.422   3.193   1.670  1.0005  0.8444  0.3622
 3506TIP3   OH210523   5.302   2.339   0.313  0.2359 -0.0816  0.6599
 3506TIP3    H110524   5.286   2.306   0.401 -0.8896 -1.4199 -0.0225
 3506TIP3    H210525   5.219   2.328   0.267  0.9731  0.0031 -0.7500
 3507TIP3   OH210526   0.338   5.028   1.524 -0.1065  0.3982  0.0671
 3507TIP3    H110527   0.307   4.948   1.481 -1.8762  1.2463 -0.3349
 3507TIP3    H210528   0.261   5.061   1.570 -0.1217  3.1400 -1.7412
 3508TIP3   OH210529   1.061   0.837   2.379 -0.6737 -0.0379 -0.1010
 3508TIP3    H110530   1.113   0.895   2.436 -1.4868  0.5566  0.0493
 3508TIP3    H210531   0.983   0.817   2.430  0.4621 -2.9603  0.7114
 3509TIP3   OH210532   5.703  -0.026   2.507 -0.0723 -0.1635  0.2381
 3509TIP3    H110533   5.625  -0.006   2.455  1.1416  1.1228 -1.1919
 3509TIP3    H210534   5.713   0.050   2.565  2.0725  1.5535 -2.1340
 3510TIP3   OH210535   4.979   5.485   4.952 -0.1972  0.4131  0.2524
 3510TIP3    H110536   4.985   5.390   4.951  1.8148  0.5030 -0.1756
 3510TIP3    H210537   4.984   5.508   5.045  0.5320  0.1315  0.2914
 3511TIP3   OH210538   2.901   3.942   2.324  0.4404  0.5865 -0.6801
 3511TIP3    H110539   2.952   4.004   2.376 -0.1476  0.5684 -0.0756
 3511TIP3    H210540   2.814   3.943   2.363  0.2675 -0.1978 -1.0185
 3512TIP3   OH210541   4.944   5.074   1.379  0.0109 -0.2177 -0.4794
 3512TIP3    H110542   4.985   5.095   1.463 -1.4511 -0.1135  0.2413
 3512TIP3    H210543   4.920   4.982   1.386 -0.1300 -0.2045 -0.7735
 3513TIP3   OH210544   3.196   1.478   4.331 -0.1175  0.2591 -0.1591
 3513TIP3    H110545   3.261   1.543   4.358 -0.1868  0.3450 -0.1987
 3513TIP3    H210546   3.112   1.515   4.357 -0.1808  0.3159 -0.4365
 3514TIP3   OH210547   1.320   1.850   4.524 -0.1064  0.0785  0.3403
 3514TIP3    H110548   1.378   1.914   4.484  1.1014  0.1800  2.1504
 3514TIP3    H210549   1.343   1.767   4.481  1.2920  0.1501  0.8943
 3515TIP3   OH210550   4.444   3.036   4.465 -0.1400 -0.5518 -0.1204
 3515TIP3    H110551   4.395   2.965   4.507  0.5422  0.3664  2.4033
 3515TIP3    H210552   4.379   3.080   4.411 -1.5735 -0.7350  1.3725
 3516TIP3   OH210553   3.298   2.808   4.594  0.6525 -0.0988 -0.2694
 3516TIP3    H110554   3.314   2.732   4.538  0.1231  0.5110 -1.2799
 3516TIP3    H210555   3.293   2.881   4.533 -1.0420  0.4376  0.4504
 3517TIP3   OH210556   1.555   0.779   1.106 -0.2277  0.1384  0.4802
 3517TIP3    H110557   1.624   0.839   1.137  0.8829 -2.1596  2.8729
 3517TIP3    H210558   1.476   0.810   1.149 -0.3496  1.5865 -0.6834
 3518TIP3   OH210559   4.024   0.349   2.219 -0.0165  0.1521  0.2288
 3518TIP3    H110560   3.983   0.279   2.271  0.6233 -1.0385 -0.8261
 3518TIP3    H210561   4.033   0.422   2.281 -1.3374 -0.4461  1.1702
 3519TIP3   OH210562   0.368   3.591   3.235  0.6650 -0.1972 -0.8084
 3519TIP3    H110563   0.275   3.615   3.237  1.0207  1.2811 -0.8778
 3519TIP3    H210564   0.396   3.597   3.326  1.1921  1.6034 -1.0433
 3520TIP3   OH210565   1.754   3.756   2.926 -0.2504  0.3168 -0.1630
 3520TIP3    H110566   1.799   3.786   2.847 -0.1482  0.0248 -0.2161
 3520TIP3    H210567   1.793   3.807   2.997  3.2222 -2.7634  0.4387
 3521TIP3   OH210568   3.804   3.430   0.994  0.2600 -0.2318  0.4293
 3521TIP3    H110569   3.837   3.465   1.077  1.3848  1.5275 -0.6740
 3521TIP3    H210570   3.811   3.504   0.933 -1.3307 -1.2151 -1.0469
 3522TIP3   OH210571   4.812   2.028   4.611 -0.3566  0.0531 -0.1583
 3522TIP3    H110572   4.803   1.937   4.640 -1.4948  0.6478  1.5661
 3522TIP3    H210573   4.755   2.077   4.670  1.8472  2.1657  0.3753
 3523TIP3   OH210574   5.014   5.915   4.136  0.0172 -0.5053 -0.0986
 3523TIP3    H110575   4.944   5.896   4.073 -1.8030 -0.5974  1.8357
 3523TIP3    H210576   5.021   6.011   4.135  0.2147 -0.5211 -0.6401
 3524TIP3   OH210577   2.269   2.149   0.987 -0.5124  0.1774  0.3405
 3524TIP3    H110578   2.202   2.211   1.016 -1.6307 -0.5907 -0.5062
 3524TIP3    H210579   2.301   2.186   0.905 -0.9069 -0.1636  0.0308
 3525TIP3   OH210580   4.760   5.667   0.277  0.2391 -0.0686 -0.4105
 3525TIP3    H110581   4.815   5.590   0.266 -2.5588 -2.3134  0.0055
 3525TIP3    H210582   4.763   5.711   0.192  2.8882  0.1366 -0.2699
 3526TIP3   OH210583   6.008   5.784   1.184 -0.4667 -0.1116 -0.5200
 3526TIP3    H110584   5.950   5.855   1.213 -1.0137 -1.0290  0.7337
 3526TIP3    H210585   6.054   5.756   1.264  1.2372  0.1392 -1.3565
 3527TIP3   OH210586   5.221   3.151   0.831  0.2156 -0.4269 -0.0671
 3527TIP3    H110587   5.221   3.085   0.762  0.7788 -0.5175  0.0147
 3527TIP3    H210588   5.141   3.135   0.880 -0.2353 -0.3049 -0.7506
 3528TIP3   OH210589   1.602   2.509   1.901 -0.1898  0.1956  0.1823
 3528TIP3    H110590   1.546   2.431   1.894 -0.3085  0.1232  1.6038
 3528TIP3    H210591   1.549   2.573   1.948  1.0681 -0.0706  2.0663
 3529TIP3   OH210592   3.952   0.264   2.687  0.8947 -0.9682  0.0644
 3529TIP3    H110593   3.903   0.195   2.732 -0.1707  0.2011  0.7694
 3529TIP3    H210594   4.042   0.231   2.685  0.4769 -2.2439  0.6349
 3530TIP3   OH210595   3.318   2.951   0.906  0.0361 -0.3354  0.4438
 3530TIP3    H110596   3.262   2.971   0.981  1.7628  1.1543  1.4092
 3530TIP3    H210597   3.307   3.026   0.847  0.0761 -0.6443  0.0310
 3531TIP3   OH210598   3.803   0.679   3.002  0.0500 -0.3553 -0.2153
 3531TIP3    H110599   3.762   0.632   2.930 -1.0256 -1.2429  0.9128
 3531TIP3    H210600   3.731   0.694   3.064  0.3031  2.9460 -0.5484
 3532TIP3   OH210601   0.625   2.335   2.098  0.2272 -0.1940 -0.3183
 3532TIP3    H110602   0.599   2.402   2.035 -1.0819  0.5833  0.9940
 3532TIP3    H210603   0.647   2.259   2.044 -0.6394  0.5018 -1.7143
 3533TIP3   OH210604   5.331   0.848   2.834  0.3635  0.3262  0.1813
 3533TIP3    H110605   5.413   0.893   2.855  0.3916 -0.1643  1.1591
 3533TIP3    H210606   5.308   0.802   2.914 -1.4590  1.3409  0.2780
 3534TIP3   OH210607   4.671   3.828   4.331 -0.5970  0.3211  0.1146
 3534TIP3    H110608   4.691   3.890   4.402 -2.0905 -0.3885  1.2116
 3534TIP3    H210609   4.603   3.871   4.280 -0.7408  0.1107  0.1298
 3535TIP3   OH210610   3.173   3.836   4.288  0.3240 -0.0241 -1.0198
 3535TIP3    H110611   3.173   3.802   4.198 -1.7792  1.2290 -1.5750
 3535TIP3    H210612   3.151   3.929   4.278  1.4009  0.4651  0.7269
 3536TIP3   OH210613   1.275   4.509   4.456 -0.0455  0.1215 -0.1966
 3536TIP3    H110614   1.361   4.504   4.499  0.0035  1.6631 -0.0526
 3536TIP3    H210615   1.282   4.586   4.399 -0.7222 -0.8297 -1.6151
 3537TIP3   OH210616   1.039   4.968   0.724  0.1721 -0.4442  0.1252
 3537TIP3    H110617   1.118   4.917   0.708  0.7377  0.2151  0.7082
 3537TIP3    H210618   1.001   4.982   0.637  1.0845 -0.1698 -0.2448
 3538TIP3   OH210619   0.070   5.167   5.134 -0.4916 -0.3316  0.0107
 3538TIP3    H110620   0.097   5.221   5.059 -0.0084 -1.8759 -0.9563
 3538TIP3    H210621   0.150   5.158   5.187  0.1371 -2.2465 -1.1976
 3539TIP3   OH210622   2.690   2.291   3.115 -0.1112  0.7201  0.5819
 3539TIP3    H110623   2.754   2.249   3.173  0.0004 -0.1339 -0.1381
 3539TIP3    H210624   2.743   2.337   3.050 -0.2292  0.6437  0.4303
 3540TIP3   OH210625   5.032   5.054   1.638  0.7051 -0.4108  0.4863
 3540TIP3    H110626   5.065   5.102   1.714  0.5422  0.6674 -0.0998
 3540TIP3    H210627   5.039   4.962   1.663 -1.4494 -0.0866  2.6979
 3541TIP3   OH210628   5.537   3.934   1.633 -0.0801  0.2931 -0.1238
 3541TIP3    H110629   5.575   3.875   1.568 -0.3311 -0.6700  0.5882
 3541TIP3    H210630   5.560   4.021   1.602  0.8541 -0.1940 -0.8515
 3542TIP3   OH210631   3.022   1.285   4.556  0.1575 -0.1203  0.5702
 3542TIP3    H110632   3.095   1.330   4.598  1.0664 -0.9549 -0.0567
 3542TIP3    H210633   3.063   1.234   4.486 -1.0098 -0.7752  0.3419
 3543TIP3   OH210634   3.595   3.405   3.653 -0.1219  0.6695  0.1718
 3543TIP3    H110635   3.640   3.487   3.630 -0.3140  0.9388  0.7470
 3543TIP3    H210636   3.575   3.414   3.746 -0.2957  0.0368  0.1979
 3544TIP3   OH210637   4.076   2.687   4.308  0.4622  0.5939  0.4264
 3544TIP3    H110638   4.012   2.740   4.355 -0.4640 -1.0514  1.0960
 3544TIP3    H210639   4.033   2.666   4.225 -0.0791 -0.8338  1.0336
 3545TIP3   OH210640   0.590   0.976   3.211 -0.2834  0.0531 -0.1104
 3545TIP3    H110641   0.509   0.927   3.195 -0.3715  0.5857 -1.4477
 3545TIP3    H210642   0.647   0.914   3.255 -1.4507 -0.2928  0.9896
 3546TIP3   OH210643   3.812   3.543   4.424 -0.5462  0.6307 -0.4724
 3546TIP3    H110644   3.736   3.572   4.373  0.7125 -0.3856 -3.1162
 3546TIP3    H210645   3.779   3.469   4.475 -1.7479  1.3709 -0.1305
 3547TIP3   OH210646   3.858   2.111   0.764 -0.1295  0.2797 -0.3117
 3547TIP3    H110647   3.816   2.087   0.681  1.9308 -1.3602 -0.9635
 3547TIP3    H210648   3.941   2.063   0.764 -0.0610  0.2024  2.7395
 3548TIP3   OH210649   1.092   4.802   0.294  0.0533  0.4877  0.0267
 3548TIP3    H110650   1.020   4.741   0.281  0.3553 -0.1098  1.0299
 3548TIP3    H210651   1.171   4.750   0.276  0.2800  0.8116  0.0729
 3549TIP3   OH210652   4.151   0.950   0.694 -0.4007 -0.3166  0.9942
 3549TIP3    H110653   4.073   1.003   0.710 -1.8221 -1.2999 -1.9530
 3549TIP3    H210654   4.131   0.865   0.734 -1.0888 -0.7095 -0.1441
 3550TIP3   OH210655   6.100   5.071   4.083 -0.8911  0.3554 -0.2041
 3550TIP3    H110656   6.018   5.121   4.080 -2.3567 -1.7137  1.5378
 3550TIP3    H210657   6.127   5.074   4.174  1.3398  1.4239 -0.8425
 3551TIP3   OH210658   2.563   3.154   0.062 -0.1635 -0.3846 -0.1322
 3551TIP3    H110659   2.551   3.237   0.108 -2.1581 -0.3047 -0.7410
 3551TIP3    H210660   2.475   3.120   0.050  0.5392 -1.9762 -1.0422
 3552TIP3   OH210661   3.150   3.936   4.560  0.3430  0.0384  0.3066
 3552TIP3    H110662   3.186   3.908   4.475  2.2750 -0.9672  1.3976
 3552TIP3    H210663   3.184   3.872   4.623 -1.9298  0.1188  1.7356
 3553TIP3   OH210664   0.731   4.189   2.150  0.7206 -0.7811 -0.1328
 3553TIP3    H110665   0.809   4.244   2.157  0.1707  0.0108 -0.0868
 3553TIP3    H210666   0.674   4.219   2.221  0.4137 -1.4345 -0.0923
 3554TIP3   OH210667   0.019   1.522   1.197 -0.3413  0.2809  0.2256
 3554TIP3    H110668  -0.024   1.457   1.141 -0.9913  1.6844 -0.9967
 3554TIP3    H210669   0.054   1.472   1.271 -2.1571 -1.2345  0.1293
 3555TIP3   OH210670   5.465   2.141   3.444 -0.2368  0.2590 -0.3748
 3555TIP3    H110671   5.403   2.131   3.371 -0.4450 -0.2695 -0.1336
 3555TIP3    H210672   5.504   2.054   3.454 -1.0224  0.0200  0.8586
 3556TIP3   OH210673   2.261   2.386   3.999 -0.4149 -0.2482  0.8410
 3556TIP3    H110674   2.299   2.383   3.911  1.6184  1.2489  1.5920
 3556TIP3    H210675   2.214   2.303   4.008 -1.5669 -0.0157 -1.9999
 3557TIP3   OH210676   3.819   1.086   1.871 -0.4212  0.6865  0.0129
 3557TIP3    H110677   3.753   1.017   1.874 -1.1036  1.2932 -0.8235
 3557TIP3    H210678   3.895   1.048   1.915 -1.1060 -0.2485  0.4134
 3558TIP3   OH210679   3.595   5.373   3.581 -0.5794  0.4263  0.4338
 3558TIP3    H110680   3.646   5.413   3.651 -0.3667 -0.3157  0.7201
 3558TIP3    H210681   3.660   5.326   3.529 -0.7550  0.8717 -0.1869
 3559TIP3   OH210682   5.638   5.154   3.134 -1.0339 -0.0672 -0.3252
 3559TIP3    H110683   5.670   5.231   3.181 -0.6838  0.3945 -1.2950
 3559TIP3    H210684   5.714   5.097   3.125 -1.4451 -0.8829  1.0173
 3560TIP3   OH210685   1.916   4.515   3.645  0.3992  0.2538  0.1702
 3560TIP3    H110686   1.962   4.591   3.608 -1.2955  0.4292 -1.7533
 3560TIP3    H210687   1.826   4.544   3.657 -0.0468 -1.1307  0.3956
 3561TIP3   OH210688   4.941   4.310   0.453  0.2090  0.0247  0.1606
 3561TIP3    H110689   5.003   4.378   0.480 -0.3109  0.4928  0.1912
 3561TIP3    H210690   4.991   4.229   0.458  0.6138  0.3097  0.8824
 3562TIP3   OH210691   0.673   1.035   4.466 -0.1728 -0.2996 -0.2701
 3562TIP3    H110692   0.712   1.028   4.379 -1.0203 -1.1174 -0.5996
 3562TIP3    H210693   0.718   1.109   4.506  2.4940 -1.8046 -0.2210
 3563TIP3   OH210694   2.834   2.608   3.704 -0.3121  0.4335  0.1272
 3563TIP3    H110695   2.848   2.538   3.639 -0.1258 -0.2267  0.8650
 3563TIP3    H210696   2.770   2.571   3.764  1.1807  0.1355  1.6040
 3564TIP3   OH210697   5.595   3.649   3.302  0.0797 -0.4199 -0.1637
 3564TIP3    H110698   5.547   3.678   3.225  0.7860  0.4561 -0.2947
 3564TIP3    H210699   5.592   3.724   3.362  3.3344  0.6892 -1.1591
 3565TIP3   OH210700   0.761   3.805   3.615 -0.1022 -0.0474 -0.1058
 3565TIP3    H110701   0.721   3.747   3.680  0.4506  0.1654  0.4348
 3565TIP3    H210702   0.734   3.769   3.531  0.6986 -1.4451  0.2050
 3566TIP3   OH210703   2.879   4.718   4.928  0.5843 -0.1998 -0.1621
 3566TIP3    H110704   2.908   4.779   4.996 -1.1283  0.5940 -0.0926
 3566TIP3    H210705   2.818   4.659   4.973 -0.8292  0.5464 -1.0539
 3567TIP3   OH210706   6.291   4.517   2.117  0.0086 -0.2205 -0.3668
 3567TIP3    H110707   6.199   4.546   2.115  0.0592  0.0390  0.6557
 3567TIP3    H210708   6.286   4.423   2.104 -0.2079  0.0774 -2.9896
 3568TIP3   OH210709   4.012   3.186   0.850 -0.6564 -0.0758  0.8618
 3568TIP3    H110710   4.042   3.270   0.816  0.4404 -0.5595  0.5793
 3568TIP3    H210711   4.071   3.167   0.923 -0.8475 -0.6219  0.8787
 3569TIP3   OH210712   4.016   1.463   4.296 -0.6033  0.3214 -0.0184
 3569TIP3    H110713   4.088   1.502   4.346 -1.0699 -0.5465  1.3861
 3569TIP3    H210714   4.031   1.368   4.303 -2.6210  0.0552  1.4987
 3570TIP3   OH210715   0.642   1.862   0.565  0.5499 -0.1323  0.7590
 3570TIP3    H110716   0.669   1.942   0.610 -0.0056  0.8448 -0.5675
 3570TIP3    H210717   0.573   1.825   0.620 -0.4568  1.2876  0.5000
 3571TIP3   OH210718   3.012   4.311   5.048 -0.6814  0.4644  0.2094
 3571TIP3    H110719   3.054   4.276   4.969 -1.1370 -1.3099  0.7265
 3571TIP3    H210720   3.083   4.320   5.111 -0.4500  1.1698 -0.1332
 3572TIP3   OH210721   6.050   3.648   4.387  0.3433 -0.0373  0.2367
 3572TIP3    H110722   6.110   3.710   4.429  0.4559 -0.0676  0.1241
 3572TIP3    H210723   6.032   3.582   4.454 -0.3176  0.4812  0.5754
 3573TIP3   OH210724   4.067   2.973   3.211 -0.0251 -0.1206 -0.3794
 3573TIP3    H110725   4.121   3.022   3.149  0.6569 -0.7455 -0.2918
 3573TIP3    H210726   4.056   2.887   3.171  1.5118 -0.9749  0.9242
 3574TIP3   OH210727   3.664   1.791   1.598  0.2972 -0.3088  0.0518
 3574TIP3    H110728   3.575   1.827   1.595  0.8544  1.0816 -0.2738
 3574TIP3    H210729   3.703   1.831   1.675  1.5138  1.2350 -1.3127
 3575TIP3   OH210730   6.013   5.105   1.588  0.0445 -0.2264 -0.4654
 3575TIP3    H110731   5.986   5.107   1.497 -0.3542 -0.1066 -0.3442
 3575TIP3    H210732   6.106   5.128   1.586 -0.1874  0.7582 -0.7549
 3576TIP3   OH210733   0.200   0.191   0.411  0.6751 -0.1145  0.0863
 3576TIP3    H110734   0.270   0.170   0.350  0.0282  0.9471 -1.0677
 3576TIP3    H210735   0.227   0.273   0.452  0.2838  0.0976 -0.0762
 3577TIP3   OH210736   5.356   4.647   4.965 -0.0605 -0.0309 -0.0645
 3577TIP3    H110737   5.451   4.651   4.971  0.0185 -1.2521 -0.2624
 3577TIP3    H210738   5.338   4.614   4.876 -0.6176 -0.8151  0.3200
 3578TIP3   OH210739   3.621   0.763   0.464  0.6674 -0.7474  0.4133
 3578TIP3    H110740   3.598   0.792   0.553  0.1767 -0.1431  0.0984
 3578TIP3    H210741   3.713   0.738   0.471  0.6594 -0.6321  1.0756
 3579TIP3   OH210742   3.378   4.174   5.114 -0.2443  0.4019 -0.2449
 3579TIP3    H110743   3.342   4.086   5.115  0.5670  0.0566 -0.0983
 3579TIP3    H210744   3.445   4.172   5.045 -0.4955  1.0217 -0.5151
 3580TIP3   OH210745   0.165   1.877   4.789 -0.0213 -0.1382  0.2097
 3580TIP3    H110746   0.108   1.835   4.853  0.8751  0.3754  1.3725
 3580TIP3    H210747   0.144   1.833   4.706 -0.8908 -1.1095  0.9201
 3581TIP3   OH210748   1.695   0.663   4.194  0.5398  0.8003 -0.1514
 3581TIP3    H110749   1.600   0.659   4.194  0.5694 -0.0880 -0.1970
 3581TIP3    H210750   1.716   0.736   4.137 -0.1198  1.1011 -0.0176
 3582TIP3   OH210751   4.798   0.272   2.168 -0.7835 -0.7910  0.5481
 3582TIP3    H110752   4.889   0.274   2.139 -0.9498  0.6197  0.0151
 3582TIP3    H210753   4.791   0.194   2.222  0.6431 -1.1246  0.2847
 3583TIP3   OH210754   5.843   0.704   4.624 -0.2303  0.1518  0.2786
 3583TIP3    H110755   5.933   0.690   4.651  0.2147 -0.3695 -1.3803
 3583TIP3    H210756   5.802   0.618   4.628 -0.9815  0.5441  2.0162
 3584TIP3   OH210757   4.883   4.254   0.798 -0.5024 -0.3673 -1.0831
 3584TIP3    H110758   4.816   4.203   0.752  0.2474 -1.8833 -0.5662
 3584TIP3    H210759   4.914   4.317   0.733 -2.5522  0.5234 -1.2578
 3585TIP3   OH210760   3.195   0.605   3.785  0.2743  0.4948  0.1651
 3585TIP3    H110761   3.117   0.631   3.735 -0.2796  1.0935  1.2927
 3585TIP3    H210762   3.267   0.651   3.742 -0.3632  2.0011  0.6473
 3586TIP3   OH210763   2.380   2.750   2.506  0.9649 -0.2334 -0.3554
 3586TIP3    H110764   2.303   2.788   2.548 -0.7485 -2.2515 -1.5293
 3586TIP3    H210765   2.416   2.822   2.454 -1.1772  0.3298 -1.1777
 3587TIP3   OH210766   3.868   1.740   0.615  0.4568 -0.1068  0.0885
 3587TIP3    H110767   3.846   1.683   0.689  0.0427 -1.0876 -0.7814
 3587TIP3    H210768   3.803   1.720   0.549  1.0179  0.5366 -0.6734
 3588TIP3   OH210769   3.184   3.167   1.557 -0.1039 -0.2501 -0.4592
 3588TIP3    H110770   3.152   3.129   1.638  0.6356  0.5218  0.2063
 3588TIP3    H210771   3.196   3.260   1.577  1.2759 -0.2729 -1.0849
 3589TIP3   OH210772   2.123   3.480   1.728  0.1392  0.2728  0.0843
 3589TIP3    H110773   2.176   3.426   1.669  0.2016  0.1906  0.2150
 3589TIP3    H210774   2.120   3.566   1.685  0.9671  0.4796  0.4123
 3590TIP3   OH210775   2.436   3.691   0.877 -0.0892 -0.3256  0.2028
 3590TIP3    H110776   2.490   3.646   0.812 -0.6060 -0.1029 -0.3905
 3590TIP3    H210777   2.482   3.772   0.895 -0.3154 -0.0448 -0.4501
 3591TIP3   OH210778   4.588   1.398   5.148  0.1146 -0.2226  0.0110
 3591TIP3    H110779   4.592   1.480   5.198  2.0599 -1.1293  1.4772
 3591TIP3    H210780   4.656   1.343   5.187 -0.8390 -2.3936 -1.2095
 3592TIP3   OH210781   0.712   1.055   1.792  0.3137 -0.4344  0.2318
 3592TIP3    H110782   0.778   1.117   1.825  0.7997 -0.6435 -0.3238
 3592TIP3    H210783   0.763   0.992   1.740 -0.1987 -1.1879  0.6317
 3593TIP3   OH210784   0.918   3.849   3.223 -0.2804 -0.3231  0.1797
 3593TIP3    H110785   0.961   3.844   3.138  0.8779 -2.0274  0.8251
 3593TIP3    H210786   0.983   3.890   3.280  0.0268 -1.7122  0.8614
 3594TIP3   OH210787   2.699   2.881   1.338 -0.2247  0.7818 -0.0017
 3594TIP3    H110788   2.711   2.809   1.399  1.0798  1.4037  0.5085
 3594TIP3    H210789   2.605   2.900   1.341 -0.1097  1.2056  2.3039
 3595TIP3   OH210790   2.597   4.085   4.248  0.2374  0.2517  0.0993
 3595TIP3    H110791   2.642   4.018   4.196 -0.4991  0.4207 -0.7910
 3595TIP3    H210792   2.507   4.055   4.252 -0.1019  1.1945 -0.3175
 3596TIP3   OH210793   4.301   1.139   2.865  0.6001  0.0278  0.0053
 3596TIP3    H110794   4.218   1.103   2.896 -0.3960 -0.0342 -2.4964
 3596TIP3    H210795   4.353   1.062   2.841  1.0944  0.0866  0.8871
 3597TIP3   OH210796   5.014   3.914   3.812  0.0290 -0.1502  0.0588
 3597TIP3    H110797   5.087   3.859   3.782  0.9867  1.6133 -1.0391
 3597TIP3    H210798   4.962   3.857   3.868 -0.0049 -2.7070 -2.3766
 3598TIP3   OH210799   3.278   5.468   3.746 -0.7766 -0.5048  0.0518
 3598TIP3    H110800   3.328   5.499   3.821 -0.0759  0.9677 -0.9741
 3598TIP3    H210801   3.343   5.430   3.687 -0.7516  1.5828 -1.3768
 3599TIP3   OH210802   2.030   4.465   4.515 -0.2768 -0.5391 -0.0773
 3599TIP3    H110803   2.110   4.501   4.553 -1.5560  0.2211  2.0638
 3599TIP3    H210804   2.017   4.381   4.561 -1.1352 -0.2459  0.2497
 3600TIP3   OH210805   5.236   1.770   3.217  0.0123  0.0937 -0.3379
 3600TIP3    H110806   5.174   1.802   3.283  1.7530  0.4432  1.2206
 3600TIP3    H210807   5.198   1.688   3.186 -0.7254 -0.2484  1.3637
 3601TIP3   OH210808   0.236   3.657   4.550 -0.0937 -0.1059  0.2281
 3601TIP3    H110809   0.329   3.633   4.557  0.3589  1.2773 -0.7022
 3601TIP3    H210810   0.231   3.708   4.469 -1.2169  1.8816  1.5023
 3602TIP3   OH210811   2.707   1.715   3.816 -0.4946 -0.0088  0.5404
 3602TIP3    H110812   2.640   1.700   3.883 -0.3104  1.0073  0.9726
 3602TIP3    H210813   2.782   1.751   3.864  0.6407 -1.7599  0.1731
 3603TIP3   OH210814   3.750   0.482   4.223 -0.2535  0.4617 -0.3545
 3603TIP3    H110815   3.730   0.401   4.270 -0.8544  0.2479 -0.9596
 3603TIP3    H210816   3.830   0.463   4.175  1.4807  1.2830  1.9995
 3604TIP3   OH210817   0.748   0.159   0.131  0.1578  0.2750  0.0459
 3604TIP3    H110818   0.726   0.232   0.073  2.2032  0.6681 -0.3244
 3604TIP3    H210819   0.830   0.124   0.094 -0.4879 -1.8735  0.5263
 3605TIP3   OH210820   4.585   5.590   0.768 -0.5642  0.4661  0.2341
 3605TIP3    H110821   4.545   5.507   0.739  3.7240 -1.5419 -0.6519
 3605TIP3    H210822   4.588   5.643   0.688  0.7992 -0.4482 -0.3607
 3606TIP3   OH210823   2.370   2.638   3.985 -0.2804 -0.1258  0.1733
 3606TIP3    H110824   2.319   2.560   3.962  1.4348 -0.7896 -1.7183
 3606TIP3    H210825   2.369   2.691   3.905 -0.0773  1.0347  0.9212
 3607TIP3   OH210826   2.486   0.311   2.766  0.1748  0.3482 -0.1473
 3607TIP3    H110827   2.543   0.289   2.692 -1.1739  0.7828 -1.3627
 3607TIP3    H210828   2.467   0.404   2.755 -0.5638  0.2714  0.3664
 3608TIP3   OH210829   2.458   5.525   3.459  0.4021  0.1696 -0.6250
 3608TIP3    H110830   2.530   5.462   3.452 -0.1423 -0.9807  2.4009
 3608TIP3    H210831   2.486   5.585   3.528 -1.6423 -0.6071  0.9992
 3609TIP3   OH210832   6.220   4.697   4.282  0.3516 -0.1208 -0.1143
 3609TIP3    H110833   6.161   4.710   4.208  0.2358  0.0648  0.0086
 3609TIP3    H210834   6.304   4.730   4.251 -0.2036  2.1502  0.5984
 3610TIP3   OH210835   3.406   3.593   0.547 -0.2508 -0.1025 -0.1548
 3610TIP3    H110836   3.499   3.594   0.523  0.1546 -0.9430  1.2330
 3610TIP3    H210837   3.394   3.675   0.595  0.1312 -0.5715  0.7832
 3611TIP3   OH210838   0.608   5.703   0.900  0.1944  0.0156 -0.0692
 3611TIP3    H110839   0.702   5.724   0.898 -0.1699  1.8997  0.5020
 3611TIP3    H210840   0.576   5.731   0.814 -0.2258  1.6514  0.5650
 3612TIP3   OH210841   1.170   2.658   4.399 -0.2950  0.0548  0.3594
 3612TIP3    H110842   1.140   2.594   4.464 -0.2151  1.2958  1.6726
 3612TIP3    H210843   1.179   2.739   4.448 -0.2901  1.0686 -1.2383
 3613TIP3   OH210844   6.128   4.531   1.709 -0.2456  0.0732 -0.3984
 3613TIP3    H110845   6.137   4.619   1.673 -1.4701 -0.2679 -1.6378
 3613TIP3    H210846   6.205   4.484   1.676 -0.2183  0.3559 -0.7423
 3614TIP3   OH210847   1.554   1.883   1.663  0.6366 -0.2679  0.0385
 3614TIP3    H110848   1.590   1.883   1.575  1.0362  0.8613  0.1864
 3614TIP3    H210849   1.490   1.812   1.663  0.8228 -0.4497 -1.0741
 3615TIP3   OH210850   0.709   3.129   5.088  0.1398 -0.1902  0.0632
 3615TIP3    H110851   0.635   3.152   5.031 -0.4568  3.0828  1.9478
 3615TIP3    H210852   0.786   3.158   5.039 -0.1904  0.6367  0.0281
 3616TIP3   OH210853   1.790   0.905   2.519  0.4025  0.4729 -0.1497
 3616TIP3    H110854   1.708   0.856   2.520  0.7893 -0.2186 -0.6517
 3616TIP3    H210855   1.840   0.866   2.446  0.3727  2.2138 -1.1483
 3617TIP3   OH210856   1.687   4.533   1.565 -0.6597  0.6049  0.1211
 3617TIP3    H110857   1.595   4.528   1.537 -0.8084  1.9151  0.2934
 3617TIP3    H210858   1.710   4.625   1.553  1.6802 -0.2146 -3.0683
 3618TIP3   OH210859   2.658   3.746   3.800 -0.0159 -0.1340  0.1824
 3618TIP3    H110860   2.747   3.759   3.833 -0.0427  0.1437  0.1520
 3618TIP3    H210861   2.658   3.791   3.715  0.0004 -0.6853 -0.1179
 3619TIP3   OH210862   4.287   3.988   5.104 -0.7950 -0.3349  0.0702
 3619TIP3    H110863   4.329   3.904   5.125 -0.3224 -0.2134 -0.3637
 3619TIP3    H210864   4.318   4.048   5.172  0.2504 -0.0901 -0.6075
 3620TIP3   OH210865   2.975   5.562   1.390 -0.0326 -0.0876 -0.3939
 3620TIP3    H110866   3.044   5.513   1.433 -0.8274 -0.4192  0.5398
 3620TIP3    H210867   2.941   5.621   1.458 -0.5766  0.1639 -0.8689
 3621TIP3   OH210868   4.558   5.428   3.747  0.3316 -0.2051  0.0230
 3621TIP3    H110869   4.598   5.348   3.711  0.2168 -0.6340  0.8212
 3621TIP3    H210870   4.465   5.408   3.753  0.4600 -0.4814  1.3780
 3622TIP3   OH210871   1.171   0.432   4.445 -0.1700 -0.7423  0.4305
 3622TIP3    H110872   1.172   0.494   4.372 -1.9180 -0.6652  0.4213
 3622TIP3    H210873   1.259   0.395   4.447 -0.0840 -0.7879 -1.7525
 3623TIP3   OH210874   4.784   1.774   4.789 -0.1657  0.2526 -0.3546
 3623TIP3    H110875   4.754   1.719   4.861 -0.1404  0.3832 -0.2433
 3623TIP3    H210876   4.875   1.796   4.811  0.3245 -0.8850 -1.1335
 3624TIP3   OH210877   5.249   3.953   4.857  0.3290 -0.7169 -0.5885
 3624TIP3    H110878   5.264   3.915   4.770  1.0417 -0.6167 -0.5142
 3624TIP3    H210879   5.287   3.889   4.918 -0.1434 -0.7742 -0.3513
 3625TIP3   OH210880   4.335   1.618   2.126 -0.2379  0.5097 -0.5449
 3625TIP3    H110881   4.318   1.601   2.033 -0.2388 -0.1621 -0.4262
 3625TIP3    H210882   4.264   1.574   2.172 -0.9482  1.8985 -0.2738
 3626TIP3   OH210883   5.874   2.920   2.402 -0.2161  0.2371 -0.2460
 3626TIP3    H110884   5.891   2.998   2.455  0.8187  0.7820 -1.3368
 3626TIP3    H210885   5.859   2.851   2.466 -1.7229  1.4228  0.7460
 3627TIP3   OH210886   2.013   5.735   4.580  0.3162 -0.0207 -0.5799
 3627TIP3    H110887   1.951   5.791   4.534  0.5963  0.2341 -0.6484
 3627TIP3    H210888   1.958   5.677   4.634  0.0256  0.2643 -0.5704
 3628TIP3   OH210889   0.270   0.087   1.769  0.6657 -0.1627  0.0784
 3628TIP3    H110890   0.230   0.095   1.856  0.7784 -0.3053  0.1437
 3628TIP3    H210891   0.360   0.061   1.787  0.0289 -2.8069 -0.1491
 3629TIP3   OH210892   5.195   1.149   2.768 -0.1335 -0.3124  0.0876
 3629TIP3    H110893   5.276   1.194   2.793 -0.3892 -0.3395  1.0214
 3629TIP3    H210894   5.167   1.191   2.688  1.2634 -0.8690 -0.7321
 3630TIP3   OH210895   4.800   2.374   2.467 -0.1319  0.3161  0.0180
 3630TIP3    H110896   4.738   2.417   2.526 -0.6426  0.4275 -0.5796
 3630TIP3    H210897   4.870   2.343   2.523 -1.3813 -1.0082  0.9010
 3631TIP3   OH210898   0.354   3.282   3.493  0.2462  0.0149  0.3885
 3631TIP3    H110899   0.380   3.373   3.478  0.3925  0.1956  1.6622
 3631TIP3    H210900   0.332   3.277   3.586 -1.2679 -0.8941  0.0216
 3632TIP3   OH210901   4.200   0.318   0.678  0.1234  0.0240  0.2190
 3632TIP3    H110902   4.228   0.241   0.627  1.7024  1.7964 -1.7571
 3632TIP3    H210903   4.261   0.387   0.653 -1.5293  2.0889  1.5631
 3633TIP3   OH210904   2.432   4.654   4.147 -0.2028  0.0496 -0.2112
 3633TIP3    H110905   2.394   4.570   4.173 -0.0784 -0.4158 -1.4699
 3633TIP3    H210906   2.522   4.633   4.123  0.7168  1.0350  2.1198
 3634TIP3   OH210907   2.829   0.897   3.860  0.5239  0.0987  0.2952
 3634TIP3    H110908   2.896   0.878   3.795  0.3465 -0.9482  0.3947
 3634TIP3    H210909   2.781   0.815   3.870 -0.3715  0.6470  0.6899
 3635TIP3   OH210910   2.444   0.393   4.896 -0.5104 -0.5936 -0.3739
 3635TIP3    H110911   2.493   0.383   4.815 -0.9681  0.4834 -0.8023
 3635TIP3    H210912   2.460   0.484   4.923 -1.6507 -0.4480 -0.1303
 3636TIP3   OH210913   6.369   5.878   4.135 -0.3371  0.4337  0.2451
 3636TIP3    H110914   6.320   5.900   4.056  1.5522  2.6904 -0.4480
 3636TIP3    H210915   6.344   5.945   4.198 -0.7768 -0.5105  1.0796
 3637TIP3   OH210916   5.121   2.593   1.861 -0.1809 -0.7839  0.1604
 3637TIP3    H110917   5.188   2.595   1.793  1.7655 -0.0123  1.9992
 3637TIP3    H210918   5.143   2.517   1.915 -0.3187 -0.1183  1.1922
 3638TIP3   OH210919   1.857   3.742   0.985  0.1492  0.0889  0.4870
 3638TIP3    H110920   1.828   3.660   1.025 -2.2082 -0.2416 -1.6810
 3638TIP3    H210921   1.876   3.720   0.894 -0.2695  1.8883 -0.0845
 3639TIP3   OH210922   3.850   1.929   5.128 -0.2843  0.1975  0.4840
 3639TIP3    H110923   3.854   2.004   5.187 -1.0997  0.6579 -0.0195
 3639TIP3    H210924   3.934   1.884   5.140 -0.1610  0.6657  1.4697
 3640TIP3   OH210925   1.693   3.798   1.632  0.3980  0.1342 -0.4122
 3640TIP3    H110926   1.704   3.854   1.555  0.3454  0.1361 -0.4182
 3640TIP3    H210927   1.599   3.795   1.646  0.3252 -0.7790 -1.0256
 3641TIP3   OH210928   2.807   2.452   1.818 -0.5721  0.5709 -0.5172
 3641TIP3    H110929   2.799   2.546   1.831 -0.7954  0.8306 -2.2709
 3641TIP3    H210930   2.719   2.418   1.834 -0.6044  0.7174 -0.3728
 3642TIP3   OH210931   0.805   1.159   2.694  0.1266 -0.0453  0.1250
 3642TIP3    H110932   0.770   1.214   2.763 -2.2526 -2.2245  0.8275
 3642TIP3    H210933   0.737   1.158   2.626  1.5998  0.5483 -1.4336
 3643TIP3   OH210934   5.455   2.549   0.215  0.0823 -0.3416 -0.0398
 3643TIP3    H110935   5.419   2.463   0.236  0.5246 -0.7112 -0.7800
 3643TIP3    H210936   5.546   2.545   0.245  0.3846 -0.4732 -0.9697
 3644TIP3   OH210937   1.543   0.958   3.800 -0.3850  0.1859  0.0413
 3644TIP3    H110938   1.568   1.002   3.719 -0.1948 -1.9065 -1.0918
 3644TIP3    H210939   1.624   0.950   3.850  0.2268 -1.6801 -1.1799
 3645TIP3   OH210940   3.975   1.546   4.027  0.7058  0.1984 -0.9424
 3645TIP3    H110941   3.981   1.473   4.088 -1.4415 -0.4496 -1.4114
 3645TIP3    H210942   4.010   1.621   4.075  0.7485 -0.6477  0.3990
 3646TIP3   OH210943   4.980   0.498   4.073  0.1531 -0.2211  0.4703
 3646TIP3    H110944   4.985   0.538   4.160 -1.2868  0.7959  0.1247
 3646TIP3    H210945   4.890   0.515   4.044  0.7873  0.0542 -1.4863
 3647TIP3   OH210946   3.404   4.700   4.328  0.3881 -0.1840  0.5055
 3647TIP3    H110947   3.334   4.695   4.393  0.0600  0.9373  0.2458
 3647TIP3    H210948   3.388   4.781   4.280  1.9748  0.2116  0.5754
 3648TIP3   OH210949   4.568   1.995   0.798 -0.0639  0.6038 -0.2113
 3648TIP3    H110950   4.520   2.077   0.787 -0.7072  0.6792  2.4435
 3648TIP3    H210951   4.607   1.978   0.713 -2.7162  1.8561 -1.7923
 3649TIP3   OH210952   1.295   4.116   4.646  0.2043  0.0572 -0.3544
 3649TIP3    H110953   1.369   4.106   4.587  0.5344 -1.4337  0.2821
 3649TIP3    H210954   1.334   4.121   4.733 -0.3320  1.3557 -0.1671
 3650TIP3   OH210955   5.032   1.665   1.456  0.0279  0.6060  0.5462
 3650TIP3    H110956   4.944   1.699   1.474 -0.5803 -1.2527  1.2468
 3650TIP3    H210957   5.077   1.738   1.412 -1.7679  1.6756  0.3884
 3651TIP3   OH210958   5.440   2.218   1.697  0.1145 -0.0873 -0.3887
 3651TIP3    H110959   5.523   2.186   1.661 -0.6561 -0.0311 -2.3165
 3651TIP3    H210960   5.415   2.289   1.639 -0.2194  1.3885  1.4794
 3652TIP3   OH210961   0.390   5.259   0.386  0.0780 -0.0162  0.1413
 3652TIP3    H110962   0.393   5.163   0.389 -2.3069 -0.2681 -2.0206
 3652TIP3    H210963   0.445   5.282   0.311  0.4829  0.3302  0.5352
 3653TIP3   OH210964   4.573   1.166   4.858  0.4823 -0.6002  0.6788
 3653TIP3    H110965   4.639   1.150   4.791 -0.2235 -0.6840 -0.0262
 3653TIP3    H210966   4.595   1.251   4.895  0.6049 -0.3174 -0.0198
 3654TIP3   OH210967   2.528   3.749   0.608  0.5682  0.0619  0.0827
 3654TIP3    H110968   2.564   3.661   0.604  1.0243  0.2583 -0.1854
 3654TIP3    H210969   2.604   3.807   0.607  0.2587  0.4813 -0.5286
 3655TIP3   OH210970   0.579   3.774   2.400  0.4765  0.0855 -0.6422
 3655TIP3    H110971   0.512   3.783   2.332 -0.3527  0.4222  0.1895
 3655TIP3    H210972   0.653   3.825   2.368  0.9432 -1.5189 -2.2836
 3656TIP3   OH210973   2.300   3.309   5.015 -0.0815 -0.1157 -0.1204
 3656TIP3    H110974   2.390   3.340   5.015 -0.1643  0.1217  0.4487
 3656TIP3    H210975   2.247   3.387   4.998 -0.2676  0.0162  1.0021
 3657TIP3   OH210976   4.863   1.476   3.563  0.0172 -0.3232  0.5275
 3657TIP3    H110977   4.837   1.440   3.478  1.0380 -2.2108  0.9719
 3657TIP3    H210978   4.801   1.548   3.578 -1.4233 -1.1973 -0.9045
 3658TIP3   OH210979   2.789   3.835   0.138 -0.1682  0.7171 -0.7347
 3658TIP3    H110980   2.711   3.798   0.179  0.9792 -1.0937 -0.0515
 3658TIP3    H210981   2.831   3.760   0.095  2.8222  0.8912  1.5507
 3659TIP3   OH210982   5.443   2.282   4.506  0.2824 -1.0459  0.1293
 3659TIP3    H110983   5.470   2.281   4.415  0.3701  0.6078  0.1145
 3659TIP3    H210984   5.348   2.276   4.503  0.0371  1.7281 -0.2604
 3660TIP3   OH210985   0.978   1.727   4.141 -0.3193 -0.3768  0.0953
 3660TIP3    H110986   0.968   1.753   4.232 -0.5631 -2.1743  0.6236
 3660TIP3    H210987   0.889   1.706   4.112  0.0185 -2.4450  0.3443
 3661TIP3   OH210988   2.166   1.125   1.628  0.1574 -0.2681 -0.2282
 3661TIP3    H110989   2.123   1.114   1.544 -0.4893 -1.9379  0.2765
 3661TIP3    H210990   2.238   1.186   1.611 -0.9879  0.7682 -1.5913
 3662TIP3   OH210991   1.554   2.538   2.489  0.1954 -0.4874  0.2580
 3662TIP3    H110992   1.469   2.563   2.453  0.7800 -1.1940 -1.7534
 3662TIP3    H210993   1.541   2.450   2.522  0.0698 -0.4595  0.2846
 3663TIP3   OH210994   2.056   5.724   2.873 -0.5618 -0.1227 -0.3351
 3663TIP3    H110995   2.056   5.820   2.866 -1.0430 -0.0506  0.5125
 3663TIP3    H210996   2.135   5.697   2.826  1.1411  0.8885  1.7891
 3664TIP3   OH210997   0.039   3.035   3.039  0.1849 -0.2413  0.2644
 3664TIP3    H110998   0.035   3.012   2.946 -1.0637  0.0730  0.2259
 3664TIP3    H210999  -0.044   3.004   3.075  0.3694  0.2507  1.1386
 3665TIP3   OH211000   2.786   4.782   3.367  0.1875 -0.3554 -0.2696
 3665TIP3    H111001   2.876   4.802   3.392 -0.3961  0.6589  1.1558
 3665TIP3    H211002   2.749   4.737   3.442 -1.0359  0.9688 -0.0320
 3666TIP3   OH211003   3.814   5.849   1.830  0.1554  0.1365  0.1081
 3666TIP3    H111004   3.790   5.808   1.913 -4.2919 -2.4953 -2.1495
 3666TIP3    H211005   3.851   5.778   1.778 -0.1997  0.9243 -1.2515
 3667TIP3   OH211006   4.823   1.649   4.159  1.2363  0.0754 -0.6565
 3667TIP3    H111007   4.745   1.651   4.103  0.7397  0.5157  0.0376
 3667TIP3    H211008   4.807   1.577   4.220  0.6521  1.1504  0.4878
 3668TIP3   OH211009   2.636   2.242   1.431  0.0170  0.1082  0.2239
 3668TIP3    H111010   2.564   2.303   1.416 -0.6369 -0.3858  1.1884
 3668TIP3    H211011   2.712   2.284   1.393  0.1172  2.6898  2.9257
 3669TIP3   OH211012   5.319   4.785   1.188  0.5275 -0.0314  0.0881
 3669TIP3    H111013   5.285   4.766   1.275 -2.8115  1.2273 -0.7681
 3669TIP3    H211014   5.405   4.823   1.203 -0.9473  2.5226  3.1191
 3670TIP3   OH211015   0.254   1.283   4.018 -0.0974  0.3782  0.4066
 3670TIP3    H111016   0.235   1.196   3.982 -0.9609  0.8004 -0.1911
 3670TIP3    H211017   0.348   1.293   4.006 -0.1472 -0.0572 -0.4903
 3671TIP3   OH211018   3.496   1.037   5.015  0.3371  0.3998  0.7544
 3671TIP3    H111019   3.491   1.090   5.094 -0.8970 -0.7640  1.4963
 3671TIP3    H211020   3.406   1.035   4.982  0.5823 -0.2770  0.0873
 3672TIP3   OH211021   5.729   1.580   3.897  0.2595 -0.1101 -0.1814
 3672TIP3    H111022   5.714   1.518   3.826  1.0327  0.7681 -1.1416
 3672TIP3    H211023   5.642   1.615   3.918  0.1806  0.6574 -1.6765
 3673TIP3   OH211024   2.977   3.182   0.099 -0.4257  0.4343 -0.4794
 3673TIP3    H111025   2.920   3.224   0.034  0.1901 -0.1672 -1.4322
 3673TIP3    H211026   2.922   3.114   0.138 -0.3003 -0.3292 -1.5945
 3674TIP3   OH211027   4.291   0.651   2.156  0.2449  0.3777  0.2244
 3674TIP3    H111028   4.212   0.623   2.201  0.3227  0.3673  0.3556
 3674TIP3    H211029   4.283   0.747   2.151 -0.7330  0.2441 -1.5472
 3675TIP3   OH211030   3.329   3.065   0.383 -0.3264  0.1103 -0.1102
 3675TIP3    H111031   3.365   3.151   0.407  2.5763 -0.5576 -1.6137
 3675TIP3    H211032   3.353   3.054   0.291  1.3439 -3.1767  0.5713
 3676TIP3   OH211033   0.056   5.246   4.872 -0.2579  0.0954 -0.0664
 3676TIP3    H111034   0.086   5.170   4.823 -1.3924 -0.5752  0.2555
 3676TIP3    H211035  -0.003   5.292   4.812 -2.4770 -1.2835  0.9275
 3677TIP3   OH211036   3.652   0.552   1.500  0.5643 -0.0258  0.3086
 3677TIP3    H111037   3.557   0.544   1.490  0.8301 -1.6606 -1.4508
 3677TIP3    H211038   3.671   0.511   1.585 -0.3030  0.5624  0.8016
 3678TIP3   OH211039   5.377   4.616   3.551 -0.0769 -0.6878 -0.1841
 3678TIP3    H111040   5.466   4.645   3.575 -0.6650  0.3896  0.8093
 3678TIP3    H211041   5.378   4.613   3.456  0.1666  2.3179 -0.3754
 3679TIP3   OH211042   1.115   1.778   0.431 -0.0282  0.0986  0.6359
 3679TIP3    H111043   1.164   1.720   0.372  0.1092  0.4947  0.3564
 3679TIP3    H211044   1.034   1.731   0.448  0.0709 -0.1662  0.3911
 3680TIP3   OH211045   5.694   2.942   2.725  0.3200  0.5991  0.0482
 3680TIP3    H111046   5.681   2.855   2.688 -1.8392  0.9404 -0.0834
 3680TIP3    H211047   5.688   3.001   2.650  1.3117  0.9189  0.2024
 3681TIP3   OH211048   5.445   5.903   2.178  0.4867 -0.2275  0.0747
 3681TIP3    H111049   5.476   5.983   2.220  0.4532 -0.2990  0.2348
 3681TIP3    H211050   5.364   5.882   2.223  0.9583 -0.8538  0.6398
 3682TIP3   OH211051   2.365   0.476   3.550 -0.2938 -0.9294  0.2738
 3682TIP3    H111052   2.433   0.413   3.571 -0.7731 -0.9536  1.8483
 3682TIP3    H211053   2.388   0.554   3.600 -1.1374 -0.7710  0.4398
 3683TIP3   OH211054   2.089   5.121   5.004 -0.3649 -0.0632 -0.2386
 3683TIP3    H111055   2.096   5.168   5.087  1.9667  0.6195 -0.7544
 3683TIP3    H211056   2.028   5.173   4.952 -0.4642  0.4714  0.4050
 3684TIP3   OH211057   3.063   3.560   1.259 -0.3964 -0.0681  0.2788
 3684TIP3    H111058   3.130   3.628   1.260 -1.4894  1.0691  1.2553
 3684TIP3    H211059   3.069   3.519   1.346 -1.0855  0.1886  0.4548
 3685TIP3   OH211060   5.219   3.392   2.076  0.2038 -0.1101  0.3958
 3685TIP3    H111061   5.268   3.322   2.032  2.0575  1.0943  0.4160
 3685TIP3    H211062   5.142   3.405   2.021  0.7741 -0.8920 -0.6320
 3686TIP3   OH211063   3.038   1.423   0.653  0.5313  0.0848 -0.1008
 3686TIP3    H111064   2.999   1.496   0.701 -0.2492 -0.4070  0.0201
 3686TIP3    H211065   2.973   1.353   0.657  1.1219 -0.5043 -0.5191
 3687TIP3   OH211066   0.165   0.522   0.253  0.4564  0.5299  0.1732
 3687TIP3    H111067   0.143   0.568   0.333 -3.1868  3.1065 -2.0274
 3687TIP3    H211068   0.087   0.471   0.232  0.8008  0.8813 -2.2572
 3688TIP3   OH211069   0.053   2.436   0.926 -0.1752  0.1892 -0.1739
 3688TIP3    H111070   0.064   2.492   0.849 -0.9205 -1.1086 -1.2769
 3688TIP3    H211071   0.142   2.423   0.959  0.2076  0.3980 -1.0923
 3689TIP3   OH211072   5.184   4.228   3.922 -0.4678 -0.4759 -0.0793
 3689TIP3    H111073   5.172   4.190   3.835  2.1853 -1.8824  0.0727
 3689TIP3    H211074   5.169   4.156   3.983 -0.7201  0.0876  0.5391
 3690TIP3   OH211075   0.226   0.302   5.094  0.1737 -0.0173  0.1324
 3690TIP3    H111076   0.213   0.248   5.016 -0.7486 -0.6824  0.7208
 3690TIP3    H211077   0.240   0.390   5.060 -1.7771  0.0055 -0.7656
 3691TIP3   OH211078   2.400   4.382   2.910  0.2590  0.2785  0.3122
 3691TIP3    H111079   2.337   4.350   2.974 -0.3010  2.7130  1.0936
 3691TIP3    H211080   2.347   4.435   2.849  1.3531  1.2993  0.2190
 3692TIP3   OH211081   0.998   4.248   1.848  0.2787 -0.3415 -0.0003
 3692TIP3    H111082   0.993   4.230   1.942  0.3814  1.3582  0.3661
 3692TIP3    H211083   0.910   4.233   1.815 -0.9795  3.2195  1.2539
 3693TIP3   OH211084   1.286   1.020   3.829 -0.1158  0.0493 -0.0249
 3693TIP3    H111085   1.375   0.983   3.830  0.1781  0.6810 -0.9424
 3693TIP3    H211086   1.247   0.987   3.749 -0.8723 -0.5599  0.5870
 3694TIP3   OH211087   2.045   2.763   3.407 -0.1346  0.2501  0.2689
 3694TIP3    H111088   1.980   2.830   3.428 -1.3497 -0.8486  0.1688
 3694TIP3    H211089   2.035   2.749   3.312  0.5715  0.3835  0.1688
 3695TIP3   OH211090   6.266   3.074   0.184 -0.1456  0.0147  0.0005
 3695TIP3    H111091   6.300   3.043   0.100 -0.0281  1.0810 -0.3584
 3695TIP3    H211092   6.325   3.146   0.208 -1.8903  1.6728 -0.4567
 3696TIP3   OH211093   6.089   4.936   2.358  0.4719 -0.6918  0.4022
 3696TIP3    H111094   6.182   4.958   2.371  0.1441 -0.2048  2.1067
 3696TIP3    H211095   6.080   4.926   2.263  2.2999 -0.9046  0.2139
 3697TIP3   OH211096   4.314   3.222   0.673  0.4724 -0.7150 -0.3242
 3697TIP3    H111097   4.291   3.203   0.764  0.8457 -1.2675 -0.3396
 3697TIP3    H211098   4.342   3.314   0.674 -0.5166 -0.4021 -0.0812
 3698TIP3   OH211099   5.736   1.839   2.283  0.1010  0.0238  0.0180
 3698TIP3    H111100   5.708   1.748   2.293  1.7575 -0.6398 -0.9786
 3698TIP3    H211101   5.818   1.845   2.333  0.7658  0.5694 -1.1101
 3699TIP3   OH211102   2.205   2.615   1.565  0.8379  0.0985  0.3418
 3699TIP3    H111103   2.224   2.701   1.603 -0.0167  0.2358  0.4692
 3699TIP3    H211104   2.128   2.584   1.613 -0.0313  0.0994 -0.9950
 3700TIP3   OH211105   4.070   3.222   2.342 -0.0589 -0.3445 -0.6045
 3700TIP3    H111106   3.981   3.185   2.341  0.0449 -0.5895 -0.9328
 3700TIP3    H211107   4.089   3.233   2.435 -1.9002  3.3337 -0.4857
 3701TIP3   OH211108   0.172   1.853   3.745  0.7157 -0.1878 -0.0938
 3701TIP3    H111109   0.170   1.763   3.713  2.8463 -0.9357  1.6307
 3701TIP3    H211110   0.172   1.906   3.665  0.6248 -1.7571 -1.1932
 3702TIP3   OH211111   1.500   5.804   0.952 -0.1056 -0.2340 -0.4428
 3702TIP3    H111112   1.407   5.826   0.941  0.2533  2.6263  1.3138
 3702TIP3    H211113   1.499   5.713   0.983 -2.3534 -0.1187  0.0106
 3703TIP3   OH211114   3.195   2.659   4.803  0.0148  0.8223  0.3226
 3703TIP3    H111115   3.235   2.716   4.737 -0.6022 -1.3174 -2.0397
 3703TIP3    H211116   3.102   2.681   4.801 -0.3493 -0.6591 -1.1375
 3704TIP3   OH211117   4.839   5.454   0.692  0.2129 -0.1508 -0.4387
 3704TIP3    H111118   4.760   5.494   0.729  1.1551  0.4795  0.9793
 3704TIP3    H211119   4.821   5.361   0.691 -0.0857 -0.1342  1.0970
 3705TIP3   OH211120   2.379   2.340   3.156  0.1924  0.0458 -0.1758
 3705TIP3    H111121   2.469   2.307   3.146  0.0431 -0.1765 -0.8696
 3705TIP3    H211122   2.332   2.304   3.081 -0.1618  1.2676 -0.5575
 3706TIP3   OH211123   1.954   5.400   4.216  0.8214  0.2622  0.3523
 3706TIP3    H111124   1.900   5.478   4.206  0.4495  0.2595  2.1085
 3706TIP3    H211125   1.900   5.329   4.183 -0.1147  0.3178  1.7068
 3707TIP3   OH211126   1.137   1.916   2.071 -0.0838  0.1818 -0.3336
 3707TIP3    H111127   1.117   1.897   2.163 -0.6577  1.1282 -0.2438
 3707TIP3    H211128   1.201   1.987   2.075 -0.4641  0.5552 -0.6510
 3708TIP3   OH211129   2.980   0.236   1.240 -0.2508  0.0898  0.4100
 3708TIP3    H111130   3.036   0.274   1.172  0.3819  2.0978  1.9439
 3708TIP3    H211131   2.918   0.181   1.192  1.0504  0.2923 -1.6382
 3709TIP3   OH211132   3.633   5.032   4.027 -0.5672 -0.1485 -0.2288
 3709TIP3    H111133   3.670   5.015   3.940 -0.6711 -0.6616 -0.1750
 3709TIP3    H211134   3.574   5.106   4.014 -1.4500 -0.9321 -0.8318
 3710TIP3   OH211135   3.491   4.967   3.315 -0.0314 -0.3033 -0.6923
 3710TIP3    H111136   3.533   4.883   3.298  0.2567  0.0069 -1.5877
 3710TIP3    H211137   3.457   4.994   3.230 -1.1511 -0.0614 -0.1776
 3711TIP3   OH211138   5.944   0.138   3.352  0.1260  0.1908 -0.3955
 3711TIP3    H111139   5.940   0.044   3.331  0.8028 -0.0632  0.5701
 3711TIP3    H211140   6.021   0.148   3.406  2.0330  1.8820 -3.1582
 3712TIP3   OH211141   4.777   4.257   1.043 -0.3314 -0.5268  0.6419
 3712TIP3    H111142   4.799   4.165   1.061 -0.3734 -0.6719 -0.0100
 3712TIP3    H211143   4.811   4.272   0.955  1.1754  0.5887  1.3804
 3713TIP3   OH211144   0.762   3.630   5.045 -0.0892  0.2085  0.2531
 3713TIP3    H111145   0.696   3.562   5.032  0.1074 -0.0375  0.5285
 3713TIP3    H211146   0.713   3.706   5.076 -0.2475  0.0293  0.4478
 3714TIP3   OH211147   1.467   4.160   3.798  0.0863 -0.0506  0.8953
 3714TIP3    H111148   1.429   4.085   3.844 -0.3149 -0.8330 -0.6250
 3714TIP3    H211149   1.480   4.128   3.708  1.5072  1.1706  0.6293
 3715TIP3   OH211150   6.309   4.324   1.288 -0.5740  0.2354  0.3397
 3715TIP3    H111151   6.310   4.269   1.366 -1.4306 -0.2504  0.0192
 3715TIP3    H211152   6.399   4.358   1.282  0.3568 -2.0692 -0.0902
 3716TIP3   OH211153   1.940   2.585   2.695  0.0008 -0.3227  0.0529
 3716TIP3    H111154   1.993   2.665   2.691 -0.4459 -0.0041  0.3618
 3716TIP3    H211155   1.926   2.562   2.603 -0.2525  0.2193 -0.0505
 3717TIP3   OH211156   4.141   0.866   2.539  0.0982  0.4735 -0.0964
 3717TIP3    H111157   4.067   0.895   2.486  0.6213 -0.8796 -1.6503
 3717TIP3    H211158   4.218   0.897   2.492  0.5934  2.3572  1.7945
 3718TIP3   OH211159   0.510   5.172   3.678 -0.1334 -0.2458 -0.0819
 3718TIP3    H111160   0.482   5.110   3.612 -0.3851  0.9532 -1.1421
 3718TIP3    H211161   0.429   5.198   3.723 -0.2026  0.2048 -0.4547
 3719TIP3   OH211162   4.755   4.751   1.850 -0.2831 -0.3625 -0.3405
 3719TIP3    H111163   4.674   4.702   1.859 -0.8599  0.3833 -1.2351
 3719TIP3    H211164   4.817   4.688   1.813 -0.2993 -1.0657  0.7976
 3720TIP3   OH211165   0.607   1.441   3.209 -0.0126  0.2932 -0.1328
 3720TIP3    H111166   0.586   1.523   3.254 -1.8594 -0.9395  1.3689
 3720TIP3    H211167   0.521   1.402   3.189  0.8008 -1.9287  0.4478
 3721TIP3   OH211168   3.590   5.648   0.594  0.2208 -0.2653 -0.2244
 3721TIP3    H111169   3.650   5.575   0.579  2.1571  1.1337  0.3468
 3721TIP3    H211170   3.606   5.675   0.684  0.0289  1.2865 -0.6315
 3722TIP3   OH211171   3.836   3.937   3.719  0.1988 -0.3271 -0.0168
 3722TIP3    H111172   3.884   3.975   3.793  1.7546  0.2435 -1.2710
 3722TIP3    H211173   3.842   4.003   3.650 -2.6259 -0.1436 -0.1847
 3723TIP3   OH211174   1.086   1.118   0.949 -0.4560 -0.1677  0.3568
 3723TIP3    H111175   1.125   1.051   1.005 -0.4332 -0.3074  0.1756
 3723TIP3    H211176   1.158   1.177   0.928  0.1249 -1.4738 -1.5350
 3724TIP3   OH211177   3.552   4.765   3.992 -0.0410 -0.0807  0.0452
 3724TIP3    H111178   3.610   4.841   3.987  0.0205 -0.1324 -0.0550
 3724TIP3    H211179   3.464   4.801   3.997 -0.0323 -0.0049 -0.3144
 3725TIP3   OH211180   4.327   4.821   4.470 -0.1222  0.2091  0.2770
 3725TIP3    H111181   4.330   4.817   4.374  1.7000 -1.0944  0.3395
 3725TIP3    H211182   4.289   4.907   4.489 -2.4166 -0.2885 -1.5758
 3726TIP3   OH211183   0.466   4.076   4.754  0.0040 -0.4328  0.9320
 3726TIP3    H111184   0.421   4.117   4.680  0.1423 -1.0738  0.4846
 3726TIP3    H211185   0.395   4.046   4.811 -0.1003  0.1970  1.1326
 3727TIP3   OH211186   1.902   1.268   3.109 -0.0399 -0.1043 -0.1144
 3727TIP3    H111187   1.960   1.195   3.090  0.0217  0.5120 -2.6284
 3727TIP3    H211188   1.816   1.239   3.080 -0.4761  0.0046  1.0191
 3728TIP3   OH211189   4.034   3.189   1.939  0.1597 -0.2375  0.6804
 3728TIP3    H111190   4.064   3.157   1.854 -1.1815 -0.9150  0.4298
 3728TIP3    H211191   4.111   3.183   1.995  0.2243 -3.3006  0.4475
 3729TIP3   OH211192   5.731   0.936   3.527  0.1126 -0.4425  0.1421
 3729TIP3    H111193   5.680   0.960   3.450  0.3154  1.7620  0.6056
 3729TIP3    H211194   5.813   0.984   3.517 -0.7611  1.9470  2.7819
 3730TIP3   OH211195   5.849   3.669   1.799  0.2222 -0.1227 -0.7306
 3730TIP3    H111196   5.759   3.683   1.828  0.3972  0.0799 -0.2728
 3730TIP3    H211197   5.868   3.745   1.743 -0.5080 -1.1037 -2.3669
 3731TIP3   OH211198   5.674   5.950   1.234 -0.0098  0.6989 -0.0220
 3731TIP3    H111199   5.688   5.866   1.188 -1.7668 -0.0031  0.6546
 3731TIP3    H211200   5.600   5.990   1.188 -1.5823  0.1477  1.8622
 3732TIP3   OH211201   0.593   4.591   0.634  0.3017  0.2345  0.2948
 3732TIP3    H111202   0.503   4.572   0.661  0.1644 -0.5121 -0.6342
 3732TIP3    H211203   0.636   4.505   0.634  1.0651  0.6079  0.8852
 3733TIP3   OH211204   4.007   1.154   2.913  0.1016  0.2617  0.0749
 3733TIP3    H111205   3.946   1.195   2.851  0.6868 -0.0239 -0.7019
 3733TIP3    H211206   3.971   1.067   2.927 -1.2290  1.0309  1.8459
 3734TIP3   OH211207   3.933   3.160   3.363  0.0646 -0.2594 -0.3996
 3734TIP3    H111208   3.988   3.199   3.431  0.4481 -1.2881 -0.0953
 3734TIP3    H211209   3.986   3.089   3.327 -1.1702 -1.4914  0.1321
 3735TIP3   OH211210   4.503   3.945   4.131  0.2434 -0.2946  0.4155
 3735TIP3    H111211   4.575   3.965   4.070  1.7331  1.1372  2.5013
 3735TIP3    H211212   4.459   4.029   4.144 -0.8256 -0.8426  0.4018
 3736TIP3   OH211213   0.510   0.128   0.902 -0.9766  0.1959  0.7858
 3736TIP3    H111214   0.604   0.133   0.921 -0.6398  0.9141 -0.8998
 3736TIP3    H211215   0.492   0.034   0.893 -0.3044  0.0786  0.5956
 3737TIP3   OH211216   4.361   0.518   3.971  0.1570  0.2471  0.1415
 3737TIP3    H111217   4.320   0.543   4.054  0.1073 -0.2891  0.2802
 3737TIP3    H211218   4.303   0.450   3.935 -0.0517  0.7700 -0.5400
 3738TIP3   OH211219   5.576   1.035   2.932 -0.1110 -0.1264  0.1999
 3738TIP3    H111220   5.662   1.070   2.911 -0.7133  0.4209 -1.5372
 3738TIP3    H211221   5.517   1.110   2.924 -0.9667 -0.8260 -0.2292
 3739TIP3   OH211222   4.271   4.026   3.948 -0.3908 -0.3774  0.9079
 3739TIP3    H111223   4.327   3.950   3.933  1.3254  1.2857 -2.1129
 3739TIP3    H211224   4.332   4.098   3.963 -1.6645  1.2825 -1.2748
 3740TIP3   OH211225   0.766   0.522   0.435  0.0966 -0.3043 -0.0904
 3740TIP3    H111226   0.766   0.585   0.508  1.4420  0.0244 -0.3406
 3740TIP3    H211227   0.858   0.497   0.426 -0.4477 -2.5190  0.1540
 3741TIP3   OH211228   5.330   1.683   3.557 -0.2793  0.1665  0.7836
 3741TIP3    H111229   5.266   1.634   3.506 -0.1508  0.9442 -0.1544
 3741TIP3    H211230   5.376   1.617   3.608 -2.2198 -0.3458  1.9460
 3742TIP3   OH211231   5.777   1.162   2.117 -0.0280 -0.6320 -0.1383
 3742TIP3    H111232   5.782   1.098   2.047 -0.4199 -1.2018  0.3495
 3742TIP3    H211233   5.844   1.227   2.095  1.3116 -1.9058  0.0672
 3743TIP3   OH211234   3.321   0.790   0.910  0.1105 -0.1351  0.3136
 3743TIP3    H111235   3.330   0.868   0.965 -0.3350  0.2743 -0.1750
 3743TIP3    H211236   3.259   0.735   0.957 -0.7878  0.5103 -0.0805
 3744TIP3   OH211237   0.863   2.341   3.909 -0.0273  0.2295 -0.0960
 3744TIP3    H111238   0.879   2.381   3.995  1.3333  0.1768 -0.3098
 3744TIP3    H211239   0.926   2.384   3.851  0.3805 -1.1049 -0.6626
 3745TIP3   OH211240   3.030   4.935   3.464 -0.0700 -1.0164 -0.1155
 3745TIP3    H111241   3.061   5.015   3.420 -0.8905  0.1348  1.3058
 3745TIP3    H211242   3.018   4.961   3.555 -2.1228 -2.2582  0.0263
 3746TIP3   OH211243   0.045   0.861   4.324 -0.4005  0.4534  0.3810
 3746TIP3    H111244   0.051   0.896   4.413  0.0320 -2.2006  1.4696
 3746TIP3    H211245   0.129   0.882   4.284  0.0880  0.1070  1.2137
 3747TIP3   OH211246   6.342   2.673   2.394 -0.2416  0.0532  0.1712
 3747TIP3    H111247   6.283   2.654   2.320 -0.6061 -1.2610  0.7734
 3747TIP3    H211248   6.374   2.761   2.376 -0.1992 -0.2820 -1.6403
 3748TIP3   OH211249   4.526   2.049   2.082  0.4173  0.1010 -0.1888
 3748TIP3    H111250   4.618   2.025   2.084  0.1385 -1.0845 -0.9699
 3748TIP3    H211251   4.501   2.059   2.174  1.2578  0.2211  0.0279
 3749TIP3   OH211252   0.663   2.649   3.666  0.3413 -0.5248  0.3637
 3749TIP3    H111253   0.646   2.622   3.756  1.2550  1.4207  1.1882
 3749TIP3    H211254   0.732   2.590   3.636  1.6227  0.1847  1.7572
 3750TIP3   OH211255   2.039   4.103   2.011  0.4476  0.1711  0.3790
 3750TIP3    H111256   2.094   4.088   2.087 -1.0456  0.7672  1.6366
 3750TIP3    H211257   1.986   4.024   2.003 -1.5536  1.2709  1.9027
 3751TIP3   OH211258   0.570   5.737   2.553 -0.2221 -0.3216  1.2273
 3751TIP3    H111259   0.621   5.663   2.586  2.8061  1.5829  1.2477
 3751TIP3    H211260   0.591   5.740   2.459 -2.6482 -1.1365  0.5962
 3752TIP3   OH211261   4.741   3.294   5.020 -0.4935 -0.0296  0.0547
 3752TIP3    H111262   4.743   3.387   5.042 -0.7060  0.1406 -0.6122
 3752TIP3    H211263   4.797   3.252   5.085  0.0204  0.6294  0.0398
 3753TIP3   OH211264   2.417   2.519   1.404  0.4076 -0.6597  0.4808
 3753TIP3    H111265   2.336   2.547   1.447  0.1159 -2.3833  1.1266
 3753TIP3    H211266   2.387   2.468   1.328  0.8167 -2.7059  1.6368
 3754TIP3   OH211267   5.588   5.863   3.971 -0.0725  0.2878  0.0285
 3754TIP3    H111268   5.676   5.879   3.936  0.7256 -1.2403  1.2370
 3754TIP3    H211269   5.544   5.814   3.902  0.9192 -1.2012  0.4076
 3755TIP3   OH211270   0.336   3.114   0.653 -0.5955  0.0599  0.1443
 3755TIP3    H111271   0.283   3.167   0.594 -3.0807  0.2971  2.4151
 3755TIP3    H211272   0.370   3.177   0.718  0.2888 -0.4998  0.2443
 3756TIP3   OH211273   3.438   4.662   2.192  0.3152  0.2048  0.2121
 3756TIP3    H111274   3.351   4.644   2.157  0.9849 -1.4476 -0.7366
 3756TIP3    H211275   3.449   4.599   2.263  1.0901 -0.3111 -0.3380
 3757TIP3   OH211276   1.734   3.490   0.698  0.3911  0.9008 -0.4109
 3757TIP3    H111277   1.794   3.441   0.754  0.3601  0.9956 -0.2937
 3757TIP3    H211278   1.714   3.431   0.626  0.8734  0.9787 -0.6165
 3758TIP3   OH211279   0.820   4.877   2.077  0.5151  0.5660 -0.4679
 3758TIP3    H111280   0.783   4.908   1.995 -0.2693 -0.9950 -0.7455
 3758TIP3    H211281   0.801   4.783   2.078  1.1470  0.4210  1.1620
 3759TIP3   OH211282   5.920   1.497   4.481 -0.2505 -0.6066 -0.3449
 3759TIP3    H111283   5.911   1.588   4.454  0.6435 -0.7879 -1.3149
 3759TIP3    H211284   5.855   1.486   4.550 -0.8236  0.5852 -0.6667
 3760TIP3   OH211285   1.647   0.305   4.213  0.1497  0.4717 -0.3866
 3760TIP3    H111286   1.661   0.223   4.260 -0.6113 -0.0298 -0.9950
 3760TIP3    H211287   1.720   0.361   4.239 -0.7016  0.5489  2.0478
 3761TIP3   OH211288   5.368   1.780   4.891 -0.5891  0.4473  0.4388
 3761TIP3    H111289   5.291   1.771   4.947 -0.9267  1.6553  0.1960
 3761TIP3    H211290   5.430   1.831   4.943  0.7505 -1.8979  1.2801
 3762TIP3   OH211291   6.198   3.492   3.044  0.3078  0.0734  0.2275
 3762TIP3    H111292   6.294   3.497   3.049  0.4285 -1.5906  0.2558
 3762TIP3    H211293   6.175   3.417   3.099 -1.1190  1.0459  1.0159
 3763TIP3   OH211294   0.489   3.826   1.467 -0.0873  0.6483 -0.0084
 3763TIP3    H111295   0.408   3.814   1.516 -2.1358  2.0758 -2.7236
 3763TIP3    H211296   0.503   3.742   1.423  1.2949 -0.3564  2.1917
 3764TIP3   OH211297   6.189   5.541   2.538 -0.1317  0.3155 -0.1808
 3764TIP3    H111298   6.210   5.490   2.617  1.9954  0.0141 -0.8727
 3764TIP3    H211299   6.220   5.629   2.558  1.0657  0.0817 -0.8802
 3765TIP3   OH211300   1.411   1.190   2.713 -0.2385 -0.4044 -0.2964
 3765TIP3    H111301   1.404   1.187   2.809  1.9009  1.8557  0.0460
 3765TIP3    H211302   1.359   1.267   2.688  0.9310  0.2843 -0.6734
 3766TIP3   OH211303   0.076   0.715   4.604  0.1772  0.1831 -0.2864
 3766TIP3    H111304   0.151   0.767   4.577  0.8955 -1.1192 -0.9187
 3766TIP3    H211305   0.005   0.778   4.614  0.6046  1.1215 -2.5405
 3767TIP3   OH211306   5.590   0.349   5.103 -0.7461 -0.0033  0.0974
 3767TIP3    H111307   5.563   0.298   5.179  0.0457 -0.3433  0.1661
 3767TIP3    H211308   5.511   0.396   5.076 -0.9724  0.3289  1.2868
 3768TIP3   OH211309   2.666   3.664   5.048  0.0320  0.3744 -0.1793
 3768TIP3    H111310   2.681   3.747   5.094 -2.7072  1.8935 -1.7523
 3768TIP3    H211311   2.579   3.636   5.077 -0.5801 -0.0705 -2.2952
 3769TIP3   OH211312   6.083   0.461   4.399 -0.0399  0.1459  0.4813
 3769TIP3    H111313   5.996   0.478   4.363  0.2928  0.2396 -0.3119
 3769TIP3    H211314   6.116   0.547   4.423  0.2950  0.2551 -0.3347
 3770TIP3   OH211315   0.406   4.066   0.239 -0.2295 -0.3998  0.2380
 3770TIP3    H111316   0.349   4.143   0.234 -0.4416 -0.5924 -0.4168
 3770TIP3    H211317   0.388   4.018   0.158  2.1981  0.4813 -0.9548
 3771TIP3   OH211318   1.078   1.890   4.622  0.3130  0.2809  0.1609
 3771TIP3    H111319   1.159   1.883   4.571 -0.7726 -0.8873 -1.5130
 3771TIP3    H211320   1.092   1.832   4.696  1.3722  0.8703  0.4478
 3772TIP3   OH211321   3.504   2.075   0.739 -0.3143 -0.8883 -0.5562
 3772TIP3    H111322   3.431   2.132   0.715  0.7873  0.6996 -0.3305
 3772TIP3    H211323   3.560   2.075   0.661  1.2276  0.9260  0.4783
 3773TIP3   OH211324   4.220   4.547   0.785  0.0768  0.1991  0.3966
 3773TIP3    H111325   4.252   4.473   0.835 -0.3485 -0.3265 -0.0913
 3773TIP3    H211326   4.181   4.508   0.707  1.1509  1.0155 -0.5890
 3774TIP3   OH211327   0.515   0.526   3.815 -0.8045  0.1146  0.4383
 3774TIP3    H111328   0.573   0.531   3.891  1.1715 -1.1283 -0.8853
 3774TIP3    H211329   0.437   0.480   3.847 -0.2814  0.1588  1.8319
 3775TIP3   OH211330   0.060   4.818   3.853  0.1695  0.2224 -0.0198
 3775TIP3    H111331  -0.029   4.832   3.885 -0.5807 -1.1496 -1.3688
 3775TIP3    H211332   0.056   4.841   3.760  1.2446  0.2079 -0.0795
 3776TIP3   OH211333   5.745   4.216   1.719  0.1047  0.5252  0.3275
 3776TIP3    H111334   5.660   4.223   1.676  0.4485  1.3885 -0.2437
 3776TIP3    H211335   5.751   4.295   1.773  0.9545  0.9666 -0.4000
 3777TIP3   OH211336   1.882   0.458   4.196  0.1294  0.3690 -0.6591
 3777TIP3    H111337   1.872   0.428   4.105  1.6166 -0.2001 -0.6613
 3777TIP3    H211338   1.822   0.532   4.203 -0.8910 -0.3135 -1.7541
 3778TIP3   OH211339   4.970   1.513   3.841  0.2574 -0.0261  0.2858
 3778TIP3    H111340   4.976   1.443   3.776  0.5436  2.0338 -2.0754
 3778TIP3    H211341   4.877   1.517   3.863 -0.1147  0.2180 -1.2175
 3779TIP3   OH211342   3.214   0.925   2.166 -0.2083 -0.6925 -0.0104
 3779TIP3    H111343   3.167   0.994   2.214 -1.1003 -2.7328  2.2591
 3779TIP3    H211344   3.276   0.972   2.111 -0.6521  1.9149  1.5536
 3780TIP3   OH211345   3.306   2.658   0.610 -0.3278  0.4949 -0.0392
 3780TIP3    H111346   3.214   2.678   0.628 -0.4191  0.9993 -0.9937
 3780TIP3    H211347   3.344   2.639   0.696 -1.1246  1.1126  0.4647
 3781TIP3   OH211348   1.498   0.841   3.129  0.8740  0.0986 -0.1857
 3781TIP3    H111349   1.449   0.920   3.150  0.1152 -0.2973 -0.4385
 3781TIP3    H211350   1.554   0.826   3.205  1.1303  0.9539 -0.1980
 3782TIP3   OH211351   1.291   1.121   3.534 -0.0458  0.3230 -0.4153
 3782TIP3    H111352   1.233   1.144   3.463 -1.0943  3.5447  1.2910
 3782TIP3    H211353   1.363   1.184   3.528  3.5357 -3.4427 -2.3931
 3783TIP3   OH211354   1.485   1.095   1.096  0.3789  0.2214 -0.1916
 3783TIP3    H111355   1.568   1.075   1.054  0.4801 -1.8087  0.8057
 3783TIP3    H211356   1.437   1.148   1.032  1.7348 -0.0717 -1.5095
 3784TIP3   OH211357   2.034   2.077   0.252 -0.1860 -0.7190  0.2089
 3784TIP3    H111358   2.128   2.067   0.267 -0.0641  0.2373  0.0874
 3784TIP3    H211359   1.995   2.063   0.338  0.0241 -1.5514  0.1800
 3785TIP3   OH211360   0.654   1.396   1.698 -0.0483 -0.2921 -0.0691
 3785TIP3    H111361   0.658   1.489   1.718  0.3437 -0.3624  0.1853
 3785TIP3    H211362   0.745   1.369   1.685 -0.0832 -0.8024  0.6562
 3786TIP3   OH211363   4.141   3.545   0.035  0.1623  0.0309  0.1500
 3786TIP3    H111364   4.077   3.482   0.069 -0.7449  1.5286  1.3482
 3786TIP3    H211365   4.147   3.524  -0.059  1.5731 -3.2225  0.8505
 3787TIP3   OH211366   5.771   1.852   1.616 -0.1564 -0.0889  0.4730
 3787TIP3    H111367   5.697   1.793   1.629 -0.0626 -0.5140 -0.7934
 3787TIP3    H211368   5.835   1.825   1.682  0.5335 -2.4950 -1.0544
 3788TIP3   OH211369   2.010   1.765   2.711 -0.1882  0.3299  0.1992
 3788TIP3    H111370   1.969   1.679   2.725 -2.0052  1.0372 -0.4886
 3788TIP3    H211371   2.050   1.786   2.796  0.8134 -1.4166  0.2243
 3789TIP3   OH211372   5.252   2.012   4.108 -0.4996  0.6671 -0.2796
 3789TIP3    H111373   5.196   1.947   4.151  1.2384 -2.1104 -1.8540
 3789TIP3    H211374   5.199   2.043   4.034 -0.3041 -1.5252 -1.4441
 3790TIP3   OH211375   1.054   5.921   2.208 -0.3288 -0.3824 -0.6605
 3790TIP3    H111376   1.141   5.962   2.208 -0.7327  0.6301 -3.2080
 3790TIP3    H211377   1.073   5.827   2.198  0.5319 -0.8339  3.4628
 3791TIP3   OH211378   5.130   0.925   4.972  0.4495  0.1653  0.4531
 3791TIP3    H111379   5.178   1.007   4.972  1.1439 -0.2229  1.2910
 3791TIP3    H211380   5.145   0.888   5.059 -0.9233 -0.2374  0.5443
 3792TIP3   OH211381   2.452   1.680   5.166 -0.1164  0.2912 -0.1033
 3792TIP3    H111382   2.502   1.730   5.101  1.0626  1.1071  1.3579
 3792TIP3    H211383   2.366   1.722   5.167  0.4821  1.5731  0.2535
 3793TIP3   OH211384   3.078   5.756   4.314 -0.4183 -0.0818  0.6074
 3793TIP3    H111385   3.063   5.665   4.340  0.2624 -0.0520  1.1191
 3793TIP3    H211386   2.991   5.796   4.315 -0.8684 -0.9781 -0.6246
 3794TIP3   OH211387   3.155   1.674   2.542 -0.1564 -0.4981 -0.2763
 3794TIP3    H111388   3.122   1.715   2.622  0.7061 -0.1242 -0.0973
 3794TIP3    H211389   3.189   1.589   2.572  0.4172 -0.2425 -0.1903
 3795TIP3   OH211390   2.397   3.582   1.971 -0.7632  0.3255 -0.1112
 3795TIP3    H111391   2.438   3.549   2.052 -0.8041  2.0345  0.6485
 3795TIP3    H211392   2.303   3.581   1.990 -0.7331  1.4089  0.1662
 3796TIP3   OH211393   3.570   2.961   1.150 -0.0874  0.4357 -0.3790
 3796TIP3    H111394   3.616   2.879   1.168 -1.3928 -0.1288  0.5820
 3796TIP3    H211395   3.598   2.985   1.061  0.6271 -0.8356 -0.5312
 3797TIP3   OH211396   3.363   5.468   1.375 -0.0719  0.4897 -0.2785
 3797TIP3    H111397   3.331   5.475   1.285 -0.0708 -1.1523 -0.4291
 3797TIP3    H211398   3.404   5.382   1.380 -0.7026  0.2380  1.4982
 3798TIP3   OH211399   5.569   5.871   2.536  0.2250 -0.3249  0.4259
 3798TIP3    H111400   5.661   5.859   2.562  0.6215 -0.8090 -1.0852
 3798TIP3    H211401   5.535   5.782   2.530 -0.1765 -0.1689  0.3828
 3799TIP3   OH211402   3.101   3.074   4.531  0.0993 -0.9963  0.2211
 3799TIP3    H111403   3.128   3.073   4.623 -0.9265 -0.8050  0.5278
 3799TIP3    H211404   3.184   3.072   4.482  0.8154  1.9026  1.1311
 3800TIP3   OH211405   4.664   5.236   0.657 -0.1502 -0.0546  0.1797
 3800TIP3    H111406   4.662   5.163   0.595 -2.3190  0.2138 -0.1790
 3800TIP3    H211407   4.580   5.230   0.703  0.8468  0.5404  2.1919
 3801TIP3   OH211408   3.359   2.002   3.693 -0.2229 -0.6017 -0.1343
 3801TIP3    H111409   3.366   2.097   3.702  1.1001 -0.5683 -1.1423
 3801TIP3    H211410   3.286   1.977   3.750  0.0677  0.8822  0.9325
 3802TIP3   OH211411   3.480   1.370   2.902  0.3003  0.1467 -0.3667
 3802TIP3    H111412   3.483   1.351   2.808 -0.6231 -0.3462 -0.3014
 3802TIP3    H211413   3.551   1.433   2.915  1.1177 -0.5687 -1.2076
 3803TIP3   OH211414   5.352   5.356   0.713 -0.0139  0.2555  0.6635
 3803TIP3    H111415   5.257   5.365   0.702  0.0816  0.0639 -0.5024
 3803TIP3    H211416   5.389   5.397   0.635  0.8365 -0.2879  0.7635
 3804TIP3   OH211417   4.079   4.495   2.134  0.4695  0.5544 -0.2984
 3804TIP3    H111418   4.153   4.534   2.180  0.2563  0.5060  0.0873
 3804TIP3    H211419   4.067   4.550   2.057  1.1805  0.3086 -0.5933
 3805TIP3   OH211420   4.127   5.803   2.066 -0.1033 -0.0471  0.2734
 3805TIP3    H111421   4.164   5.754   2.139  1.0372  0.9794  0.4161
 3805TIP3    H211422   4.189   5.791   1.994  0.5359  1.6349  0.4929
 3806TIP3   OH211423   2.993   0.735   3.675 -0.1487  0.2861 -0.1073
 3806TIP3    H111424   3.044   0.790   3.616  1.6490 -1.1049  0.0433
 3806TIP3    H211425   2.931   0.689   3.618  1.6639 -1.1563 -1.0141
 3807TIP3   OH211426   1.847   4.306   1.981 -0.2636  0.8272 -0.5817
 3807TIP3    H111427   1.926   4.251   1.989 -1.1637 -0.3685  0.5532
 3807TIP3    H211428   1.804   4.274   1.901 -1.6984 -1.4696  0.9956
 3808TIP3   OH211429   3.384   4.270   2.557  0.3322  0.2517 -0.4204
 3808TIP3    H111430   3.367   4.176   2.553  2.3119 -0.1248 -1.3012
 3808TIP3    H211431   3.470   4.281   2.516  0.6848  2.3088  0.7071
 3809TIP3   OH211432   5.411   2.692   2.442 -0.2707  0.5860 -0.6969
 3809TIP3    H111433   5.337   2.676   2.383  1.0474 -0.9726 -2.0101
 3809TIP3    H211434   5.375   2.680   2.529 -1.2687 -1.7159 -1.3584
 3810TIP3   OH211435   4.306   3.691   1.382 -0.0525  0.4234 -0.4613
 3810TIP3    H111436   4.313   3.610   1.434 -1.1633  0.2688 -0.5131
 3810TIP3    H211437   4.396   3.722   1.374  0.2290  0.0969  1.0064
 3811TIP3   OH211438   6.227   3.230   3.295  0.2451  0.6442  0.0982
 3811TIP3    H111439   6.323   3.239   3.300  0.4608 -0.5092 -1.3052
 3811TIP3    H211440   6.213   3.167   3.225 -1.5560  0.5181  0.5378
 3812TIP3   OH211441   6.232   0.822   3.971 -0.0096  0.6621  0.5929
 3812TIP3    H111442   6.226   0.739   4.018 -1.4450 -0.9978 -2.2781
 3812TIP3    H211443   6.142   0.850   3.959  0.3117  1.1370 -0.9205
 3813TIP3   OH211444   4.857   2.197   3.885 -0.3088 -0.3350 -0.2721
 3813TIP3    H111445   4.887   2.283   3.856  0.5310 -0.3940  0.3737
 3813TIP3    H211446   4.933   2.140   3.873 -0.2429 -0.5723  1.0598
 3814TIP3   OH211447   0.893   4.168   3.077  0.1005  0.5474 -0.3519
 3814TIP3    H111448   0.830   4.138   3.011 -0.6268 -1.9716  1.3156
 3814TIP3    H211449   0.839   4.204   3.147  0.7363  1.4244 -0.3044
 3815TIP3   OH211450   2.062   2.901   4.762  0.1858  0.0644  0.5305
 3815TIP3    H111451   2.018   2.816   4.771 -1.3990  0.4775 -2.2707
 3815TIP3    H211452   2.146   2.880   4.723 -0.4637 -0.2029 -0.7659
 3816TIP3   OH211453   3.241   0.821   0.468  0.6712  0.9415 -0.0839
 3816TIP3    H111454   3.189   0.746   0.439  0.4101  1.0046  0.2153
 3816TIP3    H211455   3.197   0.851   0.548  1.4357  0.7079  0.4393
 3817TIP3   OH211456   4.507   3.694   4.669 -0.0395  0.4733 -0.0222
 3817TIP3    H111457   4.422   3.727   4.700  0.1465  2.5445 -1.5886
 3817TIP3    H211458   4.487   3.649   4.587  0.2919  0.4078 -0.0691
 3818TIP3   OH211459   0.732   5.340   3.724 -0.6785  0.6342 -0.2145
 3818TIP3    H111460   0.647   5.302   3.704 -0.1751  0.2595 -1.8272
 3818TIP3    H211461   0.780   5.271   3.769 -1.4070  1.0465  1.2254
 3819TIP3   OH211462   5.422   1.955   1.366  0.1027  0.0522  0.3349
 3819TIP3    H111463   5.447   1.924   1.453 -0.5186 -3.6535 -0.6463
 3819TIP3    H211464   5.469   1.898   1.305  0.3278  2.3661 -1.8518
 3820TIP3   OH211465   4.262   3.233   4.943 -0.1459 -0.0347 -0.1810
 3820TIP3    H111466   4.251   3.326   4.960 -0.5264 -0.2753  0.9574
 3820TIP3    H211467   4.203   3.190   5.004  1.7746 -1.0986  1.0368
 3821TIP3   OH211468   6.342   4.322   3.347  0.0437  0.4063  0.6153
 3821TIP3    H111469   6.317   4.231   3.336 -1.3065  0.9013 -0.6720
 3821TIP3    H211470   6.345   4.335   3.441 -0.6135 -0.7277  0.8044
 3822TIP3   OH211471   1.559   0.783   1.752 -0.0153  0.5478 -0.7313
 3822TIP3    H111472   1.553   0.802   1.658 -1.1465 -0.5702 -0.9053
 3822TIP3    H211473   1.634   0.835   1.781 -0.5685  2.1225 -1.9335
 3823TIP3   OH211474   5.125   0.931   1.702  0.5678 -0.4657 -0.3095
 3823TIP3    H111475   5.040   0.903   1.737 -1.3959  1.9308 -2.7124
 3823TIP3    H211476   5.186   0.918   1.775 -2.0701 -1.1048  1.9806
 3824TIP3   OH211477   2.928   1.028   0.929 -0.3447 -0.2329 -0.3236
 3824TIP3    H111478   2.836   1.015   0.954 -0.1078  0.3884  0.9592
 3824TIP3    H211479   2.976   0.966   0.983  0.1292  0.6803  0.3307
 3825TIP3   OH211480   0.490   2.373   1.243 -0.2281 -0.3382 -0.0083
 3825TIP3    H111481   0.554   2.402   1.308  0.3137  0.0372 -0.7032
 3825TIP3    H211482   0.467   2.453   1.195  0.8952 -0.9372 -1.6078
 3826TIP3   OH211483   1.005   5.498   2.689 -0.3338 -0.2161  0.3615
 3826TIP3    H111484   1.090   5.483   2.646 -0.4556  0.9026 -0.3221
 3826TIP3    H211485   0.941   5.463   2.628 -0.3692 -1.4622  1.0768
 3827TIP3   OH211486   0.050   3.634   0.100  0.0279 -0.3631  0.4159
 3827TIP3    H111487   0.096   3.632   0.016  1.2682 -1.5785  1.0842
 3827TIP3    H211488  -0.040   3.613   0.078  0.6190 -2.1815 -0.4739
 3828TIP3   OH211489   1.588   5.276   0.242 -1.0934 -0.0799 -0.7683
 3828TIP3    H111490   1.563   5.361   0.207 -2.1807 -0.6130 -1.3370
 3828TIP3    H211491   1.600   5.221   0.164 -1.0498 -0.6208 -0.3830
 3829TIP3   OH211492   0.831   1.871   1.405  0.1469 -0.3149 -0.1908
 3829TIP3    H111493   0.864   1.896   1.319 -0.3385 -2.3523 -1.0383
 3829TIP3    H211494   0.871   1.933   1.466  0.4467  1.2223 -1.8732
 3830TIP3   OH211495   5.849   2.700   0.152  0.0534  0.1916 -0.9115
 3830TIP3    H111496   5.813   2.647   0.223  0.4240 -1.3197 -1.8242
 3830TIP3    H211497   5.826   2.790   0.176 -0.4485 -0.3420  0.7504
 3831TIP3   OH211498   1.148   4.461   1.010 -0.5107 -0.3754 -0.3496
 3831TIP3    H111499   1.104   4.545   1.023 -0.3921 -0.2862 -0.5311
 3831TIP3    H211500   1.235   4.475   1.046 -1.0243 -0.9372  1.1914
 3832TIP3   OH211501   3.640   5.187   1.185 -0.3050  0.1746  0.3281
 3832TIP3    H111502   3.594   5.160   1.265 -0.1971  0.1971  0.3979
 3832TIP3    H211503   3.570   5.205   1.122 -0.3839 -0.0328  0.3565
 3833TIP3   OH211504   4.810   0.653   3.694  0.1679 -0.1774  0.4931
 3833TIP3    H111505   4.812   0.678   3.787 -0.5236  1.3795  0.1411
 3833TIP3    H211506   4.750   0.578   3.691  0.4125 -0.4203  1.3383
 3834TIP3   OH211507   4.703   2.642   5.046 -0.1034  0.9101 -0.0389
 3834TIP3    H111508   4.721   2.700   5.120  2.2114  0.5370 -0.2219
 3834TIP3    H211509   4.630   2.683   5.000 -2.7842  0.3168  3.2814
 3835TIP3   OH211510   4.687   5.750   3.061 -0.2803  0.5218 -0.0190
 3835TIP3    H111511   4.639   5.726   2.981  1.3428 -0.1441 -0.8386
 3835TIP3    H211512   4.776   5.718   3.046  0.5477  2.0874  1.2628
 3836TIP3   OH211513   3.889   4.167   1.081  0.6494 -0.5678 -1.0751
 3836TIP3    H111514   3.899   4.167   1.177  0.9288 -0.0665 -1.0999
 3836TIP3    H211515   3.975   4.139   1.048  1.2760  1.3695 -1.2246
 3837TIP3   OH211516   0.852   5.818   1.059 -0.4735  0.0077 -0.3110
 3837TIP3    H111517   0.882   5.852   0.975 -0.6639 -1.6383 -1.0896
 3837TIP3    H211518   0.790   5.883   1.091 -0.3410  0.6939 -1.4107
 3838TIP3   OH211519   0.843   5.175   2.083  0.0954 -0.0346 -0.5554
 3838TIP3    H111520   0.864   5.125   2.003  0.0742  0.4039 -0.8357
 3838TIP3    H211521   0.820   5.108   2.147  0.2714 -0.4015 -0.8702
 3839TIP3   OH211522   2.105   2.103   2.000  0.3118 -0.4961 -0.1615
 3839TIP3    H111523   2.196   2.086   1.976  0.8347  1.0050  0.6183
 3839TIP3    H211524   2.111   2.166   2.072 -1.3427 -0.5717  0.0708
 3840TIP3   OH211525   0.293   2.125   3.305 -0.5676 -0.5437  0.1213
 3840TIP3    H111526   0.310   2.035   3.278 -0.2004 -0.6006  0.5435
 3840TIP3    H211527   0.334   2.133   3.391  0.2174  0.2916 -0.3068
 3841TIP3   OH211528   4.134   5.322   0.890  0.0484 -0.0195  0.1557
 3841TIP3    H111529   4.125   5.229   0.866 -0.8879  0.6202 -2.1934
 3841TIP3    H211530   4.083   5.369   0.825  1.7478  2.2749  0.3594
 3842TIP3   OH211531   1.691   5.916   3.174  0.6813  0.2241  0.0475
 3842TIP3    H111532   1.756   5.846   3.170 -1.0560 -1.4268 -0.6249
 3842TIP3    H211533   1.630   5.897   3.103  0.5906  2.9420 -0.7167
 3843TIP3   OH211534   3.660   0.301   3.441  0.1529 -0.2542  0.4466
 3843TIP3    H111535   3.626   0.268   3.523  0.2624 -2.3379 -0.2963
 3843TIP3    H211536   3.614   0.252   3.373 -0.1976  1.6451 -0.7951
 3844TIP3   OH211537   5.060   4.048   0.817 -0.3194  0.1748  0.3581
 3844TIP3    H111538   5.098   4.075   0.733 -0.3024  0.3196  0.4127
 3844TIP3    H211539   4.991   4.113   0.834 -0.4508  0.0356  0.3630
 3845TIP3   OH211540   3.645   0.677   4.911  0.1035  0.4713 -0.2956
 3845TIP3    H111541   3.635   0.720   4.826  1.6939 -0.0018 -0.7622
 3845TIP3    H211542   3.720   0.618   4.899  0.2987  0.3234  1.4126
 3846TIP3   OH211543   6.154   2.523   4.530 -0.5963 -0.1422 -0.2823
 3846TIP3    H111544   6.203   2.508   4.612 -1.6385  1.8229  0.7499
 3846TIP3    H211545   6.214   2.573   4.476 -0.8688  0.9125  0.3700
 3847TIP3   OH211546   1.108   4.859   1.611 -0.3316 -0.0894 -0.2049
 3847TIP3    H111547   1.056   4.940   1.605 -0.6599 -0.3761 -2.3956
 3847TIP3    H211548   1.117   4.831   1.520  3.1401 -0.4276  0.1113
 3848TIP3   OH211549   6.275   5.985   2.792  0.1487 -0.3871 -0.0798
 3848TIP3    H111550   6.367   5.968   2.771  0.1794 -0.5247  0.1579
 3848TIP3    H211551   6.230   5.903   2.771  0.1503 -0.4629  0.2159
 3849TIP3   OH211552   6.323   0.366   3.882 -0.2108  0.7733  0.7491
 3849TIP3    H111553   6.310   0.429   3.953 -1.1824  0.6754  0.6785
 3849TIP3    H211554   6.281   0.407   3.806  0.6504  0.7934  0.2806
 3850TIP3   OH211555   4.520   3.160   4.741  0.3196  0.1669  1.1425
 3850TIP3    H111556   4.446   3.165   4.680 -1.1928  1.6829  2.9739
 3850TIP3    H211557   4.553   3.250   4.746  0.6842 -0.0130  2.2241
 3851TIP3   OH211558   6.158   0.202   0.450  0.3812  0.4571 -0.4207
 3851TIP3    H111559   6.202   0.135   0.502 -0.2260  2.2921  2.7565
 3851TIP3    H211560   6.078   0.160   0.418 -0.3133 -0.2803  2.0373
 3852TIP3   OH211561   3.881   2.050   3.609 -0.0299  0.6925  0.0626
 3852TIP3    H111562   3.791   2.059   3.640 -0.0779 -0.5276  0.3115
 3852TIP3    H211563   3.914   1.972   3.652  0.3207 -0.3487 -1.9670
 3853TIP3   OH211564   1.596   2.880   0.195 -0.3601 -0.4444 -0.7651
 3853TIP3    H111565   1.504   2.895   0.218 -0.2792  0.3883 -0.9593
 3853TIP3    H211566   1.605   2.916   0.107  0.5912  1.2146 -0.0356
 3854TIP3   OH211567   0.018   2.980   1.767  0.1737 -0.2912  0.2210
 3854TIP3    H111568   0.001   2.995   1.860  0.8052 -2.2612  0.7013
 3854TIP3    H211569   0.023   2.884   1.759  1.7253 -0.1160 -1.5312
 3855TIP3   OH211570   3.692   3.588   3.893 -0.6440 -0.2874  0.3729
 3855TIP3    H111571   3.651   3.602   3.979 -0.8048 -1.7754  0.5540
 3855TIP3    H211572   3.755   3.518   3.907  1.2232  1.2199 -0.1704
 3856TIP3   OH211573   2.568   5.609   3.120  0.5268 -0.4776  0.8840
 3856TIP3    H111574   2.531   5.522   3.129 -2.5333  0.2911 -2.0126
 3856TIP3    H211575   2.521   5.663   3.184 -0.3993 -0.3153  0.0988
 3857TIP3   OH211576   3.172   4.382   3.155  0.2975 -0.5678  0.5354
 3857TIP3    H111577   3.111   4.314   3.127 -0.6801  0.1051  0.9693
 3857TIP3    H211578   3.232   4.337   3.214 -0.5800 -0.9871  1.1395
 3858TIP3   OH211579   0.075   5.530   3.736 -0.1892 -0.3382 -0.3123
 3858TIP3    H111580   0.080   5.625   3.725 -1.1097 -0.0271  1.6280
 3858TIP3    H211581   0.139   5.510   3.804 -0.3900 -1.0556 -0.3258
 3859TIP3   OH211582   3.848   3.757   1.473 -0.1385  0.2464  0.1574
 3859TIP3    H111583   3.832   3.837   1.423  0.4981  0.8776  0.9308
 3859TIP3    H211584   3.941   3.761   1.494 -0.4135  0.0610  1.4851
 3860TIP3   OH211585   1.257   2.040   1.706  0.0530  0.6772  0.1318
 3860TIP3    H111586   1.291   1.974   1.646  0.5481  1.1503 -0.1166
 3860TIP3    H211587   1.221   1.989   1.779  3.0744  0.1372  1.3921
 3861TIP3   OH211588   4.333   0.241   4.697 -0.6636  0.1757 -0.3094
 3861TIP3    H111589   4.399   0.243   4.628  0.7307  0.2614  0.9853
 3861TIP3    H211590   4.311   0.148   4.706  1.0498 -0.1646  0.8337
 3862TIP3   OH211591   0.381   3.453   1.696  0.3431 -0.4657 -0.6109
 3862TIP3    H111592   0.350   3.451   1.606 -1.6225  0.4749 -0.0135
 3862TIP3    H211593   0.331   3.523   1.737  1.5441 -0.5471  1.1025
 3863TIP3   OH211594   1.914   1.805   4.508 -0.7261  0.1038  0.0459
 3863TIP3    H111595   1.858   1.846   4.573 -0.0436  0.7216  0.2677
 3863TIP3    H211596   1.922   1.871   4.439 -1.4688 -0.5574 -0.6911
 3864TIP3   OH211597   0.516   0.177   4.514 -0.4557 -0.2438 -0.2188
 3864TIP3    H111598   0.494   0.171   4.607 -1.1443 -1.7294 -0.4452
 3864TIP3    H211599   0.607   0.206   4.512 -0.1894 -0.9576  0.9417
 3865TIP3   OH211600   5.669   0.484   4.659 -0.4346  0.0561  0.3784
 3865TIP3    H111601   5.724   0.407   4.672 -0.0743  0.3953  0.9320
 3865TIP3    H211602   5.580   0.453   4.675 -0.2679 -0.1909  0.8577
 3866TIP3   OH211603   3.663   0.514   3.203 -0.3290  0.3717  0.4284
 3866TIP3    H111604   3.647   0.576   3.274  1.8438  2.3280 -0.6505
 3866TIP3    H211605   3.680   0.431   3.247 -1.6999  0.8781  2.0207
 3867TIP3   OH211606   4.480   3.551   4.448 -0.4661 -0.0927  0.2480
 3867TIP3    H111607   4.399   3.585   4.409 -1.0991 -0.8664  0.8472
 3867TIP3    H211608   4.518   3.495   4.380  0.0114  0.9110 -0.3380
 3868TIP3   OH211609   2.096   5.156   2.427  0.3645 -0.1255 -0.0637
 3868TIP3    H111610   2.180   5.190   2.396  0.3581 -0.0474  0.0061
 3868TIP3    H211611   2.120   5.085   2.486  0.3671 -1.2735 -1.3813
 3869TIP3   OH211612   5.527   2.062   3.734 -0.1273  0.0782 -0.4236
 3869TIP3    H111613   5.445   2.017   3.712 -0.0234  0.4575 -1.6611
 3869TIP3    H211614   5.539   2.125   3.663  0.3870  1.1872  0.6102
 3870TIP3   OH211615   1.351   1.578   3.108  0.0998 -0.3851  0.1552
 3870TIP3    H111616   1.298   1.620   3.175 -0.5953 -0.2983 -0.4320
 3870TIP3    H211617   1.421   1.642   3.089  0.6564 -0.6621  1.2013
 3871TIP3   OH211618   2.327   0.272   5.119  0.6937 -0.2838  0.2755
 3871TIP3    H111619   2.361   0.311   5.199  1.7223  2.3077 -1.2966
 3871TIP3    H211620   2.378   0.313   5.049 -1.9384 -0.4376 -1.8762
 3872TIP3   OH211621   0.010   2.103   3.356 -0.4433 -0.0973 -0.2519
 3872TIP3    H111622  -0.005   2.127   3.447 -0.6874  2.5369 -0.9210
 3872TIP3    H211623   0.104   2.118   3.343 -0.7323  1.3104 -0.8712
 3873TIP3   OH211624   4.056   0.626   2.762 -0.0755  0.2562  0.6626
 3873TIP3    H111625   3.983   0.686   2.745  1.0640  1.2831 -0.9563
 3873TIP3    H211626   4.097   0.615   2.677  0.0471 -2.5263  1.0064
 3874TIP3   OH211627   4.596   4.172   0.129  0.4366  0.3141 -0.1574
 3874TIP3    H111628   4.508   4.153   0.097  0.2201 -0.4971  0.8569
 3874TIP3    H211629   4.619   4.255   0.087 -0.3672 -0.0050 -1.2826
 3875TIP3   OH211630   0.231   2.252   1.282  0.4332 -0.1631  0.3554
 3875TIP3    H111631   0.227   2.272   1.376 -0.8350  1.9682 -0.0987
 3875TIP3    H211632   0.299   2.310   1.248  0.0525 -0.0546 -0.2288
 3876TIP3   OH211633   4.428   1.314   1.921  0.7848 -0.1399  0.1091
 3876TIP3    H111634   4.354   1.374   1.931  1.4648  0.8430 -0.5500
 3876TIP3    H211635   4.425   1.287   1.829  0.9312 -0.5224  0.2132
 3877TIP3   OH211636   5.518   4.652   2.687 -0.0603 -0.1080 -0.0754
 3877TIP3    H111637   5.465   4.580   2.652  0.4107 -0.2090 -0.6076
 3877TIP3    H211638   5.537   4.707   2.611  1.4525 -0.6289 -0.1213
 3878TIP3   OH211639   1.108   0.424   3.068 -0.2890 -0.5368 -0.4209
 3878TIP3    H111640   1.171   0.475   3.017 -0.3172 -0.3226 -0.2408
 3878TIP3    H211641   1.025   0.469   3.055 -0.3206 -0.5581 -0.2884
 3879TIP3   OH211642   4.984   5.391   2.347 -0.5166  0.5263  0.1448
 3879TIP3    H111643   4.923   5.323   2.320 -1.5023  1.5474 -0.3093
 3879TIP3    H211644   4.945   5.472   2.315  1.6364  1.1381 -1.1278
 3880TIP3   OH211645   0.567   4.563   2.390  0.3741  0.4554 -0.1169
 3880TIP3    H111646   0.633   4.576   2.322  0.6059 -0.6298 -0.1122
 3880TIP3    H211647   0.526   4.649   2.400  0.0595  0.5489 -1.8954
 3881TIP3   OH211648   4.709   3.395   0.695  0.8072 -0.4572 -0.3027
 3881TIP3    H111649   4.688   3.351   0.777 -1.2367  0.1074 -0.4569
 3881TIP3    H211650   4.681   3.334   0.627  0.9783 -0.2675 -0.5461
 3882TIP3   OH211651   4.660   0.173   1.291 -0.3478 -0.1736  0.6375
 3882TIP3    H111652   4.606   0.180   1.369 -1.8624  0.4059 -0.4109
 3882TIP3    H211653   4.606   0.123   1.229 -0.2895  1.6073 -0.9344
 3883TIP3   OH211654   3.746   0.571   0.984 -0.0387  0.6997  0.0580
 3883TIP3    H111655   3.668   0.592   1.035  1.0952  0.9805  1.8102
 3883TIP3    H211656   3.808   0.538   1.050  1.0488 -0.2603 -1.3889
 3884TIP3   OH211657   0.714   1.018   1.169 -0.4685 -0.4186 -0.3781
 3884TIP3    H111658   0.668   1.094   1.132  1.0182  0.7683  0.1266
 3884TIP3    H211659   0.687   1.016   1.261 -0.8067 -0.7472 -0.4820
 3885TIP3   OH211660   3.023   3.897   1.735 -0.8742 -0.4044 -0.4549
 3885TIP3    H111661   3.041   3.846   1.815 -1.8082 -1.0462 -0.6271
 3885TIP3    H211662   2.993   3.831   1.672 -1.7984  0.3170 -0.7894
 3886TIP3   OH211663   0.729   2.269   3.432 -0.0871 -0.0114 -0.2404
 3886TIP3    H111664   0.793   2.334   3.461 -1.4422  0.9347  0.7775
 3886TIP3    H211665   0.691   2.308   3.353  1.7663 -1.3919 -1.9243
 3887TIP3   OH211666   0.950   4.980   4.520  0.1056  0.2068 -0.0947
 3887TIP3    H111667   0.959   5.019   4.433 -0.2565 -0.5524 -0.4765
 3887TIP3    H211668   0.945   4.886   4.504  2.6015 -0.1929  0.9244
 3888TIP3   OH211669   4.149   3.676   1.852  0.3647  0.0416  0.1176
 3888TIP3    H111670   4.105   3.616   1.912  0.0466 -0.2883 -0.4392
 3888TIP3    H211671   4.240   3.644   1.850  0.7600  0.9586  1.5662
 3889TIP3   OH211672   0.986   1.531   3.153  0.3192  0.2014  0.3087
 3889TIP3    H111673   1.019   1.493   3.071  1.7489 -0.1746  1.0321
 3889TIP3    H211674   0.944   1.457   3.198 -0.7822  0.4841 -0.2084
 3890TIP3   OH211675   0.886   2.860   3.148 -0.6153 -0.7943 -0.4060
 3890TIP3    H111676   0.792   2.850   3.165 -0.8225  1.1176 -0.2028
 3890TIP3    H211677   0.895   2.949   3.114  1.2988 -0.4540  0.8477
 3891TIP3   OH211678   3.943   2.854   1.494 -0.4979  0.2772  0.0430
 3891TIP3    H111679   3.954   2.771   1.540 -0.4436  1.1057  1.5880
 3891TIP3    H211680   3.890   2.908   1.553 -2.7169  0.5048 -2.0070
 3892TIP3   OH211681   4.716   5.726   4.438  0.0024 -0.3941 -0.3151
 3892TIP3    H111682   4.656   5.700   4.369 -0.2559 -1.7299  0.3829
 3892TIP3    H211683   4.755   5.644   4.470  1.5070  0.3482 -0.1119
 3893TIP3   OH211684   4.932   3.007   3.193  0.1950  0.6460  0.0688
 3893TIP3    H111685   5.000   3.047   3.139  2.4319 -1.9455  0.6978
 3893TIP3    H211686   4.961   3.022   3.283  1.0534 -1.9527  0.3348
 3894TIP3   OH211687   2.692   0.284   4.126 -0.2491 -0.1871  0.0462
 3894TIP3    H111688   2.720   0.371   4.157 -0.3982  0.5019 -1.6490
 3894TIP3    H211689   2.721   0.224   4.195  0.6434  1.1055  0.8503
 3895TIP3   OH211690   5.536   1.149   1.471  0.7241 -0.3019 -0.0551
 3895TIP3    H111691   5.591   1.215   1.513 -0.1335 -0.1993  0.9489
 3895TIP3    H211692   5.476   1.120   1.540  0.5398 -1.5325 -0.7032
 3896TIP3   OH211693   0.505   2.426   2.678  0.2545 -0.4361 -0.2555
 3896TIP3    H111694   0.411   2.413   2.679 -0.0040  0.6588 -2.8052
 3896TIP3    H211695   0.516   2.519   2.657  1.9404 -0.1996  1.3491
 3897TIP3   OH211696   3.108   3.729   0.664  0.0749  0.1126 -0.3757
 3897TIP3    H111697   3.096   3.646   0.617 -1.6473  0.7029 -1.0584
 3897TIP3    H211698   3.140   3.789   0.597  1.1761  0.0493  0.0839
 3898TIP3   OH211699   1.074   0.709   4.532 -0.4346  0.9315  0.7022
 3898TIP3    H111700   1.114   0.720   4.446 -1.9015  2.4215  0.1611
 3898TIP3    H211701   1.145   0.676   4.587  0.7582  0.7561 -0.8560
 3899TIP3   OH211702   4.406   3.437   1.474  0.0585  0.5047 -0.4665
 3899TIP3    H111703   4.397   3.343   1.492 -0.9097  0.5794 -0.5079
 3899TIP3    H211704   4.498   3.456   1.493 -0.0508 -0.1744  0.8801
 3900TIP3   OH211705   0.977   3.565   3.870 -0.1244  0.1740  0.1254
 3900TIP3    H111706   0.932   3.638   3.914 -0.2754 -0.5223  1.1860
 3900TIP3    H211707   0.908   3.520   3.822 -1.0444 -1.8065  2.9767
 3901TIP3   OH211708   5.664   2.485   2.490  0.0211  0.1428  0.5400
 3901TIP3    H111709   5.714   2.431   2.551  0.3165 -2.0534 -1.5207
 3901TIP3    H211710   5.629   2.424   2.426 -2.0700  2.0946 -0.3366
 3902TIP3   OH211711   2.654   4.304   1.032 -0.0156 -0.0111 -0.3135
 3902TIP3    H111712   2.739   4.279   1.067 -0.4238 -0.1692  0.5880
 3902TIP3    H211713   2.647   4.398   1.049  0.8446  0.4482 -2.2706
 3903TIP3   OH211714   5.066   2.148   1.816  0.3068 -0.3150  0.4477
 3903TIP3    H111715   5.090   2.194   1.736 -0.7486 -0.3335  0.1056
 3903TIP3    H211716   4.979   2.113   1.799  0.3089 -0.8341  1.3903
 3904TIP3   OH211717   3.883   2.667   1.086  0.6747  0.2316 -0.6276
 3904TIP3    H111718   3.939   2.740   1.110  0.2317  0.3186  0.1672
 3904TIP3    H211719   3.910   2.595   1.144 -0.0090  0.2667 -0.2588
 3905TIP3   OH211720   0.867   0.920   5.142 -0.1388  0.2393  0.2613
 3905TIP3    H111721   0.846   1.014   5.147  0.4269  0.3381  0.8841
 3905TIP3    H211722   0.801   0.878   5.197  0.7018  0.4577  1.4574
 3906TIP3   OH211723   3.814   1.298   0.238  0.1152  0.9907 -0.0506
 3906TIP3    H111724   3.861   1.223   0.274 -4.1442 -2.0244 -0.0318
 3906TIP3    H211725   3.811   1.281   0.144 -1.0144  1.0343 -0.0280
 3907TIP3   OH211726   4.787   1.648   0.502  0.0508 -0.8967 -0.1104
 3907TIP3    H111727   4.754   1.568   0.543  2.7748 -2.3355 -0.4717
 3907TIP3    H211728   4.783   1.629   0.408 -0.7681  0.0717 -0.2876
 3908TIP3   OH211729   3.139   2.214   3.167 -0.2325 -0.5238 -0.9715
 3908TIP3    H111730   3.185   2.244   3.245  1.2073 -0.6298 -1.7397
 3908TIP3    H211731   3.184   2.134   3.142 -0.7371 -0.5433 -1.8623
 3909TIP3   OH211732   2.673   5.994   4.714 -0.5139 -0.1817 -0.3165
 3909TIP3    H111733   2.683   5.933   4.641 -1.3257  0.8064 -1.2720
 3909TIP3    H211734   2.762   6.029   4.728 -0.2988 -0.5959 -0.6210
 3910TIP3   OH211735   3.891   4.530   3.574  0.6008 -0.0722  0.2863
 3910TIP3    H111736   3.883   4.579   3.492  0.9506 -0.1431  0.2089
 3910TIP3    H211737   3.842   4.449   3.558  2.3753 -1.0238 -0.5910
 3911TIP3   OH211738   2.364   4.326   0.166 -0.5674  0.2233  0.3897
 3911TIP3    H111739   2.369   4.256   0.231 -2.8810  0.5391  0.9919
 3911TIP3    H211740   2.286   4.375   0.190 -1.0887  0.7915 -2.2163
 3912TIP3   OH211741   5.492   5.365   3.360  0.0629 -0.2191  0.5814
 3912TIP3    H111742   5.530   5.289   3.404 -0.0137 -0.6834 -0.1454
 3912TIP3    H211743   5.529   5.440   3.407  0.0247 -0.6980  1.3980
 3913TIP3   OH211744   5.554   4.238   5.032  0.2465  0.1278  0.1142
 3913TIP3    H111745   5.570   4.332   5.025 -2.5196  0.6841  0.0563
 3913TIP3    H211746   5.488   4.220   4.965 -1.0331 -1.3400  1.6737
 3914TIP3   OH211747   4.095   3.981   1.227  0.1851 -0.2520  0.1427
 3914TIP3    H111748   4.172   4.014   1.274  0.4770  1.0053 -1.1580
 3914TIP3    H211749   4.131   3.937   1.150 -0.3642  1.0763 -0.9304
 3915TIP3   OH211750   4.520   3.561   3.912 -0.4305 -0.4447  0.2505
 3915TIP3    H111751   4.430   3.533   3.891 -0.7608 -0.4566  1.5731
 3915TIP3    H211752   4.508   3.626   3.982  0.6065 -0.5183  0.4989
 3916TIP3   OH211753   4.839   3.172   0.260  0.3072 -0.5034 -0.3033
 3916TIP3    H111754   4.757   3.197   0.303 -0.3016  0.6510 -2.0282
 3916TIP3    H211755   4.813   3.104   0.197  1.0145 -1.4475  0.3892
 3917TIP3   OH211756   4.047   2.968   4.023  0.1415 -0.2088 -0.4043
 3917TIP3    H111757   4.054   3.011   4.108  0.3292 -0.3984 -0.3191
 3917TIP3    H211758   4.097   3.024   3.963 -0.5374  0.2647 -0.5277
 3918TIP3   OH211759   0.059   3.216   3.598  0.3234 -1.1918 -0.2825
 3918TIP3    H111760  -0.021   3.185   3.641  1.3512 -0.2735  2.4688
 3918TIP3    H211761   0.119   3.142   3.605  0.3690 -1.1756 -0.5049
 3919TIP3   OH211762   5.321   2.159   1.061  0.3925  0.3835 -0.0264
 3919TIP3    H111763   5.377   2.128   0.990  0.5555 -0.7565  0.5743
 3919TIP3    H211764   5.375   2.148   1.140  0.0184  1.1222  0.3459
 3920TIP3   OH211765   6.081   3.069   3.950  0.4675 -0.1278  0.0877
 3920TIP3    H111766   6.050   2.979   3.957  0.0464  0.0615  0.8175
 3920TIP3    H211767   6.036   3.115   4.021 -0.6177  1.0316 -1.2748
 3921TIP3   OH211768   3.572   4.516   1.521 -0.2016  0.1524 -0.3773
 3921TIP3    H111769   3.490   4.467   1.515 -0.4901  0.5271  0.3966
 3921TIP3    H211770   3.547   4.602   1.554  0.4293  0.4928 -0.7429
 3922TIP3   OH211771   1.234   0.333   1.838  0.8098  0.5542 -0.4506
 3922TIP3    H111772   1.297   0.404   1.849  1.3952  0.1998 -1.3802
 3922TIP3    H211773   1.253   0.297   1.752  0.5354 -0.7424 -0.0008
 3923TIP3   OH211774   6.062   2.283   0.751 -0.1068 -0.2397  0.0453
 3923TIP3    H111775   6.138   2.226   0.747  0.7426  0.8841 -0.4014
 3923TIP3    H211776   5.994   2.230   0.793  0.4759 -1.7466 -0.8314
 3924TIP3   OH211777   3.288   2.009   2.677 -0.4074 -0.7412  0.6296
 3924TIP3    H111778   3.197   1.986   2.694 -0.2816 -0.7792  1.2561
 3924TIP3    H211779   3.287   2.104   2.665 -0.1777 -0.3546  3.1328
 3925TIP3   OH211780   1.568   3.434   1.893  0.6370  0.4528 -0.4205
 3925TIP3    H111781   1.595   3.441   1.801  1.4503  1.5017 -0.1243
 3925TIP3    H211782   1.643   3.467   1.942  0.4609 -0.6963  0.6668
 3926TIP3   OH211783   4.032   3.840   4.253  0.3066  0.1109 -0.0595
 3926TIP3    H111784   4.009   3.879   4.338  1.3046 -1.1359  0.8194
 3926TIP3    H211785   4.028   3.913   4.191  0.7591  1.3221  1.2837
 3927TIP3   OH211786   2.316   0.232   4.216 -0.5481  0.3450  0.0632
 3927TIP3    H111787   2.253   0.268   4.279  0.4019  0.3402  1.0523
 3927TIP3    H211788   2.387   0.198   4.271  0.0605 -0.1375 -1.0025
 3928TIP3   OH211789   5.496   1.250   4.654  0.2251  0.4985 -0.3680
 3928TIP3    H111790   5.471   1.159   4.640  0.6117  0.0588  1.5356
 3928TIP3    H211791   5.424   1.301   4.617  0.0016 -0.5536 -1.4404
 3929TIP3   OH211792   0.815   3.470   3.678 -0.0079  0.0890  0.2516
 3929TIP3    H111793   0.791   3.378   3.693 -0.5658  0.1137 -0.4545
 3929TIP3    H211794   0.868   3.467   3.598  1.6428  0.1477  1.2981
 3930TIP3   OH211795   0.656   0.306   5.136  0.0415 -0.8655  0.6215
 3930TIP3    H111796   0.643   0.401   5.147 -0.7767 -1.1551  2.4989
 3930TIP3    H211797   0.570   0.268   5.154 -0.6991 -1.8434 -3.7378
 3931TIP3   OH211798   5.649   3.480   4.893  0.3840  0.1329  0.7505
 3931TIP3    H111799   5.561   3.516   4.881 -0.1410 -0.7110  1.8528
 3931TIP3    H211800   5.700   3.552   4.930  0.5419  1.0399 -1.1739
 3932TIP3   OH211801   3.941   5.330   0.292 -0.6923 -0.0599 -0.6493
 3932TIP3    H111802   3.853   5.360   0.267 -1.5732 -1.5285  0.5136
 3932TIP3    H211803   3.928   5.239   0.317  1.2531 -0.3972 -0.7629
 3933TIP3   OH211804   0.738   4.476   3.925  0.2823  0.1447  0.2761
 3933TIP3    H111805   0.668   4.450   3.865 -0.0433 -0.3002  0.8309
 3933TIP3    H211806   0.818   4.449   3.881  0.1316  0.8477 -0.4610
 3934TIP3   OH211807   0.600   0.292   2.223 -0.3612 -0.4996  0.1874
 3934TIP3    H111808   0.695   0.304   2.215 -0.3879  0.0943  0.6545
 3934TIP3    H211809   0.580   0.217   2.168  0.4123 -0.7560  0.2496
 3935TIP3   OH211810   0.632   5.430   0.621 -0.1003  0.2601  0.0615
 3935TIP3    H111811   0.609   5.480   0.699 -1.0607  0.8498 -0.5815
 3935TIP3    H211812   0.640   5.340   0.653 -0.9941  0.4107  0.7544
 3936TIP3   OH211813   3.595   1.230   4.314 -0.2012  0.4304 -0.1192
 3936TIP3    H111814   3.553   1.174   4.248 -0.6731  0.9066 -0.2347
 3936TIP3    H211815   3.523   1.257   4.371  0.3943 -1.0533  1.4189
 3937TIP3   OH211816   3.071   0.845   0.023 -0.6811  0.0616 -0.3128
 3937TIP3    H111817   3.135   0.832  -0.047 -0.7480  0.4220 -0.4414
 3937TIP3    H211818   3.041   0.757   0.045 -0.0952 -0.1139 -0.2125
 3938TIP3   OH211819   5.974   3.810   4.173  0.3963 -0.5006 -0.5572
 3938TIP3    H111820   5.971   3.768   4.259  0.6298 -0.8104 -0.6967
 3938TIP3    H211821   6.066   3.835   4.163 -0.0909  1.8689  0.3841
 3939TIP3   OH211822   3.057   5.559   2.947 -0.1315 -0.1984  0.0122
 3939TIP3    H111823   3.069   5.528   3.037 -0.5535 -0.5274 -0.0404
 3939TIP3    H211824   2.962   5.562   2.936 -0.1379  1.9166  0.2768
 3940TIP3   OH211825   2.054   5.505   2.668 -0.1932  0.6430  0.0976
 3940TIP3    H111826   1.991   5.473   2.733 -0.8590  0.5013 -0.6136
 3940TIP3    H211827   2.130   5.447   2.679 -0.9012 -0.3939 -0.3012
 3941TIP3   OH211828   5.142   5.340   2.968 -0.2626 -0.4092 -0.2787
 3941TIP3    H111829   5.214   5.321   3.028 -0.1941  0.3004 -0.1349
 3941TIP3    H211830   5.074   5.379   3.023 -1.0172 -1.6310 -0.2954
 3942TIP3   OH211831   4.163   5.083   2.425  0.0750 -0.2388 -0.2148
 3942TIP3    H111832   4.159   5.044   2.512  1.0566  0.1742  0.0311
 3942TIP3    H211833   4.231   5.033   2.379  0.1457  0.0707 -0.4554
 3943TIP3   OH211834   2.294   1.069   0.162  0.2516  0.0951 -0.2417
 3943TIP3    H111835   2.266   1.009   0.231 -0.2110 -0.1954 -0.6705
 3943TIP3    H211836   2.389   1.075   0.173  0.3553 -0.9663 -0.3722
 3944TIP3   OH211837   6.126   3.486   4.168  0.6354 -0.8177 -0.3604
 3944TIP3    H111838   6.215   3.458   4.187  1.7125  2.5109  0.2746
 3944TIP3    H211839   6.096   3.528   4.249 -0.6911 -0.0900 -1.1827
 3945TIP3   OH211840   5.229   3.577   1.745  0.5441 -0.1790  0.0228
 3945TIP3    H111841   5.238   3.670   1.724 -1.1851  0.1244  0.4786
 3945TIP3    H211842   5.304   3.535   1.703  0.5389  1.2215 -1.4582
 3946TIP3   OH211843   3.872   5.104   2.058  0.5337 -0.3494 -0.1659
 3946TIP3    H111844   3.865   5.113   2.153 -0.8360 -1.4648 -0.1253
 3946TIP3    H211845   3.928   5.177   2.031  0.7883  0.1053  1.4610
 3947TIP3   OH211846   3.932   0.614   1.771  0.7796  0.5210 -0.0290
 3947TIP3    H111847   4.010   0.560   1.760  0.2963 -0.2608  0.2569
 3947TIP3    H211848   3.902   0.630   1.681  2.0691  2.0691 -0.2175
 3948TIP3   OH211849   4.118   5.322   5.134 -0.3252  0.0646  0.0712
 3948TIP3    H111850   4.126   5.395   5.196  2.5846 -1.2016  1.3511
 3948TIP3    H211851   4.113   5.363   5.048  3.1374  1.8543  0.5880
 3949TIP3   OH211852   2.684   0.757   1.175  0.0609 -0.0866 -0.2188
 3949TIP3    H111853   2.767   0.782   1.216 -0.9918  1.3255  1.1428
 3949TIP3    H211854   2.640   0.701   1.239 -0.1961 -0.5787 -0.8084
 3950TIP3   OH211855   1.355   0.893   1.262 -0.2633  0.4021 -0.0421
 3950TIP3    H111856   1.342   0.916   1.354  1.0347  0.0408  0.2534
 3950TIP3    H211857   1.388   0.974   1.222 -1.0416  0.6246 -0.2560
 3951TIP3   OH211858   3.933   1.607   1.732  0.5082 -0.3018 -0.1726
 3951TIP3    H111859   3.972   1.573   1.812  0.3387 -0.1031 -0.0017
 3951TIP3    H211860   3.859   1.660   1.763  0.6942  0.1191 -0.4346
 3952TIP3   OH211861   3.140   3.481   0.520 -0.1920 -0.2461  0.4038
 3952TIP3    H111862   3.233   3.499   0.530  0.1684 -0.8505 -1.4846
 3952TIP3    H211863   3.135   3.419   0.447 -2.1883  1.2302 -0.8196
 3953TIP3   OH211864   0.691   1.799   2.348  0.3392  0.3940 -0.1401
 3953TIP3    H111865   0.639   1.719   2.360 -1.3697  1.4376 -0.1413
 3953TIP3    H211866   0.774   1.769   2.312 -0.7869 -1.2610 -1.5199
 3954TIP3   OH211867   1.490   4.233   1.901 -0.1042 -0.6272  0.2095
 3954TIP3    H111868   1.416   4.270   1.852  0.7398  0.7045 -0.1081
 3954TIP3    H211869   1.550   4.201   1.834 -0.0649 -1.0486  0.4446
 3955TIP3   OH211870   4.062   2.527   4.771  0.1216  0.6459  0.3646
 3955TIP3    H111871   4.002   2.586   4.726 -1.3919 -1.7835 -1.0394
 3955TIP3    H211872   4.032   2.526   4.862 -0.8005  0.8983  0.0688
 3956TIP3   OH211873   1.084   4.130   0.656 -0.1040 -0.0416 -0.1839
 3956TIP3    H111874   1.089   4.173   0.570  2.1990 -0.3687 -0.2804
 3956TIP3    H211875   1.073   4.202   0.718  1.6545  0.5725 -0.5136
 3957TIP3   OH211876   0.983   2.548   5.018 -0.6253 -0.2128 -0.1136
 3957TIP3    H111877   0.891   2.571   5.001 -0.6987  0.2296  0.8311
 3957TIP3    H211878   0.978   2.488   5.092 -0.3658 -2.6067 -1.8905
 3958TIP3   OH211879   1.580   5.071   2.064 -0.0363  0.0597  0.0528
 3958TIP3    H111880   1.535   5.034   2.140 -0.0414 -0.8683 -0.3940
 3958TIP3    H211881   1.620   4.996   2.020 -0.6908  0.4620 -1.3042
 3959TIP3   OH211882   2.109   2.501   3.541  0.0764 -0.7809 -0.6249
 3959TIP3    H111883   2.125   2.590   3.508  1.2605 -0.6932  0.1066
 3959TIP3    H211884   2.185   2.483   3.597 -0.0834 -2.3105 -0.8664
 3960TIP3   OH211885   5.079   5.788   2.769  0.0843  0.2462 -0.1210
 3960TIP3    H111886   5.053   5.867   2.722  2.3143  0.6910 -0.7324
 3960TIP3    H211887   5.067   5.717   2.707 -1.9187  0.0399  0.4261
 3961TIP3   OH211888   4.729   1.471   2.611  0.0348  0.5498  0.3323
 3961TIP3    H111889   4.764   1.549   2.655  0.6306  0.8813 -0.7115
 3961TIP3    H211890   4.740   1.489   2.518  2.2809 -1.7305  0.0572
 3962TIP3   OH211891   1.199   0.761   4.284 -0.2366 -0.2728 -0.7508
 3962TIP3    H111892   1.151   0.806   4.216 -2.2578 -1.5012 -0.2332
 3962TIP3    H211893   1.274   0.721   4.239 -0.8270 -0.0042 -1.9970
 3963TIP3   OH211894   0.157   0.683   0.044 -0.3310 -0.4384  0.5988
 3963TIP3    H111895   0.161   0.623   0.118 -0.6612  0.1800  1.1233
 3963TIP3    H211896   0.210   0.759   0.071  0.6025 -0.7349 -0.2993
 3964TIP3   OH211897   3.391   3.199   3.190  0.6265 -0.4998 -1.0233
 3964TIP3    H111898   3.409   3.135   3.258 -2.4059 -3.0476 -2.3674
 3964TIP3    H211899   3.334   3.264   3.232  0.1673 -1.1127 -0.6883
 3965TIP3   OH211900   4.071   3.348   4.406  0.3427  0.6329 -0.1961
 3965TIP3    H111901   4.029   3.264   4.387  1.5770  0.0797 -0.5808
 3965TIP3    H211902   4.047   3.404   4.332  1.5415 -0.1620 -1.2119
 3966TIP3   OH211903   0.645   5.427   1.265 -0.5765  0.1322  0.2061
 3966TIP3    H111904   0.556   5.396   1.245 -1.2695  1.3966  1.1537
 3966TIP3    H211905   0.635   5.522   1.275  0.6232  0.1357  1.6634
 3967TIP3   OH211906   4.496   1.552   4.113  0.6163 -0.0408  0.0975
 3967TIP3    H111907   4.496   1.643   4.142 -1.6951  0.0591 -0.0207
 3967TIP3    H211908   4.483   1.501   4.193  1.0989 -0.2332  0.0590
 3968TIP3   OH211909   4.735   4.852   3.465  0.2646 -0.0443  0.7731
 3968TIP3    H111910   4.802   4.833   3.530  0.2542  1.4565  1.2699
 3968TIP3    H211911   4.653   4.830   3.508  0.3341 -0.1823  0.8338
 3969TIP3   OH211912   2.143   0.582   0.457  0.1644 -0.6173  0.0335
 3969TIP3    H111913   2.053   0.553   0.467  0.6830 -2.5284 -0.4209
 3969TIP3    H211914   2.179   0.580   0.546 -0.8373  2.5553  0.6332
 3970TIP3   OH211915   4.022   4.852   4.316 -0.2378 -0.1942 -0.1240
 3970TIP3    H111916   4.110   4.879   4.289 -0.9275  0.2946 -2.0131
 3970TIP3    H211917   4.007   4.769   4.272 -0.3076 -0.8628  1.1156
 3971TIP3   OH211918   2.304   2.760   4.419 -0.1792  0.2730  0.8220
 3971TIP3    H111919   2.361   2.774   4.344 -1.0373 -0.8752 -0.0748
 3971TIP3    H211920   2.300   2.665   4.429 -0.1995  0.4001  2.2382
 3972TIP3   OH211921   3.344   5.464   2.989 -0.3416 -0.0790 -0.0714
 3972TIP3    H111922   3.385   5.543   3.024 -1.4571  0.1775  0.7165
 3972TIP3    H211923   3.330   5.483   2.896  1.0086 -0.0696 -0.3023
 3973TIP3   OH211924   2.862   0.196   5.119 -0.2370 -0.3257 -0.1138
 3973TIP3    H111925   2.895   0.210   5.030  1.6659 -1.7699  0.3074
 3973TIP3    H211926   2.800   0.268   5.133  2.5565  2.5067 -1.0947
 3974TIP3   OH211927   5.362   3.960   1.304 -0.3229 -0.7915  0.4988
 3974TIP3    H111928   5.455   3.979   1.292 -1.1009  1.8897 -3.1532
 3974TIP3    H211929   5.350   3.872   1.269  0.5615 -0.2351 -1.3184
 3975TIP3   OH211930   4.959   1.518   0.760  0.0529  0.7804  0.0856
 3975TIP3    H111931   5.037   1.554   0.717  0.0328 -0.3606 -0.9302
 3975TIP3    H211932   4.984   1.513   0.852  0.8552  1.2750 -0.0883
 3976TIP3   OH211933   5.601   2.097   1.978 -0.1884 -0.1750 -0.0427
 3976TIP3    H111934   5.582   2.004   1.975 -1.1580  0.0104 -0.0565
 3976TIP3    H211935   5.525   2.139   1.938  1.0841  0.5275 -1.9254
 3977TIP3   OH211936   6.032   0.296   5.174  0.3193  0.0973  0.1629
 3977TIP3    H111937   6.024   0.240   5.097 -0.4198  0.2466  0.1257
 3977TIP3    H211938   6.027   0.386   5.140  0.8613  0.1829  0.2927
 3978TIP3   OH211939   5.193   4.763   4.142  0.3086  0.4753 -0.0474
 3978TIP3    H111940   5.271   4.781   4.195  1.4280 -0.3892 -1.3413
 3978TIP3    H211941   5.208   4.675   4.107 -0.4808  0.9400 -1.6374
 3979TIP3   OH211942   6.116   4.700   1.043 -0.2805 -0.3002 -0.1622
 3979TIP3    H111943   6.087   4.618   1.083  0.5011 -0.2602  0.5071
 3979TIP3    H211944   6.165   4.673   0.965  0.0923 -0.4788  0.1316
 3980TIP3   OH211945   5.680   4.669   1.862 -0.4645 -0.4921 -0.2009
 3980TIP3    H111946   5.730   4.590   1.880  6.0729  2.5400 -2.2604
 3980TIP3    H211947   5.688   4.721   1.942 -1.6410 -0.4096 -0.1157
 3981TIP3   OH211948   2.617   4.420   3.826  0.0172  0.0630  0.0697
 3981TIP3    H111949   2.633   4.372   3.907 -0.4921 -0.9074 -0.3893
 3981TIP3    H211950   2.636   4.511   3.848  1.4230 -0.3898  0.8402
 3982TIP3   OH211951   2.936   3.437   3.791  0.2163 -0.1772  0.5120
 3982TIP3    H111952   2.973   3.384   3.861  1.5932  1.1342  0.8413
 3982TIP3    H211953   3.010   3.488   3.758 -0.8553  0.8806 -0.3696
 3983TIP3   OH211954   4.557   0.493   3.778  0.4632 -0.3553  0.5608
 3983TIP3    H111955   4.476   0.448   3.757  0.1774  0.7256 -0.7823
 3983TIP3    H211956   4.549   0.515   3.871 -0.8327 -0.1603  0.4119
 3984TIP3   OH211957   5.302   5.631   0.077  0.3326 -0.6006  0.2250
 3984TIP3    H111958   5.348   5.552   0.049  0.5801 -0.5891  0.5961
 3984TIP3    H211959   5.350   5.661   0.154 -0.3086 -0.6022  0.6333
 3985TIP3   OH211960   1.358   4.094   0.709  0.1376 -0.2683  0.0401
 3985TIP3    H111961   1.369   4.101   0.804  0.9151  0.3853 -0.0852
 3985TIP3    H211962   1.269   4.126   0.692 -0.8478 -2.4841  0.7564
 3986TIP3   OH211963   1.905   1.854   3.444  0.3481 -0.6595 -0.3676
 3986TIP3    H111964   1.848   1.805   3.385  0.8755  0.0039 -1.4684
 3986TIP3    H211965   1.927   1.934   3.396  0.4109  0.1368  0.9367
 3987TIP3   OH211966   5.592   0.119   4.940  0.6583 -0.8259 -0.2673
 3987TIP3    H111967   5.597   0.180   5.013 -0.6676  0.1504 -0.9732
 3987TIP3    H211968   5.640   0.161   4.869 -2.1322  0.5491 -1.4895
 3988TIP3   OH211969   4.374   4.731   3.441  0.2035  0.4808 -0.0810
 3988TIP3    H111970   4.365   4.817   3.400  1.1893  0.8965  0.5373
 3988TIP3    H211971   4.381   4.749   3.535  2.9471 -0.0035 -0.0896
 3989TIP3   OH211972   2.224   5.197   2.954 -0.8037 -0.1566 -0.2404
 3989TIP3    H111973   2.207   5.105   2.934  0.4075 -0.4781  0.0695
 3989TIP3    H211974   2.260   5.195   3.043  0.0028  0.5219 -0.5435
 3990TIP3   OH211975   4.781   5.631   1.767 -0.2452  0.1159  0.1950
 3990TIP3    H111976   4.810   5.640   1.676  1.1796 -1.3725  0.4551
 3990TIP3    H211977   4.748   5.541   1.773  0.4752 -0.0995  1.3215
 3991TIP3   OH211978   1.684   4.346   3.742  0.3448 -0.3524 -0.1168
 3991TIP3    H111979   1.683   4.427   3.692  1.3431  0.1641  0.6601
 3991TIP3    H211980   1.597   4.308   3.729 -0.0091  0.6519 -0.7791
 3992TIP3   OH211981   3.092   2.408   0.295  0.0447  0.3507 -0.8702
 3992TIP3    H111982   3.174   2.360   0.291  0.8392  1.1252  2.6383
 3992TIP3    H211983   3.110   2.491   0.250  1.9267  1.2594  1.2937
 3993TIP3   OH211984   1.133   0.045   3.589  0.3081  0.0388  0.4811
 3993TIP3    H111985   1.168   0.017   3.673  2.5791  0.9869 -0.0547
 3993TIP3    H211986   1.046   0.080   3.609 -0.1410 -1.8022  2.0309
 3994TIP3   OH211987   0.279   1.504   0.035 -0.2876 -0.1995 -0.3527
 3994TIP3    H111988   0.355   1.544  -0.008 -1.6971 -0.8815 -3.8412
 3994TIP3    H211989   0.317   1.448   0.103  2.1561  1.0818 -0.5316
 3995TIP3   OH211990   4.437   1.335   4.278 -0.4934  0.2394 -0.2677
 3995TIP3    H111991   4.378   1.356   4.351  0.5260  0.1749  0.6029
 3995TIP3    H211992   4.465   1.245   4.296 -0.1962  0.2427 -0.7119
 3996TIP3   OH211993   3.857   2.326   0.934 -0.8653  0.2830 -0.3378
 3996TIP3    H111994   3.849   2.255   0.871  0.0724 -0.3424  0.2115
 3996TIP3    H211995   3.828   2.405   0.887  0.7974  0.0209 -1.8938
 3997TIP3   OH211996   5.327   1.814   5.179  0.3012 -0.0673  0.0600
 3997TIP3    H111997   5.287   1.901   5.184  1.9204  0.9418 -2.4475
 3997TIP3    H211998   5.421   1.831   5.182  0.6692 -2.0125  1.9252
 3998TIP3   OH211999   0.632   3.106   2.371  0.5223 -0.8180  0.2767
 3998TIP3    H112000   0.643   3.051   2.293  0.9439  0.6571 -0.7344
 3998TIP3    H212001   0.538   3.116   2.380  0.4562 -1.3584  0.2268
 3999TIP3   OH212002   5.494   4.754   0.082  0.5486  0.3400  0.1974
 3999TIP3    H112003   5.564   4.760   0.017 -0.4144 -0.0924 -0.9033
 3999TIP3    H212004   5.517   4.820   0.148  1.5954  0.7081 -0.5139
 4000TIP3   OH212005   0.447   2.092   3.556  0.5203  0.1941  0.2359
 4000TIP3    H112006   0.441   2.030   3.629  1.2464  0.0727  0.1969
 4000TIP3    H212007   0.480   2.173   3.596  0.5778  0.2378  0.0986
 4001TIP3   OH212008   4.745   3.720   2.196 -0.1174  0.0708 -0.1471
 4001TIP3    H112009   4.710   3.644   2.150 -1.6207 -0.7377  2.1262
 4001TIP3    H212010   4.675   3.785   2.190  0.6766  0.8686 -1.0454
 4002TIP3   OH212011   3.432   2.320   4.250  0.1634 -0.1061  0.2519
 4002TIP3    H112012   3.432   2.264   4.172  0.9685  0.1194  0.0816
 4002TIP3    H212013   3.453   2.407   4.218  2.3858 -0.3315  0.9048
 4003TIP3   OH212014   4.950   3.712   2.370 -0.5930  0.6082 -0.1478
 4003TIP3    H112015   4.909   3.664   2.442 -1.4081  1.1189 -0.2662
 4003TIP3    H212016   4.891   3.700   2.296  0.1240  0.2825 -0.6839
 4004TIP3   OH212017   5.955   0.885   4.201 -0.5649  0.5086 -0.0026
 4004TIP3    H112018   5.944   0.888   4.106 -0.9275  0.9909  0.0514
 4004TIP3    H212019   5.935   0.973   4.231  0.4983  0.6296  0.4264
 4005TIP3   OH212020   0.658   3.731   4.308  0.4565  0.3009  0.6699
 4005TIP3    H112021   0.571   3.766   4.289  1.1853  1.8020 -0.0364
 4005TIP3    H212022   0.695   3.710   4.223  0.9222  0.0146  0.9398
 4006TIP3   OH212023   0.058   0.253   3.629  0.1320 -0.3121 -0.4048
 4006TIP3    H112024   0.072   0.344   3.602 -0.5900 -0.3104 -0.7834
 4006TIP3    H212025   0.066   0.254   3.725  0.1199  0.1494 -0.4101
 4007TIP3   OH212026   3.334   3.972   2.884 -0.0884 -0.6730  0.1328
 4007TIP3    H112027   3.259   4.030   2.867  0.2208 -0.9331 -2.4705
 4007TIP3    H212028   3.396   4.027   2.933 -0.7320  0.4723 -0.2988
 4008TIP3   OH212029   4.904   5.646   1.506 -0.6301 -0.5676 -0.4729
 4008TIP3    H112030   4.961   5.584   1.551  0.1670 -0.0525 -0.7473
 4008TIP3    H212031   4.868   5.596   1.432 -0.6075 -0.9187 -0.2504
 4009TIP3   OH212032   4.631   2.166   1.429 -0.1515 -0.5134 -0.4242
 4009TIP3    H112033   4.603   2.162   1.520 -0.2642 -0.7261 -0.4650
 4009TIP3    H212034   4.599   2.250   1.397 -0.1170 -0.4420 -0.2689
 4010TIP3   OH212035   5.296   2.959   3.183 -0.3692  0.5723 -0.4148
 4010TIP3    H112036   5.330   3.021   3.248 -0.6479  0.5429 -0.2416
 4010TIP3    H212037   5.374   2.914   3.151 -0.2764  0.2645  0.2336
 4011TIP3   OH212038   0.841   2.723   1.427 -0.2839 -0.3012 -0.3611
 4011TIP3    H112039   0.879   2.636   1.420  0.6920  0.1645 -1.1333
 4011TIP3    H212040   0.817   2.731   1.520  0.5226 -1.0238 -0.0759
 4012TIP3   OH212041   2.193   0.053   4.709 -0.5291 -1.0030 -0.1559
 4012TIP3    H112042   2.280   0.030   4.744 -0.8181 -0.0991  1.2470
 4012TIP3    H212043   2.144  -0.029   4.713  0.4306 -1.6811 -1.5810
 4013TIP3   OH212044   6.136   2.628   1.641 -0.3304  0.2819 -0.8313
 4013TIP3    H112045   6.062   2.675   1.601 -0.3098 -0.4703 -1.7650
 4013TIP3    H212046   6.144   2.548   1.590  1.8577  0.8559 -1.4897
 4014TIP3   OH212047   3.757   3.995   0.755  0.4687 -0.3488  0.9606
 4014TIP3    H112048   3.689   4.061   0.741 -0.7044 -1.8568 -1.0681
 4014TIP3    H212049   3.806   4.026   0.831  0.2684  3.0240 -0.1395
 4015TIP3   OH212050   4.963   2.822   0.755  0.3058 -0.4874 -0.2102
 4015TIP3    H112051   4.918   2.737   0.756  0.1023 -0.3817 -0.4692
 4015TIP3    H212052   5.015   2.821   0.675  0.6794 -0.5609  0.0289
 4016TIP3   OH212053   0.552   3.999   3.964 -0.2352 -0.3570 -0.3379
 4016TIP3    H112054   0.591   4.086   3.973 -0.5960 -0.3203  1.0695
 4016TIP3    H212055   0.546   3.986   3.869  0.2371  0.9595 -0.5780
 4017TIP3   OH212056   6.033   0.943   1.309  0.3196  0.4044  0.0701
 4017TIP3    H112057   6.010   0.852   1.287 -1.2704  0.7296  0.2937
 4017TIP3    H212058   5.950   0.984   1.332  1.1886  1.5874  1.2478
 4018TIP3   OH212059   6.284   1.569   4.847 -0.0632  0.1025  0.7704
 4018TIP3    H112060   6.244   1.614   4.772  0.7969 -1.0842 -0.4625
 4018TIP3    H212061   6.209   1.535   4.896 -0.6422  0.2975  0.0582
 4019TIP3   OH212062   4.180   3.160   4.633 -0.3438 -0.1775 -0.2324
 4019TIP3    H112063   4.122   3.163   4.709  2.8570 -0.1127  2.4230
 4019TIP3    H212064   4.220   3.246   4.629  1.2480 -0.8880 -0.5111
 4020TIP3   OH212065   4.127   4.799   0.876 -0.7887 -0.2917 -0.0183
 4020TIP3    H112066   4.159   4.731   0.817 -1.0397  0.3733 -0.9453
 4020TIP3    H212067   4.196   4.808   0.941 -0.3658 -0.8370 -0.3835
 4021TIP3   OH212068   5.114   4.485   0.561  0.1408 -0.2297  0.2976
 4021TIP3    H112069   5.207   4.463   0.571  0.3406  0.4769  0.0054
 4021TIP3    H212070   5.104   4.570   0.605 -0.8862 -1.4171  2.5609
 4022TIP3   OH212071   3.009   1.194   3.692 -0.1366 -0.2375  0.4019
 4022TIP3    H112072   3.083   1.148   3.651 -1.6597 -1.0029 -1.6755
 4022TIP3    H212073   3.015   1.171   3.785  0.8229 -2.3245 -0.1053
 4023TIP3   OH212074   2.435   1.786   1.183 -0.0488  0.0365  0.0978
 4023TIP3    H112075   2.463   1.844   1.254  0.0197  0.9465 -0.6480
 4023TIP3    H212076   2.387   1.715   1.227  0.7451  0.1136  1.1121
 4024TIP3   OH212077   0.113   1.426   1.433  0.5516 -0.4863 -0.3348
 4024TIP3    H112078   0.157   1.511   1.436  0.7580 -0.6052  0.1547
 4024TIP3    H212079   0.154   1.376   1.503  0.3748 -0.9648 -0.5696
 4025TIP3   OH212080   5.751   4.524   2.933 -0.0589  0.3344 -0.1130
 4025TIP3    H112081   5.749   4.527   3.029  2.4901 -1.4039  0.0789
 4025TIP3    H212082   5.812   4.593   2.909 -1.0015  1.0385 -0.5606
 4026TIP3   OH212083   1.195   5.587   3.017  0.2095  0.6515 -0.0401
 4026TIP3    H112084   1.130   5.517   3.027  1.4287 -0.4547  0.4577
 4026TIP3    H212085   1.234   5.571   2.931  0.9998  0.2639  0.3860
 4027TIP3   OH212086   0.798   5.918   3.072 -0.6650 -1.0196 -0.1100
 4027TIP3    H112087   0.812   5.832   3.113 -0.0729 -0.8521  0.0502
 4027TIP3    H212088   0.886   5.948   3.050 -0.7701  0.1090  0.9685
 4028TIP3   OH212089   5.782   3.752   4.912 -0.7992 -0.0501  0.3246
 4028TIP3    H112090   5.775   3.765   4.817  1.3636 -0.4390  0.0701
 4028TIP3    H212091   5.767   3.838   4.949 -0.0094  0.4513 -0.4888
 4029TIP3   OH212092   2.534   3.449   1.777  0.7108 -0.3097  0.2698
 4029TIP3    H112093   2.498   3.361   1.788 -1.2824  0.5976  1.6447
 4029TIP3    H212094   2.475   3.505   1.827  0.3150  2.1958 -2.7040
 4030TIP3   OH212095   3.776   0.459   2.808 -0.3616  0.4600 -0.3365
 4030TIP3    H112096   3.764   0.518   2.734  0.0753 -0.3094 -1.0347
 4030TIP3    H212097   3.861   0.419   2.793 -1.2428 -1.3981 -0.6378
 4031TIP3   OH212098   2.350   4.357   0.584 -0.1200 -0.0562 -0.0885
 4031TIP3    H112099   2.387   4.388   0.502 -1.6027 -0.4165 -0.9306
 4031TIP3    H212100   2.375   4.265   0.589  0.4999  0.1220  0.1908
 4032TIP3   OH212101   3.019   5.653   3.688  0.2674 -0.0657 -0.5535
 4032TIP3    H112102   3.016   5.681   3.780  0.4559  0.7637 -0.7929
 4032TIP3    H212103   3.103   5.608   3.681  0.8577  1.0012 -0.6185
 4033TIP3   OH212104   1.312   1.572   0.874  0.4084  0.3863 -1.1079
 4033TIP3    H112105   1.378   1.629   0.915 -1.3076  0.6769  1.5186
 4033TIP3    H212106   1.269   1.629   0.810  0.3155  1.3594 -0.2254
 4034TIP3   OH212107   1.899   5.806   0.670  0.3883 -0.8491 -0.2610
 4034TIP3    H112108   1.822   5.784   0.619  0.3263 -0.3788 -0.3689
 4034TIP3    H212109   1.866   5.860   0.742  0.3670 -2.0874  0.7010
 4035TIP3   OH212110   1.251   0.494   1.182 -0.3305 -0.4921  0.0451
 4035TIP3    H112111   1.275   0.523   1.271 -1.8668 -0.7926  0.5842
 4035TIP3    H212112   1.327   0.443   1.153  0.4654  0.1333  0.9287
 4036TIP3   OH212113   3.628   3.227   2.205 -0.2505  0.1411 -0.7559
 4036TIP3    H112114   3.663   3.213   2.118 -0.4310  0.8493 -0.9467
 4036TIP3    H212115   3.535   3.246   2.192 -0.4759 -0.6293 -0.3395
 4037TIP3   OH212116   1.850   5.845   4.166  0.3217  0.4986 -0.5653
 4037TIP3    H112117   1.813   5.883   4.087  0.7913  0.4964 -0.7926
 4037TIP3    H212118   1.937   5.815   4.140  0.3626  0.2177 -0.1263
 4038TIP3   OH212119   6.000   2.546   0.941  0.0168  0.3383 -0.3830
 4038TIP3    H112120   6.052   2.480   0.986 -0.7186 -1.1288 -1.5991
 4038TIP3    H212121   5.910   2.528   0.967 -0.1797  1.0016 -0.5699
 4039TIP3   OH212122   4.122   0.891   4.070 -0.4470  0.3420  0.3343
 4039TIP3    H112123   4.060   0.842   4.015 -0.3332 -0.3403  0.8017
 4039TIP3    H212124   4.070   0.915   4.147 -0.6508  1.4351 -0.1280
 4040TIP3   OH212125   3.348   5.188   4.022 -0.3589 -0.4072  0.3794
 4040TIP3    H112126   3.256   5.211   4.031  0.0009  1.1335  0.3760
 4040TIP3    H212127   3.395   5.259   4.067  0.7841 -1.8837  1.6490
 4041TIP3   OH212128   5.533   3.958   0.989 -0.0139  0.1157  0.0393
 4041TIP3    H112129   5.602   3.953   0.923  1.5073  1.8947  1.3628
 4041TIP3    H212130   5.580   3.963   1.072 -1.7942  0.1346  1.0955
 4042TIP3   OH212131   4.799   2.064   3.122 -0.3505 -0.7590  0.3219
 4042TIP3    H112132   4.787   2.036   3.032  0.0990  1.9210 -0.6730
 4042TIP3    H212133   4.891   2.044   3.142  0.4302  1.2471 -0.9339
 4043TIP3   OH212134   2.465   5.272   1.118 -0.2669  0.2258  0.1440
 4043TIP3    H112135   2.431   5.186   1.145  1.8578 -1.2041 -1.4052
 4043TIP3    H212136   2.495   5.312   1.200  0.3710 -1.3134  0.7023
 4044TIP3   OH212137   2.942   3.966   1.115 -0.1804 -0.0940  0.0860
 4044TIP3    H112138   2.889   3.892   1.144  0.0057 -0.8929 -1.4904
 4044TIP3    H212139   3.021   3.926   1.079  0.5322  0.9655  0.4297
 4045TIP3   OH212140   4.602   0.900   4.917  0.1423  0.3594 -0.4385
 4045TIP3    H112141   4.575   0.859   4.835  0.8171 -0.6840 -0.1577
 4045TIP3    H212142   4.594   0.994   4.901  0.2036  0.1634 -1.6777
 4046TIP3   OH212143   1.266   5.948   4.670 -0.4976  0.3649  0.1450
 4046TIP3    H112144   1.220   5.900   4.739  0.6240 -1.3933 -0.2607
 4046TIP3    H212145   1.357   5.923   4.680 -0.1352  1.0006 -1.2647
 4047TIP3   OH212146   1.424   3.380   1.536  0.3395  1.0450  0.0046
 4047TIP3    H112147   1.436   3.287   1.519  0.3715  1.1101 -0.3195
 4047TIP3    H212148   1.512   3.415   1.546  0.3116  0.9280  0.7327
 4048TIP3   OH212149   5.465   5.719   2.916 -0.9713 -0.3282  0.1766
 4048TIP3    H112150   5.491   5.670   2.838  1.9805  1.3501 -0.0385
 4048TIP3    H212151   5.509   5.673   2.988  0.9793  1.2716  0.0896
 4049TIP3   OH212152   5.040  -0.002   3.641 -0.1205 -0.0577 -0.2122
 4049TIP3    H112153   5.129  -0.013   3.608 -0.0411  2.4412 -1.0437
 4049TIP3    H212154   5.003   0.069   3.588 -1.2739  1.6194  2.6215
 4050TIP3   OH212155   2.585   4.171   0.792 -0.1341 -0.3748  0.1104
 4050TIP3    H112156   2.632   4.232   0.735 -0.8890 -0.6825 -0.8878
 4050TIP3    H212157   2.606   4.199   0.881 -0.3825  1.2883 -0.3120
 4051TIP3   OH212158   1.132   5.673   3.286 -0.5145  0.5596 -0.3481
 4051TIP3    H112159   1.148   5.647   3.195 -1.1823 -0.6279 -0.1406
 4051TIP3    H212160   1.154   5.766   3.288 -0.1719  0.5286 -1.6437
 4052TIP3   OH212161   4.031   5.853   0.432 -0.1799  0.5323 -0.1656
 4052TIP3    H112162   4.113   5.897   0.408  0.7116 -0.7137  0.4710
 4052TIP3    H212163   3.992   5.909   0.499  1.8001 -0.3940  1.9037
 4053TIP3   OH212164   1.230   1.062   4.794  0.4461  0.4848 -0.2035
 4053TIP3    H112165   1.178   1.033   4.719  1.4045 -2.0408  0.0200
 4053TIP3    H212166   1.185   1.024   4.870  0.6743  1.2369  0.3133
 4054TIP3   OH212167   2.179   0.003   0.393 -0.3606 -0.3782  0.4154
 4054TIP3    H112168   2.124   0.054   0.452  0.7963  1.1770  0.1888
 4054TIP3    H212169   2.167   0.044   0.308 -0.1360 -1.0874  0.0367
 4055TIP3   OH212170   0.852   4.603   1.926  0.5181  0.1258  0.4489
 4055TIP3    H112171   0.833   4.548   1.850 -0.5991  1.3202 -0.1685
 4055TIP3    H212172   0.946   4.621   1.919  0.0341  2.2366 -2.1073
 4056TIP3   OH212173   1.125   0.908   4.034 -0.5191 -0.5772 -0.0145
 4056TIP3    H112174   1.205   0.936   3.991 -0.1885 -1.1237  0.2392
 4056TIP3    H212175   1.063   0.891   3.963 -0.3062 -0.4825 -0.2217
 4057TIP3   OH212176   5.039   1.998   3.234  0.3525  0.1032 -0.2379
 4057TIP3    H112177   5.099   2.017   3.162  0.7282  0.0906  0.0648
 4057TIP3    H212178   5.036   2.080   3.284 -0.1489  0.2100 -0.4408
 4058TIP3   OH212179   4.639   5.078   0.994  0.1572  0.0722  0.0215
 4058TIP3    H112180   4.574   5.037   1.051 -0.6200 -0.1372 -0.9917
 4058TIP3    H212181   4.590   5.106   0.917  1.4609 -1.3595 -1.4092
 4059TIP3   OH212182   0.373   5.825   5.131 -0.3958 -0.1137 -0.2302
 4059TIP3    H112183   0.376   5.848   5.224  1.4444 -1.8488  0.2111
 4059TIP3    H212184   0.367   5.909   5.086  1.6119  1.0203  1.3981
 4060TIP3   OH212185   5.602   1.877   3.181  0.4791 -0.0568  0.0128
 4060TIP3    H112186   5.528   1.916   3.134  0.2335 -1.8779 -1.1836
 4060TIP3    H212187   5.587   1.900   3.273 -0.7128  0.9281 -0.4071
 4061TIP3   OH212188   5.374   3.431   1.138  0.4658 -0.0827  0.0011
 4061TIP3    H112189   5.383   3.392   1.051  1.1937 -0.1332  0.0907
 4061TIP3    H212190   5.384   3.357   1.199  0.5557  0.0439  0.1405
 4062TIP3   OH212191   3.102   0.110   3.339  0.6574  0.0799  0.3711
 4062TIP3    H112192   3.051   0.099   3.419 -1.9729  1.3869 -0.9980
 4062TIP3    H212193   3.069   0.192   3.302  1.4336 -0.7485 -2.2983
 4063TIP3   OH212194   3.014   2.266   0.035  0.0136 -0.4231 -0.4853
 4063TIP3    H112195   2.954   2.328   0.076  0.8734 -0.2131  0.5188
 4063TIP3    H212196   3.028   2.199   0.102 -1.6061 -2.2441 -1.8692
 4064TIP3   OH212197   0.474   2.664   4.859  0.1480 -0.4993  0.1713
 4064TIP3    H112198   0.485   2.754   4.829 -0.6167 -0.5973 -0.4301
 4064TIP3    H212199   0.415   2.625   4.795 -0.1758 -1.1962  0.8841
 4065TIP3   OH212200   4.780   4.621   0.461 -0.2328 -0.1527  0.8338
 4065TIP3    H112201   4.857   4.665   0.426 -0.1215 -0.4738  0.6693
 4065TIP3    H212202   4.706   4.660   0.414 -0.0610 -0.8317 -0.0419
 4066TIP3   OH212203   5.430   3.435   1.609 -0.3865  0.1985 -0.1063
 4066TIP3    H112204   5.407   3.343   1.622  1.9280 -0.1295  2.9305
 4066TIP3    H212205   5.509   3.433   1.556  1.0231  0.1490  1.8747
 4067TIP3   OH212206   0.711   5.005   3.731  0.4329  0.2880  0.1257
 4067TIP3    H112207   0.728   4.942   3.661  1.8860  0.2955  0.4259
 4067TIP3    H212208   0.641   5.061   3.698 -0.9989 -1.5448 -0.0965
 4068TIP3   OH212209   6.200   5.826   4.729  0.6012 -0.2848 -0.2439
 4068TIP3    H112210   6.147   5.897   4.765  1.1098 -0.4463  0.8556
 4068TIP3    H212211   6.267   5.810   4.795  0.0015 -2.3525 -0.0755
 4069TIP3   OH212212   2.712   0.192   0.398 -0.7591  0.8385 -0.4471
 4069TIP3    H112213   2.735   0.117   0.344 -0.7816  1.8757 -1.9708
 4069TIP3    H212214   2.625   0.171   0.432 -0.7836  0.2003 -0.8901
 4070TIP3   OH212215   2.759   1.409   4.963  0.2352 -0.4179 -0.2475
 4070TIP3    H112216   2.683   1.380   4.914  0.0055  0.6876 -0.5597
 4070TIP3    H212217   2.774   1.339   5.028 -2.0509  0.0970  0.9298
 4071TIP3   OH212218   4.737   5.645   3.764 -0.3011  0.3490  0.0108
 4071TIP3    H112219   4.688   5.563   3.764  0.9638 -0.4496 -1.1624
 4071TIP3    H212220   4.682   5.706   3.713  0.1219 -0.6891 -1.7799
 4072TIP3   OH212221   1.372   2.373   3.430  0.0488  0.4565 -0.2956
 4072TIP3    H112222   1.375   2.456   3.384  2.0723 -0.2439 -1.6100
 4072TIP3    H212223   1.297   2.380   3.489 -1.0211  2.4336 -1.7663
 4073TIP3   OH212224   5.276   3.393   0.222 -0.8336  0.5616 -0.2198
 4073TIP3    H112225   5.290   3.338   0.300 -0.2034  1.0191 -0.0054
 4073TIP3    H212226   5.203   3.449   0.246 -1.3141  0.0019 -0.3429
 4074TIP3   OH212227   4.887   5.805   1.027 -0.7199  0.5737  0.1964
 4074TIP3    H112228   4.923   5.717   1.039  1.5570  1.4465  0.2117
 4074TIP3    H212229   4.892   5.821   0.933 -1.6412  0.5054  0.1255
 4075TIP3   OH212230   1.664   1.862   2.514  0.5575  0.0305 -0.0940
 4075TIP3    H112231   1.648   1.950   2.480 -0.2084 -0.2973 -0.6228
 4075TIP3    H212232   1.694   1.812   2.438  3.4681  0.3994  0.6847
 4076TIP3   OH212233   4.362   1.966   3.044 -0.1468  0.1956  0.5724
 4076TIP3    H112234   4.454   1.994   3.047 -0.3689  0.8258  2.1059
 4076TIP3    H212235   4.345   1.953   2.951  1.2844  0.7781  0.1970
 4077TIP3   OH212236   0.265   1.226   5.098 -0.5313 -0.1557  0.1236
 4077TIP3    H112237   0.254   1.273   5.180 -1.3961 -0.3485  0.1264
 4077TIP3    H212238   0.274   1.294   5.031 -0.4553  0.0029  0.2964
 4078TIP3   OH212239   1.402   1.753   4.782  0.1073  0.4029 -0.1583
 4078TIP3    H112240   1.401   1.775   4.688  0.1307 -1.4355 -0.6196
 4078TIP3    H212241   1.310   1.737   4.804 -0.0286  1.8107  0.4173
 4079TIP3   OH212242   1.493   4.769   0.854 -0.0588 -0.0969  0.1765
 4079TIP3    H112243   1.505   4.684   0.811  0.7152 -0.7839  1.6831
 4079TIP3    H212244   1.486   4.748   0.947  2.6405  1.6287  0.8989
 4080TIP3   OH212245   2.121   0.410   4.373 -0.0436 -0.1233  0.1917
 4080TIP3    H112246   2.027   0.391   4.360  0.1147 -0.6077 -0.3140
 4080TIP3    H212247   2.138   0.483   4.314  0.3276 -1.3271 -1.2678
 4081TIP3   OH212248   0.297   1.711   4.180 -0.4300 -0.9221  0.6273
 4081TIP3    H112249   0.232   1.670   4.237  0.1374 -2.9693 -0.0836
 4081TIP3    H212250   0.358   1.640   4.159  1.0090  0.4804 -0.2055
 4082TIP3   OH212251   4.162   4.234   3.441  0.2124  0.2933  0.0883
 4082TIP3    H112252   4.083   4.231   3.385  1.2248  0.0511 -1.3892
 4082TIP3    H212253   4.139   4.179   3.516 -0.3604 -1.4245 -1.2659
 4083TIP3   OH212254   5.697   4.218   0.100 -0.4613 -0.0441 -0.1118
 4083TIP3    H112255   5.715   4.262   0.017  0.8080 -0.4416 -0.0682
 4083TIP3    H212256   5.780   4.223   0.148 -0.6077 -1.5102  0.3450
 4084TIP3   OH212257   2.501   0.624   0.931  0.3391 -0.6011 -0.0287
 4084TIP3    H112258   2.488   0.551   0.991 -0.2067 -2.0255 -1.8051
 4084TIP3    H212259   2.478   0.702   0.982 -0.7919 -1.8091  1.3772
 4085TIP3   OH212260   5.036   0.270   3.519 -0.4609 -0.5373 -0.2543
 4085TIP3    H112261   5.111   0.327   3.534 -0.8080 -0.0337 -0.4242
 4085TIP3    H212262   4.961   0.319   3.552 -0.7073 -1.0909  0.0334
 4086TIP3   OH212263   1.237   4.638   3.546 -0.1528 -0.6698  0.0384
 4086TIP3    H112264   1.320   4.628   3.501  0.7730  2.9455  0.6198
 4086TIP3    H212265   1.260   4.647   3.638 -1.3726 -1.2592  0.4298
 4087TIP3   OH212266   5.243   1.178   3.696 -0.1466  0.4619  0.4530
 4087TIP3    H112267   5.244   1.171   3.601 -0.8330 -1.7011  0.5553
 4087TIP3    H212268   5.161   1.136   3.722  0.8270 -0.5194  2.0810
 4088TIP3   OH212269   0.652   1.141   0.120 -0.5626 -0.4824  0.4688
 4088TIP3    H112270   0.702   1.197   0.060  0.6531 -2.1642 -0.1666
 4088TIP3    H212271   0.703   1.142   0.202 -2.5119  2.2711  1.8178
 4089TIP3   OH212272   2.299   3.036   1.585  0.0862  0.3219 -0.2115
 4089TIP3    H112273   2.218   2.990   1.564  0.2308 -0.2652  0.4657
 4089TIP3    H212274   2.360   3.012   1.515 -0.0865  0.1270 -0.2953
 4090TIP3   OH212275   4.881   3.573   3.614 -0.0975 -0.0077 -0.5758
 4090TIP3    H112276   4.857   3.487   3.647 -2.1730 -0.0483 -2.0084
 4090TIP3    H212277   4.857   3.634   3.684  2.5208 -0.5947  0.9590
 4091TIP3   OH212278   4.156   1.849   3.880 -0.6894 -0.0492  0.0603
 4091TIP3    H112279   4.210   1.773   3.857 -0.0404  0.5068 -0.3113
 4091TIP3    H212280   4.066   1.819   3.873 -0.4327 -0.9230  0.4109
 4092TIP3   OH212281   1.542   5.214   1.496 -0.4496 -0.0114 -0.2140
 4092TIP3    H112282   1.623   5.163   1.500  1.0784  1.7431 -4.1849
 4092TIP3    H212283   1.549   5.276   1.568  1.5343 -0.2283 -0.1690
 4093TIP3   OH212284   0.068   2.665   1.482  0.5228  0.6103 -0.0846
 4093TIP3    H112285   0.027   2.676   1.568  0.1925  0.5274 -0.2274
 4093TIP3    H212286   0.092   2.753   1.455 -0.2341  0.7558 -0.3190
 4094TIP3   OH212287   3.264   2.788   2.917 -0.6442 -0.1459 -0.5005
 4094TIP3    H112288   3.240   2.804   3.009 -3.1895  0.2742 -1.1482
 4094TIP3    H212289   3.230   2.701   2.898  1.1010 -0.8148 -0.7112
 4095TIP3   OH212290   3.996   1.992   4.794  0.0830  0.0223  0.7546
 4095TIP3    H112291   3.970   1.950   4.876 -0.6100 -0.5936  0.2294
 4095TIP3    H212292   3.915   1.998   4.743  0.6960 -0.6175 -0.3272
 4096TIP3   OH212293   2.852   0.599   2.088  0.7918  0.1750  0.5638
 4096TIP3    H112294   2.913   0.670   2.068  1.0739 -0.7341 -2.1089
 4096TIP3    H212295   2.767   0.643   2.098  1.3912  1.1404  1.6698
 4097TIP3   OH212296   1.242   3.125   3.065  0.3903  0.1428 -0.0500
 4097TIP3    H112297   1.187   3.188   3.112 -1.0414  1.4131 -3.1067
 4097TIP3    H212298   1.181   3.082   3.004  2.3673  0.1264 -2.1639
 4098TIP3   OH212299   2.006   1.930   1.583 -0.3075  0.2135  0.5167
 4098TIP3    H112300   1.954   1.983   1.644 -1.4253  2.3539 -2.0889
 4098TIP3    H212301   2.079   1.987   1.559  0.3597 -0.7670  0.1765
 4099TIP3   OH212302   2.967   2.310   0.532  0.4359  0.1249  0.2838
 4099TIP3    H112303   2.996   2.344   0.448 -1.6413  2.1421  0.2678
 4099TIP3    H212304   2.876   2.283   0.517  0.1189  0.2398  1.7817
 4100TIP3   OH212305   1.931   5.084   4.573 -0.2553  0.9716 -0.2625
 4100TIP3    H112306   2.021   5.088   4.605 -0.1745  2.3801 -0.6210
 4100TIP3    H212307   1.939   5.094   4.478 -0.6248 -1.4458 -0.6085
 4101TIP3   OH212308   0.045   3.921   3.196 -0.1185 -0.4627 -0.6106
 4101TIP3    H112309   0.121   3.900   3.250  0.3188 -0.5662 -1.2539
 4101TIP3    H212310   0.006   3.997   3.239  2.1613  1.6052 -1.9639
 4102TIP3   OH212311   4.725   1.930   0.539  0.0535  0.1592 -0.1579
 4102TIP3    H112312   4.785   1.967   0.474 -2.0040  1.1682 -1.6200
 4102TIP3    H212313   4.744   1.837   0.539  1.1631  0.3581 -1.0861
 4103TIP3   OH212314   5.881   3.057   4.718 -0.3113 -0.3839  0.9757
 4103TIP3    H112315   5.942   2.992   4.754 -0.1038  1.3678  4.1835
 4103TIP3    H212316   5.801   3.044   4.768 -2.6393 -2.2954 -2.8150
 4104TIP3   OH212317   2.333   1.392   3.979 -0.1008 -0.6544 -0.2916
 4104TIP3    H112318   2.246   1.431   3.965  0.3239  1.1773  1.5589
 4104TIP3    H212319   2.329   1.307   3.936 -2.6957 -0.4753 -0.5592
 4105TIP3   OH212320   3.730   5.627   2.647 -0.2574 -0.3120  0.0169
 4105TIP3    H112321   3.691   5.657   2.565 -0.4318  0.1782  0.2727
 4105TIP3    H212322   3.824   5.637   2.634 -0.0930 -2.6036 -1.0360
 4106TIP3   OH212323   5.793   3.713   0.960 -0.6739 -0.3719 -0.0009
 4106TIP3    H112324   5.712   3.679   0.999 -1.2819 -1.1104 -1.7904
 4106TIP3    H212325   5.764   3.765   0.885  0.4818  0.2498 -0.0428
 4107TIP3   OH212326   3.538   1.062   0.542 -0.0453 -0.3468 -0.5041
 4107TIP3    H112327   3.572   1.006   0.473 -1.1782 -0.4070 -1.0355
 4107TIP3    H212328   3.453   1.092   0.509 -2.1205 -2.8097  2.0770
 4108TIP3   OH212329   5.621   5.616   4.614 -0.3412 -0.0553  0.5643
 4108TIP3    H112330   5.655   5.587   4.699 -2.7050 -0.4873  1.4400
 4108TIP3    H212331   5.628   5.539   4.558  0.1288 -0.1155  0.6944
 4109TIP3   OH212332   0.024   5.766   2.654 -0.1605 -0.2112  0.1019
 4109TIP3    H112333   0.108   5.770   2.608 -0.0859  0.4868  0.2814
 4109TIP3    H212334   0.042   5.716   2.734 -0.0981 -0.7203 -0.2298
 4110TIP3   OH212335   5.475   4.946   2.259  0.3447 -0.1707 -0.3876
 4110TIP3    H112336   5.385   4.923   2.282  0.4662 -1.5533 -1.1830
 4110TIP3    H212337   5.475   5.042   2.255 -1.1535 -0.1576 -0.6409
 4111TIP3   OH212338   6.336   0.393   1.058  0.1771  0.2541 -0.1224
 4111TIP3    H112339   6.291   0.454   1.000 -0.8656  1.3167  1.7137
 4111TIP3    H212340   6.326   0.430   1.145  1.6766 -1.2834  0.7833
 4112TIP3   OH212341   2.420   4.014   4.860 -0.2174  0.1113 -0.2717
 4112TIP3    H112342   2.432   3.919   4.865  0.0822  0.2081  1.4472
 4112TIP3    H212343   2.432   4.035   4.767  0.3417 -1.4471 -0.5792
 4113TIP3   OH212344   5.996   2.040   4.639  0.0854 -0.0476  0.3082
 4113TIP3    H112345   6.074   2.086   4.608  0.0154  0.8112  1.3420
 4113TIP3    H212346   5.966   2.092   4.713 -1.9390  0.0838 -0.5558
 4114TIP3   OH212347   3.994   0.821   1.965 -0.4372  0.0327 -0.3448
 4114TIP3    H112348   4.045   0.870   1.900 -2.0453  0.5376 -1.2891
 4114TIP3    H212349   3.973   0.739   1.920 -1.3173  0.2654 -0.3674
 4115TIP3   OH212350   1.665   5.181   1.766  0.3842 -0.3101  0.0766
 4115TIP3    H112351   1.725   5.116   1.729 -1.3543 -1.6081 -0.6315
 4115TIP3    H212352   1.712   5.219   1.839  1.9017 -1.5677 -0.1992
 4116TIP3   OH212353   3.056   0.632   0.383 -0.2906  0.3964  0.1686
 4116TIP3    H112354   3.040   0.589   0.468  0.2135 -1.7900 -0.7771
 4116TIP3    H212355   2.980   0.689   0.371 -1.9517 -1.5455  0.7550
 4117TIP3   OH212356   3.712   5.734   3.211  0.0495 -0.0279  0.0172
 4117TIP3    H112357   3.687   5.652   3.254 -0.4262  0.4766  0.7334
 4117TIP3    H212358   3.682   5.802   3.271 -0.0019  0.6834 -0.7987
 4118TIP3   OH212359   2.290   4.735   1.269  0.3062 -0.2701 -0.0184
 4118TIP3    H112360   2.234   4.671   1.225 -1.6583  0.7541  0.8698
 4118TIP3    H212361   2.267   4.729   1.361  1.2723  0.6004  0.3056
 4119TIP3   OH212362   1.486   3.572   4.734  0.2420  0.2633  0.5575
 4119TIP3    H112363   1.517   3.639   4.673  1.7970  0.4967  1.5554
 4119TIP3    H212364   1.516   3.489   4.697 -0.6099  0.2059 -0.0355
 4120TIP3   OH212365   4.936   3.866   0.556 -0.3783  0.0713 -0.1556
 4120TIP3    H112366   4.903   3.784   0.592  1.1786 -0.4510  0.1343
 4120TIP3    H212367   4.863   3.927   0.565 -1.6196 -1.3115 -0.5376
 4121TIP3   OH212368   3.985   4.375   2.358 -0.4654 -0.1454 -0.1818
 4121TIP3    H112369   3.949   4.433   2.425 -1.2096  0.2713 -0.9271
 4121TIP3    H212370   4.006   4.433   2.285 -0.9773 -0.7811 -0.8428
 4122TIP3   OH212371   1.371   5.975   3.781 -0.2356 -0.2567  0.0779
 4122TIP3    H112372   1.326   5.946   3.702 -0.4152  0.4388 -0.0847
 4122TIP3    H212373   1.458   5.936   3.776  0.5711  1.5880 -1.6199
 4123TIP3   OH212374   3.545   4.441   3.619 -0.0632 -0.5150 -0.0557
 4123TIP3    H112375   3.470   4.489   3.653 -0.5108 -2.5925  2.0918
 4123TIP3    H212376   3.543   4.457   3.524 -2.4280  0.5198  0.1112
 4124TIP3   OH212377   5.899   0.964   1.664 -0.0853  0.1299 -0.1598
 4124TIP3    H112378   5.862   1.020   1.732  1.4344  0.8556  0.1155
 4124TIP3    H212379   5.854   0.880   1.675  0.4188  0.0756  2.0617
 4125TIP3   OH212380   5.604   3.733   2.191  0.2822 -0.3822 -0.5564
 4125TIP3    H112381   5.543   3.679   2.140 -1.4060  0.4828  0.4365
 4125TIP3    H212382   5.651   3.671   2.247 -0.2901 -1.0142 -0.7645
 4126TIP3   OH212383   3.412   1.637   4.095 -0.2003  0.0768  0.8599
 4126TIP3    H112384   3.506   1.646   4.079 -0.2558  1.6842  1.3162
 4126TIP3    H212385   3.403   1.549   4.132  0.9508 -0.5711 -0.3240
 4127TIP3   OH212386   4.859   4.825   1.461 -0.2956  0.2118  0.4128
 4127TIP3    H112387   4.842   4.743   1.413  1.8520  0.2447 -0.5243
 4127TIP3    H212388   4.890   4.796   1.547  0.9205 -0.0154 -0.0785
 4128TIP3   OH212389   2.473   3.252   3.250  0.7840  0.7879  0.0308
 4128TIP3    H112390   2.462   3.347   3.246 -0.9677  0.6509  0.8035
 4128TIP3    H212391   2.558   3.237   3.208  1.2933  2.7137  0.2338
 4129TIP3   OH212392   5.673   2.979   4.862 -0.5577  0.1288  0.0660
 4129TIP3    H112393   5.698   2.924   4.936 -0.4538 -0.8701 -0.6994
 4129TIP3    H212394   5.612   2.926   4.811 -1.9355  1.4192  0.2837
 4130TIP3   OH212395   1.132   2.867   0.645  0.6576 -0.0961 -0.6256
 4130TIP3    H112396   1.206   2.806   0.650  1.1487  0.3354 -2.0486
 4130TIP3    H212397   1.085   2.842   0.565 -0.7863 -0.3876  0.2841
 4131TIP3   OH212398   0.437   6.020   0.924  0.4812  0.0574  0.0405
 4131TIP3    H112399   0.371   5.950   0.923  0.6763 -0.1583  1.2249
 4131TIP3    H212400   0.500   5.994   0.857  0.0175 -0.3743 -0.2392
 4132TIP3   OH212401   4.786   1.949   1.991 -0.3346 -0.0092  0.4277
 4132TIP3    H112402   4.851   1.879   1.989  0.3499  0.5910  1.1113
 4132TIP3    H212403   4.733   1.935   1.913  0.1529 -0.9442  0.2512
 4133TIP3   OH212404   1.161   3.424   3.725 -0.3609 -0.4894  0.0361
 4133TIP3    H112405   1.116   3.456   3.803 -0.9761 -1.0904 -0.0617
 4133TIP3    H212406   1.166   3.499   3.666  0.4949  0.0879  0.8199
 4134TIP3   OH212407   5.743   1.057   2.393 -0.3039  0.4319  0.3430
 4134TIP3    H112408   5.834   1.045   2.422 -0.3480 -0.7017  0.0751
 4134TIP3    H212409   5.751   1.096   2.306 -0.0657  0.3105  0.3092
 4135TIP3   OH212410   2.215   1.112   0.891 -0.7193 -0.3008 -0.0610
 4135TIP3    H112411   2.306   1.083   0.886 -0.2746  0.6002  2.0219
 4135TIP3    H212412   2.188   1.120   0.799  1.0398 -1.2891 -0.7216
 4136TIP3   OH212413   3.651   3.795   4.286  0.2487 -0.1982  0.1817
 4136TIP3    H112414   3.648   3.851   4.209 -2.3201  1.7360  1.5191
 4136TIP3    H212415   3.639   3.706   4.252 -1.1006  0.6186 -1.6402
 4137TIP3   OH212416   1.723   1.144   3.628  0.4183  0.6361  0.7200
 4137TIP3    H112417   1.685   1.225   3.594 -0.3558  0.5280  1.3038
 4137TIP3    H212418   1.755   1.167   3.715  0.0289  0.2732  0.9619
 4138TIP3   OH212419   0.666   1.769   1.671  0.3168 -0.2151  0.0545
 4138TIP3    H112420   0.592   1.735   1.721 -1.0872  2.3097 -0.1522
 4138TIP3    H212421   0.649   1.740   1.581 -0.6728  0.6748 -0.0621
 4139TIP3   OH212422   0.281   2.654   4.372 -0.1639  0.3256  0.3218
 4139TIP3    H112423   0.317   2.720   4.431  0.3907  1.2877 -1.0311
 4139TIP3    H212424   0.355   2.631   4.314  0.2297 -2.9037  1.8964
 4140TIP3   OH212425   0.316   5.383   2.792 -0.0749  0.9920 -0.5826
 4140TIP3    H112426   0.286   5.292   2.794  1.1773  0.5287 -1.5258
 4140TIP3    H212427   0.338   5.403   2.883  0.4940  0.0479 -0.4989
 4141TIP3   OH212428   5.880   2.274   1.570 -0.4078 -0.0399 -0.5522
 4141TIP3    H112429   5.870   2.335   1.643 -0.6078  0.2991 -0.8596
 4141TIP3    H212430   5.875   2.330   1.492 -2.8603 -0.7044 -0.9367
 4142TIP3   OH212431   3.619   3.430   1.215 -0.1086  0.1351  0.1237
 4142TIP3    H112432   3.613   3.524   1.196  0.6194  0.0873 -0.3961
 4142TIP3    H212433   3.634   3.389   1.130 -2.3119 -0.6699  0.0631
 4143TIP3   OH212434   2.431   3.196   0.526 -0.0790 -0.4781 -0.1388
 4143TIP3    H112435   2.432   3.115   0.577  0.1969 -0.3916 -0.0081
 4143TIP3    H212436   2.367   3.179   0.456 -0.2402 -0.7013  0.0600
 4144TIP3   OH212437   4.971   3.872   1.744  0.3094 -0.4698 -0.8430
 4144TIP3    H112438   5.041   3.837   1.799 -0.2883  1.1551  1.0632
 4144TIP3    H212439   4.898   3.811   1.757  0.2033 -0.1534  0.1477
 4145TIP3   OH212440   0.763   2.425   4.745 -0.5015  0.2309  0.3293
 4145TIP3    H112441   0.726   2.347   4.788 -0.0391  0.5846  1.4077
 4145TIP3    H212442   0.727   2.498   4.795 -0.6397  0.7010 -0.4481
 4146TIP3   OH212443   4.665   4.945   5.198  0.0703  0.2015  0.2248
 4146TIP3    H112444   4.622   4.989   5.124 -1.5962  2.1475  2.1924
 4146TIP3    H212445   4.616   4.863   5.208 -0.3798  0.4062 -0.1983
 4147TIP3   OH212446   3.372   4.963   3.745 -0.1647 -0.3111  0.3553
 4147TIP3    H112447   3.287   4.950   3.787 -0.0297 -0.7532  0.5036
 4147TIP3    H212448   3.351   4.979   3.653 -0.4186 -0.2507  0.4235
 4148TIP3   OH212449   3.945   0.035   3.798  0.4120 -0.0138  0.2226
 4148TIP3    H112450   3.908  -0.043   3.839  0.0430 -0.9728 -1.7968
 4148TIP3    H212451   3.876   0.102   3.805 -1.5753 -1.5215 -2.7489
 4149TIP3   OH212452   3.735   5.024   4.881 -1.1372  0.1296 -0.0032
 4149TIP3    H112453   3.666   4.961   4.859 -1.1552  0.2870 -0.4063
 4149TIP3    H212454   3.794   5.021   4.806 -0.6033 -0.1376  0.4185
 4150TIP3   OH212455   2.434   3.756   0.088  0.0558 -0.3676  0.7055
 4150TIP3    H112456   2.483   3.740   0.170 -0.3851 -1.2065  0.8206
 4150TIP3    H212457   2.355   3.702   0.097 -1.2821  1.5381  0.8463
 4151TIP3   OH212458   3.360   0.465   4.616  0.2213  0.3735 -0.6265
 4151TIP3    H112459   3.289   0.426   4.564  0.6997 -0.0299 -0.9862
 4151TIP3    H212460   3.414   0.511   4.553  2.5798 -2.6804 -1.0848
 4152TIP3   OH212461   4.467   5.269   3.332  0.0733 -0.2333  0.3958
 4152TIP3    H112462   4.508   5.312   3.407 -0.6552 -1.7324  1.7343
 4152TIP3    H212463   4.378   5.304   3.330  0.6478  1.2310 -1.0055
 4153TIP3   OH212464   3.627   4.154   5.011 -0.4390  0.3788 -0.6451
 4153TIP3    H112465   3.669   4.142   5.096  1.1860  0.1401 -1.4397
 4153TIP3    H212466   3.676   4.096   4.951 -1.7008  0.3481 -1.6962
 4154TIP3   OH212467   2.290   5.814   3.594 -0.5450  0.1950 -0.3229
 4154TIP3    H112468   2.307   5.744   3.657  1.3358  0.3051 -0.6415
 4154TIP3    H212469   2.203   5.847   3.617 -0.6334 -0.9343  1.0755
 4155TIP3   OH212470   4.894   3.820   1.313  0.1517 -0.2273 -0.4197
 4155TIP3    H112471   4.936   3.792   1.394  1.1963 -0.1320 -0.9132
 4155TIP3    H212472   4.953   3.790   1.244 -0.9266 -0.6594 -1.1748
 4156TIP3   OH212473   1.097   3.036   0.849 -0.1298 -0.0800  0.3774
 4156TIP3    H112474   1.104   2.981   0.927  0.4222 -0.5821 -0.0144
 4156TIP3    H212475   1.121   2.978   0.777  0.8301  0.7602 -0.0120
 4157TIP3   OH212476   5.766   3.513   2.329 -0.4115  0.1243 -0.2104
 4157TIP3    H112477   5.859   3.490   2.338 -0.1684  0.6531 -1.3057
 4157TIP3    H212478   5.740   3.541   2.417  0.3652 -0.3930  0.1907
 4158TIP3   OH212479   2.977   2.028   3.469 -0.3158 -0.6600 -0.4218
 4158TIP3    H112480   2.954   1.995   3.556  1.5389 -0.9772 -0.0277
 4158TIP3    H212481   3.049   1.972   3.440  1.6050  1.7452 -0.5634
 4159TIP3   OH212482   2.228   2.435   2.017  0.1045  0.0437 -0.3106
 4159TIP3    H112483   2.311   2.400   2.049  0.9759  0.4849 -1.9331
 4159TIP3    H212484   2.164   2.412   2.084  1.2969 -1.4508  0.3771
 4160TIP3   OH212485   4.622   0.655   0.672  0.2289  0.7481  0.0092
 4160TIP3    H112486   4.692   0.615   0.725 -0.7124 -1.2161 -0.1365
 4160TIP3    H212487   4.658   0.659   0.584 -0.1797 -1.3093 -0.2949
 4161TIP3   OH212488   1.229   2.613   1.186 -0.4658  0.2931  0.6462
 4161TIP3    H112489   1.226   2.524   1.222 -1.7626  0.2491  0.4461
 4161TIP3    H212490   1.276   2.663   1.253  3.0744 -1.0963 -0.5406
 4162TIP3   OH212491   0.875   5.404   1.021 -0.4485  0.6765 -0.5719
 4162TIP3    H112492   0.819   5.426   1.096 -0.2793  2.3702 -0.8944
 4162TIP3    H212493   0.960   5.443   1.043 -0.1848  0.5262 -1.3091
 4163TIP3   OH212494   2.581   4.915   3.227  0.3255 -0.5459  0.3306
 4163TIP3    H112495   2.518   4.907   3.298  0.0439 -0.9583  0.0395
 4163TIP3    H212496   2.657   4.863   3.256  1.0336  0.9228  1.2100
 4164TIP3   OH212497   3.185   5.033   1.832  0.0450  0.2150  0.3180
 4164TIP3    H112498   3.205   5.047   1.924  1.2756  1.8093 -0.1269
 4164TIP3    H212499   3.159   5.120   1.800 -2.0187 -0.6429 -0.4991
 4165TIP3   OH212500   5.209   5.324   2.083 -0.1621  0.1404  0.5853
 4165TIP3    H112501   5.247   5.288   2.003 -0.2428  0.0765  0.5751
 4165TIP3    H212502   5.196   5.248   2.139  1.5973  0.3936  1.3865
 4166TIP3   OH212503   3.744   1.582   2.455 -0.2994  0.3305  0.0156
 4166TIP3    H112504   3.794   1.663   2.466  0.0216  0.0604  0.6302
 4166TIP3    H212505   3.715   1.560   2.543 -0.1270 -0.3790 -0.0987
 4167TIP3   OH212506   4.174   1.725   0.409  0.5098  0.4181 -0.1670
 4167TIP3    H112507   4.098   1.672   0.384  0.3320  1.3131 -1.6312
 4167TIP3    H212508   4.138   1.812   0.426  1.2089  0.8565 -0.8817
 4168TIP3   OH212509   2.915   4.698   1.666 -0.0662 -0.0340 -0.0989
 4168TIP3    H112510   2.896   4.789   1.641 -0.2199  0.4664  1.7095
 4168TIP3    H212511   2.841   4.648   1.634 -0.2698  0.5731 -0.5960
 4169TIP3   OH212512   1.093   1.717   3.317 -0.0915 -0.1748  0.7323
 4169TIP3    H112513   1.065   1.654   3.250 -1.9094  2.3156 -1.0544
 4169TIP3    H212514   1.076   1.803   3.278  2.6519  1.5094  2.8603
 4170TIP3   OH212515   5.912   4.780   3.280 -0.1512  0.5993 -0.3394
 4170TIP3    H112516   6.001   4.758   3.308  0.3327  2.7184 -0.0811
 4170TIP3    H212517   5.859   4.770   3.359 -0.0182  0.1064 -0.3055
 4171TIP3   OH212518   5.614   0.478   0.204 -0.2104 -0.5582  0.2131
 4171TIP3    H112519   5.587   0.541   0.270  0.2908 -0.7636  0.6110
 4171TIP3    H212520   5.703   0.503   0.180 -0.0343 -1.0664  0.3198
 4172TIP3   OH212521   5.323   5.191   3.693 -0.2855 -0.0364 -0.3618
 4172TIP3    H112522   5.265   5.225   3.625 -1.6907 -0.5053  0.5537
 4172TIP3    H212523   5.366   5.116   3.652  0.5327  0.9673 -1.3991
 4173TIP3   OH212524   5.697   3.470   1.507  0.0123  0.0713  0.3460
 4173TIP3    H112525   5.751   3.448   1.583  0.3981  0.2119  0.1151
 4173TIP3    H212526   5.745   3.434   1.433 -1.4879 -2.1599  0.3409
 4174TIP3   OH212527   0.400   4.217   0.591 -0.0358 -0.2485  0.0070
 4174TIP3    H112528   0.368   4.161   0.661  1.0644 -0.1043  0.6480
 4174TIP3    H212529   0.450   4.159   0.534 -0.3651 -0.2341 -0.3090
 4175TIP3   OH212530   4.352   5.977   1.539 -0.1668 -0.5317  0.7152
 4175TIP3    H112531   4.433   5.961   1.490 -0.3517 -1.3254  0.6466
 4175TIP3    H212532   4.380   5.985   1.630  0.0913  0.1401  0.5804
 4176TIP3   OH212533   1.065   2.337   3.501 -0.1003  0.0052  0.1555
 4176TIP3    H112534   1.075   2.369   3.411  0.4764  0.3805  0.3492
 4176TIP3    H212535   1.076   2.242   3.493 -0.9874 -0.0648 -0.2981
 4177TIP3   OH212536   0.338   0.832   0.180 -0.0068  0.4344  0.1013
 4177TIP3    H112537   0.299   0.837   0.267  1.3612  0.1810  0.7621
 4177TIP3    H212538   0.430   0.812   0.197  0.2507  0.2449 -1.4147
 4178TIP3   OH212539   3.156   0.464   4.850 -0.3367 -0.2065  0.7277
 4178TIP3    H112540   3.217   0.466   4.925  2.3679  0.2319 -1.3264
 4178TIP3    H212541   3.211   0.484   4.774 -3.5367  2.8167 -1.0637
 4179TIP3   OH212542   4.648   2.866   4.115 -0.1140  0.1971  0.2321
 4179TIP3    H112543   4.619   2.810   4.043  0.8968  0.4531 -0.3878
 4179TIP3    H212544   4.577   2.930   4.125 -0.9032 -0.6910  0.4143
 4180TIP3   OH212545   0.733   4.054   0.583 -0.0094 -0.0970  0.3987
 4180TIP3    H112546   0.671   3.984   0.563  1.4806 -1.9783  1.8863
 4180TIP3    H212547   0.815   4.025   0.544  0.0935  2.2137 -1.3094
 4181TIP3   OH212548   1.962   0.498   2.675  0.5042  0.0159 -0.0310
 4181TIP3    H112549   1.947   0.404   2.661  1.0829  0.0752 -1.1012
 4181TIP3    H212550   1.964   0.535   2.587  1.4047  0.8601  0.3334
 4182TIP3   OH212551   3.291   4.291   4.643 -0.0080 -0.2635 -0.7636
 4182TIP3    H112552   3.206   4.274   4.684 -1.0438 -2.3597 -3.4367
 4182TIP3    H212553   3.344   4.215   4.665  0.9324  0.6359  0.1772
 4183TIP3   OH212554   2.579   3.447   0.168  0.3794 -0.2480  0.0208
 4183TIP3    H112555   2.662   3.469   0.211  1.3261 -0.6887 -1.4842
 4183TIP3    H212556   2.516   3.441   0.239  1.1129  2.3555  1.0181
 4184TIP3   OH212557   4.668   5.184   3.674  0.2389  0.8959  0.4803
 4184TIP3    H112558   4.609   5.109   3.670  0.7847  0.4525  0.6829
 4184TIP3    H212559   4.735   5.166   3.608  0.1382  1.4125  0.2279
 4185TIP3   OH212560   2.943   2.860   4.549 -0.3906  0.0512  0.3879
 4185TIP3    H112561   2.848   2.868   4.541 -0.4738 -2.1827 -2.9726
 4185TIP3    H212562   2.976   2.949   4.536 -1.9630  0.7486  0.9021
 4186TIP3   OH212563   5.851   3.969   3.408  0.1064 -0.2131 -0.0492
 4186TIP3    H112564   5.897   4.026   3.346  0.4470  1.0280  1.2958
 4186TIP3    H212565   5.872   3.880   3.378  2.0197  0.3252 -0.4709
 4187TIP3   OH212566   4.745   4.525   1.470 -0.0410  0.3822  0.3688
 4187TIP3    H112567   4.775   4.503   1.382  0.3142 -0.9766  0.7968
 4187TIP3    H212568   4.715   4.442   1.507 -1.5179  1.1813  1.0383
 4188TIP3   OH212569   5.944   2.325   0.345 -0.1600 -0.1533 -0.1528
 4188TIP3    H112570   6.031   2.291   0.365  0.4127  0.3583 -1.6563
 4188TIP3    H212571   5.901   2.255   0.296  1.2972  1.3117 -3.9510
 4189TIP3   OH212572   3.534   1.870   4.837 -0.3570 -0.3569  0.1091
 4189TIP3    H112573   3.524   1.946   4.781 -0.5251 -0.7479 -0.4010
 4189TIP3    H212574   3.459   1.814   4.816 -0.0758 -0.7979  0.2549
 4190TIP3   OH212575   3.187   3.772   0.114 -0.1332  0.1992  0.3691
 4190TIP3    H112576   3.163   3.846   0.059 -0.4553  0.5424  0.9571
 4190TIP3    H212577   3.192   3.809   0.203  0.0578 -0.4039  0.6145
 4191TIP3   OH212578   0.875   1.460   4.386 -0.1157  0.1526 -0.3378
 4191TIP3    H112579   0.971   1.464   4.382 -0.1406  2.1496  0.2420
 4191TIP3    H212580   0.846   1.547   4.361 -1.6936  0.3373  1.8353
 4192TIP3   OH212581   1.980   2.556   1.714  0.1952  0.5977  0.2579
 4192TIP3    H112582   1.902   2.515   1.677  0.2709  1.1590 -0.5370
 4192TIP3    H212583   1.945   2.626   1.770  0.0845 -0.2165  1.2349
 4193TIP3   OH212584   1.897   4.589   5.111  0.2204  0.0266  0.4164
 4193TIP3    H112585   1.953   4.541   5.171  0.4267 -0.0095  0.1974
 4193TIP3    H212586   1.907   4.681   5.136  0.2060  0.0000  0.5200
 4194TIP3   OH212587   3.803   0.896   1.118  0.5045 -0.1862  0.3142
 4194TIP3    H112588   3.834   0.912   1.207  0.9442 -0.2837  0.1849
 4194TIP3    H212589   3.741   0.967   1.101  0.3390 -0.2289  0.7342
 4195TIP3   OH212590   2.027   5.382   3.014  0.4167 -0.3145 -0.0810
 4195TIP3    H112591   2.075   5.459   3.044 -0.2424  0.7196 -1.5773
 4195TIP3    H212592   2.083   5.344   2.947 -0.3617  0.3167 -1.1101
 4196TIP3   OH212593   4.974   0.637   4.710 -0.5531  0.0008 -0.1472
 4196TIP3    H112594   4.914   0.683   4.768 -0.4805 -2.5923  2.1674
 4196TIP3    H212595   5.061   0.668   4.736 -0.5490 -0.8127  0.8279
 4197TIP3   OH212596   4.701   0.881   1.991  0.6179  0.0723 -0.2341
 4197TIP3    H112597   4.653   0.881   2.074 -0.2988 -1.5925 -0.7324
 4197TIP3    H212598   4.659   0.950   1.940 -0.7204 -0.7891 -0.3447
 4198TIP3   OH212599   3.155   1.218   0.966  0.0266  0.5288 -0.0907
 4198TIP3    H112600   3.073   1.186   1.002  1.3081  0.6981  3.4610
 4198TIP3    H212601   3.149   1.314   0.973  0.3674  0.5625 -0.2022
 4199TIP3   OH212602   2.436   3.109   3.788 -0.6181 -0.1221  0.0745
 4199TIP3    H112603   2.394   3.098   3.703 -0.5803 -0.5956  0.1140
 4199TIP3    H212604   2.416   3.199   3.813  0.7002  0.5537 -1.1629
 4200TIP3   OH212605   2.420   1.607   0.309  0.3814 -0.7999 -0.8999
 4200TIP3    H112606   2.388   1.528   0.353 -0.0673 -0.3029 -0.3138
 4200TIP3    H212607   2.512   1.612   0.334  0.1410 -0.5496 -0.0361
 4201TIP3   OH212608   3.784   5.528   3.956  0.6594  0.0893  0.6786
 4201TIP3    H112609   3.784   5.589   4.030  1.3595 -1.0253  1.6309
 4201TIP3    H212610   3.765   5.583   3.880  0.1010  1.2956  1.6535
 4202TIP3   OH212611   5.288   4.553   3.900  0.1787 -0.1435 -0.2448
 4202TIP3    H112612   5.335   4.485   3.949  0.4521  1.5837  2.0558
 4202TIP3    H212613   5.213   4.508   3.862  0.1281 -1.6586  1.5303
 4203TIP3   OH212614   5.183   1.383   4.225  0.4091  0.1617 -0.1348
 4203TIP3    H112615   5.183   1.440   4.148 -0.2712  2.8293  1.6837
 4203TIP3    H212616   5.260   1.411   4.275  0.4052 -0.9697  0.5476
 4204TIP3   OH212617   2.335   5.207   4.929  0.1994 -0.3141  0.0571
 4204TIP3    H112618   2.299   5.295   4.917  1.0381 -0.1350 -1.2926
 4204TIP3    H212619   2.262   5.157   4.966 -0.7536  0.5921 -0.5210
 4205TIP3   OH212620   4.806   2.132   4.913 -0.4576  0.3527  0.1483
 4205TIP3    H112621   4.874   2.099   4.973 -0.0191 -0.8015 -0.9405
 4205TIP3    H212622   4.811   2.227   4.921  0.8943  0.2733  0.5180
 4206TIP3   OH212623   3.650   0.207   4.125 -0.5569 -0.1081 -0.0241
 4206TIP3    H112624   3.689   0.182   4.208  0.0878  0.0180 -0.2816
 4206TIP3    H212625   3.581   0.270   4.148 -0.1062  0.2408  0.3776
 4207TIP3   OH212626   3.202   0.666   4.040  0.2029 -0.3545 -1.1238
 4207TIP3    H112627   3.293   0.636   4.039 -0.5957 -3.3567  0.4948
 4207TIP3    H212628   3.170   0.650   3.952  1.4215  1.6511 -1.9866
 4208TIP3   OH212629   4.338   2.874   2.514  0.1327  0.1051 -0.3705
 4208TIP3    H112630   4.349   2.786   2.550 -0.2799  0.0536 -0.3631
 4208TIP3    H212631   4.332   2.931   2.591  0.1906  0.1133 -0.3720
 4209TIP3   OH212632   5.408   1.889   0.618 -0.7077  0.2303  0.0472
 4209TIP3    H112633   5.421   1.929   0.532 -3.3388 -0.7241 -0.8989
 4209TIP3    H212634   5.423   1.796   0.604 -0.6510  0.1326  0.7355
 4210TIP3   OH212635   4.951   5.411   4.466  0.1813 -0.3171  0.1703
 4210TIP3    H112636   4.928   5.424   4.374 -0.0735  0.2985  0.3146
 4210TIP3    H212637   5.025   5.350   4.464  0.4674  0.0445 -0.4694
 4211TIP3   OH212638   5.628   0.903   0.667  0.0060 -0.0061 -0.6929
 4211TIP3    H112639   5.554   0.945   0.625 -0.6991 -1.2631 -0.7537
 4211TIP3    H212640   5.599   0.814   0.684  1.5522 -0.5828 -0.8625
 4212TIP3   OH212641   0.068   4.552   1.722  0.1635 -0.1849 -0.6572
 4212TIP3    H112642   0.053   4.473   1.670 -0.6944  0.0369 -0.7635
 4212TIP3    H212643   0.130   4.604   1.671  0.9672 -0.9175 -0.4429
 4213TIP3   OH212644   6.116   3.296   1.497  0.3305 -0.2963  0.3914
 4213TIP3    H112645   6.153   3.254   1.575 -0.9425 -0.0863  1.1320
 4213TIP3    H212646   6.038   3.341   1.529 -1.0132 -1.3668 -1.2644
 4214TIP3   OH212647   1.021   3.212   3.201 -0.1910 -0.4656  0.0680
 4214TIP3    H112648   0.999   3.156   3.275 -0.4278  0.7252  0.9129
 4214TIP3    H212649   0.977   3.171   3.126 -0.3648 -1.3947  0.6631
 4215TIP3   OH212650   2.964   1.634   1.716  0.2418 -0.0064  0.0302
 4215TIP3    H112651   2.881   1.596   1.745  0.4335 -1.1251 -0.8206
 4215TIP3    H212652   3.022   1.627   1.792 -0.1223 -0.1943  0.2908
 4216TIP3   OH212653   0.916   4.663   1.631 -0.3468  0.0505 -0.2227
 4216TIP3    H112654   0.967   4.584   1.613  0.8195  0.5573  0.6697
 4216TIP3    H212655   0.970   4.734   1.595 -1.9701  0.3766 -2.1629
 4217TIP3   OH212656   2.823   0.058   1.996 -0.1853 -0.1769 -0.0333
 4217TIP3    H112657   2.787  -0.019   2.039 -0.1329  0.1928  0.6969
 4217TIP3    H212658   2.916   0.037   1.982  0.1924  0.3018  1.5275
 4218TIP3   OH212659   1.620   2.823   1.410 -0.2588  0.6050  0.0252
 4218TIP3    H112660   1.690   2.758   1.403  1.0449  1.8159  1.2565
 4218TIP3    H212661   1.600   2.845   1.319  2.2306  1.5153 -0.3822
 4219TIP3   OH212662   2.472   0.852   1.523 -0.0414  0.3050 -0.2718
 4219TIP3    H112663   2.504   0.789   1.587 -0.3506 -0.3740 -0.7732
 4219TIP3    H212664   2.551   0.888   1.482  0.1234 -0.4865 -0.6676
 4220TIP3   OH212665   2.175   5.088   4.683 -0.2636 -0.5020 -0.8004
 4220TIP3    H112666   2.239   5.073   4.613 -1.2622  0.8741 -2.0821
 4220TIP3    H212667   2.226   5.090   4.763  1.6475  2.4361 -1.9454
 4221TIP3   OH212668   0.452   4.445   1.250  0.5519  0.6102  0.0740
 4221TIP3    H112669   0.530   4.403   1.285  0.1247 -0.1062  0.1859
 4221TIP3    H212670   0.432   4.514   1.313 -1.2341 -1.7667  2.3394
 4222TIP3   OH212671   2.902   1.152   4.238 -0.0228 -0.5176  0.2246
 4222TIP3    H112672   2.964   1.137   4.310 -0.5953 -1.8958  0.4785
 4222TIP3    H212673   2.816   1.141   4.279 -0.4501  1.0228 -0.1934
 4223TIP3   OH212674   3.099   5.712   3.371 -0.1638  0.1338 -0.2654
 4223TIP3    H112675   3.051   5.677   3.446 -2.6628  0.4164 -1.6390
 4223TIP3    H212676   3.057   5.673   3.295  2.1555  0.0435 -1.5911
 4224TIP3   OH212677   5.483   5.957   0.471 -0.3870  0.2853  0.1231
 4224TIP3    H112678   5.559   5.950   0.528 -0.7655 -1.7611  0.4534
 4224TIP3    H212679   5.508   6.022   0.405  0.2842  2.2722  2.2276
 4225TIP3   OH212680   5.286   4.624   0.230 -0.3678  0.3347  0.0505
 4225TIP3    H112681   5.338   4.571   0.291 -0.2496  0.9526  0.4925
 4225TIP3    H212682   5.351   4.668   0.175 -0.4087  1.1489  0.6371
 4226TIP3   OH212683   0.078   1.461   0.607  0.2604 -0.2314 -0.1872
 4226TIP3    H112684   0.021   1.468   0.684 -0.8763 -1.4658 -0.8714
 4226TIP3    H212685   0.017   1.457   0.533  1.3221  0.5633 -1.1234
 4227TIP3   OH212686   0.551   3.576   1.365 -0.9788  0.8535 -0.4136
 4227TIP3    H112687   0.503   3.501   1.400 -1.0526  1.3156  0.5116
 4227TIP3    H212688   0.570   3.552   1.274 -0.2394 -0.6521  0.1077
 4228TIP3   OH212689   2.151   0.223   3.306  0.3893  0.2501  0.9329
 4228TIP3    H112690   2.063   0.216   3.343  0.6537  0.7408  1.6709
 4228TIP3    H212691   2.137   0.232   3.212 -0.2433 -3.1801  0.5506
 4229TIP3   OH212692   4.975   0.175   0.167 -0.4807  0.2873  0.2447
 4229TIP3    H112693   4.949   0.109   0.231 -0.1619  0.4295  0.5243
 4229TIP3    H212694   4.992   0.126   0.087 -2.2063  0.2538 -0.1405
 4230TIP3   OH212695   1.251   1.445   0.546  0.5373 -0.5602  0.1571
 4230TIP3    H112696   1.185   1.483   0.488  0.6739 -2.5842 -1.4583
 4230TIP3    H212697   1.209   1.366   0.581 -0.7433  2.0491  5.4849
 4231TIP3   OH212698   3.982   3.178   1.241 -0.4570  0.1130  0.4267
 4231TIP3    H112699   4.021   3.266   1.240  1.6333 -0.7393  1.5915
 4231TIP3    H212700   3.892   3.193   1.270 -0.3308  1.9210  0.0471
 4232TIP3   OH212701   1.978   4.200   0.262  0.1383 -0.4693 -0.7398
 4232TIP3    H112702   1.883   4.214   0.256 -0.3077 -1.8928  1.5625
 4232TIP3    H212703   2.001   4.158   0.179 -1.9637 -3.2776 -0.0685
 4233TIP3   OH212704   5.110   1.129   4.290  0.5819 -0.3236 -0.2197
 4233TIP3    H112705   5.148   1.118   4.378  0.3937  0.3416 -0.0519
 4233TIP3    H212706   5.141   1.214   4.261 -0.9079  0.3212 -0.0119
 4234TIP3   OH212707   3.134   5.950   4.134 -0.1834 -0.0390 -0.3068
 4234TIP3    H112708   3.153   5.864   4.172  0.2412 -0.4718 -1.4436
 4234TIP3    H212709   3.211   6.002   4.153 -1.0036  0.5377  1.5799
 4235TIP3   OH212710   3.235   4.164   4.346 -0.0978  0.0382 -0.7459
 4235TIP3    H112711   3.235   4.151   4.441 -1.2953  0.0069 -0.7399
 4235TIP3    H212712   3.281   4.247   4.333 -1.2064  0.7973 -0.0159
 4236TIP3   OH212713   2.723   3.819   1.260  0.1873  0.2180  0.4218
 4236TIP3    H112714   2.754   3.824   1.351  0.8343 -2.1790  0.3821
 4236TIP3    H212715   2.628   3.816   1.268  0.2518 -0.3947  1.0529
 4237TIP3   OH212716   2.555   2.431   0.381  0.1518  0.2525  0.2483
 4237TIP3    H112717   2.596   2.468   0.460  2.6488  1.7490 -1.6173
 4237TIP3    H212718   2.493   2.498   0.353 -1.0644 -0.4701  1.0997
 4238TIP3   OH212719   0.898   0.695   1.041  0.0644  0.1168  0.5137
 4238TIP3    H112720   0.871   0.632   0.974  1.1012  0.4829 -0.2875
 4238TIP3    H212721   0.938   0.642   1.109 -2.1967 -0.3942  1.5392
 4239TIP3   OH212722   1.551   5.506   0.975  0.2555  0.0372  0.5856
 4239TIP3    H112723   1.640   5.488   1.004  0.9226  1.8236 -0.2462
 4239TIP3    H212724   1.496   5.489   1.052  1.4353  0.0596  1.4489
 4240TIP3   OH212725   2.124   2.792   2.680 -0.2385  0.1105  0.7066
 4240TIP3    H112726   2.119   2.887   2.695  1.3699  1.2440 -4.0136
 4240TIP3    H212727   2.179   2.759   2.751 -0.1478  2.8801  2.0591
 4241TIP3   OH212728   2.014   2.753   3.754 -0.2207  0.3312  0.4005
 4241TIP3    H112729   1.935   2.704   3.734 -0.3723  1.3840 -1.8040
 4241TIP3    H212730   1.987   2.814   3.823 -1.3387  0.6581 -0.3043
 4242TIP3   OH212731   0.420   4.913   2.079  0.6039 -0.4283 -0.2312
 4242TIP3    H112732   0.447   4.998   2.113 -0.3742 -0.7020  1.3242
 4242TIP3    H212733   0.366   4.933   2.003  1.4686  0.2758 -0.6660
 4243TIP3   OH212734   5.550   4.345   2.857 -0.4197  0.0792  0.0568
 4243TIP3    H112735   5.591   4.260   2.874 -1.2899 -0.2443  0.6217
 4243TIP3    H212736   5.614   4.409   2.887 -0.5405 -0.4267  1.4907
 4244TIP3   OH212737   4.005   2.979   0.502  0.0548  0.0439  0.0423
 4244TIP3    H112738   3.923   2.937   0.530 -1.2869  2.5571  0.1915
 4244TIP3    H212739   4.049   3.001   0.584 -0.2380  0.7463  0.0102
 4245TIP3   OH212740   4.838   3.956   2.351  0.1394  0.0904  0.6206
 4245TIP3    H112741   4.872   3.867   2.358 -0.2698 -0.0249  1.2383
 4245TIP3    H212742   4.874   3.989   2.269  0.4082 -0.5945  0.4543
 4246TIP3   OH212743   1.209   0.470   0.089 -0.4852  0.0074 -0.3925
 4246TIP3    H112744   1.178   0.380   0.083 -0.4999  0.0297 -0.6602
 4246TIP3    H212745   1.135   0.519   0.125 -0.5812 -0.0335 -0.5326
 4247TIP3   OH212746   3.240   0.292   3.607  0.4036 -0.4498  0.2523
 4247TIP3    H112747   3.253   0.372   3.557  0.6356 -0.1178  0.8296
 4247TIP3    H212748   3.320   0.241   3.594  0.8609  0.0531  1.0267
 4248TIP3   OH212749   4.446   3.027   3.634  0.9492 -0.0488  0.0008
 4248TIP3    H112750   4.430   2.989   3.547 -1.4217  0.1708  0.2914
 4248TIP3    H212751   4.389   2.978   3.693  0.1315  1.8880  0.8956
 4249TIP3   OH212752   0.523   1.075   4.107 -0.0739  0.3401  0.1269
 4249TIP3    H112753   0.518   1.163   4.071  0.0943  0.9065  1.4585
 4249TIP3    H212754   0.607   1.072   4.153  1.3054 -1.4469 -2.2140
 4250TIP3   OH212755   1.229   3.433   2.067  0.2465  0.2797  0.0848
 4250TIP3    H112756   1.281   3.494   2.120  0.2742 -0.5475  1.0525
 4250TIP3    H212757   1.146   3.478   2.053  0.5174  0.8225  0.1956
 4251TIP3   OH212758   0.182   5.536   4.913  0.0028 -0.8310  0.1846
 4251TIP3    H112759   0.262   5.512   4.867 -0.1123 -0.3619 -0.2719
 4251TIP3    H212760   0.119   5.468   4.890  0.8776 -2.5066  2.3592
 4252TIP3   OH212761   4.113   2.447   0.047 -0.5954  0.3535  0.1292
 4252TIP3    H112762   4.067   2.493  -0.023  0.6340 -0.5430 -1.3247
 4252TIP3    H212763   4.114   2.355   0.019  0.7214  0.1217  0.8508
 4253TIP3   OH212764   1.386   5.941   1.499  0.0489  0.1012 -0.2762
 4253TIP3    H112765   1.348   5.869   1.549 -1.1157  0.1361 -1.0544
 4253TIP3    H212766   1.472   5.908   1.472 -0.2117 -0.7615 -0.1063
 4254TIP3   OH212767   3.647   5.651   1.197 -0.1288 -0.2971 -0.0053
 4254TIP3    H112768   3.570   5.594   1.187 -0.2734 -0.2564  0.7957
 4254TIP3    H212769   3.610   5.736   1.223  0.1226  0.0206 -0.6621
 4255TIP3   OH212770   6.155   3.186   1.775  0.1956  0.0276 -0.1222
 4255TIP3    H112771   6.079   3.185   1.833 -0.3929  1.6482 -0.8157
 4255TIP3    H212772   6.201   3.104   1.794 -1.8186 -1.1020  0.1843
 4256TIP3   OH212773   5.589   3.371   2.993 -0.4083  0.0732 -1.1347
 4256TIP3    H112774   5.659   3.394   3.054 -0.1640 -0.0984 -1.3487
 4256TIP3    H212775   5.630   3.376   2.907 -1.3846  2.8330 -1.5248
 4257TIP3   OH212776   1.563   4.549   0.696  0.0740  0.1523  0.5826
 4257TIP3    H112777   1.602   4.472   0.737  0.1346 -1.7113 -2.6282
 4257TIP3    H212778   1.638   4.601   0.667  0.1281 -0.3208 -0.1678
 4258TIP3   OH212779   4.249   5.403   3.495  0.7013  0.1253  0.7237
 4258TIP3    H112780   4.260   5.475   3.434  0.5547 -0.0917  0.4392
 4258TIP3    H212781   4.211   5.443   3.573  0.0517  0.2614  0.3455
 4259TIP3   OH212782   0.833   1.036   4.236 -0.1553  0.1457  0.0607
 4259TIP3    H112783   0.920   1.072   4.254 -0.7637  3.0809 -2.1062
 4259TIP3    H212784   0.850   0.947   4.207  1.8041 -0.3376  2.3374
 4260TIP3   OH212785   1.695   1.492   2.946 -0.3265  0.1136  0.3010
 4260TIP3    H112786   1.737   1.503   2.860 -1.1412  1.9701  0.0900
 4260TIP3    H212787   1.605   1.522   2.932 -0.2663  1.1786  1.9750
 4261TIP3   OH212788   5.229   2.492   4.096 -0.5605  0.3764 -0.3738
 4261TIP3    H112789   5.271   2.436   4.031 -1.1909  0.3438 -0.7640
 4261TIP3    H212790   5.188   2.431   4.157  0.6480  0.3944  0.4907
 4262TIP3   OH212791   4.428   3.670   2.141  0.3628 -0.0126 -0.1514
 4262TIP3    H112792   4.420   3.752   2.190  1.3343  0.7539 -1.2395
 4262TIP3    H212793   4.364   3.612   2.182 -0.1595  1.1946  0.8124
 4263TIP3   OH212794   4.598   2.976   2.069 -0.3207  0.2466 -0.1030
 4263TIP3    H112795   4.563   2.992   2.157 -0.4768 -0.9048  0.0586
 4263TIP3    H212796   4.617   3.063   2.035  1.9434  0.6751  1.9600
 4264TIP3   OH212797   4.762   0.712   2.643  0.7537 -0.6789 -0.9997
 4264TIP3    H112798   4.734   0.738   2.555  0.7220  1.7084 -0.3608
 4264TIP3    H212799   4.685   0.673   2.683  0.6924 -1.5434 -1.9199
 4265TIP3   OH212800   2.932   0.649   1.738 -0.5417 -0.1044 -0.3973
 4265TIP3    H112801   2.965   0.576   1.790 -1.7808 -0.8472 -0.6017
 4265TIP3    H212802   2.841   0.626   1.719 -0.3033  0.4133 -2.4067
 4266TIP3   OH212803   0.794   3.128   4.318  0.5237  0.3666  0.1695
 4266TIP3    H112804   0.865   3.136   4.254 -0.5753 -0.6822 -1.2483
 4266TIP3    H212805   0.789   3.215   4.358  2.5685  0.4797  0.3087
 4267TIP3   OH212806   5.750   1.795   3.602  0.0249  0.2840 -0.1717
 4267TIP3    H112807   5.804   1.867   3.636  0.6982 -0.8702  1.3108
 4267TIP3    H212808   5.761   1.725   3.666 -1.8015 -0.6357 -0.8020
 4268TIP3   OH212809   5.796   4.337   3.925 -0.7649  1.0517 -0.5298
 4268TIP3    H112810   5.737   4.274   3.966 -2.4158  1.9088 -1.5080
 4268TIP3    H212811   5.790   4.415   3.981  1.5158  0.3566  0.8644
 4269TIP3   OH212812   4.104   3.775   1.573  0.3787  0.0611 -0.3625
 4269TIP3    H112813   4.122   3.710   1.641  1.4411 -0.9306 -1.5435
 4269TIP3    H212814   4.164   3.753   1.502  0.0715  1.7404 -1.2025
 4270TIP3   OH212815   0.115   5.014   0.343  0.0729 -0.0051 -0.2629
 4270TIP3    H112816   0.157   4.963   0.274  1.0481  1.0698 -0.5031
 4270TIP3    H212817   0.106   5.102   0.306 -0.5585  0.2764  0.5248
 4271TIP3   OH212818   1.863   3.665   4.945 -0.3235  0.1245  0.0493
 4271TIP3    H112819   1.943   3.691   4.989 -1.3321  0.8431  1.5615
 4271TIP3    H212820   1.848   3.733   4.878 -0.7716  1.2017  1.2089
 4272TIP3   OH212821   1.791   0.185   0.324 -0.6801 -0.1645 -0.4694
 4272TIP3    H112822   1.787   0.095   0.292  0.4537 -0.3877 -0.0201
 4272TIP3    H212823   1.699   0.210   0.338 -0.9601 -1.6798  0.6234
 4273TIP3   OH212824   0.352   3.795   1.021  0.1844 -0.0804  0.5681
 4273TIP3    H112825   0.339   3.845   1.101 -0.6687  1.0607 -0.2551
 4273TIP3    H212826   0.439   3.821   0.990  0.2354 -0.0189  0.7634
 4274TIP3   OH212827   4.234   1.486   1.869  0.7918  0.5018  0.0532
 4274TIP3    H112828   4.287   1.536   1.807 -0.8954  1.4184 -0.7217
 4274TIP3    H212829   4.154   1.467   1.821  0.0531 -0.0809  1.4757
 4275TIP3   OH212830   4.034   4.411   3.940 -0.2041 -0.6489  0.0738
 4275TIP3    H112831   4.084   4.467   3.881 -0.8422  1.3595  1.3325
 4275TIP3    H212832   3.942   4.429   3.918 -0.5086  0.9148  2.1953
 4276TIP3   OH212833   1.842   2.004   2.092  0.2226 -0.7289 -0.2336
 4276TIP3    H112834   1.816   2.040   2.177 -0.2175 -1.8978  0.1496
 4276TIP3    H212835   1.928   2.042   2.075 -0.7847  1.6077 -0.5455
 4277TIP3   OH212836   0.856   5.418   2.143  0.3512 -0.2822 -0.4557
 4277TIP3    H112837   0.855   5.327   2.116  0.9118 -0.2861 -0.4837
 4277TIP3    H212838   0.886   5.466   2.066  1.9491 -0.2934  0.1115
 4278TIP3   OH212839   1.658   0.623   4.957  0.1154 -0.0891  0.2917
 4278TIP3    H112840   1.598   0.617   5.031 -0.5126  1.2934 -0.0645
 4278TIP3    H212841   1.636   0.548   4.902  0.2995 -0.8906  1.2851
 4279TIP3   OH212842   0.103   4.041   4.670 -0.2664  0.2298 -0.4154
 4279TIP3    H112843   0.159   4.115   4.692 -0.6628 -0.0611  1.7205
 4279TIP3    H212844   0.109   4.035   4.574  0.5814  2.3537 -0.5532
 4280TIP3   OH212845   4.490   0.815   3.451  0.2177  0.2221  0.6272
 4280TIP3    H112846   4.506   0.862   3.533 -1.2731  0.5757  0.7472
 4280TIP3    H212847   4.470   0.883   3.387  1.0148 -0.0786  0.0486
 4281TIP3   OH212848   3.379   3.516   2.565 -0.4487 -0.7247  0.0648
 4281TIP3    H112849   3.362   3.453   2.636 -0.0854 -0.0507  0.7617
 4281TIP3    H212850   3.361   3.466   2.485 -1.6209 -1.2741  0.6392
 4282TIP3   OH212851   4.363   4.576   4.231  0.1507  0.0389 -0.1096
 4282TIP3    H112852   4.455   4.556   4.248  0.3275 -0.3472 -1.4786
 4282TIP3    H212853   4.359   4.598   4.138 -1.4739 -2.0364 -0.6116
 4283TIP3   OH212854   2.591   3.029   5.051  0.6954 -0.4752  0.1952
 4283TIP3    H112855   2.551   3.091   5.112 -1.5770 -1.5491 -0.0658
 4283TIP3    H212856   2.641   2.970   5.107 -0.0749 -0.5036  0.8800
 4284TIP3   OH212857   2.296   4.289   2.338 -0.4551 -0.6216  0.1035
 4284TIP3    H112858   2.383   4.296   2.379 -0.9031 -0.7531  1.1030
 4284TIP3    H212859   2.305   4.216   2.276  0.1454 -0.6367  0.1968
 4285TIP3   OH212860   2.277   3.726   3.426  0.3705  0.6556 -0.3097
 4285TIP3    H112861   2.196   3.766   3.458  0.0183  0.7176 -1.2584
 4285TIP3    H212862   2.337   3.800   3.414 -0.2456  0.9197 -1.9605
 4286TIP3   OH212863   1.066   1.291   4.609  0.4821 -0.5508 -0.2104
 4286TIP3    H112864   1.044   1.199   4.593 -0.1693 -0.5107  0.3652
 4286TIP3    H212865   1.100   1.323   4.526 -0.9238 -0.8577 -0.9349
 4287TIP3   OH212866   4.946   4.780   2.280  0.3325  0.2612 -0.1870
 4287TIP3    H112867   4.898   4.783   2.363  0.8019 -0.6991  0.1348
 4287TIP3    H212868   4.913   4.700   2.237  0.3901  0.5336 -0.7428
 4288TIP3   OH212869   4.978   2.320   4.676 -0.2658  0.1098  0.1043
 4288TIP3    H112870   4.907   2.277   4.627 -1.9756  1.3284  1.3968
 4288TIP3    H212871   4.936   2.354   4.754  1.8362  0.6836  1.0556
 4289TIP3   OH212872   1.395   1.099   1.549 -0.3690  0.1463  0.1038
 4289TIP3    H112873   1.459   1.158   1.509 -1.2016  1.1154  0.1647
 4289TIP3    H212874   1.447   1.044   1.607  0.6073 -0.0709 -0.9449
 4290TIP3   OH212875   3.992   3.978   3.989  0.0267 -0.0737  0.0338
 4290TIP3    H112876   3.971   4.054   4.044  0.9094  2.1833 -2.4765
 4290TIP3    H212877   4.086   3.986   3.972 -0.1139 -0.9750 -1.3088
 4291TIP3   OH212878   1.528   5.333   1.238 -0.3893  0.5758  0.1201
 4291TIP3    H112879   1.438   5.329   1.205 -0.4244  0.3475  0.2396
 4291TIP3    H212880   1.533   5.261   1.302 -0.2104  0.7746  0.3296
 4292TIP3   OH212881   4.909   2.370   3.534 -0.1060 -0.3903  0.1202
 4292TIP3    H112882   4.858   2.409   3.606 -0.9519 -1.4047  0.0971
 4292TIP3    H212883   4.997   2.360   3.569  0.5827  2.8775 -0.3482
 4293TIP3   OH212884   0.529   5.333   3.431  0.5177 -0.3049  0.2126
 4293TIP3    H112885   0.490   5.278   3.362  0.7295 -0.3551  0.1339
 4293TIP3    H212886   0.520   5.280   3.510 -3.4872  1.3403  1.0893
 4294TIP3   OH212887   3.716   0.510   0.717  0.5401  0.0726 -0.2053
 4294TIP3    H112888   3.751   0.538   0.802  0.5140 -0.7330  0.0838
 4294TIP3    H212889   3.621   0.515   0.727  0.5096 -1.1005  0.2059
 4295TIP3   OH212890   1.997   4.918   2.166 -0.4691  0.1801 -0.5129
 4295TIP3    H112891   2.048   4.993   2.137  0.7807  0.0511  1.1742
 4295TIP3    H212892   2.062   4.854   2.196 -1.5573 -0.2112  1.2002
 4296TIP3   OH212893   5.855   2.459   2.079  0.1567  0.5640 -0.2067
 4296TIP3    H112894   5.866   2.438   2.171 -0.2739  1.9208  0.1807
 4296TIP3    H212895   5.927   2.520   2.059  0.8630 -0.4975 -1.0578
 4297TIP3   OH212896   2.242   4.472   1.399 -0.9093 -0.8484 -0.3975
 4297TIP3    H112897   2.197   4.407   1.344 -1.6487  0.4548 -1.4022
 4297TIP3    H212898   2.190   4.475   1.480 -1.7160 -0.5149 -0.9092
 4298TIP3   OH212899   1.857   0.775   4.642  0.1996  0.1356 -0.0154
 4298TIP3    H112900   1.786   0.785   4.579  0.5922  0.8942 -0.3596
 4298TIP3    H212901   1.936   0.777   4.588  0.4649 -1.8110  0.2375
 4299TIP3   OH212902   0.736   2.942   2.153 -0.4386  0.5301 -0.3548
 4299TIP3    H112903   0.729   2.870   2.216 -2.1880  1.6991  0.8617
 4299TIP3    H212904   0.680   2.915   2.080 -1.0590  0.6250  0.0785
 4300TIP3   OH212905   1.229   4.788   0.687 -0.6555 -0.2810 -0.0471
 4300TIP3    H112906   1.230   4.714   0.626 -1.2074  0.6334 -1.2031
 4300TIP3    H212907   1.287   4.761   0.758  0.1943 -1.2887 -1.0824
 4301TIP3   OH212908   3.872   3.907   2.899 -0.7212 -0.1712  0.3065
 4301TIP3    H112909   3.948   3.854   2.876  0.5035  1.2289  0.9468
 4301TIP3    H212910   3.836   3.864   2.977  1.7464  1.2172  2.3624
 4302TIP3   OH212911   1.035   4.732   1.356 -0.4491 -0.6003  0.3173
 4302TIP3    H112912   0.989   4.766   1.279 -0.1795 -3.6838 -1.3918
 4302TIP3    H212913   1.005   4.641   1.363  1.4566 -1.1572  2.3248
 4303TIP3   OH212914   5.970   3.946   2.086  0.7034 -0.2510 -0.2742
 4303TIP3    H112915   5.900   3.917   2.028  1.6740 -2.2891 -0.5314
 4303TIP3    H212916   6.026   4.001   2.031  0.6261 -0.6613 -0.7715
 4304TIP3   OH212917   1.011   0.586   0.228  0.1586  0.2765  0.6501
 4304TIP3    H112918   1.010   0.527   0.303  1.0119  1.4412  1.6195
 4304TIP3    H212919   0.958   0.661   0.255  1.0637  1.0364  0.3946
 4305TIP3   OH212920   2.123   2.187   1.550  0.1268  0.1619  0.0182
 4305TIP3    H112921   2.078   2.217   1.629 -0.3554 -0.4050 -0.0395
 4305TIP3    H212922   2.214   2.214   1.563 -0.1359  0.9330  0.3264
 4306TIP3   OH212923   5.569   0.604   1.837  0.5798 -0.1027  0.5703
 4306TIP3    H112924   5.546   0.581   1.928 -2.4462 -1.1195 -0.3124
 4306TIP3    H212925   5.579   0.519   1.794  1.6145  0.3796 -0.1719
 4307TIP3   OH212926   0.469   3.577   3.492  0.4135 -0.5203 -0.4830
 4307TIP3    H112927   0.545   3.567   3.549  0.2095  0.9636  0.1205
 4307TIP3    H212928   0.450   3.671   3.495 -2.2999 -1.0110  0.5450
 4308TIP3   OH212929   0.409   4.857   4.828  0.3379 -0.2116 -0.1128
 4308TIP3    H112930   0.318   4.832   4.846 -0.0661  1.8487  1.0243
 4308TIP3    H212931   0.450   4.864   4.915  1.3251 -0.2099 -0.5658
 4309TIP3   OH212932   1.729   0.355   3.079 -0.0552 -0.2450 -0.7707
 4309TIP3    H112933   1.795   0.293   3.048  0.2378 -0.2099 -0.2311
 4309TIP3    H212934   1.646   0.311   3.061  0.1568 -1.0521  0.0805
 4310TIP3   OH212935   6.308   2.598   0.450 -0.4005  0.2011  0.0710
 4310TIP3    H112936   6.219   2.562   0.452 -0.9202  1.4056 -0.4744
 4310TIP3    H212937   6.301   2.675   0.394  0.6940  1.1017  1.1251
 4311TIP3   OH212938   1.036   4.107   1.209  0.7744  0.1775 -0.3764
 4311TIP3    H112939   0.993   4.070   1.286  0.1902  0.7632 -0.4114
 4311TIP3    H212940   1.122   4.134   1.239  0.2609  1.1367  0.2781
 4312TIP3   OH212941   1.289   5.500   1.488  0.0043 -0.0506 -0.7184
 4312TIP3    H112942   1.253   5.411   1.484 -0.9418  0.2111  1.1272
 4312TIP3    H212943   1.368   5.491   1.542 -0.5226  0.3442  0.1292
 4313TIP3   OH212944   2.702   4.570   4.078 -0.5961  0.7327 -0.0429
 4313TIP3    H112945   2.682   4.484   4.115 -0.5678  1.6834  2.3473
 4313TIP3    H212946   2.793   4.586   4.101 -0.3284  1.0684 -1.2376
 4314TIP3   OH212947   1.643   1.059   2.291 -0.0166 -0.0111  0.4254
 4314TIP3    H112948   1.595   1.059   2.374  0.2392 -0.8370  0.5775
 4314TIP3    H212949   1.670   0.969   2.279 -1.3895 -0.2379 -1.3515
 4315TIP3   OH212950   4.655   2.489   2.743 -0.2686  0.2309  0.0703
 4315TIP3    H112951   4.652   2.478   2.838 -2.1765 -2.0724 -0.1874
 4315TIP3    H212952   4.731   2.546   2.728  2.1296 -1.9685  2.7290
 4316TIP3   OH212953   4.021   5.046   0.862 -0.5317  0.7593 -0.3471
 4316TIP3    H112954   3.994   5.045   0.770  0.1486 -0.8273 -0.5541
 4316TIP3    H212955   4.070   4.965   0.874 -0.6789  0.8953  1.4524
 4317TIP3   OH212956   3.337   2.568   4.466  0.3184 -0.1146  0.7668
 4317TIP3    H112957   3.334   2.490   4.522  0.9151 -0.1871  0.7007
 4317TIP3    H212958   3.284   2.544   4.389  0.1152 -0.2832  0.9571
 4318TIP3   OH212959   3.287   1.780   0.144 -0.2923  1.1152  0.2355
 4318TIP3    H112960   3.307   1.691   0.118 -0.2968  1.5634 -1.3974
 4318TIP3    H212961   3.203   1.799   0.102 -0.2201  1.9355  0.4443
 4319TIP3   OH212962   2.811   5.224   3.872  0.6372  0.1520  0.3027
 4319TIP3    H112963   2.740   5.289   3.873  0.9485  0.5481 -1.1814
 4319TIP3    H212964   2.888   5.272   3.902  0.1663 -0.4815  2.7076
 4320TIP3   OH212965   0.983   2.793   3.775 -0.0841  0.4231  0.1984
 4320TIP3    H112966   0.899   2.766   3.737  0.0154 -0.9351  0.9031
 4320TIP3    H212967   0.998   2.880   3.738 -2.0033  0.8849  0.3800
 4321TIP3   OH212968   2.073   1.230   0.214  0.2641  0.1959  0.0677
 4321TIP3    H112969   2.099   1.322   0.208  1.5812 -0.1794 -0.1042
 4321TIP3    H212970   2.150   1.181   0.186 -0.9561 -0.9264 -1.4605
 4322TIP3   OH212971   1.329   5.472   5.069 -0.2013 -0.1830  0.2107
 4322TIP3    H112972   1.276   5.450   4.992 -0.9597 -0.5780  0.8266
 4322TIP3    H212973   1.364   5.559   5.050 -1.0217  0.0618 -0.2499
 4323TIP3   OH212974   5.313   0.472   1.648 -0.0216  0.2219  0.2534
 4323TIP3    H112975   5.250   0.456   1.578 -0.2987  0.1893  0.5083
 4323TIP3    H212976   5.272   0.540   1.702 -0.0125 -0.0808  0.6419
 4324TIP3   OH212977   4.558   5.009   1.542 -0.2462 -0.0032  0.0759
 4324TIP3    H112978   4.598   4.923   1.529 -1.7379 -0.5650 -1.0370
 4324TIP3    H212979   4.594   5.063   1.471  0.1057  0.0891  0.3200
 4325TIP3   OH212980   5.585   5.527   2.739  0.0768  0.0767 -0.5028
 4325TIP3    H112981   5.556   5.439   2.715  2.1676 -0.6031 -0.7251
 4325TIP3    H212982   5.680   5.520   2.746  0.1235  1.7159  1.9593
 4326TIP3   OH212983   0.347   2.984   5.068 -0.7373 -0.1437 -0.3954
 4326TIP3    H112984   0.395   2.907   5.099 -0.3586 -0.2037 -1.0995
 4326TIP3    H212985   0.277   2.947   5.014 -0.2122  0.0142 -1.2010
 4327TIP3   OH212986   3.513   1.365   1.055  0.0547  0.2452 -0.1418
 4327TIP3    H112987   3.495   1.383   1.148  1.4629  1.5432 -0.0695
 4327TIP3    H212988   3.510   1.451   1.014  1.5242 -0.0237 -0.8862
 4328TIP3   OH212989   1.434   5.721   0.581  0.3328  0.3540  0.6049
 4328TIP3    H112990   1.389   5.802   0.559  0.9315  0.8235  1.0723
 4328TIP3    H212991   1.527   5.741   0.569  0.4481 -0.5174 -0.1007
 4329TIP3   OH212992   2.161   1.567   3.381  0.2029 -0.0768 -0.3269
 4329TIP3    H112993   2.192   1.476   3.377  0.1857 -0.0927 -0.1291
 4329TIP3    H212994   2.111   1.578   3.301  0.9152  0.0272 -0.7588
 4330TIP3   OH212995   1.623   5.371   3.199 -0.1126 -0.2144 -0.1042
 4330TIP3    H112996   1.656   5.445   3.251 -2.1879 -0.2930  1.4608
 4330TIP3    H212997   1.697   5.311   3.192  0.5486  0.2847  1.9423
 4331TIP3   OH212998   1.211   2.999   2.545 -0.0446 -0.2449  0.1693
 4331TIP3    H112999   1.185   3.081   2.502 -0.1507  0.0470  0.7635
 4331TIP3    H213000   1.190   2.931   2.482 -0.9251  0.1086  0.0638
 4332TIP3   OH213001   0.641   0.553   4.432  0.1501 -0.8296  0.0783
 4332TIP3    H113002   0.575   0.590   4.373 -0.9395 -2.2591  0.3434
 4332TIP3    H213003   0.641   0.611   4.508 -0.9669 -0.9227  0.1608
 4333TIP3   OH213004   1.657   2.560   0.775  0.0896  0.3372 -0.1486
 4333TIP3    H113005   1.648   2.607   0.692  0.9382  0.7280 -0.0305
 4333TIP3    H213006   1.644   2.468   0.751  0.0618  0.4703 -0.6717
 4334TIP3   OH213007   5.944   1.553   1.641  0.1743  0.0012 -0.8338
 4334TIP3    H113008   5.895   1.476   1.667  0.9187 -0.1670  0.1354
 4334TIP3    H213009   6.026   1.518   1.606  0.6125  0.3382 -0.1747
 4335TIP3   OH213010   3.981   5.859   3.335 -0.0628 -0.1473 -0.3876
 4335TIP3    H113011   4.056   5.877   3.392 -0.8999  1.6896  0.2078
 4335TIP3    H213012   4.017   5.866   3.246  0.9751 -1.7790 -0.1427
 4336TIP3   OH213013   0.314   5.417   2.506 -0.1146 -0.3402  0.0664
 4336TIP3    H113014   0.265   5.480   2.454  1.7039  1.0997  0.0203
 4336TIP3    H213015   0.269   5.416   2.591 -2.2867 -1.7163 -1.0111
 4337TIP3   OH213016   5.670   1.934   4.778 -0.4015  0.7746  0.0799
 4337TIP3    H113017   5.606   1.989   4.733  0.1187  2.2508  1.0618
 4337TIP3    H213018   5.627   1.907   4.859 -1.4646 -2.1633 -1.3203
 4338TIP3   OH213019   1.622   5.165   3.968 -0.1504 -0.1350  0.1948
 4338TIP3    H113020   1.695   5.105   3.951  2.4430  1.8952  2.9919
 4338TIP3    H213021   1.609   5.161   4.063 -2.0837  1.3441  0.0463
 4339TIP3   OH213022   0.693   2.667   4.546  0.1101  0.1592  0.3135
 4339TIP3    H113023   0.698   2.692   4.454  1.7684 -0.4510  0.1953
 4339TIP3    H213024   0.695   2.749   4.594  1.8424  0.4310 -0.1531
 4340TIP3   OH213025   4.687   2.639   2.422 -0.0280 -0.6005  0.0786
 4340TIP3    H113026   4.710   2.731   2.409 -0.1392 -0.4963  0.6013
 4340TIP3    H213027   4.766   2.591   2.397 -0.5663 -0.4913 -2.0108
 4341TIP3   OH213028   1.065   3.550   0.186  0.1311  0.3092  0.3724
 4341TIP3    H113029   0.975   3.560   0.216  0.1992  2.0742  0.1174
 4341TIP3    H213030   1.116   3.610   0.240  1.1813 -0.7262  0.5697
 4342TIP3   OH213031   5.397   3.478   2.356  0.3870  0.8553 -0.4001
 4342TIP3    H113032   5.393   3.410   2.288 -4.1047 -0.1830  0.5586
 4342TIP3    H213033   5.333   3.543   2.327 -0.4060  1.2126  1.9621
 4343TIP3   OH213034   1.586   3.509   4.129  0.1275 -0.0344 -0.0741
 4343TIP3    H113035   1.631   3.425   4.120  0.5055  0.0943  0.5265
 4343TIP3    H213036   1.630   3.551   4.203 -0.8470  0.1788  0.3955
 4344TIP3   OH213037   2.863   1.055   2.097  0.0811 -0.1187 -0.0101
 4344TIP3    H113038   2.774   1.063   2.065 -0.1840 -0.1912  0.6781
 4344TIP3    H213039   2.894   0.972   2.061  0.5881  0.8438 -1.8861
 4345TIP3   OH213040   5.544   4.787   4.091 -0.2882  0.2779  0.1414
 4345TIP3    H113041   5.562   4.850   4.021 -1.5512  1.5875  0.9503
 4345TIP3    H213042   5.494   4.836   4.156 -2.5007 -1.9060  0.2192
 4346TIP3   OH213043   1.416   1.001   0.480  0.9387 -0.4687 -0.2088
 4346TIP3    H113044   1.356   0.941   0.436  1.0416  0.9434 -2.4180
 4346TIP3    H213045   1.371   1.026   0.560 -1.4187  0.4601 -1.7359
 4347TIP3   OH213046   2.008   2.203   4.553 -0.1077 -0.4433  0.3800
 4347TIP3    H113047   1.916   2.197   4.578 -0.4089 -0.9470 -0.7578
 4347TIP3    H213048   2.006   2.234   4.462  0.8098 -1.1950  0.0876
 4348TIP3   OH213049   1.881   5.510   0.737 -0.0170 -0.3341  0.4494
 4348TIP3    H113050   1.954   5.521   0.676  2.7433 -2.4905  3.0769
 4348TIP3    H213051   1.863   5.599   0.769  1.7181  0.2265 -0.0376
 4349TIP3   OH213052   4.296   5.955   0.527 -0.0805 -0.1532  0.0889
 4349TIP3    H113053   4.306   5.889   0.458 -0.1158 -0.0519 -0.0140
 4349TIP3    H213054   4.346   6.031   0.495  0.9103 -0.5178  0.7169
 4350TIP3   OH213055   4.807   1.257   0.129 -0.6266  0.3417  0.4982
 4350TIP3    H113056   4.750   1.212   0.192 -1.9439  1.7333  0.3500
 4350TIP3    H213057   4.753   1.267   0.051 -0.1357  1.5319  0.2857
 4351TIP3   OH213058   0.388   0.302   4.298 -0.2193  0.1065  0.4816
 4351TIP3    H113059   0.416   0.266   4.382 -0.5569  1.3316  1.1464
 4351TIP3    H213060   0.414   0.394   4.302  0.9524 -0.1081 -1.3215
 4352TIP3   OH213061   4.242   5.776   1.798  0.1056  0.0004  0.3017
 4352TIP3    H113062   4.306   5.706   1.814  0.4704  0.1741 -0.3860
 4352TIP3    H213063   4.194   5.748   1.721 -1.1560 -0.4740  1.2332
 4353TIP3   OH213064   2.133   0.690   3.829  0.4023  0.7159  0.5477
 4353TIP3    H113065   2.206   0.670   3.888  2.0051  2.2219 -0.8402
 4353TIP3    H213066   2.092   0.768   3.867 -0.2387  0.1530  1.0572
 4354TIP3   OH213067   6.203   5.013   3.071  0.1122 -0.1400  0.1335
 4354TIP3    H113068   6.112   5.040   3.058  0.6812  1.5866 -0.5705
 4354TIP3    H213069   6.231   5.061   3.149  0.3453 -0.9016  0.5287
 4355TIP3   OH213070   2.963   3.174   1.879 -0.0795 -0.2232 -0.2383
 4355TIP3    H113071   2.908   3.227   1.821  1.2559 -0.9978 -2.3338
 4355TIP3    H213072   2.984   3.096   1.828 -0.3526 -1.8906  2.0266
 4356TIP3   OH213073   5.122   0.329   1.909 -0.0427 -0.4090  0.3392
 4356TIP3    H113074   5.191   0.335   1.975  0.2349  0.1286  0.0092
 4356TIP3    H213075   5.084   0.242   1.921  1.2618 -1.0500 -0.0307
 4357TIP3   OH213076   5.156   5.448   1.360  0.1907  0.4488 -0.2123
 4357TIP3    H113077   5.113   5.496   1.288 -1.4697  1.1611  1.1632
 4357TIP3    H213078   5.088   5.442   1.427  1.8059  0.1705  1.4621
 4358TIP3   OH213079   0.903   1.801   4.414 -0.0857 -0.0514  0.1821
 4358TIP3    H113080   0.821   1.851   4.419 -0.5448 -0.8454  0.7091
 4358TIP3    H213081   0.962   1.845   4.476 -0.2874  0.2016  0.1931
 4359TIP3   OH213082   0.770   3.002   1.612  0.1532 -0.0040  0.1200
 4359TIP3    H113083   0.819   3.041   1.540  0.9116  0.1663  0.7145
 4359TIP3    H213084   0.695   3.060   1.624 -0.5742 -0.6149 -1.2163
 4360TIP3   OH213085   5.482   0.773   3.281 -0.1631 -0.0449  0.2940
 4360TIP3    H113086   5.415   0.778   3.349 -0.4436 -1.2142  0.1362
 4360TIP3    H213087   5.493   0.679   3.265  1.7855  0.0799  0.5747
 4361TIP3   OH213088   5.564   3.547   0.209 -0.2930  0.3955  0.2339
 4361TIP3    H113089   5.476   3.587   0.211 -0.2486  0.4797  1.3435
 4361TIP3    H213090   5.619   3.613   0.166 -0.3196  1.3594  1.6129
 4362TIP3   OH213091   4.756   3.547   4.267 -0.4804  0.1187 -0.0645
 4362TIP3    H113092   4.689   3.480   4.261 -1.0785  0.0069  4.5613
 4362TIP3    H213093   4.708   3.629   4.278  0.1006  0.3366  1.0306
 4363TIP3   OH213094   3.903   0.113   1.891 -0.0064 -0.3233 -0.5616
 4363TIP3    H113095   3.936   0.193   1.931 -0.0155 -0.8584  0.5759
 4363TIP3    H213096   3.890   0.135   1.799 -0.0044  0.9689 -0.2691
 4364TIP3   OH213097   1.895   0.773   2.761  0.0842  0.6469  0.2034
 4364TIP3    H113098   1.867   0.818   2.681 -0.0458  1.3410  0.6330
 4364TIP3    H213099   1.937   0.693   2.729  1.6383  1.7432 -0.6887
 4365TIP3   OH213100   5.175   1.127   4.551  0.3466 -0.1902  0.4721
 4365TIP3    H113101   5.196   1.217   4.573 -0.1074  0.1794 -0.5636
 4365TIP3    H213102   5.258   1.080   4.559  0.9338  0.6307 -0.5297
 4366TIP3   OH213103   3.805   5.162   0.029  0.0645  0.3721  0.0456
 4366TIP3    H113104   3.732   5.130   0.083  0.3526 -1.9794 -0.8211
 4366TIP3    H213105   3.882   5.156   0.086 -0.2307  2.0188  0.6785
 4367TIP3   OH213106   0.156   4.026   4.412 -0.0240  0.0550  0.1386
 4367TIP3    H113107   0.250   4.009   4.420 -0.0940 -1.0777 -1.2044
 4367TIP3    H213108   0.139   4.027   4.318 -1.4726 -0.4024  0.3670
 4368TIP3   OH213109   4.481   0.274   3.179  0.2377  0.1212  0.1637
 4368TIP3    H113110   4.424   0.222   3.236 -0.6025  0.2423 -0.5211
 4368TIP3    H213111   4.536   0.324   3.238  0.7287 -1.1770  0.8500
 4369TIP3   OH213112   6.262   1.725   3.369 -0.5229 -0.0220 -0.0881
 4369TIP3    H113113   6.172   1.732   3.400  0.0778  1.1324  1.5060
 4369TIP3    H213114   6.255   1.678   3.286 -2.9015  2.5040 -1.4975
 4370TIP3   OH213115   5.066   3.999   3.429  0.1010 -0.3110  0.0654
 4370TIP3    H113116   5.077   3.905   3.443  0.1518 -0.3421 -0.1856
 4370TIP3    H213117   5.126   4.020   3.357  0.4421  0.0004  0.4294
 4371TIP3   OH213118   6.195   5.158   3.351  0.4995  0.4751 -0.2016
 4371TIP3    H113119   6.199   5.226   3.419  0.6398  0.6163 -0.3488
 4371TIP3    H213120   6.266   5.098   3.374  0.0176  0.0651  0.2551
 4372TIP3   OH213121   4.302   3.717   1.026 -0.3419 -0.6322 -0.0594
 4372TIP3    H113122   4.313   3.706   1.120  0.9390 -0.0046 -0.1166
 4372TIP3    H213123   4.358   3.792   1.003  0.1350 -1.3688 -1.4540
 4373TIP3   OH213124   0.943   5.969   4.092 -0.0968  0.1492 -0.2916
 4373TIP3    H113125   1.009   6.010   4.037  1.7617 -0.6689  1.1980
 4373TIP3    H213126   0.953   5.875   4.075  0.8716 -0.1716  1.6821
 4374TIP3   OH213127   6.286   0.352   0.264  0.9223 -0.2415 -0.5688
 4374TIP3    H113128   6.240   0.316   0.340  1.8858  2.1801  1.3091
 4374TIP3    H213129   6.337   0.279   0.230 -1.1361 -1.9275 -0.2124
 4375TIP3   OH213130   2.882   1.830   3.983  0.0625 -0.4493  0.6122
 4375TIP3    H113131   2.858   1.830   4.076  0.0932 -1.2829  0.6291
 4375TIP3    H213132   2.964   1.781   3.980 -1.8357 -3.8684 -0.2805
 4376TIP3   OH213133   4.366   4.922   2.347 -0.1934 -0.0967 -0.3024
 4376TIP3    H113134   4.340   4.907   2.256 -0.4300  0.7133 -0.3838
 4376TIP3    H213135   4.381   4.835   2.383 -1.7382 -0.5384 -0.6435
 4377TIP3   OH213136   6.159   4.113   3.642  0.3667  0.4363  0.1050
 4377TIP3    H113137   6.078   4.162   3.655  0.8565  1.2136  0.2896
 4377TIP3    H213138   6.155   4.044   3.708 -0.2980  0.2596 -0.1107
 4378TIP3   OH213139   0.329   3.517   2.741  0.1686  0.2118 -0.0847
 4378TIP3    H113140   0.273   3.586   2.704 -1.6803 -0.3812  1.4401
 4378TIP3    H213141   0.356   3.552   2.826 -1.2475 -1.0908  0.9560
 4379TIP3   OH213142   2.316   1.224   4.326 -0.4807 -0.7665  0.0128
 4379TIP3    H113143   2.392   1.280   4.340 -0.3507 -0.4057 -1.8678
 4379TIP3    H213144   2.241   1.280   4.346 -0.2791 -0.8670  1.0654
 4380TIP3   OH213145   2.039   3.407   2.029 -0.3938  0.3621  0.0572
 4380TIP3    H113146   2.073   3.408   1.939 -0.1681  1.9377  0.1300
 4380TIP3    H213147   2.068   3.490   2.066 -1.1016  0.0485  1.3673
 4381TIP3   OH213148   1.996   4.316   3.218 -0.0561 -0.4228 -0.1063
 4381TIP3    H113149   2.034   4.398   3.187 -1.1732  1.8255  3.8173
 4381TIP3    H213150   1.915   4.307   3.167  0.6867  0.1930 -1.4534
 4382TIP3   OH213151   1.100   4.168   4.899 -0.1470 -0.5808  0.1910
 4382TIP3    H113152   1.098   4.213   4.983 -1.0940 -1.1165  0.4689
 4382TIP3    H213153   1.099   4.238   4.834 -1.1849 -0.1771  0.6196
 4383TIP3   OH213154   4.454   3.327   2.340  0.1090 -0.0464  0.1576
 4383TIP3    H113155   4.542   3.299   2.313  0.3167  2.0985 -1.7305
 4383TIP3    H213156   4.417   3.366   2.261 -2.0993  0.1822  1.2449
 4384TIP3   OH213157   3.510   0.210   1.392  0.6301 -0.7961  0.5428
 4384TIP3    H113158   3.505   0.149   1.466  2.9743 -0.6211  0.9252
 4384TIP3    H213159   3.604   0.221   1.376  0.2144  0.1193 -1.7033
 4385TIP3   OH213160   0.474   5.998   4.526  0.6538  0.2379 -0.4659
 4385TIP3    H113161   0.385   6.015   4.495  0.4422 -0.7162 -0.4097
 4385TIP3    H213162   0.465   5.921   4.582  1.3910  0.6242  0.1865
 4386TIP3   OH213163   1.795   0.613   3.560  0.0021  0.5602  0.0670
 4386TIP3    H113164   1.890   0.601   3.556  0.2375  1.9053  1.0040
 4386TIP3    H213165   1.762   0.569   3.481  1.4500  0.5581 -0.5624
 4387TIP3   OH213166   2.852   4.972   2.376  0.3772  0.3422 -0.4250
 4387TIP3    H113167   2.889   4.884   2.385  2.4097  1.1945  0.2801
 4387TIP3    H213168   2.906   5.014   2.310 -1.0769  0.8440 -1.3271
 4388TIP3   OH213169   4.664   2.138   3.343  0.5500  0.0264 -0.0644
 4388TIP3    H113170   4.717   2.133   3.263 -0.3904  1.7108 -0.8571
 4388TIP3    H213171   4.721   2.181   3.407  1.2028 -1.0570  0.1062
 4389TIP3   OH213172   0.210   2.527   1.747  0.1324 -0.5635  0.0509
 4389TIP3    H113173   0.124   2.569   1.749  0.8639  1.0072  1.6396
 4389TIP3    H213174   0.232   2.514   1.839  1.1724 -1.8885 -0.3602
 4390TIP3   OH213175   5.340   5.290   3.144  0.3126  0.0153 -0.0837
 4390TIP3    H113176   5.390   5.214   3.111  0.0218 -0.6855  1.0346
 4390TIP3    H213177   5.368   5.299   3.235  2.6840  3.2226 -0.9735
 4391TIP3   OH213178   0.266   5.088   2.813  0.2049  0.1689  0.2090
 4391TIP3    H113179   0.227   5.022   2.755 -0.8032 -1.9277  3.0094
 4391TIP3    H213180   0.357   5.061   2.821  0.2192  0.1558  0.0188
 4392TIP3   OH213181   2.311   0.039   2.728 -0.3101  0.1090  0.1725
 4392TIP3    H113182   2.386  -0.019   2.714  0.3478  1.2422 -1.3422
 4392TIP3    H213183   2.348   0.117   2.768 -0.7205  0.5297 -0.2545
 4393TIP3   OH213184   2.214   5.578   3.146  0.0006  0.1865 -0.3615
 4393TIP3    H113185   2.247   5.575   3.056  2.3725 -0.9083  0.4429
 4393TIP3    H213186   2.192   5.670   3.160  0.5598  0.5612 -1.7472
 4394TIP3   OH213187   4.551   4.108   4.450 -0.1926 -0.0088  0.0994
 4394TIP3    H113188   4.588   4.113   4.362  0.6072  0.6728  0.4661
 4394TIP3    H213189   4.624   4.080   4.505 -0.5116  0.2345  0.6500
 4395TIP3   OH213190   5.185   5.277   4.440 -0.0499  0.2218 -0.5961
 4395TIP3    H113191   5.150   5.197   4.401 -1.4036  0.0779  0.8362
 4395TIP3    H213192   5.280   5.264   4.438 -0.2396 -2.1856  1.0288
 4396TIP3   OH213193   3.491   5.801   3.715 -0.3570  0.0059 -0.0679
 4396TIP3    H113194   3.510   5.881   3.764  0.2683 -0.0418 -0.2178
 4396TIP3    H213195   3.484   5.733   3.782  0.8612 -0.1282 -0.0394
 4397TIP3   OH213196   1.557   2.587   0.326 -0.5210  0.9749  0.2914
 4397TIP3    H113197   1.559   2.679   0.352  2.8174  1.7862 -2.0612
 4397TIP3    H213198   1.649   2.565   0.308 -1.1256 -2.9750  1.0667
 4398TIP3   OH213199   4.256   1.728   1.045 -0.1688 -0.0168  0.0001
 4398TIP3    H113200   4.206   1.745   1.124 -0.4222 -0.1195 -0.1358
 4398TIP3    H213201   4.325   1.794   1.045  0.4505 -0.6418  0.8306
 4399TIP3   OH213202   2.484   5.334   2.630  0.0092  0.2697  0.1411
 4399TIP3    H113203   2.485   5.286   2.547  2.5653 -0.7040  0.6216
 4399TIP3    H213204   2.549   5.403   2.619  0.5686 -0.0243  1.3642
 4400TIP3   OH213205   6.030   4.002   2.879  0.5478 -0.1363 -0.0640
 4400TIP3    H113206   6.026   3.913   2.844  1.0641 -0.6393  1.1079
 4400TIP3    H213207   6.103   4.043   2.832  0.7544 -0.5540 -0.1103
 4401TIP3   OH213208   3.009   2.996   2.112  0.1615 -0.0234 -0.9536
 4401TIP3    H113209   3.090   3.045   2.124  1.0188 -1.1995 -1.7289
 4401TIP3    H213210   2.956   3.051   2.054 -0.0663  1.2387  0.3843
 4402TIP3   OH213211   2.250   5.554   3.750 -0.1927  0.3990  0.3006
 4402TIP3    H113212   2.334   5.558   3.796 -0.5038  1.0508  0.8325
 4402TIP3    H213213   2.187   5.532   3.818 -0.5793  0.8341  0.0855
 4403TIP3   OH213214   1.022   1.323   0.664  0.5332  0.5104 -0.3262
 4403TIP3    H113215   0.967   1.275   0.602 -0.5058  0.0215  0.9283
 4403TIP3    H213216   0.999   1.287   0.749  1.8243  1.2668  0.3716
 4404TIP3   OH213217   6.040   4.047   3.191  0.4044 -0.0663  0.0311
 4404TIP3    H113218   6.079   3.999   3.118  0.0862 -0.1582 -0.0761
 4404TIP3    H213219   6.015   4.132   3.153 -0.4518 -0.3912 -0.1522
 4405TIP3   OH213220   2.990   5.477   4.303  0.3007  0.4494 -0.1812
 4405TIP3    H113221   3.057   5.410   4.319  0.1278  0.4029  0.3746
 4405TIP3    H213222   2.909   5.438   4.337  0.5442  1.7047  2.0186
 4406TIP3   OH213223   5.529   0.077   4.131  0.3313  0.3675 -0.3695
 4406TIP3    H113224   5.609   0.122   4.160  0.9907 -0.6823 -0.5216
 4406TIP3    H213225   5.516   0.108   4.041 -1.2527  2.9817  0.6230
 4407TIP3   OH213226   5.591   3.044   3.495  0.0092  0.1760 -0.0432
 4407TIP3    H113227   5.659   3.054   3.561  0.3037  2.7454 -0.6209
 4407TIP3    H213228   5.636   3.008   3.419  0.0137 -1.1345  0.5438
 4408TIP3   OH213229   6.078   0.186   4.338  0.0097 -0.7257 -0.0817
 4408TIP3    H113230   6.029   0.268   4.335  1.1930 -0.0054 -0.7502
 4408TIP3    H213231   6.161   0.207   4.294  0.3148 -2.2937 -0.2927
 4409TIP3   OH213232   2.713   3.311   4.779 -0.2613  0.4755  0.4702
 4409TIP3    H113233   2.781   3.277   4.721 -0.5130  1.9101 -0.7149
 4409TIP3    H213234   2.648   3.241   4.783 -0.5482  0.5794 -1.5269
 4410TIP3   OH213235   1.216   1.863   3.907  0.1452 -0.2728 -0.3907
 4410TIP3    H113236   1.228   1.873   4.001  0.2267 -2.3675 -0.1289
 4410TIP3    H213237   1.125   1.832   3.898 -0.7248  2.2564 -1.2469
 4411TIP3   OH213238   3.603   0.030   5.018 -0.3297  0.2386  0.4094
 4411TIP3    H113239   3.535   0.095   5.031  0.5506  1.0376  1.1710
 4411TIP3    H213240   3.559  -0.043   4.973 -1.9322  0.2436  1.8801
 4412TIP3   OH213241   2.207   5.815   0.947  0.0427  0.0526 -0.2567
 4412TIP3    H113242   2.205   5.739   0.889 -0.0561  0.7013 -1.1193
 4412TIP3    H213243   2.300   5.838   0.952  0.1503 -0.5300  0.5545
 4413TIP3   OH213244   5.224   4.766   3.727  0.0407 -0.7662  0.5934
 4413TIP3    H113245   5.217   4.717   3.809 -0.0927 -1.1344  0.3667
 4413TIP3    H213246   5.233   4.698   3.660 -1.4376 -0.5226  0.1334
 4414TIP3   OH213247   5.069   2.675   1.045  0.2867 -0.0023 -0.0295
 4414TIP3    H113248   5.132   2.745   1.026 -0.4833  0.2619 -1.7035
 4414TIP3    H213249   5.083   2.611   0.976  0.2949 -1.0717  0.9330
 4415TIP3   OH213250   1.301   1.275   0.839 -0.1234  0.1787 -0.5209
 4415TIP3    H113251   1.297   1.361   0.798 -0.3940 -0.7027 -2.4369
 4415TIP3    H213252   1.374   1.231   0.795  1.4676  0.1374  1.9635
 4416TIP3   OH213253   0.159   2.656   3.823 -0.3502 -0.3985 -0.3460
 4416TIP3    H113254   0.082   2.600   3.829 -1.2151  0.8508  0.7026
 4416TIP3    H213255   0.125   2.743   3.803  0.8279  0.0989 -0.3060
 4417TIP3   OH213256   2.540   1.338   4.832  0.3157  0.0778  0.0404
 4417TIP3    H113257   2.507   1.250   4.815 -1.6938  0.9069 -0.5761
 4417TIP3    H213258   2.467   1.385   4.871  0.9160  1.8554 -0.8548
 4418TIP3   OH213259   5.330   2.355   1.494  0.6711  0.1949 -0.2037
 4418TIP3    H113260   5.352   2.311   1.412 -0.7386 -0.5718 -0.2132
 4418TIP3    H213261   5.235   2.367   1.490  0.9192  2.8038  0.0533
 4419TIP3   OH213262   3.732   2.625   1.851 -0.1132 -0.7654 -0.0105
 4419TIP3    H113263   3.652   2.657   1.809  0.1284 -1.7424 -1.2652
 4419TIP3    H213264   3.701   2.562   1.916 -0.3795 -0.9174 -0.2817
 4420TIP3   OH213265   3.681   2.518   0.263 -1.0505  0.3602 -0.0092
 4420TIP3    H113266   3.765   2.539   0.304 -0.4257 -0.9486 -0.5324
 4420TIP3    H213267   3.654   2.436   0.304 -2.7253  1.3819  1.0369
 4421TIP3   OH213268   3.265   5.133   4.945  0.4759  0.2362  0.0533
 4421TIP3    H113269   3.316   5.201   4.902  0.3475  1.3644  1.6271
 4421TIP3    H213270   3.193   5.179   4.987 -0.2520 -1.0101  0.2287
 4422TIP3   OH213271   0.909   4.507   0.539  0.5638  0.1025  0.5378
 4422TIP3    H113272   0.895   4.431   0.594 -1.3690  0.7554  1.0249
 4422TIP3    H213273   0.904   4.582   0.599 -1.2760  0.8095 -0.4028
 4423TIP3   OH213274   0.732   4.438   1.641 -0.7715  0.2263 -0.1536
 4423TIP3    H113275   0.810   4.384   1.625 -1.2766 -0.3871 -0.6068
 4423TIP3    H213276   0.660   4.375   1.643 -1.5191  0.9886 -1.7682
 4424TIP3   OH213277   5.367   3.433   4.125 -1.2561 -0.1375 -0.3729
 4424TIP3    H113278   5.339   3.521   4.148  1.1563  1.2784 -2.2528
 4424TIP3    H213279   5.372   3.386   4.208  2.0344  3.0467  1.5285
 4425TIP3   OH213280   4.908   4.460   1.208 -0.0340  0.1542  0.4361
 4425TIP3    H113281   4.861   4.391   1.161  0.9074  0.4269 -0.9827
 4425TIP3    H213282   4.873   4.541   1.171  1.2447  0.3637 -0.3974
 4426TIP3   OH213283   0.258   3.257   2.561 -0.5218  0.4875  0.1671
 4426TIP3    H113284   0.237   3.346   2.534  0.5837  0.9396  0.7450
 4426TIP3    H213285   0.277   3.264   2.655 -1.4793 -0.5491  0.4618
 4427TIP3   OH213286   5.126   4.102   1.186 -0.3660 -0.2612 -0.4550
 4427TIP3    H113287   5.184   4.075   1.257 -0.3296 -0.4282 -0.5459
 4427TIP3    H213288   5.183   4.149   1.125 -0.7252  1.4510  0.4629
 4428TIP3   OH213289   2.041   0.248   2.158  0.3565 -0.0399 -0.5445
 4428TIP3    H113290   1.982   0.173   2.152  0.9419 -0.4808 -0.9898
 4428TIP3    H213291   2.091   0.246   2.076 -0.1485  1.3065 -0.9211
 4429TIP3   OH213292   4.095   0.577   5.073  0.4166  0.4710 -0.3189
 4429TIP3    H113293   4.184   0.586   5.039  0.0900 -0.1854 -1.3969
 4429TIP3    H213294   4.050   0.656   5.044 -0.1366 -0.5457 -2.3598
 4430TIP3   OH213295   1.881   3.359   1.749 -0.1131  0.3263 -0.0376
 4430TIP3    H113296   1.963   3.408   1.743  1.6969 -2.5059 -0.6760
 4430TIP3    H213297   1.879   3.328   1.840 -0.1241 -0.1268 -0.1891
 4431TIP3   OH213298   6.325   5.540   1.707 -0.1919 -0.3231 -0.5278
 4431TIP3    H113299   6.376   5.576   1.635  0.9895  1.6166  1.1469
 4431TIP3    H213300   6.265   5.610   1.731 -0.9104 -1.1174  0.0649
 4432TIP3   OH213301   0.223   1.888   5.114  0.1656  0.1301  0.2708
 4432TIP3    H113302   0.143   1.867   5.066  0.2853  1.8128 -0.7589
 4432TIP3    H213303   0.283   1.817   5.092 -0.3896 -0.0851 -0.6014
 4433TIP3   OH213304   0.091   2.652   3.269  0.6643 -0.0678  0.4677
 4433TIP3    H113305   0.094   2.559   3.249  1.1304 -0.4786  2.2925
 4433TIP3    H213306   0.142   2.693   3.200  0.6846 -1.1834 -0.2013
 4434TIP3   OH213307   3.599   5.354   3.061 -0.2580  0.1558 -0.6604
 4434TIP3    H113308   3.603   5.411   3.137 -0.8875 -0.4265 -0.1777
 4434TIP3    H213309   3.510   5.365   3.027 -1.3921 -2.5472  1.0739
 4435TIP3   OH213310   3.403   1.955   1.536 -0.1190  0.1638  0.0702
 4435TIP3    H113311   3.365   2.003   1.610  0.7123  1.1783 -0.1437
 4435TIP3    H213312   3.344   1.972   1.463 -1.1608 -1.1656  0.5789
 4436TIP3   OH213313   3.535   2.772   3.896 -0.4890  0.2875 -0.5483
 4436TIP3    H113314   3.614   2.788   3.844 -0.1175  0.1715 -0.0277
 4436TIP3    H213315   3.503   2.859   3.918 -0.6071  0.3369 -0.9083
 4437TIP3   OH213316   0.804   4.122   4.209 -0.3507  0.2228 -0.8495
 4437TIP3    H113317   0.875   4.057   4.206  0.9095  1.4615  0.5044
 4437TIP3    H213318   0.780   4.127   4.301  0.5357  2.6283 -0.6883
 4438TIP3   OH213319   4.503   4.439   3.334 -0.5876 -0.1797  0.0562
 4438TIP3    H113320   4.598   4.439   3.349 -0.7991  1.5259  1.9119
 4438TIP3    H213321   4.487   4.517   3.281 -1.0375  0.2720  0.8271
 4439TIP3   OH213322   4.452   3.103   2.977 -0.5856  0.4294  0.3126
 4439TIP3    H113323   4.487   3.136   2.894  0.6295 -0.3234  0.5051
 4439TIP3    H213324   4.476   3.171   3.040  1.1392 -0.3471  0.5522
 4440TIP3   OH213325   6.134   3.879   2.535 -0.2207  0.1125  0.3040
 4440TIP3    H113326   6.066   3.839   2.589 -1.8838  0.5319 -1.3892
 4440TIP3    H213327   6.173   3.946   2.591 -0.1306 -1.1439  1.8176
 4441TIP3   OH213328   2.295   4.863   3.159 -0.3469  0.6384 -0.0464
 4441TIP3    H113329   2.321   4.935   3.217  1.1003  0.5914 -0.5892
 4441TIP3    H213330   2.377   4.824   3.131 -1.1083 -1.0356 -0.0317
 4442TIP3   OH213331   5.925   5.060   3.308 -0.2170  0.2651  0.0280
 4442TIP3    H113332   5.925   4.966   3.289 -0.9373  0.4030 -0.7097
 4442TIP3    H213333   6.014   5.078   3.339  0.4459 -0.3636 -1.3841
 4443TIP3   OH213334   0.454   1.208   4.446 -0.3781 -0.2815  0.3572
 4443TIP3    H113335   0.402   1.153   4.504  0.7915 -2.8491 -0.8860
 4443TIP3    H213336   0.537   1.161   4.435  1.1821  2.2895  0.0607
 4444TIP3   OH213337   2.736   3.908   4.065 -0.1284 -0.4926  0.3868
 4444TIP3    H113338   2.761   3.993   4.028  1.5972  0.0237  2.4827
 4444TIP3    H213339   2.781   3.844   4.011 -2.1079 -0.1941 -1.7319
 4445TIP3   OH213340   4.529   0.666   2.895 -0.0626 -0.1856 -0.7605
 4445TIP3    H113341   4.597   0.662   2.962  0.0026  1.0987 -0.7239
 4445TIP3    H213342   4.463   0.602   2.923  0.1521  0.0458  0.3143
 4446TIP3   OH213343   5.062   4.362   2.673  0.1839  0.4448 -0.2250
 4446TIP3    H113344   5.031   4.286   2.623 -0.4196  0.7867 -0.3819
 4446TIP3    H213345   5.022   4.437   2.629 -0.0018  0.7828  0.5116
 4447TIP3   OH213346   2.859   1.436   3.725 -0.5664 -0.0940 -1.2807
 4447TIP3    H113347   2.851   1.415   3.818 -2.3054  1.1649 -1.1009
 4447TIP3    H213348   2.874   1.352   3.683  1.0198 -0.6143  0.1688
 4448TIP3   OH213349   1.022   2.247   4.962 -0.2855 -0.2194 -0.2101
 4448TIP3    H113350   1.065   2.333   4.968 -0.2387 -0.3124  0.9317
 4448TIP3    H213351   1.048   2.214   4.876 -0.6972  1.1150 -0.8905
 4449TIP3   OH213352   4.072   4.877   2.143 -0.4456  0.4274 -0.3811
 4449TIP3    H113353   3.992   4.898   2.096 -1.1232 -0.3048  0.4139
 4449TIP3    H213354   4.142   4.891   2.079 -1.2808  0.0685 -1.4023
 4450TIP3   OH213355   0.923   5.196   5.056  0.4049  0.6420 -0.4069
 4450TIP3    H113356   0.995   5.244   5.098  0.4351  1.4480 -1.3606
 4450TIP3    H213357   0.952   5.184   4.965  0.3859 -1.1816 -0.2131
 4451TIP3   OH213358   0.245   3.594   2.364  0.2348 -0.0500  0.1350
 4451TIP3    H113359   0.227   3.597   2.458  1.0905 -1.2734  0.3566
 4451TIP3    H213360   0.317   3.532   2.355 -0.7905 -1.0810 -1.4804
 4452TIP3   OH213361   4.216   5.532   3.037 -0.9642 -0.3371 -0.1292
 4452TIP3    H113362   4.276   5.542   2.963 -0.6862 -3.1628 -0.3914
 4452TIP3    H213363   4.135   5.574   3.009  0.2618  1.9557 -0.4784
 4453TIP3   OH213364   5.682   0.590   3.053  0.3886 -0.2898 -0.5960
 4453TIP3    H113365   5.768   0.556   3.076 -0.1913  0.2667  2.8329
 4453TIP3    H213366   5.679   0.678   3.090 -0.5568  1.0208 -3.4773
 4454TIP3   OH213367   2.030   3.362   2.423 -0.0421 -0.4181 -0.5384
 4454TIP3    H113368   2.011   3.439   2.370  1.9970 -0.2254 -1.0837
 4454TIP3    H213369   1.957   3.355   2.483 -1.1105  0.9268 -1.6201
 4455TIP3   OH213370   5.518   0.671   0.727 -0.5118  0.0208  0.4163
 4455TIP3    H113371   5.436   0.626   0.706 -0.4019 -0.1962  0.4507
 4455TIP3    H213372   5.507   0.700   0.817 -0.8085  0.5650  0.2115
 4456TIP3   OH213373   5.822   4.859   2.355 -0.7222 -0.2465  0.1855
 4456TIP3    H113374   5.903   4.902   2.383 -0.8065 -0.4830  0.8195
 4456TIP3    H213375   5.846   4.767   2.344 -0.8730 -0.2960  0.2582
 4457TIP3   OH213376   0.900   2.441   4.457  0.1774  0.2702  0.0932
 4457TIP3    H113377   0.841   2.434   4.533  0.2401 -0.7902  0.0649
 4457TIP3    H213378   0.885   2.529   4.423 -2.6456 -0.4868 -0.8899
 4458TIP3   OH213379   4.830   2.196   0.397 -0.7295 -0.1952  0.4632
 4458TIP3    H113380   4.811   2.238   0.313  1.0223  0.5965  0.4144
 4458TIP3    H213381   4.862   2.109   0.373 -0.2589  0.0192  0.3146
 4459TIP3   OH213382   3.183   4.270   2.287 -0.0788 -0.2811 -0.1125
 4459TIP3    H113383   3.265   4.311   2.259  0.2638 -0.8766  0.0041
 4459TIP3    H213384   3.115   4.319   2.241  0.4512 -1.1745 -1.9465
 4460TIP3   OH213385   6.333   4.717   0.519 -0.2220  0.2577  0.2810
 4460TIP3    H113386   6.312   4.684   0.606 -0.7609  0.2377  0.1444
 4460TIP3    H213387   6.252   4.708   0.469 -0.1980  1.1704  0.0553
 4461TIP3   OH213388   1.999   0.704   1.549 -0.3152  0.8075  0.2590
 4461TIP3    H113389   1.944   0.626   1.554 -0.0193  0.6138  0.5798
 4461TIP3    H213390   2.086   0.673   1.577 -0.1903  1.2443  0.3576
 4462TIP3   OH213391   6.159   1.712   1.311 -0.3759  0.5697  0.2108
 4462TIP3    H113392   6.207   1.643   1.264 -2.1789  0.0541 -0.9564
 4462TIP3    H213393   6.124   1.668   1.388  0.9422  0.9368  1.0431
 4463TIP3   OH213394   4.018   1.967   0.399 -0.3824  0.0052  0.0138
 4463TIP3    H113395   3.938   1.921   0.375 -0.5964 -0.1732  1.0262
 4463TIP3    H213396   4.029   2.033   0.331 -0.2323 -1.3220 -1.2965
 4464TIP3   OH213397   5.976   3.232   4.153 -0.6554 -0.1732  0.0765
 4464TIP3    H113398   6.046   3.297   4.151 -0.4369 -0.3358  1.2572
 4464TIP3    H213399   5.980   3.196   4.242 -2.4574  0.0546  0.2877
 4465TIP3   OH213400   5.606   5.566   5.060  0.2282  0.0680  1.1588
 4465TIP3    H113401   5.520   5.554   5.100 -0.0006  0.1229  0.6968
 4465TIP3    H213402   5.590   5.628   4.989  0.7971  0.6939  1.5618
 4466TIP3   OH213403   0.082   3.758   4.739 -0.2497  0.7394  0.1748
 4466TIP3    H113404   0.116   3.847   4.730  1.3872  0.2974  1.5762
 4466TIP3    H213405   0.124   3.708   4.669  0.0394  0.7386  0.3490
 4467TIP3   OH213406   3.278   0.761   5.099  0.1963  0.4156  0.2685
 4467TIP3    H113407   3.370   0.746   5.121  0.3480  1.9169  0.7395
 4467TIP3    H213408   3.279   0.782   5.005  0.3033  0.1996  0.2211
 4468TIP3   OH213409   1.398   4.493   1.139  0.1291  0.4856  0.0472
 4468TIP3    H113410   1.485   4.456   1.124  0.5506  1.5712 -0.2994
 4468TIP3    H213411   1.412   4.564   1.202 -0.8197 -0.5563  1.4860
 4469TIP3   OH213412   3.580   2.248   1.058  0.0932  0.2479 -0.0097
 4469TIP3    H113413   3.614   2.195   1.130 -2.3426 -1.0730  0.2436
 4469TIP3    H213414   3.631   2.220   0.982  0.4771 -0.6962  0.5780
 4470TIP3   OH213415   4.653   5.577   0.014 -0.5412 -0.7814  0.0575
 4470TIP3    H113416   4.719   5.644   0.033  0.2730 -1.2529 -1.0085
 4470TIP3    H213417   4.586   5.624  -0.036 -0.2868 -0.6252 -0.1368
 4471TIP3   OH213418   4.069   2.597   4.030  0.1534  0.3604  0.9766
 4471TIP3    H113419   4.057   2.639   3.945 -2.1006  0.5069  1.3125
 4471TIP3    H213420   4.164   2.595   4.043  0.5735  0.1182 -1.6327
 4472TIP3   OH213421   1.354   4.308   2.455  0.1874  0.5510 -0.1447
 4472TIP3    H113422   1.351   4.333   2.363  0.1674  2.7061  0.3740
 4472TIP3    H213423   1.409   4.230   2.457 -1.6955 -0.9531 -2.2140
 4473TIP3   OH213424   5.909   4.053   0.622 -0.0410 -0.3599 -0.6682
 4473TIP3    H113425   5.980   4.020   0.568 -0.4200 -1.2324 -0.6395
 4473TIP3    H213426   5.944   4.135   0.659  1.0407 -0.8938 -0.4503
 4474TIP3   OH213427   0.319   1.551   3.495  0.0987  0.3695 -0.9882
 4474TIP3    H113428   0.315   1.471   3.442 -0.5078  0.7896 -1.5876
 4474TIP3    H213429   0.270   1.616   3.445  0.4469  1.0800 -0.4282
 4475TIP3   OH213430   2.790   4.535   3.207 -0.3844  0.3566  0.4032
 4475TIP3    H113431   2.703   4.501   3.229 -0.4187 -0.1006 -0.4309
 4475TIP3    H213432   2.798   4.615   3.260 -0.8580 -0.1922  1.3334
 4476TIP3   OH213433   0.068   4.675   2.743 -0.3407  0.2742  0.1991
 4476TIP3    H113434  -0.013   4.632   2.769 -0.2777 -0.3024 -0.5484
 4476TIP3    H213435   0.041   4.763   2.715 -0.5879  0.3896  0.7949
 4477TIP3   OH213436   6.119   4.236   4.264  0.2114  0.0680  0.2317
 4477TIP3    H113437   6.162   4.313   4.227  0.3179 -0.1912 -0.1915
 4477TIP3    H213438   6.178   4.164   4.243 -0.9768 -0.4798 -1.3815
 4478TIP3   OH213439   6.148   4.251   1.918  0.5938 -0.1728  0.3051
 4478TIP3    H113440   6.096   4.314   1.967  1.0083  1.7758 -1.5986
 4478TIP3    H213441   6.237   4.262   1.951  0.5970 -0.0852  0.2665
 4479TIP3   OH213442   5.711   1.700   4.557 -0.2437 -0.0556 -0.2495
 4479TIP3    H113443   5.786   1.760   4.556 -1.4903  1.5725 -1.8006
 4479TIP3    H213444   5.660   1.726   4.634  0.4202 -0.7595  0.4520
 4480TIP3   OH213445   6.294   1.805   4.310  0.3178 -0.5733 -0.1152
 4480TIP3    H113446   6.280   1.731   4.370  0.7300  0.4130  1.2501
 4480TIP3    H213447   6.344   1.768   4.238 -0.4147 -1.8630 -0.0094
 4481TIP3   OH213448   1.716   1.459   1.377  0.4905  0.4257  0.4229
 4481TIP3    H113449   1.659   1.534   1.394 -1.1188 -0.8589  0.9885
 4481TIP3    H213450   1.787   1.468   1.441  0.0870  1.2178  0.7763
 4482TIP3   OH213451   2.278   1.736   3.818  0.6017 -0.1781 -0.2839
 4482TIP3    H113452   2.356   1.780   3.852 -0.5442  0.6873  1.3839
 4482TIP3    H213453   2.255   1.673   3.887 -0.3791 -0.1419 -0.5722
 4483TIP3   OH213454   1.471   0.432   4.421  0.5693 -0.0060 -0.1271
 4483TIP3    H113455   1.542   0.383   4.378  0.3165  0.8640 -1.6192
 4483TIP3    H213456   1.440   0.493   4.354 -2.0739 -0.8157  0.2459
 4484TIP3   OH213457   4.244   5.370   4.494  0.2430  0.1660  0.2290
 4484TIP3    H113458   4.278   5.445   4.446  0.6072  0.1565  0.4659
 4484TIP3    H213459   4.301   5.297   4.469  1.3289  0.4546  1.7406
 4485TIP3   OH213460   1.058   2.013   3.233  0.1869  0.5865  0.2574
 4485TIP3    H113461   0.994   2.042   3.299  0.1094  0.3549  0.2832
 4485TIP3    H213462   1.143   2.038   3.269  0.0626  1.7172 -0.1839
 4486TIP3   OH213463   2.478   1.038   4.807 -0.3567 -0.1918 -0.1545
 4486TIP3    H113464   2.450   0.946   4.808 -0.0618 -0.3057  2.3096
 4486TIP3    H213465   2.440   1.075   4.886  0.1633  1.6382 -0.7279
 4487TIP3   OH213466   2.032   2.575   1.164  0.1890  0.1329 -0.1143
 4487TIP3    H113467   2.035   2.479   1.170 -3.0105 -0.1224 -0.7251
 4487TIP3    H213468   2.050   2.594   1.072 -1.0419 -0.0800 -0.4179
 4488TIP3   OH213469   6.054   5.399   5.043  0.3975 -0.3997  0.1740
 4488TIP3    H113470   5.966   5.375   5.072  0.7139 -1.4177  0.3418
 4488TIP3    H213471   6.043   5.483   4.999 -0.7027 -0.6293 -0.0258
 4489TIP3   OH213472   0.293   4.928   4.334  0.0926  0.5351 -0.2060
 4489TIP3    H113473   0.348   4.855   4.362  0.0868  0.3897 -0.5571
 4489TIP3    H213474   0.296   4.990   4.406  0.2206  0.2537  0.0344
 4490TIP3   OH213475   4.649   3.035   3.285  0.2229 -0.2324  0.3509
 4490TIP3    H113476   4.701   2.993   3.217 -2.0571  0.1664 -1.7898
 4490TIP3    H213477   4.599   2.964   3.324  0.4814 -0.2593  0.6380
 4491TIP3   OH213478   4.619   5.914   1.497 -0.0258  0.7250  0.4348
 4491TIP3    H113479   4.712   5.914   1.523  0.5782  0.4673 -1.5788
 4491TIP3    H213480   4.620   5.890   1.405 -2.0191  1.9410  0.0380
 4492TIP3   OH213481   1.671   3.407   1.280 -0.0896  1.0531  0.5340
 4492TIP3    H113482   1.615   3.330   1.268  0.6991  0.3886  0.9955
 4492TIP3    H213483   1.653   3.461   1.204 -0.1651  0.0858 -0.1636
 4493TIP3   OH213484   5.307   0.307   2.092  0.1419  0.1449 -0.1511
 4493TIP3    H113485   5.335   0.398   2.085  1.9076 -0.4306 -0.9955
 4493TIP3    H213486   5.385   0.256   2.072 -1.1498 -1.5678 -1.0765
 4494TIP3   OH213487   1.830   1.982   4.277 -0.4829 -0.0420 -0.4025
 4494TIP3    H113488   1.770   2.056   4.278 -0.0832  0.2860  0.5974
 4494TIP3    H213489   1.775   1.907   4.302 -0.7691 -0.0045 -0.8939
 4495TIP3   OH213490   4.655   4.256   2.379 -0.5567 -0.6077  0.0457
 4495TIP3    H113491   4.644   4.253   2.284  0.3141  1.9888 -0.2326
 4495TIP3    H213492   4.567   4.274   2.413 -0.3165  2.6800 -0.7105
 4496TIP3   OH213493   0.077   5.637   4.582 -1.0324  0.1744 -0.0271
 4496TIP3    H113494   0.001   5.666   4.633 -0.5059 -0.7914  1.3546
 4496TIP3    H213495   0.085   5.544   4.602  1.0636  0.4407  0.6169
 4497TIP3   OH213496   2.552   2.291   3.467  0.3518 -0.6689  0.1364
 4497TIP3    H113497   2.507   2.336   3.539  0.9088  0.2589 -0.0870
 4497TIP3    H213498   2.528   2.199   3.479 -2.0415 -0.1638 -0.2751
 4498TIP3   OH213499   5.760   2.935   4.006  0.4108  0.3159  0.3007
 4498TIP3    H113500   5.759   2.870   3.936 -1.0262  1.6183 -0.9505
 4498TIP3    H213501   5.785   2.885   4.084 -0.9785 -1.8279 -0.5306
 4499TIP3   OH213502   5.394   4.647   2.125  0.7371 -0.1896 -0.2340
 4499TIP3    H113503   5.308   4.609   2.143 -0.9304  2.0482 -2.6768
 4499TIP3    H213504   5.409   4.709   2.197  0.0149 -0.1892 -0.0794
 4500TIP3   OH213505   4.307   2.061   4.265 -0.2332 -0.7773 -0.1894
 4500TIP3    H113506   4.348   2.068   4.351 -0.2351 -0.1929 -0.2323
 4500TIP3    H213507   4.340   1.978   4.229  0.9526 -0.2921 -0.2484
 4501TIP3   OH213508   0.453   2.275   4.768  0.5782 -0.2168 -0.0136
 4501TIP3    H113509   0.506   2.302   4.843  0.4817 -1.4798  0.5314
 4501TIP3    H213510   0.459   2.348   4.707  0.1935  1.0952  1.4578
 4502TIP3   OH213511   1.816   3.906   3.187 -0.1016  0.2951  0.0893
 4502TIP3    H113512   1.895   3.958   3.201  0.0217 -0.0693  0.7639
 4502TIP3    H213513   1.769   3.909   3.270  0.6604 -1.9179  0.6881
 4503TIP3   OH213514   3.331   3.101   1.269 -0.1149  0.0907  0.3311
 4503TIP3    H113515   3.263   3.048   1.309 -1.2871  2.1680  1.2651
 4503TIP3    H213516   3.400   3.039   1.246 -1.4849 -1.8197  1.1263
 4504TIP3   OH213517   5.878   0.207   0.169 -0.2319  0.0378 -0.5256
 4504TIP3    H113518   5.890   0.271   0.240 -0.7957 -0.6052  0.1693
 4504TIP3    H213519   5.786   0.183   0.173 -0.7732  1.4690 -2.8036
 4505TIP3   OH213520   5.740   0.719   1.647  0.8159 -0.3149 -0.2201
 4505TIP3    H113521   5.687   0.674   1.713 -1.1153  2.3040  0.1745
 4505TIP3    H213522   5.733   0.664   1.569 -3.7937  0.4537 -0.6424
 4506TIP3   OH213523   1.526   4.806   3.547  0.1357 -0.1103 -0.3102
 4506TIP3    H113524   1.435   4.834   3.546 -0.0626 -0.7371 -1.0053
 4506TIP3    H213525   1.556   4.819   3.457  0.8601  0.4765  0.0026
 4507TIP3   OH213526   4.742   5.060   2.778  0.7848 -0.0502  0.1612
 4507TIP3    H113527   4.719   5.084   2.868  0.7592 -1.2807  0.5052
 4507TIP3    H213528   4.834   5.084   2.771  0.3166  1.8059 -0.1293
 4508TIP3   OH213529   3.622   2.631   2.972  0.4473 -0.1498  0.6478
 4508TIP3    H113530   3.571   2.696   3.020  1.8426  1.7116 -0.2309
 4508TIP3    H213531   3.713   2.649   2.997  0.9959 -0.7190 -0.8135
 4509TIP3   OH213532   4.887   0.516   0.694  0.2130  0.4993 -0.0299
 4509TIP3    H113533   4.982   0.527   0.703  0.2184  0.0367  0.5427
 4509TIP3    H213534   4.877   0.432   0.649  0.0529 -0.5428  1.8485
 4510TIP3   OH213535   5.524   4.027   3.980  0.5075  0.3784 -0.3396
 4510TIP3    H113536   5.616   4.043   4.001  0.6337  0.1290 -0.6900
 4510TIP3    H213537   5.488   3.986   4.059  0.1387  2.4458  0.6346
 4511TIP3   OH213538   2.323   0.974   3.125  0.3601  0.3241  0.1520
 4511TIP3    H113539   2.234   0.985   3.159  1.1558  0.2434  2.4150
 4511TIP3    H213540   2.374   0.946   3.201  2.5084  1.2579 -0.8695
 4512TIP3   OH213541   5.586   2.736   3.139 -0.3479  0.1560  0.1585
 4512TIP3    H113542   5.545   2.694   3.215 -1.0079  1.6409  0.6753
 4512TIP3    H213543   5.678   2.710   3.144 -0.7050 -1.1128  0.5039
 4513TIP3   OH213544   0.892   2.530   3.582 -0.9311  0.7087  0.2071
 4513TIP3    H113545   0.917   2.582   3.506 -1.8798  0.7679 -0.0658
 4513TIP3    H213546   0.956   2.458   3.583 -0.3524  1.2051 -0.0994
 4514TIP3   OH213547   4.264  -0.022   1.617  0.4956  0.3259  0.0988
 4514TIP3    H113548   4.284   0.054   1.671  4.4660 -0.3155 -0.1282
 4514TIP3    H213549   4.283   0.006   1.528 -1.7884  0.1113 -0.5101
 4515TIP3   OH213550   2.621   2.843   3.485  0.0964 -0.0690 -0.0118
 4515TIP3    H113551   2.615   2.930   3.523 -1.2454  0.3680 -1.1427
 4515TIP3    H213552   2.557   2.790   3.533  1.2102 -0.5802  0.9641
 4516TIP3   OH213553   2.197   0.930   0.394 -0.0574 -0.6683  0.3791
 4516TIP3    H113554   2.119   0.900   0.347 -0.1421 -1.2704  0.8832
 4516TIP3    H213555   2.234   0.850   0.432  1.2801 -0.5109 -0.5486
 4517TIP3   OH213556   5.741   4.891   0.582 -0.4736  0.1369 -0.3047
 4517TIP3    H113557   5.767   4.967   0.634  1.9033 -1.1447  0.5253
 4517TIP3    H213558   5.686   4.839   0.642  0.3692 -0.2187  0.1815
 4518TIP3   OH213559   0.468   2.648   2.199 -0.4931 -0.1225  0.2399
 4518TIP3    H113560   0.564   2.649   2.205 -0.4418 -2.8378  1.6554
 4518TIP3    H213561   0.443   2.740   2.205  1.9768  0.5640  1.5802
 4519TIP3   OH213562   5.279   4.708   4.515 -0.4058 -0.4160  0.4018
 4519TIP3    H113563   5.266   4.707   4.610 -1.1559 -0.2922  0.3019
 4519TIP3    H213564   5.193   4.688   4.479 -0.1210 -0.4638 -0.2551
 4520TIP3   OH213565   4.701   4.157   4.216  0.1046  0.3652  0.1905
 4520TIP3    H113566   4.670   4.247   4.219  0.6790  0.5390  1.4431
 4520TIP3    H213567   4.712   4.138   4.122  0.3687  1.7284 -0.0723
 4521TIP3   OH213568   3.472   2.943   2.060  0.5679 -0.1646 -0.7426
 4521TIP3    H113569   3.481   2.897   2.144 -0.8481  0.7481 -0.0496
 4521TIP3    H213570   3.404   2.894   2.014  1.5561 -0.8444 -1.5106
 4522TIP3   OH213571   3.600   1.153   3.049 -0.5793 -0.2221 -0.6038
 4522TIP3    H113572   3.659   1.114   2.984  0.4262  0.2114  0.0338
 4522TIP3    H213573   3.548   1.216   2.999  2.1318  2.2389 -0.5778
 4523TIP3   OH213574   0.162   0.959   1.753 -0.3970 -0.3985  0.6995
 4523TIP3    H113575   0.194   1.023   1.690 -0.3625  0.0289  1.1538
 4523TIP3    H213576   0.081   0.926   1.714  0.0216 -0.7004  0.0645
 4524TIP3   OH213577   3.085   5.304   3.864  0.0519  0.2855 -0.3767
 4524TIP3    H113578   3.156   5.338   3.810 -0.4608  2.1692  0.0488
 4524TIP3    H213579   3.076   5.369   3.934  0.2829 -1.7404  1.6522
 4525TIP3   OH213580   5.015   1.598   2.238 -0.1477 -0.7196 -0.3818
 4525TIP3    H113581   5.110   1.603   2.244 -0.0958  0.3859 -1.6454
 4525TIP3    H213582   4.994   1.631   2.151 -1.6993 -0.8289 -0.0872
 4526TIP3   OH213583   5.155   3.321   3.289 -0.3104  0.1766  0.0262
 4526TIP3    H113584   5.246   3.293   3.291 -0.3054  0.1568 -0.5553
 4526TIP3    H213585   5.109   3.256   3.343  0.0468  0.3039  0.4910
 4527TIP3   OH213586   5.155   3.686   2.917  0.4440  0.0461 -0.5470
 4527TIP3    H113587   5.181   3.772   2.950 -0.2382  0.1172 -0.1671
 4527TIP3    H213588   5.237   3.643   2.894  0.9613 -0.0444  1.3500
 4528TIP3   OH213589   0.504   5.108   4.816 -0.7936 -0.7399  0.2958
 4528TIP3    H113590   0.573   5.079   4.875 -1.3639  0.3726  1.5587
 4528TIP3    H213591   0.460   5.027   4.790  0.4181 -1.3851  0.1596
 4529TIP3   OH213592   6.225   1.368   3.501 -0.0780  0.3346  0.1180
 4529TIP3    H113593   6.210   1.273   3.497  0.2381  0.2830  0.1385
 4529TIP3    H213594   6.137   1.406   3.502 -0.2039  0.0556 -0.2413
 4530TIP3   OH213595   4.622   1.143   0.308  0.4645 -0.0359  0.2044
 4530TIP3    H113596   4.635   1.049   0.294 -0.1432 -0.2926  1.2775
 4530TIP3    H213597   4.584   1.150   0.396  0.7923  1.2403  0.2702
 4531TIP3   OH213598   0.050   5.809  -0.001 -0.2541 -0.0192 -0.3264
 4531TIP3    H113599   0.100   5.806   0.081 -2.3764  1.2888  1.1177
 4531TIP3    H213600   0.105   5.762  -0.064  1.7765 -0.4975  1.6536
 4532TIP3   OH213601   0.789   3.308   2.947  0.3428 -0.2400  0.1341
 4532TIP3    H113602   0.765   3.383   3.003 -0.4892 -0.4770  0.1090
 4532TIP3    H213603   0.746   3.326   2.863  0.5014 -0.5331 -0.0112
 4533TIP3   OH213604   5.213   5.901   0.583  0.2775  0.1645  0.6754
 4533TIP3    H113605   5.307   5.886   0.583 -0.0232 -2.3129 -0.9174
 4533TIP3    H213606   5.201   5.979   0.529  1.3785  0.4423  0.8110
 4534TIP3   OH213607   2.985   2.228   2.385  0.1229  0.0131 -0.1423
 4534TIP3    H113608   2.891   2.230   2.405  0.1387  0.5205 -0.1162
 4534TIP3    H213609   3.010   2.136   2.397  0.0768  0.2313  1.8634
 4535TIP3   OH213610   6.109   3.321   2.866 -0.6554  0.6805 -0.2288
 4535TIP3    H113611   6.065   3.345   2.785 -0.4558  1.1167 -0.2112
 4535TIP3    H213612   6.098   3.397   2.923 -0.9590  0.3025  0.2224
 4536TIP3   OH213613   1.534   2.335   4.773  0.3727 -0.3213 -0.4212
 4536TIP3    H113614   1.505   2.245   4.792 -0.3762 -0.3242 -1.4517
 4536TIP3    H213615   1.582   2.362   4.851  0.2909 -1.4887  0.0572
 4537TIP3   OH213616   5.904   3.565   5.054 -0.1390 -0.7282  0.2771
 4537TIP3    H113617   5.961   3.506   5.005  1.8774  1.4425 -0.2309
 4537TIP3    H213618   5.875   3.630   4.990  0.2845  0.5733  1.3356
 4538TIP3   OH213619   1.912   4.929   2.642 -0.7694 -0.3090  0.2699
 4538TIP3    H113620   1.870   4.978   2.571 -0.2620 -0.1164  0.0971
 4538TIP3    H213621   1.860   4.951   2.720 -0.0580  1.2054  0.3638
 4539TIP3   OH213622   3.362   0.772   4.429  0.3021 -0.1206  0.0536
 4539TIP3    H113623   3.308   0.785   4.507  0.6433 -2.7175  0.8097
 4539TIP3    H213624   3.310   0.810   4.358 -1.8460 -1.1408  0.9941
 4540TIP3   OH213625   5.919   3.713   3.362  0.2905 -0.1487 -0.1635
 4540TIP3    H113626   5.992   3.667   3.403 -0.8911 -1.4268  0.6394
 4540TIP3    H213627   5.841   3.667   3.395 -0.8297  0.5181 -1.7590
 4541TIP3   OH213628   4.837   1.048   0.689 -0.3227  0.2519 -0.5112
 4541TIP3    H113629   4.866   0.960   0.665  0.0153  0.3172 -0.3505
 4541TIP3    H213630   4.907   1.105   0.656  0.4704  0.3010  1.1459
 4542TIP3   OH213631   5.101   2.101   2.952 -0.3445 -0.5407  0.2088
 4542TIP3    H113632   5.078   2.193   2.942 -2.1084 -1.0417 -0.8954
 4542TIP3    H213633   5.082   2.062   2.867 -0.5853 -2.1079  0.9326
 4543TIP3   OH213634   0.846   2.769   0.793 -0.3813  0.1765 -0.8806
 4543TIP3    H113635   0.794   2.750   0.714  0.8153 -0.7967 -1.4618
 4543TIP3    H213636   0.929   2.804   0.760  0.6661 -1.5132 -0.1490
 4544TIP3   OH213637   6.159   0.228   3.154 -0.2431 -0.1413  0.3821
 4544TIP3    H113638   6.078   0.181   3.173 -0.2992  0.3540  1.4806
 4544TIP3    H213639   6.210   0.169   3.099 -2.7674  0.8410 -3.3996
 4545TIP3   OH213640   1.651   3.847   3.700 -0.4601  0.5876  0.1475
 4545TIP3    H113641   1.633   3.754   3.684  0.8165  0.7437 -2.7410
 4545TIP3    H213642   1.729   3.846   3.756 -0.9558 -0.0336  0.8644
 4546TIP3   OH213643   1.666   0.797   4.455  0.0979  0.1814 -0.0536
 4546TIP3    H113644   1.693   0.745   4.380 -1.2848  0.7084 -0.9495
 4546TIP3    H213645   1.602   0.858   4.421 -0.3939  0.5969  1.5122
 4547TIP3   OH213646   1.658   4.140   2.131 -0.0195 -0.2527 -0.1202
 4547TIP3    H113647   1.632   4.213   2.076 -1.7440  0.1346  1.1386
 4547TIP3    H213648   1.635   4.062   2.081  1.1721  0.0466 -1.1664
 4548TIP3   OH213649   3.992   4.565   1.873 -0.1657  0.0341 -0.0670
 4548TIP3    H113650   4.006   4.657   1.898 -0.3860  0.3195 -0.9404
 4548TIP3    H213651   3.897   4.555   1.871 -0.1476 -0.0634 -0.4915
 4549TIP3   OH213652   5.932   1.532   2.103 -0.9107  0.3496 -0.3499
 4549TIP3    H113653   5.975   1.617   2.109 -1.5119  0.7159 -1.1166
 4549TIP3    H213654   5.917   1.506   2.194  1.4876 -0.0987 -0.0094
 4550TIP3   OH213655   4.510   2.865   1.707 -0.0215  0.2010 -0.1373
 4550TIP3    H113656   4.543   2.807   1.776  0.1939 -0.5907 -0.8845
 4550TIP3    H213657   4.587   2.910   1.674 -0.0540  0.2364 -0.1649
 4551TIP3   OH213658   5.327   0.950   1.228  0.4420 -0.0779  0.1433
 4551TIP3    H113659   5.349   1.041   1.209 -0.3663  0.2287  0.6780
 4551TIP3    H213660   5.296   0.915   1.144 -2.4578  1.0839  0.6364
 4552TIP3   OH213661   4.796   1.775   0.165  0.2083  0.5753 -0.0374
 4552TIP3    H113662   4.878   1.784   0.116  0.0186  0.5399 -0.3634
 4552TIP3    H213663   4.796   1.684   0.195  0.8624  0.9019  0.9964
 4553TIP3   OH213664   5.307   3.911   2.324  0.1545 -0.4159 -0.2028
 4553TIP3    H113665   5.274   3.823   2.306  0.2791 -0.2739 -1.1255
 4553TIP3    H213666   5.370   3.928   2.255  0.5008  0.2127  0.2557
 4554TIP3   OH213667   1.060   3.592   4.270 -0.3256  0.4264 -0.5199
 4554TIP3    H113668   0.986   3.561   4.219 -1.2883  0.2748  0.9217
 4554TIP3    H213669   1.025   3.607   4.358  1.7709 -1.6864  0.7907
 4555TIP3   OH213670   1.798   4.746   2.390  0.3837  0.4659 -0.3422
 4555TIP3    H113671   1.810   4.721   2.298  0.8245 -0.0077 -0.1639
 4555TIP3    H213672   1.821   4.667   2.439  1.5963  1.1558  0.2409
 4556TIP3   OH213673   3.587   4.097   4.378  0.0076  0.0378  0.0286
 4556TIP3    H113674   3.678   4.079   4.355 -0.0406 -1.7813  1.1165
 4556TIP3    H213675   3.542   4.013   4.371 -1.3742  0.6855  0.5795
 4557TIP3   OH213676   6.105   0.825   0.793 -0.4732 -0.2546 -0.1479
 4557TIP3    H113677   6.177   0.790   0.740 -1.3173 -0.6639 -1.0390
 4557TIP3    H213678   6.145   0.896   0.843  0.5798 -0.5465 -0.5481
 4558TIP3   OH213679   1.910   0.456   1.076  0.1473  0.2466 -0.5043
 4558TIP3    H113680   1.860   0.500   1.145  0.9520  0.4698 -0.0498
 4558TIP3    H213681   1.851   0.387   1.044 -0.2836  0.2129  0.3329
 4559TIP3   OH213682   5.959   2.295   4.496 -0.4868  0.2030  0.4311
 4559TIP3    H113683   6.009   2.376   4.487  0.6504 -0.5231 -0.0093
 4559TIP3    H213684   5.963   2.275   4.590 -0.1296  0.2819  0.4361
 4560TIP3   OH213685   1.043   2.844   0.263  0.0049  0.1132  0.7675
 4560TIP3    H113686   0.978   2.911   0.284  0.0078  0.0112  1.1097
 4560TIP3    H213687   0.992   2.771   0.228  0.0939  0.6924 -0.6439
 4561TIP3   OH213688   5.257   5.916   2.918 -0.1701  0.3240  0.1406
 4561TIP3    H113689   5.341   5.872   2.902  0.7476  2.4127 -1.2969
 4561TIP3    H213690   5.192   5.860   2.878  0.2391 -2.1671  2.6571
 4562TIP3   OH213691   3.037   5.053   3.757  0.0690 -0.2850  0.2785
 4562TIP3    H113692   2.946   5.075   3.739  0.6056  0.2829 -2.1623
 4562TIP3    H213693   3.072   5.132   3.800 -0.0633  0.4060 -0.8420
 4563TIP3   OH213694   4.599   4.735   2.847 -0.0631 -0.4900 -0.0172
 4563TIP3    H113695   4.644   4.701   2.769 -1.9081 -0.6017 -1.0963
 4563TIP3    H213696   4.667   4.782   2.895  1.8949 -3.0906 -0.0328
 4564TIP3   OH213697   0.444   3.874   4.173 -0.0820  0.0396  0.1272
 4564TIP3    H113698   0.485   3.931   4.108 -0.8452 -0.4675 -0.8361
 4564TIP3    H213699   0.350   3.884   4.156 -0.2360 -1.1714  0.2212
 4565TIP3   OH213700   2.053   1.173   2.784  0.3293 -0.4267  0.3362
 4565TIP3    H113701   2.024   1.117   2.856 -1.7932  1.2376  0.8789
 4565TIP3    H213702   1.980   1.174   2.723  1.8946 -1.3627 -1.6604
 4566TIP3   OH213703   2.836   3.616   1.110  0.4195 -0.0428 -0.2841
 4566TIP3    H113704   2.803   3.688   1.163  2.8207  1.6995 -0.9941
 4566TIP3    H213705   2.913   3.584   1.157  0.7506 -0.5714 -1.1493
 4567TIP3   OH213706   3.823   1.142   1.455 -0.2085 -0.0408  0.3683
 4567TIP3    H113707   3.733   1.152   1.426  0.1317 -1.4216 -1.2946
 4567TIP3    H213708   3.849   1.229   1.485 -1.9422  0.4587  0.4748
 4568TIP3   OH213709   1.212   3.683   1.445 -0.5395 -0.1415  0.1480
 4568TIP3    H113710   1.129   3.650   1.411 -0.4728  1.3958 -1.6715
 4568TIP3    H213711   1.204   3.778   1.437  0.3993  0.1996  2.4487
 4569TIP3   OH213712   6.042   5.659   1.427  0.2596  0.1035  0.0370
 4569TIP3    H113713   6.118   5.707   1.459  0.8563 -0.7472 -0.0672
 4569TIP3    H213714   6.066   5.567   1.437 -0.2140 -0.1815 -1.2300
 4570TIP3   OH213715   2.634   1.969   3.660  0.8241  0.1025 -0.8731
 4570TIP3    H113716   2.690   2.011   3.595  0.9450  0.1555 -0.7357
 4570TIP3    H213717   2.660   1.877   3.660  0.8979  0.1233 -0.8241
 4571TIP3   OH213718   0.095   3.580   3.385 -0.9893  0.0046  0.7411
 4571TIP3    H113719   0.064   3.544   3.468 -0.3247 -0.0365  0.9828
 4571TIP3    H213720   0.088   3.675   3.396  0.9482  0.0892  1.6239
 4572TIP3   OH213721   2.477   0.279   0.884  0.5968 -0.1986  0.2101
 4572TIP3    H113722   2.489   0.184   0.891 -1.2052 -0.4860  0.0389
 4572TIP3    H213723   2.475   0.309   0.975 -1.3754 -0.7444  0.3960
 4573TIP3   OH213724   5.857   2.190   1.923 -0.1818 -0.0502  0.0933
 4573TIP3    H113725   5.776   2.139   1.928 -0.7198  0.5280 -1.9329
 4573TIP3    H213726   5.852   2.250   1.997 -1.3689 -0.3571  0.2779
 4574TIP3   OH213727   4.522   1.406   0.206 -0.5969 -0.3684 -0.5463
 4574TIP3    H113728   4.550   1.326   0.250 -1.3456 -0.8946 -0.9976
 4574TIP3    H213729   4.494   1.464   0.277 -1.5253 -1.0975 -0.2913
 4575TIP3   OH213730   0.164   5.957   2.364  0.0091 -0.4815  0.6217
 4575TIP3    H113731   0.207   5.920   2.287 -1.6689  0.7453 -0.9813
 4575TIP3    H213732   0.232   6.007   2.408  0.7977 -0.5102 -0.5327
 4576TIP3   OH213733   0.490   0.991   2.701  0.3296 -0.2337  0.3590
 4576TIP3    H113734   0.521   1.048   2.631  0.8336 -0.3010  0.5282
 4576TIP3    H213735   0.548   0.915   2.698 -2.0552 -2.1539 -1.7573
 4577TIP3   OH213736   1.400   5.254   0.967 -0.0134  0.2861 -0.2831
 4577TIP3    H113737   1.315   5.211   0.972 -0.4403  1.0488 -0.9468
 4577TIP3    H213738   1.463   5.182   0.975 -0.6968 -0.2205  0.7996
 4578TIP3   OH213739   6.037   0.491   1.404  0.0533 -0.3321  0.0153
 4578TIP3    H113740   6.074   0.566   1.450  0.0945 -0.1049 -0.3784
 4578TIP3    H213741   5.948   0.517   1.383  0.5380  0.2613 -1.5117
 4579TIP3   OH213742   3.102   1.506   0.395  0.4183  0.3310 -0.4295
 4579TIP3    H113743   3.128   1.594   0.422 -0.8627  0.3118  0.9900
 4579TIP3    H213744   3.102   1.455   0.475 -1.6595 -0.2188 -0.7058
 4580TIP3   OH213745   0.526   1.501   0.988 -0.4932 -0.0761 -0.1666
 4580TIP3    H113746   0.470   1.454   1.050  0.8036 -0.6716  0.5981
 4580TIP3    H213747   0.610   1.506   1.032 -0.2010  1.7056 -0.8532
 4581TIP3   OH213748   0.969   0.495   4.914  0.0715 -0.2974  0.0935
 4581TIP3    H113749   1.043   0.448   4.952  0.2780 -0.1067 -0.0722
 4581TIP3    H213750   0.942   0.441   4.839  0.0861 -0.3323  0.1133
 4582TIP3   OH213751   6.177   3.961   0.573 -0.4886  0.2500  0.0334
 4582TIP3    H113752   6.237   3.957   0.499  0.9674  2.9104  0.9202
 4582TIP3    H213753   6.227   3.924   0.646 -1.6560 -1.6919 -0.0641
 4583TIP3   OH213754   2.665   0.254   1.252 -0.0052  0.3164 -0.0083
 4583TIP3    H113755   2.599   0.312   1.213 -0.5509 -0.4498 -0.2408
 4583TIP3    H213756   2.714   0.311   1.311 -0.1288  1.1608 -0.6881
 4584TIP3   OH213757   5.905   0.036   1.615  0.2579 -0.3745 -0.5023
 4584TIP3    H113758   5.876  -0.022   1.685  0.8096 -0.0105  0.0432
 4584TIP3    H213759   5.971   0.092   1.656  1.1779 -0.6844 -1.5037
 4585TIP3   OH213760   4.981   4.956   1.998  0.0414 -0.2475  0.0070
 4585TIP3    H113761   4.967   4.875   2.047  0.7212 -0.0100  0.6141
 4585TIP3    H213762   4.893   4.982   1.968 -0.4822 -0.1135  1.5784
 4586TIP3   OH213763   5.648   2.809   4.547  0.1382  0.1613  0.5149
 4586TIP3    H113764   5.599   2.757   4.483  0.5755  0.9060 -0.4426
 4586TIP3    H213765   5.737   2.774   4.543  0.1039  0.0232  0.9263
 4587TIP3   OH213766   1.882   3.865   2.068 -0.0250 -0.4520  0.0881
 4587TIP3    H113767   1.919   3.817   2.141  0.4063 -0.7944 -0.3510
 4587TIP3    H213768   1.876   3.801   1.997  0.5541  0.1284 -0.5013
 4588TIP3   OH213769   0.603   4.304   2.383  0.0477  0.3472 -0.3887
 4588TIP3    H113770   0.697   4.316   2.394  0.1531 -1.4978  1.5838
 4588TIP3    H213771   0.565   4.392   2.392  1.4791  0.9107  0.3469
 4589TIP3   OH213772   4.074   3.383   0.336 -0.3947 -0.0605 -0.2797
 4589TIP3    H113773   4.105   3.301   0.375 -0.5774 -0.0668 -0.1422
 4589TIP3    H213774   3.995   3.357   0.287 -0.1925 -0.0450 -0.6139
 4590TIP3   OH213775   4.600   2.469   4.775  0.2849  0.5898  0.2267
 4590TIP3    H113776   4.643   2.490   4.692 -0.2649 -0.6669 -0.4177
 4590TIP3    H213777   4.520   2.521   4.775  0.4031  0.7723  0.0751
 4591TIP3   OH213778   3.185   2.142   1.966 -0.6110  0.7062  0.4613
 4591TIP3    H113779   3.131   2.216   1.994  0.5575  2.4705 -1.5979
 4591TIP3    H213780   3.205   2.094   2.046 -2.6378  1.7452  1.6706
 4592TIP3   OH213781   0.891   4.442   4.418  0.6147 -0.5265 -0.2596
 4592TIP3    H113782   0.935   4.359   4.398 -1.8948 -1.6827 -1.4701
 4592TIP3    H213783   0.817   4.445   4.357 -0.2124  1.9277  0.7443
 4593TIP3   OH213784   2.192   3.057   2.783  0.2061 -0.2127 -0.3682
 4593TIP3    H113785   2.244   3.085   2.858 -1.0800  1.9651 -0.2057
 4593TIP3    H213786   2.251   3.068   2.708  1.1223 -1.3059  0.1592
 4594TIP3   OH213787   2.261   1.326   3.428  0.0500  0.5840 -0.0046
 4594TIP3    H113788   2.257   1.270   3.505 -1.0362  0.3351 -0.2227
 4594TIP3    H213789   2.338   1.297   3.379  0.6173  0.6011  0.8675
 4595TIP3   OH213790   3.174   1.352   1.248  0.2295  0.7692 -0.6023
 4595TIP3    H113791   3.256   1.381   1.208  0.1086 -0.8257 -2.0911
 4595TIP3    H213792   3.191   1.262   1.276  0.4080  1.8444  3.3965
 4596TIP3   OH213793   2.440   3.549   3.300  0.3775 -0.3816  0.4908
 4596TIP3    H113794   2.481   3.517   3.380 -1.7434 -1.6078  1.1612
 4596TIP3    H213795   2.361   3.595   3.329 -1.1002 -1.9090 -0.8955
 4597TIP3   OH213796   1.779   4.891   1.983  1.2105 -0.3377  0.5726
 4597TIP3    H113797   1.843   4.920   2.048  1.6226  0.0597  0.0002
 4597TIP3    H213798   1.832   4.845   1.918  0.6115 -2.1423  1.3037
 4598TIP3   OH213799   5.407   0.040   2.146  0.3639  0.8760 -0.4920
 4598TIP3    H113800   5.313   0.048   2.129  0.4554  0.4995 -1.1810
 4598TIP3    H213801   5.436  -0.030   2.088  1.2444  1.5892 -0.9364
 4599TIP3   OH213802   4.598   0.304   1.761  0.2697  0.2398 -0.4454
 4599TIP3    H113803   4.570   0.366   1.693 -0.2127 -1.6202 -2.0307
 4599TIP3    H213804   4.692   0.320   1.772  0.7083 -0.4477 -2.7417
 4600TIP3   OH213805   1.630   5.967   3.452  0.3508  0.4876 -0.3439
 4600TIP3    H113806   1.544   6.006   3.437 -0.1809 -0.1219  0.9919
 4600TIP3    H213807   1.653   5.928   3.367 -1.2931 -0.4901 -0.3992
 4601TIP3   OH213808   5.520   1.739   3.910  0.2195  0.2023 -0.7575
 4601TIP3    H113809   5.569   1.788   3.843  3.1531 -0.8504  0.4619
 4601TIP3    H213810   5.506   1.803   3.980 -0.5864  0.6131 -1.2715
 4602TIP3   OH213811   1.999   2.395   3.262 -0.5778 -0.3736  0.0685
 4602TIP3    H113812   2.035   2.396   3.350  0.4191  2.2482 -0.2763
 4602TIP3    H213813   2.074   2.373   3.206 -0.9851 -1.0707 -0.2132
 4603TIP3   OH213814   5.772   1.789   2.699  0.6094 -0.1915 -0.2732
 4603TIP3    H113815   5.741   1.769   2.788  0.2546 -0.2692 -0.4122
 4603TIP3    H213816   5.757   1.883   2.689  1.1482 -0.0785 -0.0592
 4604TIP3   OH213817   2.165   4.204   4.299 -0.2665 -0.2898 -0.0288
 4604TIP3    H113818   2.153   4.245   4.385  0.2574 -1.2452  0.5055
 4604TIP3    H213819   2.253   4.167   4.301 -0.5801 -1.1088 -0.6402
 4605TIP3   OH213820   2.290   4.527   3.388  0.4727 -0.0514  0.6426
 4605TIP3    H113821   2.219   4.517   3.325 -0.4040 -0.9513  1.7347
 4605TIP3    H213822   2.261   4.597   3.446  1.0731  0.4581  0.3454
 4606TIP3   OH213823   1.281   4.633   3.838  0.1336 -0.5583  0.0363
 4606TIP3    H113824   1.258   4.552   3.884 -1.6188  0.3849  0.9116
 4606TIP3    H213825   1.317   4.690   3.906  0.8851 -0.3841 -0.4859
 4607TIP3   OH213826   0.677   5.433   0.350 -0.2360 -0.3441  0.5608
 4607TIP3    H113827   0.750   5.376   0.327  1.2536  1.1952  1.2044
 4607TIP3    H213828   0.665   5.419   0.444  1.0197  1.2756  1.0058
 4608TIP3   OH213829   1.411   5.395   4.563  0.5344 -0.0451 -0.7858
 4608TIP3    H113830   1.432   5.463   4.499  0.5482  0.0736 -0.6550
 4608TIP3    H213831   1.363   5.329   4.513  1.0324 -0.2198 -1.0439
 4609TIP3   OH213832   3.439   2.262   1.424 -0.5726 -0.1995  0.0286
 4609TIP3    H113833   3.489   2.182   1.441 -0.0882  0.0147 -0.3739
 4609TIP3    H213834   3.450   2.314   1.504 -0.4382 -0.3069  0.0803
 4610TIP3   OH213835   4.076   0.406   0.277 -0.5808  0.1378 -0.1889
 4610TIP3    H113836   4.008   0.465   0.310 -1.7187 -0.0908 -2.0049
 4610TIP3    H213837   4.075   0.331   0.337 -0.7680  0.8711  0.7469
 4611TIP3   OH213838   4.483   4.294   3.889  0.1264 -0.0238  0.0524
 4611TIP3    H113839   4.410   4.329   3.837 -0.2215 -1.1787 -0.2665
 4611TIP3    H213840   4.538   4.248   3.826  0.7147  0.1702  0.4196
 4612TIP3   OH213841   6.169   4.820   1.703  0.5803 -0.1053  0.1031
 4612TIP3    H113842   6.079   4.851   1.697  0.9724  0.8368 -1.6210
 4612TIP3    H213843   6.203   4.857   1.784 -0.7117 -0.9045  1.0462
 4613TIP3   OH213844   3.644   4.587   2.958 -0.2800 -0.1560  0.5538
 4613TIP3    H113845   3.599   4.504   2.948  0.3225 -0.3575 -0.5135
 4613TIP3    H213846   3.575   4.648   2.987 -0.9855 -0.7299  0.1120
 4614TIP3   OH213847   1.891   4.537   2.208 -0.6899 -0.1374 -0.5170
 4614TIP3    H113848   1.892   4.496   2.294  2.4615 -0.7638 -0.6982
 4614TIP3    H213849   1.854   4.470   2.150 -0.0702 -0.8944 -0.0617
 4615TIP3   OH213850   2.402   5.447   5.201  0.4995 -0.6720 -0.1963
 4615TIP3    H113851   2.362   5.410   5.123 -2.5387 -0.7055  1.2469
 4615TIP3    H213852   2.449   5.524   5.170  2.0731 -2.3554 -2.4080
 4616TIP3   OH213853   6.096   1.255   2.875  0.2900  0.0177 -0.3949
 4616TIP3    H113854   6.173   1.311   2.885 -0.5124  1.3307 -1.2735
 4616TIP3    H213855   6.129   1.179   2.827  0.9539  0.8387 -1.2979
 4617TIP3   OH213856   0.726   4.714   4.207 -0.6814 -0.6774 -0.4269
 4617TIP3    H113857   0.733   4.619   4.210 -0.3879 -0.6372  1.1435
 4617TIP3    H213858   0.633   4.731   4.195 -0.8599 -1.1666  0.2351
 4618TIP3   OH213859   2.545   1.712   0.766 -0.0315  0.7885  0.3770
 4618TIP3    H113860   2.619   1.771   0.780  0.9976 -0.3249 -0.2496
 4618TIP3    H213861   2.471   1.758   0.806  0.8957  2.1161  0.6498
 4619TIP3   OH213862   1.502   0.729   0.227 -0.2326  0.3162 -0.3427
 4619TIP3    H113863   1.426   0.737   0.285 -0.0061  1.4360 -0.1674
 4619TIP3    H213864   1.543   0.816   0.230  1.6521 -0.5548  0.3727
 4620TIP3   OH213865   2.400   3.051   2.514 -0.1959  0.4707  0.1915
 4620TIP3    H113866   2.471   3.044   2.450 -0.1411  1.4275  0.1277
 4620TIP3    H213867   2.343   3.120   2.479 -1.7462 -1.0018 -0.3024
 4621TIP3   OH213868   6.370   3.904   1.832 -0.2197 -0.6294 -0.3546
 4621TIP3    H113869   6.281   3.938   1.827  0.3562  0.7364 -1.8537
 4621TIP3    H213870   6.379   3.849   1.754  0.0819 -1.2470  0.1040
 4622TIP3   OH213871   0.640   2.476   1.786  0.1268  0.2341 -0.1781
 4622TIP3    H113872   0.599   2.528   1.717  0.4554  2.3021  1.0885
 4622TIP3    H213873   0.594   2.392   1.783  1.4276 -0.5502 -4.1364
 4623TIP3   OH213874   5.418   1.545   2.768  0.1080 -0.2336 -0.1347
 4623TIP3    H113875   5.460   1.619   2.812 -1.8516  0.5959  0.4307
 4623TIP3    H213876   5.431   1.563   2.675 -0.0034  0.6198  0.0048
 4624TIP3   OH213877   3.928   3.505   2.668 -0.0038  0.5773 -0.6315
 4624TIP3    H113878   3.977   3.568   2.721 -1.1597  0.9876 -0.0189
 4624TIP3    H213879   3.896   3.555   2.593 -0.7573  0.6906 -0.2448
 4625TIP3   OH213880   2.615   5.576   4.527 -0.2990 -0.0220  0.0242
 4625TIP3    H113881   2.526   5.539   4.530 -0.5595  0.3161 -1.9368
 4625TIP3    H213882   2.626   5.604   4.436  1.5099  0.7541  0.4375
 4626TIP3   OH213883   3.173   1.417   3.954 -0.1498  0.5292  0.0203
 4626TIP3    H113884   3.234   1.424   4.028  1.4509 -0.3176 -1.1555
 4626TIP3    H213885   3.174   1.325   3.930 -0.9708  0.7167 -0.7916
 4627TIP3   OH213886   3.613   5.196   4.268 -0.0699  0.0092  0.1398
 4627TIP3    H113887   3.588   5.108   4.296 -0.8561 -0.1346 -0.9445
 4627TIP3    H213888   3.705   5.188   4.242  0.6588  0.1254  2.4498
 4628TIP3   OH213889   0.586   3.264   0.641 -0.2811 -0.0100  0.2290
 4628TIP3    H113890   0.606   3.204   0.713  0.7832  0.9058  0.7187
 4628TIP3    H213891   0.662   3.322   0.637 -0.5935  0.3195 -1.2628
 4629TIP3   OH213892   5.746   4.076   0.408  0.4380  0.2262 -0.1236
 4629TIP3    H113893   5.800   4.139   0.360 -2.5131  2.6231 -0.5920
 4629TIP3    H213894   5.767   4.092   0.500  0.7117  0.9393 -0.3022
 4630TIP3   OH213895   5.446   0.431   2.996  0.3764  0.2469 -0.3666
 4630TIP3    H113896   5.527   0.473   3.023  0.3357  0.4844 -0.6050
 4630TIP3    H213897   5.424   0.473   2.912  0.2046 -0.0745 -0.4856
 4631TIP3   OH213898   3.624   4.902   1.188  0.4368  0.9035 -0.0756
 4631TIP3    H113899   3.559   4.852   1.237 -0.8137 -0.6193 -3.0218
 4631TIP3    H213900   3.575   4.974   1.148  0.9508  0.8715 -0.7908
 4632TIP3   OH213901   5.201   1.904   0.350 -0.1672  0.4582  0.1845
 4632TIP3    H113902   5.286   1.945   0.337  0.1231 -0.4017 -0.7437
 4632TIP3    H213903   5.214   1.847   0.426 -0.6095  2.1185  1.5616
 4633TIP3   OH213904   3.886   0.391   1.962 -0.0720 -0.0279 -0.1262
 4633TIP3    H113905   3.909   0.393   2.055  3.3233  1.6920 -0.8393
 4633TIP3    H213906   3.915   0.475   1.928  0.7682 -1.3828 -3.1287
 4634TIP3   OH213907   2.251   5.140   4.276  0.1752 -0.0327  0.1175
 4634TIP3    H113908   2.330   5.181   4.242 -0.3606  1.0510  0.1495
 4634TIP3    H213909   2.270   5.123   4.368  0.0616  1.0408  0.3482
 4635TIP3   OH213910   3.798   2.922   3.060 -0.3904 -0.1760 -0.5053
 4635TIP3    H113911   3.874   2.979   3.053  1.1116 -1.4712  2.9307
 4635TIP3    H213912   3.725   2.982   3.078  1.1909  0.9309  3.3040
 4636TIP3   OH213913   2.055   3.424   0.393 -0.0475 -0.0337 -0.0312
 4636TIP3    H113914   2.043   3.343   0.344  0.8544 -0.8664  1.0789
 4636TIP3    H213915   1.974   3.473   0.378 -0.6808 -1.2112 -0.5786
 4637TIP3   OH213916   4.393   4.173   3.300  0.2651 -0.1807  0.1197
 4637TIP3    H113917   4.308   4.185   3.341  0.8462 -0.2898  1.4374
 4637TIP3    H213918   4.423   4.262   3.280 -0.5593 -0.1975 -1.2536
 4638TIP3   OH213919   0.990   1.557   1.371  0.4734  0.2788  0.1398
 4638TIP3    H113920   1.003   1.608   1.451  0.8429  2.4027 -1.1945
 4638TIP3    H213921   0.895   1.549   1.363  0.3604  1.6687 -0.1373
 4639TIP3   OH213922   4.722   1.479   4.371 -0.3393  0.0787 -0.0376
 4639TIP3    H113923   4.731   1.566   4.411 -1.1249  0.0352  0.2592
 4639TIP3    H213924   4.670   1.430   4.434  0.3049 -0.6877 -0.0946
 4640TIP3   OH213925   0.978   3.518   0.615  0.1388  0.0204  0.1611
 4640TIP3    H113926   0.992   3.446   0.675 -1.8069  0.0707  0.7339
 4640TIP3    H213927   1.066   3.548   0.592  0.9757 -2.2053  0.2663
 4641TIP3   OH213928   0.641   4.508   4.801 -0.5973  0.0412  0.2247
 4641TIP3    H113929   0.636   4.586   4.745 -0.0846 -0.4197 -0.4856
 4641TIP3    H213930   0.712   4.456   4.764  0.3214  0.0967  1.8204
 4642TIP3   OH213931   5.163   1.606   1.888  0.4189 -0.7568 -0.6210
 4642TIP3    H113932   5.174   1.684   1.943 -0.9085 -1.7227  1.0893
 4642TIP3    H213933   5.246   1.560   1.896  0.8399 -0.0497 -0.8058
 4643TIP3   OH213934   4.784   4.873   3.007 -0.1166 -0.2930  0.1405
 4643TIP3    H113935   4.861   4.902   3.056 -0.2541 -0.7991  0.6682
 4643TIP3    H213936   4.710   4.915   3.051 -0.0520  1.5088 -1.3459
 4644TIP3   OH213937   5.531   4.612   4.290 -0.2642  0.2869  0.4864
 4644TIP3    H113938   5.565   4.675   4.352  1.3178  0.5165 -0.5642
 4644TIP3    H213939   5.538   4.655   4.205  1.0667 -1.3457 -0.2871
 4645TIP3   OH213940   3.051   2.722   0.683 -0.0216  0.2128 -0.2705
 4645TIP3    H113941   3.007   2.720   0.598  2.7303  1.8426 -1.8835
 4645TIP3    H213942   3.016   2.801   0.725 -0.5234  0.0604 -0.3900
 4646TIP3   OH213943   4.628   1.853   1.763  0.2617  0.3509 -0.1329
 4646TIP3    H113944   4.576   1.872   1.685  1.0672 -1.3794 -1.1459
 4646TIP3    H213945   4.676   1.773   1.741  0.8972  0.0966  1.9570
 4647TIP3   OH213946   2.275   4.512   1.076  0.0247 -0.2271 -0.0492
 4647TIP3    H113947   2.346   4.516   1.141 -0.0486 -0.8529  0.0724
 4647TIP3    H213948   2.316   4.477   0.998  0.4646  1.9017 -0.8438
 4648TIP3   OH213949   0.098   3.722   2.083  0.0029 -0.2085 -0.6819
 4648TIP3    H113950   0.135   3.742   2.169  1.9234  1.3582 -1.7780
 4648TIP3    H213951   0.004   3.726   2.095  0.2431  0.9382  1.1507
 4649TIP3   OH213952   0.596   2.160   1.122 -0.5716  0.2348  0.0164
 4649TIP3    H113953   0.578   2.251   1.146 -0.1391  0.5687 -0.8958
 4649TIP3    H213954   0.573   2.154   1.030 -1.3692 -0.8058  0.2672
 4650TIP3   OH213955   3.620   1.921   3.717  0.5602 -0.7584 -0.7931
 4650TIP3    H113956   3.526   1.932   3.700  0.3880 -0.4207  0.2854
 4650TIP3    H213957   3.656   2.009   3.710  0.6763 -0.7851 -0.5397
 4651TIP3   OH213958   2.910   6.000   0.405  0.0722 -0.7371  0.6072
 4651TIP3    H113959   2.889   5.908   0.387 -1.9675 -0.1459 -0.2158
 4651TIP3    H213960   2.956   5.997   0.489  1.6058 -2.6440 -0.1882
 4652TIP3   OH213961   5.763   3.145   1.618 -0.2323 -0.1602 -0.0864
 4652TIP3    H113962   5.807   3.222   1.654  0.0193 -0.7788  0.9925
 4652TIP3    H213963   5.822   3.114   1.549 -0.8805  1.2350 -1.3120
 4653TIP3   OH213964   2.711   0.523   0.737 -0.1399  0.0307 -0.8886
 4653TIP3    H113965   2.619   0.539   0.754 -0.0441 -0.6803  0.4357
 4653TIP3    H213966   2.755   0.547   0.818  0.5218 -2.1577 -0.5292
 4654TIP3   OH213967   1.227   2.048   2.540  0.6425 -0.4224 -0.6269
 4654TIP3    H113968   1.322   2.056   2.524  0.8078  1.1498  0.9527
 4654TIP3    H213969   1.212   2.096   2.621 -1.2695 -2.0863  0.0712
 4655TIP3   OH213970   0.054   1.932   2.048 -0.0824  0.0854 -0.3384
 4655TIP3    H113971   0.031   1.844   2.078 -1.7689  0.4825 -0.4081
 4655TIP3    H213972   0.076   1.920   1.955  1.7250 -0.5704  0.1380
 4656TIP3   OH213973   2.528   0.642   4.966  0.3803  0.2385  0.3983
 4656TIP3    H113974   2.455   0.699   4.991 -0.2227  0.1009 -0.9461
 4656TIP3    H213975   2.595   0.703   4.935  0.7068  0.3448  1.2965
 4657TIP3   OH213976   2.713   5.219   0.782  0.0627  0.1935  0.3682
 4657TIP3    H113977   2.692   5.279   0.710 -1.2988 -0.8763 -0.1601
 4657TIP3    H213978   2.728   5.277   0.857 -0.5085  1.2309 -0.2862
 4658TIP3   OH213979   1.312   4.737   1.352  0.1436  0.0914 -0.3449
 4658TIP3    H113980   1.217   4.735   1.347  0.1564 -1.3232 -0.4710
 4658TIP3    H213981   1.337   4.814   1.302 -0.8568 -0.6913 -2.1559
 4659TIP3   OH213982   1.004   2.744   2.920  0.2229  0.1226  0.2719
 4659TIP3    H113983   0.975   2.781   3.003 -0.4258  0.8696 -0.2820
 4659TIP3    H213984   0.986   2.650   2.928  0.7203  0.0914  1.1935
 4660TIP3   OH213985   2.089   5.265   0.965  0.6293  0.4884  0.3247
 4660TIP3    H113986   2.166   5.213   0.942  0.1405 -0.8682  1.6199
 4660TIP3    H213987   2.125   5.347   0.998  1.3863  1.8537 -3.4324
 4661TIP3   OH213988   2.897   0.373   2.226 -0.4260 -0.2339  0.1462
 4661TIP3    H113989   2.966   0.344   2.166  1.2115  3.8203 -0.2513
 4661TIP3    H213990   2.874   0.461   2.195 -3.2504 -0.0208  2.4696
 4662TIP3   OH213991   0.913   1.397   5.060 -0.0745  0.0135  0.5036
 4662TIP3    H113992   0.996   1.406   5.107  0.4187 -0.9656 -0.1600
 4662TIP3    H213993   0.938   1.374   4.971 -1.0248  1.1928 -0.1052
 4663TIP3   OH213994   5.883   4.920   4.656  0.3518  0.0414  0.7229
 4663TIP3    H113995   5.802   4.910   4.607  1.6297 -0.0147 -1.5110
 4663TIP3    H213996   5.856   4.921   4.748 -2.1341 -0.0684  0.0537
 4664TIP3   OH213997   1.010   1.233   2.523  0.7410  0.0263 -0.1672
 4664TIP3    H113998   1.089   1.214   2.574  1.8312 -1.2748 -2.2065
 4664TIP3    H213999   0.938   1.201   2.578  1.7149  0.0683  1.1837
 4665TIP3   OH214000   1.520   2.399   3.804  0.6123  0.2083 -0.2854
 4665TIP3    H114001   1.504   2.469   3.741  1.3787  0.1610 -0.5486
 4665TIP3    H214002   1.605   2.363   3.779  0.7933 -0.0143  0.5981
 4666TIP3   OH214003   4.091   5.012   4.542 -0.0350 -0.0641  0.2714
 4666TIP3    H114004   4.002   5.029   4.574 -0.2951  3.3032 -1.7901
 4666TIP3    H214005   4.082   4.934   4.488 -1.1397 -1.2528  2.0413
 4667TIP3   OH214006   4.595   0.278   4.193 -0.1538 -0.2952 -0.2682
 4667TIP3    H114007   4.618   0.362   4.232  2.7438 -0.4789 -1.3136
 4667TIP3    H214008   4.502   0.285   4.171 -0.2751  2.1309  0.8107
 4668TIP3   OH214009   4.863   5.599   2.753 -0.1625  0.0914 -0.3079
 4668TIP3    H114010   4.901   5.680   2.788 -0.9453  0.3471 -0.0307
 4668TIP3    H214011   4.935   5.536   2.757 -0.3580 -0.1116  2.4852
 4669TIP3   OH214012   1.460   5.937   2.995  0.4550  0.2259  0.7489
 4669TIP3    H114013   1.385   5.989   3.024 -0.0087 -0.5286  0.9208
 4669TIP3    H214014   1.526   6.002   2.971 -0.9327  0.9451 -1.3202
 4670TIP3   OH214015   6.355   3.486   5.031  0.3258 -0.2715 -0.2900
 4670TIP3    H114016   6.311   3.442   5.104  0.2849  1.3960  0.7404
 4670TIP3    H214017   6.289   3.490   4.962 -0.7874  1.0926  0.7919
 4671TIP3   OH214018   1.554   1.883   4.031 -0.0790  0.4232 -0.2899
 4671TIP3    H114019   1.543   1.829   3.954 -0.4750  2.0352 -1.4264
 4671TIP3    H214020   1.485   1.950   4.023  0.1630  0.8984  1.2144
 4672TIP3   OH214021   4.740   4.099   0.603  0.5316  0.1686 -0.2197
 4672TIP3    H114022   4.672   4.036   0.628 -0.5077  2.1904  2.4756
 4672TIP3    H214023   4.704   4.145   0.528 -0.3331  0.0584  0.1130
 4673TIP3   OH214024   2.048   1.492   3.141  0.2301  0.0003  0.1079
 4673TIP3    H114025   2.056   1.498   3.046  1.0752  1.5895  0.2336
 4673TIP3    H214026   2.004   1.409   3.157 -2.3451  0.8770 -1.7948
 4674TIP3   OH214027   2.279   3.337   3.778  0.1395  0.2434  0.4615
 4674TIP3    H114028   2.282   3.430   3.804  1.2538  1.2053 -2.7173
 4674TIP3    H214029   2.208   3.333   3.714 -1.8386 -1.8186  2.5854
 4675TIP3   OH214030   3.850   4.764   1.594  0.3492 -0.2902 -0.4817
 4675TIP3    H114031   3.898   4.777   1.512 -0.6466 -1.3326 -1.2579
 4675TIP3    H214032   3.829   4.671   1.595 -0.5936 -0.0874  0.4273
 4676TIP3   OH214033   4.065   1.918   0.681  0.2060 -0.3113  0.5260
 4676TIP3    H114034   3.991   1.858   0.671 -0.5140  0.8598 -2.4729
 4676TIP3    H214035   4.077   1.955   0.593  2.0952  2.1870  1.7053
 4677TIP3   OH214036   5.016   0.783   2.395  0.3180 -0.2226 -0.3672
 4677TIP3    H114037   5.017   0.732   2.477 -2.5953 -0.9330 -0.6564
 4677TIP3    H214038   5.032   0.873   2.423 -2.2986 -0.1672  1.3503
 4678TIP3   OH214039   5.853   1.003   5.063 -0.9249  0.1731 -0.2668
 4678TIP3    H114040   5.768   1.038   5.037 -1.0183  0.6288  0.5905
 4678TIP3    H214041   5.847   0.997   5.159 -0.0863 -0.0407 -0.2241
 4679TIP3   OH214042   0.340   3.399   1.433 -0.3736  0.1870 -0.2143
 4679TIP3    H114043   0.260   3.347   1.447  0.1165 -0.2785  1.0242
 4679TIP3    H214044   0.395   3.343   1.378  0.2226 -0.7341  1.2599
 4680TIP3   OH214045   1.274   4.743   2.515  0.5753 -0.3473  0.3385
 4680TIP3    H114046   1.241   4.653   2.511  0.6129 -0.4162  1.2940
 4680TIP3    H214047   1.208   4.791   2.565  0.7081  0.0876  0.1034
 4681TIP3   OH214048   4.191   2.366   2.165  0.9794  0.2717  0.4250
 4681TIP3    H114049   4.216   2.448   2.123 -0.4476 -0.3719 -1.8417
 4681TIP3    H214050   4.155   2.393   2.250  0.7108  1.9668 -0.1910
 4682TIP3   OH214051   5.859   0.205   2.813  0.1909  0.3539 -0.1560
 4682TIP3    H114052   5.816   0.123   2.837 -1.5221  0.6103 -2.0518
 4682TIP3    H214053   5.903   0.185   2.731  2.0263  0.6708  0.7096
 4683TIP3   OH214054   4.255   2.930   1.741 -0.5141  0.4258  0.1939
 4683TIP3    H114055   4.269   3.024   1.745 -2.0113  0.7709 -1.3154
 4683TIP3    H214056   4.342   2.892   1.731 -0.0766  1.9088 -2.4302
 4684TIP3   OH214057   5.914   3.724   0.451  0.2263  0.4021  0.0050
 4684TIP3    H114058   5.901   3.641   0.405  0.5474  0.0836  0.4816
 4684TIP3    H214059   5.888   3.706   0.542  0.1421  0.8697  0.0790
 4685TIP3   OH214060   3.415   1.080   4.129  0.0178 -0.1772  0.3670
 4685TIP3    H114061   3.403   0.994   4.170  1.8658 -1.8186 -2.1970
 4685TIP3    H214062   3.387   1.067   4.039  0.5605  1.8706 -0.1451
 4686TIP3   OH214063   0.796   3.045   3.992 -0.1225 -0.2339  0.5048
 4686TIP3    H114064   0.814   2.956   4.023  0.3396  0.3134  1.9036
 4686TIP3    H214065   0.863   3.099   4.035  0.3439  0.6422 -1.2645
 4687TIP3   OH214066   5.516   5.496   0.210  0.1566  0.0829  0.4843
 4687TIP3    H114067   5.589   5.523   0.155  0.3214  1.0798  1.1506
 4687TIP3    H214068   5.526   5.401   0.219  0.1153 -0.1072 -1.1786
 4688TIP3   OH214069   3.587   5.529   3.349 -0.0800 -0.4329 -0.4443
 4688TIP3    H114070   3.533   5.605   3.371  0.7646  0.1672 -0.4168
 4688TIP3    H214071   3.589   5.477   3.430  0.6181  0.3030  0.0216
 4689TIP3   OH214072   0.185   1.038   0.639 -0.3746 -0.1501  0.1609
 4689TIP3    H114073   0.173   1.012   0.730  0.6829  0.4825  0.4911
 4689TIP3    H214074   0.246   1.112   0.642  0.1761 -0.5176 -1.1037
 4690TIP3   OH214075   2.021   1.163   1.939 -0.0169  0.1038  0.4744
 4690TIP3    H114076   1.973   1.241   1.912 -0.4207 -0.7937 -1.6601
 4690TIP3    H214077   2.031   1.112   1.858  1.7119 -1.2655  1.4723
 4691TIP3   OH214078   3.661   2.729   4.295 -0.0493 -0.7907 -0.3578
 4691TIP3    H114079   3.719   2.738   4.219  1.8950 -1.2094  1.0080
 4691TIP3    H214080   3.577   2.765   4.265  0.9972  0.2216 -2.2932
 4692TIP3   OH214081   0.398   2.202   0.582 -0.2095  0.3119 -0.0103
 4692TIP3    H114082   0.347   2.282   0.569  1.0706  1.2444  0.4698
 4692TIP3    H214083   0.383   2.150   0.503 -0.0751  1.5963 -0.9005
 4693TIP3   OH214084   4.714   5.042   4.198 -0.0495  0.5453  0.0791
 4693TIP3    H114085   4.716   5.072   4.107  1.2956 -1.4207 -0.5957
 4693TIP3    H214086   4.802   5.062   4.232  0.1391 -0.5764  0.2880
 4694TIP3   OH214087   2.504   0.697   3.731 -0.2247  0.0282 -0.7838
 4694TIP3    H114088   2.528   0.767   3.671  0.7807  1.1628  0.8600
 4694TIP3    H214089   2.579   0.688   3.789 -1.5974 -0.1449  1.0676
 4695TIP3   OH214090   0.077   0.060   2.043 -0.2349 -0.2175 -0.8834
 4695TIP3    H114091   0.160   0.012   2.042 -0.3461 -0.4339 -0.4028
 4695TIP3    H214092   0.032   0.033   1.963  0.4839  0.5032 -1.5524
 4696TIP3   OH214093   2.443   2.932   0.564  0.0130 -0.1545 -0.4465
 4696TIP3    H114094   2.454   2.913   0.657  2.7385  1.1973 -0.4131
 4696TIP3    H214095   2.363   2.885   0.540  0.2321 -2.0821  2.1297
 4697TIP3   OH214096   3.053   4.824   3.169 -0.3525  0.4974  0.1049
 4697TIP3    H114097   3.051   4.819   3.264 -0.0764  0.9453  0.1391
 4697TIP3    H214098   3.129   4.879   3.150  0.0315 -0.1892 -0.3985
 4698TIP3   OH214099   2.708   5.134   4.537 -0.2298  0.0282 -0.4147
 4698TIP3    H114100   2.716   5.125   4.632  0.1556 -0.2340 -0.4683
 4698TIP3    H214101   2.765   5.066   4.501 -0.6131 -0.0804 -0.8348
 4699TIP3   OH214102   5.937   3.519   4.597  0.2894 -0.2346  0.2028
 4699TIP3    H114103   5.888   3.596   4.626  0.4872 -0.4357  1.0980
 4699TIP3    H214104   5.873   3.448   4.601 -0.3147  0.1186 -2.0667
 4700TIP3   OH214105   5.469   2.416   4.752 -0.0702  0.6314 -0.8975
 4700TIP3    H114106   5.480   2.364   4.672  1.3063 -3.1231  1.4776
 4700TIP3    H214107   5.376   2.435   4.755 -0.4637 -0.7660 -2.4774
 4701TIP3   OH214108   5.007   2.986   4.126  0.5946  0.3452  0.3502
 4701TIP3    H114109   5.012   2.891   4.120 -1.6654  0.0886  1.4832
 4701TIP3    H214110   5.059   3.018   4.052 -0.3036 -1.7856 -1.2850
 4702TIP3   OH214111   4.802   0.983   1.455  0.0511 -0.0510 -0.4378
 4702TIP3    H114112   4.829   1.024   1.373 -0.6229  1.5469  0.1046
 4702TIP3    H214113   4.819   1.049   1.522 -0.7206 -0.8038  0.5251
 4703TIP3   OH214114   5.885   2.658   3.087 -0.2566 -0.1440  0.2727
 4703TIP3    H114115   5.929   2.574   3.081 -0.8754 -0.4965  0.6085
 4703TIP3    H214116   5.915   2.695   3.170 -0.5663 -0.3693  0.4860
 4704TIP3   OH214117   5.974   1.418   0.457  0.2832 -0.4066 -0.3186
 4704TIP3    H114118   5.967   1.327   0.429 -0.5192 -0.4594  0.0272
 4704TIP3    H214119   5.963   1.415   0.552  0.4062  0.0391 -0.2872
 4705TIP3   OH214120   6.262   4.061   4.856 -0.5374  0.0257 -0.3722
 4705TIP3    H114121   6.228   3.972   4.870  1.2723 -0.6441  0.0063
 4705TIP3    H214122   6.294   4.061   4.766 -1.8479  0.7766 -0.8617
 4706TIP3   OH214123   4.996   5.260   3.948  0.8810 -0.6338 -0.7301
 4706TIP3    H114124   4.909   5.282   3.914  0.4333  0.7266  1.1409
 4706TIP3    H214125   5.000   5.164   3.941 -0.8947 -0.7562 -0.6236
 4707TIP3   OH214126   2.787   4.542   3.563 -0.2077 -0.4291 -0.2038
 4707TIP3    H114127   2.851   4.528   3.632 -0.7150  1.3402  0.6750
 4707TIP3    H214128   2.723   4.602   3.601 -0.2258  1.0227 -2.3472
 4708TIP3   OH214129   0.028   3.393   4.213  0.1484 -0.4773 -0.2134
 4708TIP3    H114130   0.059   3.350   4.133 -1.0360 -1.2589 -0.2751
 4708TIP3    H214131   0.022   3.323   4.278  0.9045  0.1151  0.5146
 4709TIP3   OH214132   1.364   2.524   4.050  0.2395  0.3028  0.5305
 4709TIP3    H114133   1.392   2.591   4.113 -0.4080 -1.0120  2.3141
 4709TIP3    H214134   1.428   2.529   3.979  0.7455  2.1447  1.0698
 4710TIP3   OH214135   5.397   1.881   4.505 -0.5260 -0.1145 -0.0291
 4710TIP3    H114136   5.305   1.886   4.528 -0.8120  0.4964 -1.2247
 4710TIP3    H214137   5.439   1.947   4.560 -0.6667 -0.9176  1.0661
 4711TIP3   OH214138   1.980   3.454   3.338 -0.2410 -0.0869  0.4312
 4711TIP3    H114139   1.949   3.495   3.257  0.0674 -2.4497 -0.9672
 4711TIP3    H214140   2.043   3.388   3.309 -0.2460 -1.1270  2.5959
 4712TIP3   OH214141   0.889   0.089   0.366  0.4512  0.2427 -0.2413
 4712TIP3    H114142   0.865   0.136   0.287 -0.9713 -0.3954 -0.2142
 4712TIP3    H214143   0.853   0.001   0.354  0.6034  0.0047  0.9068
 4713TIP3   OH214144   2.902   1.059   4.666 -0.2016 -0.2218  0.9152
 4713TIP3    H114145   2.950   1.141   4.657  0.3629 -0.6226  0.1121
 4713TIP3    H214146   2.883   1.052   4.760 -0.4444  0.9162  0.9634
 4714TIP3   OH214147   5.822   5.307   4.333  0.2138 -0.1234 -0.7371
 4714TIP3    H114148   5.770   5.387   4.329 -1.5236 -1.0909  1.0181
 4714TIP3    H214149   5.790   5.254   4.260 -0.3594 -0.2038 -0.4275
 4715TIP3   OH214150   1.813   5.547   3.358  0.2643 -0.6796 -0.1504
 4715TIP3    H114151   1.817   5.614   3.427 -2.7293 -0.7460  0.2283
 4715TIP3    H214152   1.849   5.591   3.280 -0.8102  1.1141  0.3073
 4716TIP3   OH214153   5.846   4.127   1.132 -0.5159  0.1390 -0.6893
 4716TIP3    H114154   5.894   4.182   1.193  0.4911  0.0972 -1.4172
 4716TIP3    H214155   5.880   4.039   1.147 -1.6108 -0.1924 -0.0242
 4717TIP3   OH214156   5.913   2.800   2.131  0.5278  0.1532 -0.1602
 4717TIP3    H114157   5.905   2.895   2.125  3.1835  0.4797  0.2157
 4717TIP3    H214158   5.893   2.780   2.223 -0.6741  0.2408 -0.3921
 4718TIP3   OH214159   4.272   3.127   0.976  0.2306 -0.5348 -0.2832
 4718TIP3    H114160   4.310   3.207   1.013  0.2568 -0.3746 -0.6507
 4718TIP3    H214161   4.308   3.057   1.029  0.2131 -0.3014  0.0393
 4719TIP3   OH214162   1.475   2.001   4.341 -0.0096  0.5601  0.3084
 4719TIP3    H114163   1.471   2.083   4.291 -1.2574  0.9236  0.9737
 4719TIP3    H214164   1.499   2.028   4.429 -3.2609  0.6449  1.3104
 4720TIP3   OH214165   4.219   0.175   2.650  0.4167 -0.2272  0.0214
 4720TIP3    H114166   4.224   0.142   2.560 -0.0406  2.1040 -0.9382
 4720TIP3    H214167   4.291   0.237   2.656  0.2955 -0.1808  1.2059
 4721TIP3   OH214168   4.543   4.982   0.245 -0.0724  0.7522  0.1164
 4721TIP3    H114169   4.571   5.012   0.159 -0.1589 -0.4943 -0.3755
 4721TIP3    H214170   4.458   4.940   0.229  0.3522 -0.3409  0.6319
 4722TIP3   OH214171   4.532   3.189   4.067  0.2078 -0.1069  0.2311
 4722TIP3    H114172   4.472   3.114   4.062 -0.4433  0.3488  1.0433
 4722TIP3    H214173   4.527   3.229   3.981 -0.2540 -0.3779  0.1282
 4723TIP3   OH214174   3.885   1.834   3.784 -0.0328  0.2154 -0.6554
 4723TIP3    H114175   3.869   1.752   3.736  0.2612 -0.7890  0.8791
 4723TIP3    H214176   3.798   1.867   3.807 -0.1370 -0.3619 -0.1921
 4724TIP3   OH214177   2.384   5.055   4.502 -0.1217  0.5173 -0.5131
 4724TIP3    H114178   2.434   4.998   4.444 -0.2568  1.7406 -1.8990
 4724TIP3    H214179   2.449   5.109   4.545  0.0580 -1.0321  1.2797
 4725TIP3   OH214180   6.333   2.235   1.726 -0.3743 -0.0720 -0.1167
 4725TIP3    H114181   6.263   2.169   1.733  1.4375 -2.1326 -0.3474
 4725TIP3    H214182   6.333   2.279   1.811 -0.7947 -1.3007  0.5455
 4726TIP3   OH214183   4.934   0.289   0.531  0.0135  0.3947 -0.4571
 4726TIP3    H114184   5.000   0.321   0.469 -0.2960  0.1196 -0.9250
 4726TIP3    H214185   4.985   0.239   0.595  0.1573 -0.6927 -1.3881
 4727TIP3   OH214186   3.675   4.935   1.979  0.2491  0.6790  0.0885
 4727TIP3    H114187   3.689   4.925   1.885 -1.0898 -0.3326 -0.0383
 4727TIP3    H214188   3.743   4.996   2.007  2.4991 -1.1496 -1.0434
 4728TIP3   OH214189   1.406   5.795   2.016 -0.9157 -0.0268 -0.4844
 4728TIP3    H114190   1.316   5.815   1.992 -0.3502  0.2105 -2.5701
 4728TIP3    H214191   1.459   5.839   1.949  0.7068 -1.2441 -0.0557
 4729TIP3   OH214192   3.961   0.014   1.428 -0.3035  0.0775 -0.4196
 4729TIP3    H114193   3.908  -0.059   1.460 -0.8545  0.8159  0.4084
 4729TIP3    H214194   3.963   0.076   1.501  0.4367  0.7451 -0.9858
 4730TIP3   OH214195   5.345   4.193   4.878  0.3856 -0.3195  0.1495
 4730TIP3    H114196   5.290   4.120   4.850  0.5270 -1.3114  2.2811
 4730TIP3    H214197   5.289   4.245   4.937 -0.3371  2.4531 -2.6849
 4731TIP3   OH214198   5.954   4.984   2.607  0.1579  0.7442  0.1381
 4731TIP3    H114199   5.941   5.078   2.595  1.1274  0.7607 -0.9308
 4731TIP3    H214200   6.025   4.961   2.547  1.4699 -0.2555  1.9742
 4732TIP3   OH214201   3.240   3.377   2.772  0.4032  0.3914 -0.3970
 4732TIP3    H114202   3.148   3.351   2.779  0.7984 -1.3098 -1.0285
 4732TIP3    H214203   3.288   3.312   2.824  1.1458  2.4135  1.6597
 4733TIP3   OH214204   4.296   0.070   2.365  0.1866 -0.6833 -0.1478
 4733TIP3    H114205   4.353   0.136   2.325  0.5378 -1.5877 -1.2014
 4733TIP3    H214206   4.307  -0.007   2.309 -0.2242 -1.6271  1.0428
 4734TIP3   OH214207   6.237   4.462   4.093  0.1914  0.3092 -0.2978
 4734TIP3    H114208   6.299   4.493   4.159  0.6541  0.3425 -0.7367
 4734TIP3    H214209   6.292   4.423   4.025 -0.3580 -1.3323  0.1564
 4735TIP3   OH214210   6.262   0.455   1.906  0.2534 -0.0614 -0.4357
 4735TIP3    H114211   6.250   0.392   1.835 -1.7301  0.5432 -0.6915
 4735TIP3    H214212   6.176   0.496   1.916  0.7056  0.4706  1.7455
 4736TIP3   OH214213   2.014   4.662   1.546  0.2590 -0.0323  0.1416
 4736TIP3    H114214   1.989   4.579   1.586 -2.1021 -1.0530 -3.0381
 4736TIP3    H214215   2.109   4.665   1.556 -0.0119 -0.4156  4.9577
 4737TIP3   OH214216   4.452   2.338   2.270  0.1570  0.0736 -0.2128
 4737TIP3    H114217   4.477   2.430   2.275  0.5339 -0.0776  1.1669
 4737TIP3    H214218   4.356   2.338   2.274  0.0051  0.4881 -2.4424
 4738TIP3   OH214219   3.449   1.597   0.955  0.3872 -0.6190  0.1297
 4738TIP3    H114220   3.452   1.662   1.026  1.6708  1.3467 -1.5855
 4738TIP3    H214221   3.492   1.641   0.881  0.8893 -3.2994 -1.2944
 4739TIP3   OH214222   3.055   1.793   2.951 -0.4254 -0.4600  0.5468
 4739TIP3    H114223   3.116   1.726   2.920 -0.7048 -0.8121  0.7424
 4739TIP3    H214224   3.091   1.821   3.035 -0.1030 -0.0859  0.2888
 4740TIP3   OH214225   0.520   0.594   4.673 -0.0895  0.1137  0.2090
 4740TIP3    H114226   0.562   0.654   4.734  0.9382  1.0395 -1.3270
 4740TIP3    H214227   0.537   0.507   4.709  0.3787  0.6423  1.2900
 4741TIP3   OH214228   2.577   2.751   1.755 -0.3227  0.1007 -0.0646
 4741TIP3    H114229   2.615   2.830   1.794  0.6519  0.0508 -0.8752
 4741TIP3    H214230   2.482   2.760   1.769 -0.1726  1.1370  0.3383
 4742TIP3   OH214231   2.279   2.181   4.863 -0.7065  0.3107 -0.1970
 4742TIP3    H114232   2.368   2.180   4.827 -0.6829 -0.6109 -0.1520
 4742TIP3    H214233   2.288   2.226   4.947  0.1992 -1.7536  0.8973
 4743TIP3   OH214234   1.185   4.638   1.813 -0.0181  0.2469 -0.4441
 4743TIP3    H114235   1.270   4.631   1.770 -0.2192  1.2929 -1.0589
 4743TIP3    H214236   1.135   4.699   1.758 -1.3880 -0.8273 -0.4535
 4744TIP3   OH214237   2.464   4.389   4.682 -0.1723 -0.4817  0.8576
 4744TIP3    H114238   2.472   4.380   4.587  3.0947  0.3491  0.9335
 4744TIP3    H214239   2.370   4.398   4.697 -1.1699 -3.9909 -1.8843
 4745TIP3   OH214240   0.879   5.983   3.778 -0.0800  0.2368  0.4066
 4745TIP3    H114241   0.799   5.940   3.751 -0.1457 -1.2814  2.7029
 4745TIP3    H214242   0.947   5.915   3.773  1.0134  1.3586 -1.0295
 4746TIP3   OH214243   4.106   3.431   0.784 -0.2130  0.0334  0.1280
 4746TIP3    H114244   4.159   3.465   0.712 -0.4572  2.0399  0.8173
 4746TIP3    H214245   4.074   3.510   0.829 -2.5932 -1.1106  0.6010
 4747TIP3   OH214246   1.369   4.869   3.968  0.2578  0.6299  0.1081
 4747TIP3    H114247   1.399   4.941   3.913 -3.3227  2.4613  0.3089
 4747TIP3    H214248   1.275   4.880   3.974 -0.4544 -3.8103  0.6547
 4748TIP3   OH214249   2.281   0.860   1.707  0.0826  0.0407  0.1517
 4748TIP3    H114250   2.235   0.937   1.674  0.5601 -0.0990 -0.8535
 4748TIP3    H214251   2.356   0.849   1.649  0.8796 -0.2882  1.2040
 4749TIP3   OH214252   2.210   3.404   0.958 -0.3116  0.4311 -0.3736
 4749TIP3    H114253   2.243   3.424   0.870  1.6515 -0.2014  0.1552
 4749TIP3    H214254   2.250   3.471   1.014  0.5444 -0.6403  0.3610
 4750TIP3   OH214255   1.275   0.776   0.382 -0.2250 -0.1686 -0.0616
 4750TIP3    H114256   1.222   0.775   0.302 -1.6257  1.9046  0.7719
 4750TIP3    H214257   1.213   0.758   0.452  0.4322  0.8647  0.8117
 4751TIP3   OH214258   5.809   2.269   3.141  0.0183 -0.4805  0.4358
 4751TIP3    H114259   5.729   2.320   3.154 -0.3505 -1.2993  1.4404
 4751TIP3    H214260   5.873   2.310   3.199  0.3422  0.1591 -0.3499
 4752TIP3   OH214261   3.887   4.533   3.076  0.1456  0.1490 -0.2281
 4752TIP3    H114262   3.803   4.550   3.034  1.3010  1.4087 -2.2281
 4752TIP3    H214263   3.906   4.441   3.057 -0.4902  0.0390 -0.3425
 4753TIP3   OH214264   4.578   0.535   4.679  0.5014 -0.1005  0.2075
 4753TIP3    H114265   4.603   0.446   4.652  1.2493 -0.2717  1.3959
 4753TIP3    H214266   4.633   0.553   4.755 -1.4211  0.4041  1.5524
 4754TIP3   OH214267   6.240   3.205   0.630 -0.2760  0.3042 -0.2790
 4754TIP3    H114268   6.188   3.249   0.562  3.3271  2.7842 -1.7319
 4754TIP3    H214269   6.276   3.128   0.587 -1.2504 -0.4273  0.1790
 4755TIP3   OH214270   5.357   0.107   4.481 -0.1554 -0.0994 -0.1969
 4755TIP3    H114271   5.386   0.167   4.412 -1.2361 -0.1026 -0.6791
 4755TIP3    H214272   5.407   0.027   4.465  0.8490  0.4599  0.0813
 4756TIP3   OH214273   2.508   4.085   1.500  0.1119  0.2157  0.4226
 4756TIP3    H114274   2.491   4.110   1.409 -0.8739 -0.6913  0.3365
 4756TIP3    H214275   2.466   4.154   1.552  0.5013  0.6270  0.1954
 4757TIP3   OH214276   2.679   2.569   1.524 -0.1853  0.1658  0.4204
 4757TIP3    H114277   2.604   2.551   1.467  0.5153  1.2578 -0.9039
 4757TIP3    H214278   2.642   2.608   1.602 -0.9623  1.2642 -0.4811
 4758TIP3   OH214279   1.799   5.705   2.077  0.0712  0.3671  0.0724
 4758TIP3    H114280   1.856   5.781   2.069  0.7365 -0.1223  0.1502
 4758TIP3    H214281   1.812   5.674   2.166  0.8465 -0.6566 -0.3876
 4759TIP3   OH214282   5.127   3.427   2.620 -0.8535 -0.2088 -0.0356
 4759TIP3    H114283   5.173   3.394   2.543  3.4383  1.9663  1.2595
 4759TIP3    H214284   5.096   3.514   2.593  0.4409  0.4536  0.5281
 4760TIP3   OH214285   2.112   0.673   3.277  0.0307  0.0714  0.5442
 4760TIP3    H114286   2.156   0.728   3.342 -0.1406  1.5535 -0.5349
 4760TIP3    H214287   2.155   0.588   3.286  0.0991  0.2537  2.4835
 4761TIP3   OH214288   0.655   2.289   2.362 -0.0768 -0.2490  0.0092
 4761TIP3    H114289   0.639   2.281   2.268  1.0836  0.0700 -0.2361
 4761TIP3    H214290   0.606   2.217   2.401  0.3026 -1.0533 -0.9499
 4762TIP3   OH214291   3.873   0.630   4.436  0.5258  0.3737 -0.1224
 4762TIP3    H114292   3.806   0.610   4.370 -0.0304  1.5577  0.0518
 4762TIP3    H214293   3.837   0.705   4.484  1.7649  0.7069  0.3081
 4763TIP3   OH214294   1.016   5.379   4.774  0.1281 -0.4298 -0.3343
 4763TIP3    H114295   0.955   5.356   4.704 -1.0047 -0.2144  0.5599
 4763TIP3    H214296   1.034   5.295   4.817  0.6400 -0.5250 -0.7217
 4764TIP3   OH214297   0.411   2.421   3.032  0.6253  0.2604 -0.0637
 4764TIP3    H114298   0.480   2.420   3.099  1.2297 -1.3855 -0.6685
 4764TIP3    H214299   0.441   2.358   2.966  0.4434  2.3692 -2.3062
 4765TIP3   OH214300   4.260   2.830   2.240 -0.0216  0.0649  0.4886
 4765TIP3    H114301   4.240   2.857   2.330  1.6575  1.0610  0.6091
 4765TIP3    H214302   4.175   2.812   2.200 -1.0700  2.8461  1.2800
 4766TIP3   OH214303   6.146   3.764   0.977 -0.5681  0.5976 -0.3493
 4766TIP3    H114304   6.201   3.786   0.903  0.1256  0.8105  0.2165
 4766TIP3    H214305   6.064   3.734   0.938 -0.1639  0.5618 -1.1944
 4767TIP3   OH214306   4.498   1.870   4.165  0.4518 -0.6648 -0.0031
 4767TIP3    H114307   4.558   1.888   4.238  0.3822  0.2772 -0.1701
 4767TIP3    H214308   4.551   1.883   4.086  0.5935 -1.9251 -0.1258
 4768TIP3   OH214309   5.267   4.680   2.500  0.2361 -0.2242  0.1136
 4768TIP3    H114310   5.328   4.608   2.514  0.5367  0.1485  0.7635
 4768TIP3    H214311   5.184   4.651   2.538  0.6417  0.1803  1.3734
 4769TIP3   OH214312   2.804   4.154   0.545 -0.1279 -0.2072 -0.0654
 4769TIP3    H114313   2.880   4.145   0.488 -0.7309  1.1207 -1.1251
 4769TIP3    H214314   2.794   4.068   0.586  0.5230 -1.0968 -1.7038
 4770TIP3   OH214315   5.033   0.979   2.886  0.3336  0.3712 -0.0742
 4770TIP3    H114316   5.085   1.032   2.825 -2.0820 -0.7054 -3.3185
 4770TIP3    H214317   5.084   0.899   2.897  2.2180  1.7096  1.9038
 4771TIP3   OH214318   2.409   5.033   3.859  0.4606 -0.3865  0.0001
 4771TIP3    H114319   2.493   5.028   3.904  0.5894  1.3518  0.0490
 4771TIP3    H214320   2.414   5.114   3.808  0.0021 -1.8447 -2.5551
 4772TIP3   OH214321   4.599   3.235   1.924 -0.3619  0.1010 -0.2790
 4772TIP3    H114322   4.525   3.215   1.867  0.0189  0.9735 -1.0979
 4772TIP3    H214323   4.674   3.238   1.866  0.1426  0.3576  0.3754
 4773TIP3   OH214324   2.048   3.742   1.589  0.6429 -0.5823 -0.1213
 4773TIP3    H114325   2.017   3.714   1.502 -0.0351  0.5763 -0.2700
 4773TIP3    H214326   2.056   3.837   1.582  1.1074 -0.5373  0.9298
 4774TIP3   OH214327   4.041   0.374  -0.014 -0.7583 -0.0301 -0.3357
 4774TIP3    H114328   4.009   0.462   0.004  3.1495  1.7054 -0.9174
 4774TIP3    H214329   4.041   0.330   0.071  0.4274  1.7762  0.6534
 4775TIP3   OH214330   3.579   0.224   3.684 -0.7768 -0.1802  0.3569
 4775TIP3    H114331   3.530   0.155   3.728  1.0964 -2.1828 -0.4800
 4775TIP3    H214332   3.635   0.261   3.752  0.0361 -1.2846  0.3160
 4776TIP3   OH214333   3.461   3.352   0.884  0.9364  0.2800  1.0381
 4776TIP3    H114334   3.382   3.328   0.836  1.3061 -2.0514  1.4432
 4776TIP3    H214335   3.431   3.372   0.972  0.8079 -1.2943  1.3842
 4777TIP3   OH214336   4.145   4.892   2.620  0.2379  0.6431 -0.1050
 4777TIP3    H114337   4.227   4.916   2.663 -0.2660  0.3488  1.0826
 4777TIP3    H214338   4.152   4.798   2.604  0.4062  0.7445 -0.6293
 4778TIP3   OH214339   5.310   3.828   1.716  0.1909  0.4468 -0.3940
 4778TIP3    H114340   5.267   3.823   1.631 -0.0342 -1.0251 -0.2125
 4778TIP3    H214341   5.387   3.884   1.701 -0.3596  0.9809 -1.3183
 4779TIP3   OH214342   0.520   0.828   1.606 -0.3586 -0.1124  0.4501
 4779TIP3    H114343   0.463   0.752   1.614  0.6633 -1.1013 -1.1426
 4779TIP3    H214344   0.492   0.886   1.677 -2.2443 -1.2431  0.7127
 4780TIP3   OH214345   6.335   1.821   4.974  0.0427  0.0866 -0.5491
 4780TIP3    H114346   6.255   1.858   5.011 -0.2506  0.4166 -1.4724
 4780TIP3    H214347   6.311   1.731   4.950 -0.2090  0.3440 -1.2854
 4781TIP3   OH214348   4.003   2.170   3.083  0.0808 -0.3435  0.1106
 4781TIP3    H114349   3.988   2.082   3.048  0.8950 -0.8805  1.0272
 4781TIP3    H214350   3.960   2.229   3.022  1.2391 -1.2345 -1.6308
 4782TIP3   OH214351   4.147   1.674   1.363  0.4261 -0.3584  0.3441
 4782TIP3    H114352   4.173   1.766   1.368  0.6083 -0.3844 -0.1689
 4782TIP3    H214353   4.052   1.676   1.378  0.3905 -0.0633  0.0812
 4783TIP3   OH214354   2.641   4.333   3.006  0.2103  0.4524 -0.2191
 4783TIP3    H114355   2.654   4.405   3.067  1.3372 -0.9724  1.3013
 4783TIP3    H214356   2.555   4.350   2.967  0.5362  2.7206 -0.1250
 4784TIP3   OH214357   6.296   4.417   0.739  0.6090  0.5017  0.3327
 4784TIP3    H114358   6.331   4.389   0.824 -0.8534  1.0219  1.1454
 4784TIP3    H214359   6.360   4.386   0.675  1.4785 -0.3759  1.5840
 4785TIP3   OH214360   4.021   1.316   1.733  0.1730 -1.0370 -0.3114
 4785TIP3    H114361   4.059   1.358   1.656  0.6973  1.6057  1.2687
 4785TIP3    H214362   3.929   1.305   1.711  0.0956  0.6372 -0.9950
 4786TIP3   OH214363   0.939   5.489   3.612  0.2310  0.5122  0.0340
 4786TIP3    H114364   0.864   5.431   3.625  0.9178 -0.0717  1.6559
 4786TIP3    H214365   1.000   5.464   3.681  1.8405  1.1130 -1.1350
 4787TIP3   OH214366   1.582   2.156   4.554 -0.0465 -0.8830  0.4593
 4787TIP3    H114367   1.596   2.177   4.646 -1.1633  0.6544  0.2985
 4787TIP3    H214368   1.606   2.235   4.506  1.6592 -2.0310 -0.7113
 4788TIP3   OH214369   3.351   2.073   3.007  0.4636  0.3905 -0.3994
 4788TIP3    H114370   3.348   2.052   2.913  0.3719  2.6094 -0.9517
 4788TIP3    H214371   3.408   2.150   3.012 -0.0771  0.7200  1.2968
 4789TIP3   OH214372   1.919   3.002   3.166 -0.0299  0.5457 -0.4353
 4789TIP3    H114373   1.908   2.978   3.074  0.8072  1.4076 -0.7829
 4789TIP3    H214374   2.009   2.975   3.187 -0.5047 -0.4532  0.4072
 4790TIP3   OH214375   4.971   3.162   1.920 -0.1364 -0.1893 -0.4067
 4790TIP3    H114376   4.969   3.190   2.012  1.3442 -1.7490  0.1473
 4790TIP3    H214377   4.994   3.069   1.924 -1.5505 -0.6803 -2.3092
 4791TIP3   OH214378   5.515   5.392   4.479 -0.2454 -0.1541 -0.8270
 4791TIP3    H114379   5.479   5.326   4.419 -1.0847  0.0996 -0.6092
 4791TIP3    H214380   5.472   5.473   4.454 -0.3138  0.0285 -0.1288
 4792TIP3   OH214381   3.357   4.252   3.334  0.4007 -0.0572  0.9148
 4792TIP3    H114382   3.346   4.161   3.361  1.0288  0.0840  1.6896
 4792TIP3    H214383   3.452   4.264   3.327  0.3409  0.6425  1.2048
 4793TIP3   OH214384   1.496   2.548   5.131 -0.0836 -0.1136  0.1425
 4793TIP3    H114385   1.533   2.597   5.205 -0.4745 -1.0585  0.9902
 4793TIP3    H214386   1.524   2.596   5.053  1.2586  0.3079  0.8544
 4794TIP3   OH214387   0.635   3.537   1.101  0.3402 -0.4790 -0.0240
 4794TIP3    H114388   0.694   3.461   1.101  1.8952  0.6790 -0.3127
 4794TIP3    H214389   0.574   3.520   1.029  1.5060 -0.8412 -0.9594
 4795TIP3   OH214390   3.676   5.399   0.274  0.3240 -0.1546 -0.4309
 4795TIP3    H114391   3.594   5.348   0.270 -1.0585  1.6130  2.2521
 4795TIP3    H214392   3.650   5.488   0.251  0.9391  0.8847  2.4770
 4796TIP3   OH214393   1.494   0.289   0.406 -0.4556 -0.0107  0.4219
 4796TIP3    H114394   1.528   0.366   0.361  1.8707 -0.3748  1.4144
 4796TIP3    H214395   1.440   0.245   0.341  2.0287 -0.0360 -1.7800
 4797TIP3   OH214396   2.480   2.985   2.277  0.6626  0.6942  0.2346
 4797TIP3    H114397   2.572   2.996   2.252  0.6834  0.1559  0.0635
 4797TIP3    H214398   2.435   3.059   2.238  0.8943  0.5263 -0.3571
 4798TIP3   OH214399   1.066   2.576   3.901 -0.2091  0.3174  0.3192
 4798TIP3    H114400   1.047   2.654   3.849  0.5837  1.1392  1.2152
 4798TIP3    H214401   1.082   2.610   3.989  1.4647 -0.7049  0.4542
 4799TIP3   OH214402   5.704   5.173   2.301  0.0113 -0.1256  0.3114
 4799TIP3    H114403   5.743   5.179   2.214  0.6584 -1.3794  0.4861
 4799TIP3    H214404   5.743   5.094   2.339 -0.7693  0.0293  1.4838
 4800TIP3   OH214405   6.285   2.029   4.165 -0.0533 -0.1553 -0.1462
 4800TIP3    H114406   6.231   1.978   4.226  0.0640 -2.0977 -1.5568
 4800TIP3    H214407   6.375   2.005   4.185 -0.0453 -1.3995 -1.5025
 4801TIP3   OH214408   5.951   3.687   3.097 -0.6998 -0.3913  0.3044
 4801TIP3    H114409   5.963   3.709   3.189 -2.1394 -1.5088  0.8034
 4801TIP3    H214410   6.039   3.679   3.062 -0.1220 -0.5142  1.7383
 4802TIP3   OH214411   3.299   5.266   0.411 -0.6944  0.3184  0.0089
 4802TIP3    H114412   3.360   5.299   0.477 -1.1522  0.7841  0.2088
 4802TIP3    H214413   3.250   5.197   0.456  0.8380 -1.2738 -0.6548
 4803TIP3   OH214414   6.234   1.923   3.858  0.1508 -0.3243  0.0721
 4803TIP3    H114415   6.308   1.879   3.900 -0.8921 -1.1839  1.0336
 4803TIP3    H214416   6.191   1.971   3.929  0.0189  0.5390 -0.5685
 4804TIP3   OH214417   5.537   4.270   1.968 -0.0181 -0.3989  0.1753
 4804TIP3    H114418   5.469   4.240   1.909  1.0684  0.1699 -1.4298
 4804TIP3    H214419   5.615   4.223   1.941  0.8149  0.9146  0.2075
 4805TIP3   OH214420   4.181   5.650   1.245 -0.1737 -0.0503 -0.0834
 4805TIP3    H114421   4.169   5.563   1.208 -0.5323 -0.3760  0.7720
 4805TIP3    H214422   4.093   5.687   1.247 -0.3470 -0.4656  1.4356
 4806TIP3   OH214423   3.522   5.798   4.009 -0.3989 -0.0608 -0.0797
 4806TIP3    H114424   3.493   5.824   4.097  0.8219 -1.1522  0.6951
 4806TIP3    H214425   3.618   5.806   4.013 -0.3885  1.4173 -1.8504
 4807TIP3   OH214426   3.298   5.882   3.104 -0.1548  0.1880 -0.0045
 4807TIP3    H114427   3.303   5.963   3.054  1.6782  0.2559  0.2219
 4807TIP3    H214428   3.225   5.895   3.164 -0.1648  1.4931 -0.2720
 4808TIP3   OH214429   3.432   3.310   1.426  0.0557 -0.4357 -0.2783
 4808TIP3    H114430   3.379   3.242   1.384 -0.4555  0.1853 -0.6661
 4808TIP3    H214431   3.494   3.338   1.358 -0.1088 -0.1296 -0.3068
 4809TIP3   OH214432   2.520   0.579   1.351  0.2211 -0.3024  0.4961
 4809TIP3    H114433   2.545   0.575   1.443  0.0611 -1.2308  0.5099
 4809TIP3    H214434   2.425   0.592   1.353  0.4683  2.0343  0.4414
 4810TIP3   OH214435   1.361   3.931   1.428  0.2472 -0.6315  0.1418
 4810TIP3    H114436   1.400   3.857   1.474  0.7424 -0.4047  0.0941
 4810TIP3    H214437   1.331   3.990   1.498 -0.3867 -0.9957  0.1819
 4811TIP3   OH214438   5.182   2.586   3.237 -0.0447 -0.3228 -0.2169
 4811TIP3    H114439   5.123   2.571   3.312 -0.4086 -0.3258 -0.5018
 4811TIP3    H214440   5.126   2.627   3.171  0.4640  0.4118 -0.1958
 4812TIP3   OH214441   0.439   0.395   4.848  1.2282 -0.6315 -0.1278
 4812TIP3    H114442   0.391   0.460   4.899 -0.1841 -0.2050 -1.8762
 4812TIP3    H214443   0.476   0.335   4.913  1.4788  1.1622  1.4705
 4813TIP3   OH214444   1.963   3.313   4.149 -0.1370  0.1252 -0.0758
 4813TIP3    H114445   2.038   3.285   4.200 -1.0175  0.5185  1.5064
 4813TIP3    H214446   1.991   3.304   4.058  2.2036  1.3223  0.4448
 4814TIP3   OH214447   5.851   1.143   4.272  0.4423  0.3365  0.3035
 4814TIP3    H114448   5.890   1.224   4.238  2.7159 -0.5898  0.5489
 4814TIP3    H214449   5.777   1.173   4.325 -0.3330  2.0773 -1.6068
 4815TIP3   OH214450   4.907   4.689   2.842 -0.2763 -0.0804  0.2615
 4815TIP3    H114451   4.969   4.748   2.799 -3.4301  2.0991 -1.7363
 4815TIP3    H214452   4.874   4.740   2.916 -0.4426 -0.7933  0.6854
 4816TIP3   OH214453   5.014   5.683   0.046 -0.2348 -0.1760 -0.0334
 4816TIP3    H114454   5.108   5.680   0.063 -0.4221 -2.7975  1.0156
 4816TIP3    H214455   4.977   5.617   0.104 -2.4739 -0.7170 -1.9141
 4817TIP3   OH214456   0.521   3.942   3.210  0.0163 -0.6735  0.2739
 4817TIP3    H114457   0.478   4.026   3.191  0.1086 -0.4008  1.1882
 4817TIP3    H214458   0.533   3.901   3.125 -0.2652  0.1331 -0.1682
 4818TIP3   OH214459   2.651   2.895   4.597 -0.1614 -0.0652 -0.0125
 4818TIP3    H114460   2.605   2.840   4.660  0.0832  0.8016  0.9591
 4818TIP3    H214461   2.620   2.984   4.615  2.1575  0.6187  0.9835
 4819TIP3   OH214462   3.066   2.601   1.785  0.2518 -0.4251  0.2639
 4819TIP3    H114463   3.030   2.540   1.721 -0.0469 -1.1141  1.0664
 4819TIP3    H214464   2.991   2.656   1.810 -0.0004 -1.1403  1.1213
 4820TIP3   OH214465   5.929   1.437   0.744 -0.2653  0.0033  0.0883
 4820TIP3    H114466   5.924   1.492   0.822 -0.5357 -0.4581  0.3998
 4820TIP3    H214467   5.914   1.348   0.776 -0.3464 -0.1955 -0.4865
 4821TIP3   OH214468   4.748   1.627   1.735 -0.0365  0.3783  0.5211
 4821TIP3    H114469   4.735   1.538   1.770  1.9488 -0.3544 -0.4667
 4821TIP3    H214470   4.741   1.616   1.640 -1.7211  1.6874  0.4454
 4822TIP3   OH214471   0.121   2.825   4.677  0.6183 -0.3071  0.5324
 4822TIP3    H114472   0.081   2.844   4.762 -0.9294  0.0016 -0.2386
 4822TIP3    H214473   0.165   2.906   4.652 -1.0643  0.4587 -0.0883
 4823TIP3   OH214474   6.006   5.357   2.264 -0.0823  0.2239  0.1784
 4823TIP3    H114475   5.937   5.415   2.231 -0.3369 -1.2105 -2.0235
 4823TIP3    H214476   6.055   5.331   2.186  0.6142 -1.7759  1.2119
 4824TIP3   OH214477   3.755   2.249   2.478 -0.4641  0.3303 -0.3560
 4824TIP3    H114478   3.767   2.328   2.531  1.5668 -1.2615  1.7230
 4824TIP3    H214479   3.715   2.186   2.537 -2.6067 -0.1340 -2.1563
 4825TIP3   OH214480   5.590   4.520   1.019  0.1781  0.1761  0.0574
 4825TIP3    H114481   5.586   4.464   0.941 -0.6716  0.6840 -0.2813
 4825TIP3    H214482   5.614   4.461   1.090  2.7410  0.0077 -0.8563
 4826TIP3   OH214483   0.327   0.934   1.224 -0.4557  0.6197 -0.1546
 4826TIP3    H114484   0.259   0.964   1.285  0.4015  2.2769  0.0419
 4826TIP3    H214485   0.405   0.925   1.279 -0.4694 -1.2193 -0.3877
 4827TIP3   OH214486   2.237   0.274   2.588 -0.3525  0.1387  0.8184
 4827TIP3    H114487   2.279   0.317   2.663  1.4821 -0.7744  0.3973
 4827TIP3    H214488   2.237   0.181   2.612  1.0252 -0.2697 -0.5911
 4828TIP3   OH214489   4.201   5.938   0.228  0.7642 -0.4520  0.3531
 4828TIP3    H114490   4.151   5.995   0.170  1.5446  0.4678  0.5651
 4828TIP3    H214491   4.284   5.924   0.183  1.9680  1.4478  1.8228
 4829TIP3   OH214492   1.747   0.957   5.001 -0.5974 -0.4856 -0.5247
 4829TIP3    H114493   1.747   0.916   5.088 -0.4917 -0.1591 -0.3698
 4829TIP3    H214494   1.654   0.969   4.980 -0.6164 -0.0899 -0.2293
 4830TIP3   OH214495   0.396   5.281   5.045 -0.0182  0.0740 -0.4445
 4830TIP3    H114496   0.385   5.207   4.985  0.9333 -1.4696  1.1763
 4830TIP3    H214497   0.453   5.342   4.998  0.4380 -0.9382 -1.2369
 4831TIP3   OH214498   1.412   1.200   4.620  0.0037  0.4949 -0.1117
 4831TIP3    H114499   1.370   1.129   4.670  0.5090 -1.8254 -2.7757
 4831TIP3    H214500   1.487   1.226   4.674  1.5661 -3.1303 -0.2839
 4832TIP3   OH214501   4.533   5.056   4.994 -0.0339 -0.0163  0.2629
 4832TIP3    H114502   4.570   5.089   4.912  0.9999  0.2374  0.8101
 4832TIP3    H214503   4.449   5.018   4.969 -0.0312  0.6434 -0.8078
 4833TIP3   OH214504   2.735   4.925   0.780 -0.3173 -0.3250 -0.1528
 4833TIP3    H114505   2.716   5.019   0.781 -0.1301 -0.2904  0.1268
 4833TIP3    H214506   2.732   4.902   0.687 -0.4808 -0.0675 -0.2152
 4834TIP3   OH214507   4.825   4.711   0.131 -0.3145 -0.4373  0.6447
 4834TIP3    H114508   4.820   4.776   0.061  1.8853 -1.8185 -0.8982
 4834TIP3    H214509   4.734   4.699   0.159 -0.9708  2.0012 -0.1759
 4835TIP3   OH214510   4.445   0.078   5.104 -0.5006 -0.4405  0.3941
 4835TIP3    H114511   4.503   0.046   5.035 -1.3752 -2.1144  0.3868
 4835TIP3    H214512   4.402  -0.000   5.137 -1.0027  0.4791  2.0262
 4836TIP3   OH214513   3.955   3.530   1.994  0.0616 -0.0776  0.4282
 4836TIP3    H114514   3.885   3.527   1.929  0.6611  0.0196 -0.2321
 4836TIP3    H214515   3.984   3.439   2.002  0.9705  0.1065 -0.5431
 4837TIP3   OH214516   0.693   0.793   2.695  0.3521 -0.1863  0.4471
 4837TIP3    H114517   0.784   0.819   2.681  0.2053 -0.3821 -0.9253
 4837TIP3    H214518   0.689   0.773   2.789  1.1972  1.7748  0.9573
 4838TIP3   OH214519   1.972   0.526   2.150  0.0455 -0.1483 -0.2564
 4838TIP3    H114520   1.944   0.541   2.241 -0.0402  0.5308 -0.3974
 4838TIP3    H214521   1.966   0.431   2.140 -1.6558 -0.0962 -0.0994
 4839TIP3   OH214522   1.459   4.406   4.112 -0.0885 -0.2612  0.2288
 4839TIP3    H114523   1.391   4.471   4.129 -1.9030 -2.3239  1.4845
 4839TIP3    H214524   1.411   4.330   4.079  1.9886 -0.8683 -1.5685
 4840TIP3   OH214525   0.608   4.310   0.348 -0.6344  0.1238  0.4516
 4840TIP3    H114526   0.690   4.330   0.302  0.7313 -2.2001  1.6483
 4840TIP3    H214527   0.632   4.313   0.441 -2.0859  0.0686  0.8470
 4841TIP3   OH214528   3.035   4.568   4.276 -0.1839  0.2053  0.5623
 4841TIP3    H114529   2.966   4.535   4.333 -0.9667 -0.2936 -0.6422
 4841TIP3    H214530   3.030   4.513   4.198  1.5662  0.1789  0.4352
 4842TIP3   OH214531   1.207   3.842   4.679 -0.0588 -0.1352  0.3053
 4842TIP3    H114532   1.223   3.935   4.662  0.3768 -0.3612 -0.5368
 4842TIP3    H214533   1.203   3.836   4.775  1.1616  0.5424  0.4126
 4843TIP3   OH214534   0.482   1.130   0.481  0.0856 -0.2123 -0.3917
 4843TIP3    H114535   0.400   1.175   0.461  0.2755  0.1312 -0.4069
 4843TIP3    H214536   0.524   1.186   0.547 -0.4428 -1.2103  0.8447
 4844TIP3   OH214537   1.372   1.203   2.292 -0.0543 -0.1048 -0.5635
 4844TIP3    H114538   1.387   1.116   2.256 -1.6741 -1.1755  1.1511
 4844TIP3    H214539   1.442   1.215   2.356 -1.2088 -1.2715  0.9924
 4845TIP3   OH214540   5.473   4.396   3.727  0.1071 -0.3902 -0.4919
 4845TIP3    H114541   5.482   4.413   3.821  0.1829 -2.3286 -0.1087
 4845TIP3    H214542   5.420   4.468   3.695 -0.0794  0.2230  1.0790
 4846TIP3   OH214543   4.879   4.856   4.540 -0.6334 -0.9234 -0.3476
 4846TIP3    H114544   4.843   4.925   4.485 -0.8340 -0.4743  0.3305
 4846TIP3    H214545   4.891   4.781   4.481  2.8987  0.7075 -1.9821
 4847TIP3   OH214546   3.925   3.067   4.292 -0.5053 -0.0876  0.2553
 4847TIP3    H114547   3.842   3.061   4.245 -0.4307 -2.7047  0.3272
 4847TIP3    H214548   3.925   2.992   4.351  2.0000 -0.3182  0.0675
 4848TIP3   OH214549   1.177   5.044   5.165  0.5227 -0.1762  0.0612
 4848TIP3    H114550   1.258   5.040   5.115 -0.5563  0.6110 -1.8467
 4848TIP3    H214551   1.160   5.138   5.175 -0.5165 -0.3238 -0.2084
 4849TIP3   OH214552   2.628   0.636   2.281  0.3868 -0.9100 -0.5244
 4849TIP3    H114553   2.580   0.646   2.198 -0.8291 -1.1970  0.1096
 4849TIP3    H214554   2.626   0.541   2.297  1.3343 -0.9444 -0.5581
 4850TIP3   OH214555   0.517   0.842   0.595 -0.2116 -0.3418  0.4443
 4850TIP3    H114556   0.535   0.914   0.535 -1.7079 -1.2752 -1.2174
 4850TIP3    H214557   0.545   0.874   0.680 -1.2000  2.3508 -0.1649
 4851TIP3   OH214558   3.671   4.831   2.375  0.5994  0.0880  0.2653
 4851TIP3    H114559   3.673   4.778   2.295 -0.1570 -1.0199  0.9550
 4851TIP3    H214560   3.762   4.859   2.387  0.4278  2.0398 -2.0836
 4852TIP3   OH214561   4.323   0.624   1.837 -0.1806  0.3139 -0.0911
 4852TIP3    H114562   4.291   0.713   1.850 -0.8887  0.0057  0.3358
 4852TIP3    H214563   4.417   0.629   1.856  0.4134  1.5705 -2.9374
 4853TIP3   OH214564   0.331   4.359   1.539  0.4182 -0.0672  0.1893
 4853TIP3    H114565   0.360   4.409   1.616  1.5613 -0.8473  0.2829
 4853TIP3    H214566   0.407   4.307   1.514 -0.3144 -0.7058 -0.7717
 4854TIP3   OH214567   0.220   4.051   1.998 -0.4002  0.0742  0.4553
 4854TIP3    H114568   0.188   4.008   1.919 -0.9463  0.5611  0.4061
 4854TIP3    H214569   0.204   3.988   2.068 -0.5759 -0.0710  0.2853
 4855TIP3   OH214570   4.740   2.926   1.558  0.0604  0.4647  0.2679
 4855TIP3    H114571   4.833   2.906   1.542 -0.3250 -3.3375  1.6373
 4855TIP3    H214572   4.702   2.934   1.471  1.2455 -0.6595 -0.4011
 4856TIP3   OH214573   2.996   0.831   1.998 -0.3110  0.4431  0.4956
 4856TIP3    H114574   3.030   0.864   1.914  0.6770  0.0730  0.7409
 4856TIP3    H214575   3.071   0.834   2.057 -0.8314  0.0539  1.1858
 4857TIP3   OH214576   1.820   5.826   2.670 -0.0454 -0.8565 -0.0358
 4857TIP3    H114577   1.829   5.743   2.717 -1.1577 -2.5200 -2.5512
 4857TIP3    H214578   1.902   5.836   2.622  0.8528  0.5474  1.6558
 4858TIP3   OH214579   4.151   4.148   3.706  0.0260  0.1809  0.3835
 4858TIP3    H114580   4.217   4.099   3.656  0.5955  1.9254 -0.6680
 4858TIP3    H214581   4.188   4.155   3.794  0.3953 -0.4174  0.2797
 4859TIP3   OH214582   2.315   1.556   1.243  0.0665  0.3580 -0.4850
 4859TIP3    H114583   2.321   1.468   1.280 -0.6186 -0.3127 -1.8947
 4859TIP3    H214584   2.224   1.564   1.216 -0.2646  2.0985  0.9823
 4860TIP3   OH214585   0.500   2.580   4.248 -0.1220 -0.7286  0.2566
 4860TIP3    H114586   0.577   2.635   4.238  0.9436 -2.2786 -0.4660
 4860TIP3    H214587   0.444   2.604   4.174  0.0664 -0.2449  0.2672
 4861TIP3   OH214588   5.065   1.630   2.578  1.0474 -0.4267  0.0018
 4861TIP3    H114589   5.153   1.618   2.544  0.4018 -0.1142 -1.8986
 4861TIP3    H214590   5.016   1.668   2.505 -0.1621  1.3899  1.6396
 4862TIP3   OH214591   5.478   4.472   4.773  0.4524  0.0298  0.1290
 4862TIP3    H114592   5.436   4.484   4.688  0.6804  0.6859  0.1081
 4862TIP3    H214593   5.461   4.380   4.794 -2.0836  0.5586  0.7072
 4863TIP3   OH214594   1.472   3.750   2.361 -0.4588 -0.1846  0.0394
 4863TIP3    H114595   1.449   3.672   2.311  1.7815 -0.2656 -0.9871
 4863TIP3    H214596   1.476   3.820   2.296 -0.3564  0.3389  0.5976
 4864TIP3   OH214597   4.972   4.524   4.299 -0.1224  0.3590  0.0039
 4864TIP3    H114598   5.066   4.526   4.285 -0.0496  2.4877  0.3788
 4864TIP3    H214599   4.941   4.449   4.248  1.9165 -1.3222  1.1043
 4865TIP3   OH214600   5.436   4.933   3.606  0.0582 -0.5393 -0.4615
 4865TIP3    H114601   5.488   4.862   3.569  0.1399 -0.6154 -0.2064
 4865TIP3    H214602   5.350   4.895   3.620  0.7987 -1.4543  2.2302
 4866TIP3   OH214603   1.832   4.224   3.416  0.6567  0.2945 -0.6173
 4866TIP3    H114604   1.834   4.262   3.505  3.1712 -0.0517 -0.4553
 4866TIP3    H214605   1.920   4.241   3.381  0.1250 -0.7252 -2.5683
 4867TIP3   OH214606   3.448   4.132   1.035  0.3485  0.2696 -0.3303
 4867TIP3    H114607   3.365   4.132   1.083 -0.4816 -0.5504 -1.6727
 4867TIP3    H214608   3.515   4.144   1.102 -0.9159  2.5238  0.6280
 4868TIP3   OH214609   4.516   1.786   2.332 -0.5510  0.5048 -0.0900
 4868TIP3    H114610   4.568   1.825   2.402 -1.9233  1.6877  0.3037
 4868TIP3    H214611   4.477   1.708   2.373  2.0166 -1.2937 -0.8176
 4869TIP3   OH214612   3.359   1.400   3.310 -0.1114 -0.7054 -0.3661
 4869TIP3    H114613   3.442   1.376   3.269  0.5650  0.9750 -0.0966
 4869TIP3    H214614   3.295   1.400   3.239  0.4211 -0.6820 -0.8455
 4870TIP3   OH214615   0.445   3.848   3.548 -0.2074  0.0179 -0.5200
 4870TIP3    H114616   0.399   3.834   3.631 -1.2177 -1.3120 -1.2561
 4870TIP3    H214617   0.496   3.928   3.562 -0.0045 -0.4083  1.5156
 4871TIP3   OH214618   3.639   4.632   0.781  0.1677 -0.4627  0.2675
 4871TIP3    H114619   3.661   4.708   0.834 -0.2690 -1.2307  1.6033
 4871TIP3    H214620   3.723   4.604   0.744  0.1704  1.3193 -1.2202
 4872TIP3   OH214621   5.301   3.762   2.604 -0.0281 -0.0546 -0.1029
 4872TIP3    H114622   5.339   3.789   2.688 -1.0674 -0.4901  0.5213
 4872TIP3    H214623   5.375   3.723   2.556  0.4068 -0.5427  0.9334
 4873TIP3   OH214624   0.671   5.731   4.441 -0.8150 -0.0842  0.3531
 4873TIP3    H114625   0.642   5.813   4.401  2.2310  1.6052  1.3254
 4873TIP3    H214626   0.659   5.745   4.535 -0.0811 -0.6692  0.5402
 4874TIP3   OH214627   1.568   2.013   0.920  0.2823  0.0858  0.0351
 4874TIP3    H114628   1.538   2.103   0.903  0.7824  0.1297 -0.6948
 4874TIP3    H214629   1.501   1.957   0.881 -0.2081  0.1315  0.8008
 4875TIP3   OH214630   4.268   2.349   4.735  0.2755  0.5550  0.3636
 4875TIP3    H114631   4.276   2.332   4.641 -0.7570 -1.2556  0.5604
 4875TIP3    H214632   4.183   2.392   4.745 -0.7365 -1.4047  0.6647
 4876TIP3   OH214633   5.867   2.733   0.573  0.2402  0.0375  0.1588
 4876TIP3    H114634   5.786   2.684   0.590  0.0509  0.4693  0.5128
 4876TIP3    H214635   5.936   2.679   0.609  0.2073 -0.7692 -0.9433
 4877TIP3   OH214636   0.817   1.736   0.199  0.5408  0.2548 -0.7080
 4877TIP3    H114637   0.838   1.758   0.290  0.5085  4.0960 -1.4322
 4877TIP3    H214638   0.726   1.705   0.202  1.0413 -1.1920  0.6832
 4878TIP3   OH214639   5.194   5.771   1.118  0.5147 -0.0348  0.0161
 4878TIP3    H114640   5.281   5.794   1.153 -0.3784  1.4430  1.3678
 4878TIP3    H214641   5.143   5.851   1.127 -0.8323 -0.7095 -1.3566
 4879TIP3   OH214642   4.926   4.706   3.614  0.1935 -0.1688  0.0657
 4879TIP3    H114643   4.928   4.626   3.665 -0.7106 -0.5044 -0.4039
 4879TIP3    H214644   5.001   4.698   3.554  0.4131 -0.4150  0.3685
 4880TIP3   OH214645   5.283   5.544   1.819  0.4763  0.9551  0.0261
 4880TIP3    H114646   5.273   5.474   1.754  2.6168  1.7463 -1.2774
 4880TIP3    H214647   5.228   5.517   1.893 -1.1655 -0.5401 -1.6492
 4881TIP3   OH214648   4.866   0.937   4.177  0.4665 -0.0937 -0.3786
 4881TIP3    H114649   4.957   0.912   4.166 -0.2471 -3.0818 -0.4874
 4881TIP3    H214650   4.837   0.963   4.090  1.0897  0.4628 -0.4231
 4882TIP3   OH214651   2.215   5.297   2.711  0.2051 -0.0321 -0.4706
 4882TIP3    H114652   2.219   5.267   2.801  0.3293 -2.1866 -1.1265
 4882TIP3    H214653   2.302   5.330   2.692 -0.8144  4.4176  1.3233
 4883TIP3   OH214654   3.522   1.297   1.636 -1.0490 -0.6283  0.1587
 4883TIP3    H114655   3.600   1.318   1.687 -0.3115 -0.4702 -0.9810
 4883TIP3    H214656   3.464   1.253   1.697  0.8445 -2.7918  0.5285
 4884TIP3   OH214657   3.707   2.334   1.756  0.8251  1.0276  0.4020
 4884TIP3    H114658   3.720   2.361   1.847 -0.3589  1.6945  0.3992
 4884TIP3    H214659   3.749   2.247   1.751 -0.1881  0.3923  1.9351
 4885TIP3   OH214660   2.845   3.914   2.956  0.3987 -0.1621  0.2070
 4885TIP3    H114661   2.795   3.835   2.934 -2.5138  1.6640 -0.2940
 4885TIP3    H214662   2.806   3.945   3.038  1.2013  0.9564  0.1904
 4886TIP3   OH214663   2.327   1.455   3.114 -0.0744  0.4232  0.5397
 4886TIP3    H114664   2.235   1.477   3.133 -0.4355 -2.1024  2.2063
 4886TIP3    H214665   2.377   1.513   3.171 -0.6986  0.9707  0.5449
 4887TIP3   OH214666   4.597   5.880   0.962 -0.0176  0.6349 -0.1265
 4887TIP3    H114667   4.521   5.834   0.925  0.6570 -0.7306  0.1357
 4887TIP3    H214668   4.666   5.814   0.964  1.0180  1.7042  0.1819
 4888TIP3   OH214669   5.539   4.758   0.738 -0.0877  0.6214 -0.6506
 4888TIP3    H114670   5.463   4.756   0.796 -0.4748  1.9335 -1.0626
 4888TIP3    H214671   5.590   4.681   0.762 -1.6795 -0.4425 -0.5544
 4889TIP3   OH214672   0.565   4.843   1.006 -0.0387  0.1627  0.2677
 4889TIP3    H114673   0.644   4.836   0.954  0.9387 -1.1330  1.8177
 4889TIP3    H214674   0.498   4.798   0.954 -0.3050  2.7906 -1.8754
 4890TIP3   OH214675   5.690   3.006   2.206 -0.4896 -0.1065 -0.0297
 4890TIP3    H114676   5.655   2.919   2.223  0.1854 -0.6628 -1.3740
 4890TIP3    H214677   5.760   3.017   2.270 -3.3366  1.3009  3.1977
 4891TIP3   OH214678   1.426   1.255   3.851 -0.0080  0.3413  0.4213
 4891TIP3    H114679   1.371   1.178   3.842  1.3633 -0.5382 -1.0645
 4891TIP3    H214680   1.371   1.328   3.823 -0.6842 -0.3894 -0.2075
 4892TIP3   OH214681   2.569   2.308   1.048 -0.2303 -0.7080 -0.5329
 4892TIP3    H114682   2.627   2.335   1.119  0.0741 -1.1689 -0.6039
 4892TIP3    H214683   2.588   2.215   1.036  0.3729 -0.4325 -1.8239
 4893TIP3   OH214684   5.767   5.265   2.623 -0.6297 -0.3922 -0.2521
 4893TIP3    H114685   5.747   5.220   2.541 -0.4135 -0.7404 -0.1166
 4893TIP3    H214686   5.863   5.273   2.623 -0.6054 -0.6555  0.1032
 4894TIP3   OH214687   4.827   2.430   1.460 -0.3393  0.2428 -0.0276
 4894TIP3    H114688   4.757   2.480   1.501 -0.0785 -0.5990  1.5035
 4894TIP3    H214689   4.782   2.370   1.400 -0.9686 -0.4095  1.0670
 4895TIP3   OH214690   5.654   1.038   4.029 -0.5728  0.4809  0.2227
 4895TIP3    H114691   5.648   1.133   4.028 -0.8846  0.4575 -0.3006
 4895TIP3    H214692   5.706   1.015   3.952  2.0572  0.3682  1.9125
 4896TIP3   OH214693   2.690   0.419   5.144  0.2560  0.4139 -0.4501
 4896TIP3    H114694   2.611   0.442   5.095 -1.7818 -3.0264  0.8389
 4896TIP3    H214695   2.675   0.455   5.231  0.8978  1.0908 -0.6089
 4897TIP3   OH214696   4.337   4.389   4.486  0.5481 -0.2382  0.0743
 4897TIP3    H114697   4.418   4.418   4.445  0.0600  1.8130  0.4284
 4897TIP3    H214698   4.277   4.463   4.475 -0.8797 -1.2252  0.8981
 4898TIP3   OH214699   2.216   3.068   0.745  0.0578 -0.7935 -0.0026
 4898TIP3    H114700   2.181   3.085   0.832  3.5327  0.7540  1.3008
 4898TIP3    H214701   2.286   3.003   0.761  1.8133  0.6844 -1.2625
 4899TIP3   OH214702   0.423   2.040   4.534 -0.9762 -0.5584 -0.5123
 4899TIP3    H114703   0.452   1.959   4.493 -0.9765 -0.6438 -0.3451
 4899TIP3    H214704   0.485   2.054   4.606 -0.8952 -0.3388 -0.6235
 4900TIP3   OH214705   2.591   1.212   3.708  0.0296  0.5318  0.0573
 4900TIP3    H114706   2.660   1.224   3.643  1.1579 -2.0153  0.6706
 4900TIP3    H214707   2.620   1.137   3.760 -2.5644  0.2390  1.2234
 4901TIP3   OH214708   1.127   3.422   1.214 -0.3821 -0.3828  0.1238
 4901TIP3    H114709   1.178   3.490   1.170 -2.7695  0.7352 -1.1409
 4901TIP3    H214710   1.153   3.341   1.171  0.7311  0.0453 -0.0611
 4902TIP3   OH214711   4.541   3.530   0.050  0.1935  0.3839 -0.0077
 4902TIP3    H114712   4.498   3.611   0.022  1.6745  0.5644 -1.9899
 4902TIP3    H214713   4.619   3.560   0.097  1.2838  0.2088 -1.5986
 4903TIP3   OH214714   0.490   2.165   2.941 -0.7271  0.1419  0.2909
 4903TIP3    H114715   0.441   2.119   2.872  0.5127 -0.9914  0.1237
 4903TIP3    H214716   0.507   2.098   3.007 -0.6433  0.8705  1.0265
 4904TIP3   OH214717   1.352   5.543   0.767  0.0559  0.2566 -0.1467
 4904TIP3    H114718   1.304   5.619   0.801 -0.1785 -0.5538  1.3919
 4904TIP3    H214719   1.398   5.577   0.690 -0.3014  1.8781  0.3140
 4905TIP3   OH214720   1.224   2.468   2.756 -0.2538 -0.1222 -0.1071
 4905TIP3    H114721   1.239   2.552   2.800 -2.3423  1.2554 -1.8440
 4905TIP3    H214722   1.172   2.418   2.819 -0.4717  0.5565  0.2676
 4906TIP3   OH214723   4.015   0.219   1.631  0.2936  0.3675  0.1867
 4906TIP3    H114724   4.080   0.150   1.639 -1.2931 -1.1690  0.4881
 4906TIP3    H214725   4.062   0.299   1.654  2.4175 -0.4468 -1.0089
 4907TIP3   OH214726   5.504   3.521   2.591  0.3345 -0.2750 -0.1566
 4907TIP3    H114727   5.569   3.589   2.570  0.2914 -0.1011  0.2635
 4907TIP3    H214728   5.464   3.499   2.507  0.2024  0.3694 -0.2648
 4908TIP3   OH214729   1.696   5.517   1.904 -0.9778 -0.2746  0.3636
 4908TIP3    H114730   1.749   5.587   1.944 -0.5558 -0.3036 -0.1324
 4908TIP3    H214731   1.736   5.436   1.936  1.4517 -0.4180 -2.5497
 4909TIP3   OH214732   5.900   0.397   3.241 -0.4519 -0.1307 -0.1254
 4909TIP3    H114733   5.938   0.321   3.285  0.5776 -0.6806 -1.8580
 4909TIP3    H214734   5.918   0.470   3.300  0.3397 -0.9313  0.6556
 4910TIP3   OH214735   6.115   2.560   1.937  0.2221  0.1218  0.1292
 4910TIP3    H114736   6.090   2.591   1.849  0.8514 -0.4894 -0.2765
 4910TIP3    H214737   6.144   2.470   1.923  2.3334  0.6778  0.6170
 4911TIP3   OH214738   5.462   5.421   1.608 -0.3080  0.5841 -0.4990
 4911TIP3    H114739   5.450   5.421   1.703  1.4952 -1.0002 -0.2147
 4911TIP3    H214740   5.442   5.331   1.582 -0.5278  0.9387 -1.6085
 4912TIP3   OH214741   5.745   5.349   0.115 -0.4781 -0.0449 -0.3946
 4912TIP3    H114742   5.722   5.290   0.187 -2.2281  1.1832  0.1212
 4912TIP3    H214743   5.771   5.290   0.043  0.2689 -1.3275  0.8651
 4913TIP3   OH214744   0.544   0.304   1.509 -0.3851 -0.0133  0.1443
 4913TIP3    H114745   0.612   0.315   1.575 -0.4827 -0.7932  0.3828
 4913TIP3    H214746   0.463   0.330   1.554 -0.6514 -1.7831  0.7856
 4914TIP3   OH214747   4.170   2.663   0.720  0.2133 -0.2292 -0.3920
 4914TIP3    H114748   4.215   2.681   0.802 -1.0100  0.2047  0.2074
 4914TIP3    H214749   4.112   2.738   0.707 -2.2005 -1.8661  0.1867
 4915TIP3   OH214750   5.762   2.952   3.263  0.6654  0.2647  0.1617
 4915TIP3    H114751   5.839   2.990   3.221  0.4186  1.0612  0.4158
 4915TIP3    H214752   5.700   2.939   3.191  0.4369  1.1422  0.1883
 4916TIP3   OH214753   1.088   0.338   4.087 -0.7099  0.3771  0.1249
 4916TIP3    H114754   1.160   0.313   4.029 -1.4461 -0.1322 -0.5909
 4916TIP3    H214755   1.089   0.271   4.155  0.0688  0.8987  0.6534
 4917TIP3   OH214756   2.341   3.416   3.046  0.3295 -0.4998  0.2068
 4917TIP3    H114757   2.346   3.457   2.960 -1.0119 -1.1217 -0.2041
 4917TIP3    H214758   2.323   3.488   3.106 -1.0735 -0.3268 -0.3738
 4918TIP3   OH214759   0.643   4.030   5.098 -0.3559 -0.2619 -0.1871
 4918TIP3    H114760   0.592   4.111   5.101 -0.1849 -0.1229 -0.8711
 4918TIP3    H214761   0.581   3.961   5.122 -0.3362  0.1376  1.0680
 4919TIP3   OH214762   3.440   4.996   0.989 -0.2452 -0.0300 -0.0545
 4919TIP3    H114763   3.439   5.036   0.902 -0.3623 -1.7857 -0.9134
 4919TIP3    H214764   3.374   4.927   0.985  0.4745 -0.8336  1.0747
 4920TIP3   OH214765   2.877   1.638   2.182  0.0102 -0.3510 -0.0582
 4920TIP3    H114766   2.873   1.732   2.164 -1.5464 -0.6136 -1.2915
 4920TIP3    H214767   2.816   1.625   2.255  0.4526 -0.3713  0.3119
 4921TIP3   OH214768   0.962   3.200   4.113  0.4004  0.1410 -0.1743
 4921TIP3    H114769   0.918   3.283   4.134 -0.5020  0.0694 -1.6583
 4921TIP3    H214770   1.029   3.224   4.049 -0.3087 -0.3508 -1.1175
 4922TIP3   OH214771   6.183   4.462   0.080  0.6855  0.5660 -0.0053
 4922TIP3    H114772   6.124   4.495   0.012 -0.1527 -0.0211  0.4187
 4922TIP3    H214773   6.162   4.369   0.087 -0.2776  0.8797  2.0391
 4923TIP3   OH214774   0.687   0.748   3.347 -0.2460  0.6085  0.0860
 4923TIP3    H114775   0.719   0.662   3.321  0.4143  0.7673  0.3406
 4923TIP3    H214776   0.655   0.736   3.437 -0.8797  0.4559 -0.1583
 4924TIP3   OH214777   6.162   3.239   3.746 -0.6914  0.1002  0.2987
 4924TIP3    H114778   6.183   3.314   3.801  0.0612 -0.2290  0.4799
 4924TIP3    H214779   6.141   3.169   3.808  0.8475 -0.4726  0.2259
 4925TIP3   OH214780   0.490   4.090   2.873  0.1656  0.8705 -0.0019
 4925TIP3    H114781   0.456   4.120   2.957  1.2241  0.1309  0.7214
 4925TIP3    H214782   0.484   4.166   2.816 -2.2560  0.9007  0.1856
 4926TIP3   OH214783   2.896   4.963   4.435 -0.2895  0.0397 -0.5092
 4926TIP3    H114784   2.844   4.885   4.413  0.3606 -0.1708 -1.3224
 4926TIP3    H214785   2.903   5.010   4.352  3.0386 -1.2509 -1.0912
 4927TIP3   OH214786   5.794   5.520   3.094 -0.2049 -0.5744 -0.3201
 4927TIP3    H114787   5.807   5.436   3.137  1.4634 -0.2582 -0.1202
 4927TIP3    H214788   5.821   5.505   3.004 -1.0571 -0.5461 -0.5836
 4928TIP3   OH214789   1.942   3.476   5.116 -1.0196  0.3489  0.3733
 4928TIP3    H114790   1.865   3.506   5.068 -1.6338  0.5989  1.4832
 4928TIP3    H214791   2.016   3.503   5.062 -1.6807  0.6174 -0.4260
 4929TIP3   OH214792   3.940   1.228   4.050  0.1837  0.6099  0.2564
 4929TIP3    H114793   3.996   1.244   4.126  1.0992 -2.5050  0.3493
 4929TIP3    H214794   3.878   1.161   4.079  1.0925 -1.3048 -1.8997
 4930TIP3   OH214795   5.361   3.243   2.673 -0.0171 -0.6224  0.4503
 4930TIP3    H114796   5.309   3.322   2.690  1.2591  0.3859 -0.1349
 4930TIP3    H214797   5.359   3.195   2.755  0.5485  0.8535  1.3656
 4931TIP3   OH214798   0.159   5.044   3.592  0.3099 -0.3382  0.2558
 4931TIP3    H114799   0.070   5.079   3.603  0.3896 -0.0526 -0.0039
 4931TIP3    H214800   0.211   5.088   3.659  0.2563 -0.5038  0.4064
 4932TIP3   OH214801   0.646   3.066   2.732 -0.1005  0.0495  0.6422
 4932TIP3    H114802   0.636   3.110   2.817 -0.1043  0.3703  0.4769
 4932TIP3    H214803   0.623   3.132   2.668  0.0957 -0.1330  0.3800
 4933TIP3   OH214804   1.244   0.346   2.507  0.0506  0.4588  0.3845
 4933TIP3    H114805   1.243   0.436   2.476  1.5403  0.6185  0.7297
 4933TIP3    H214806   1.181   0.344   2.579 -2.4081  0.4113 -1.6143
 4934TIP3   OH214807   5.635   3.325   3.646 -0.3510  0.2591 -0.1778
 4934TIP3    H114808   5.575   3.357   3.714  0.7076  1.7166  0.1193
 4934TIP3    H214809   5.675   3.247   3.685 -0.4677  0.5272  0.4913
 4935TIP3   OH214810   1.993   0.140   0.524  0.2765  0.3245 -0.2351
 4935TIP3    H114811   1.957   0.171   0.607  1.7504 -0.0613  0.5815
 4935TIP3    H214812   1.931   0.171   0.457 -2.0335 -1.0478  1.1275
 4936TIP3   OH214813   3.145   2.484   4.280  0.6210 -0.2476  0.1920
 4936TIP3    H114814   3.169   2.430   4.205  1.4781  0.6845 -0.2157
 4936TIP3    H214815   3.049   2.489   4.276  0.5256 -1.7027  0.2275
 4937TIP3   OH214816   1.947   4.263   4.139  0.4940 -0.0061 -0.2752
 4937TIP3    H114817   1.944   4.202   4.066  0.5001 -1.4312  0.8533
 4937TIP3    H214818   2.037   4.255   4.173 -0.2713 -1.5759  1.6086
 4938TIP3   OH214819   0.924   3.802   2.711  0.0456  0.4227 -0.5578
 4938TIP3    H114820   0.906   3.894   2.729  0.0661  0.2372  0.4777
 4938TIP3    H214821   0.838   3.761   2.710  0.0667  0.3797 -0.5854
 4939TIP3   OH214822   3.692   0.080   0.085 -0.2764  0.1389  0.2386
 4939TIP3    H114823   3.620   0.028   0.121  0.1048 -0.2790  0.4148
 4939TIP3    H214824   3.739   0.112   0.162  1.7547 -2.4340  0.2215
 4940TIP3   OH214825   2.766   5.375   4.431 -0.1270  0.3020  0.2537
 4940TIP3    H114826   2.705   5.410   4.496  0.4458  0.5890  0.6509
 4940TIP3    H214827   2.760   5.280   4.442  0.8085  0.3545  1.5661
 4941TIP3   OH214828   4.432   1.539   2.416  0.0213 -0.2095 -0.2166
 4941TIP3    H114829   4.484   1.463   2.441  0.0695 -0.5581 -1.3270
 4941TIP3    H214830   4.365   1.504   2.356 -0.3370  0.5252 -0.2615
 4942TIP3   OH214831   4.851   0.589   4.313  0.0095  0.3628 -0.4653
 4942TIP3    H114832   4.834   0.659   4.376 -2.2812 -0.3355 -0.2153
 4942TIP3    H214833   4.770   0.583   4.262  0.9633 -0.6687 -1.9310
 4943TIP3   OH214834   1.435   3.858   3.000  0.1646  0.6326  0.2652
 4943TIP3    H114835   1.488   3.821   3.071 -0.5304 -0.3489  0.2869
 4943TIP3    H214836   1.478   3.828   2.920 -0.6629 -0.6533  0.2814
 4944TIP3   OH214837   0.840   2.293   0.923 -0.1553  0.3207 -0.0548
 4944TIP3    H114838   0.926   2.316   0.887  0.1431 -0.8577 -0.1496
 4944TIP3    H214839   0.811   2.220   0.868 -0.5529 -0.2530  0.9017
 4945TIP3   OH214840   1.960   3.178   1.564  0.8076  0.2977 -0.0508
 4945TIP3    H114841   1.910   3.222   1.633 -0.8647  0.4844 -1.3189
 4945TIP3    H214842   1.914   3.095   1.550  0.2763  0.8582 -1.8585
 4946TIP3   OH214843   0.551   1.534   2.714  0.3913  0.2118 -0.2949
 4946TIP3    H114844   0.477   1.515   2.656  1.2298  0.1859 -1.3805
 4946TIP3    H214845   0.517   1.600   2.775 -0.8974 -0.7115  0.0466
 4947TIP3   OH214846   5.533   1.943   5.032 -0.0078  0.2385  0.2120
 4947TIP3    H114847   5.605   1.921   5.092  0.7956  1.6099 -0.1915
 4947TIP3    H214848   5.525   2.038   5.040 -1.0024  0.2317 -0.6271
 4948TIP3   OH214849   3.980   2.326   1.173 -0.2348 -0.1742  0.5142
 4948TIP3    H114850   3.926   2.249   1.189  2.1103 -2.1265 -0.4180
 4948TIP3    H214851   3.962   2.350   1.082  1.2824 -1.6261 -0.2281
 4949TIP3   OH214852   2.609   3.674   1.636  0.1178  0.0935 -0.4980
 4949TIP3    H114853   2.517   3.698   1.625  0.1347 -0.1814 -1.3284
 4949TIP3    H214854   2.606   3.589   1.680 -0.0542 -0.2023 -1.0625
 4950TIP3   OH214855   3.756   2.469   3.466 -0.2258 -0.5333 -0.0249
 4950TIP3    H114856   3.737   2.536   3.400 -2.2864  0.4722  1.4741
 4950TIP3    H214857   3.771   2.389   3.415  3.5933  1.1647 -1.9534
 4951TIP3   OH214858   6.225   0.145   3.992  0.0392 -0.0165  0.3507
 4951TIP3    H114859   6.259   0.184   4.073  2.5794  0.2665 -0.7524
 4951TIP3    H214860   6.241   0.211   3.925 -1.4927 -0.4797 -0.5102
 4952TIP3   OH214861   4.163   2.261   1.603 -0.7144  0.2584  0.0901
 4952TIP3    H114862   4.188   2.171   1.582  0.1911  0.2662  1.0143
 4952TIP3    H214863   4.207   2.314   1.537 -0.1317  0.1069  0.3478
 4953TIP3   OH214864   3.627   2.438   2.779 -0.7676 -0.4018  0.6076
 4953TIP3    H114865   3.594   2.510   2.833 -1.0027 -0.1312  0.1102
 4953TIP3    H214866   3.667   2.480   2.704  1.3393 -0.6975  1.5052
 4954TIP3   OH214867   6.128   1.349   4.544 -0.3806 -0.2065  0.2826
 4954TIP3    H114868   6.155   1.318   4.458  0.0037 -0.9436  0.6575
 4954TIP3    H214869   6.054   1.406   4.527 -0.1195 -0.1140 -0.5610
 4955TIP3   OH214870   1.919   4.213   3.841  0.1771  0.0897 -0.5474
 4955TIP3    H114871   1.973   4.290   3.860 -0.0487  0.2025 -0.3604
 4955TIP3    H214872   1.834   4.250   3.814 -0.8815 -0.0859  2.2196
 4956TIP3   OH214873   1.992   3.173   2.190  0.2333  0.4685 -0.2046
 4956TIP3    H114874   2.021   3.211   2.273 -0.4964  0.7227 -0.0596
 4956TIP3    H214875   2.009   3.241   2.125  0.9258  0.2207 -0.2928
 4957TIP3   OH214876   4.924   5.429   3.141 -0.2420 -0.5129 -0.2675
 4957TIP3    H114877   4.841   5.383   3.149 -1.2275  1.4104  1.4527
 4957TIP3    H214878   4.931   5.480   3.222  1.0666  1.8290 -1.7455
 4958TIP3   OH214879   3.395   5.185   2.042 -0.3670  0.8052 -0.3678
 4958TIP3    H114880   3.335   5.233   2.099 -1.2472  1.3872 -1.7434
 4958TIP3    H214881   3.414   5.104   2.090 -2.6624  0.3595 -0.1000
 4959TIP3   OH214882   0.787   1.419   0.258 -0.1589 -0.1469  0.4783
 4959TIP3    H114883   0.837   1.347   0.296 -0.3885  0.4116  1.9155
 4959TIP3    H214884   0.847   1.458   0.194  1.0254  0.0828  1.6716
 4960TIP3   OH214885   4.544   3.524   2.575  0.2778  0.4339 -0.4052
 4960TIP3    H114886   4.551   3.486   2.487  2.5321  0.6809 -0.3878
 4960TIP3    H214887   4.457   3.498   2.605 -0.1121 -0.6118 -2.2687
 4961TIP3   OH214888   3.643   2.231   5.075 -0.6345  0.5883 -0.1295
 4961TIP3    H114889   3.686   2.179   5.007 -2.8515 -2.5979  0.6745
 4961TIP3    H214890   3.620   2.313   5.031  3.5660  1.3816 -1.3093
 4962TIP3   OH214891   3.327   5.479   4.481  0.8218  0.3823 -0.7632
 4962TIP3    H114892   3.387   5.540   4.439  1.2167  1.1280  0.8052
 4962TIP3    H214893   3.371   5.395   4.478  0.6256  0.3155 -2.2374
 4963TIP3   OH214894   3.477   3.729   3.058  0.5369  0.2780  0.2734
 4963TIP3    H114895   3.461   3.750   2.966  0.8535  2.0664  0.5967
 4963TIP3    H214896   3.392   3.705   3.093  0.3589 -0.0799 -0.3873
 4964TIP3   OH214897   4.925   2.796   0.293  0.6709  0.0357  0.2314
 4964TIP3    H114898   4.886   2.710   0.280 -0.6793  0.6430  0.0810
 4964TIP3    H214899   4.985   2.807   0.219  0.9336 -0.8044  0.3092
 4965TIP3   OH214900   2.436   2.993   1.319  0.0686 -0.4621  0.3573
 4965TIP3    H114901   2.467   3.069   1.268 -0.3178 -0.9388 -0.6207
 4965TIP3    H214902   2.344   2.985   1.296 -0.8570  0.9069  3.2156
 4966TIP3   OH214903   0.539   5.881   4.227 -0.4120  0.2246 -0.3279
 4966TIP3    H114904   0.446   5.861   4.216 -1.1322  1.7470  2.2528
 4966TIP3    H214905   0.570   5.899   4.138 -2.2962 -1.3043 -1.3699
 4967TIP3   OH214906   2.019   1.024   1.057  0.4717 -0.2396  0.2013
 4967TIP3    H114907   2.077   1.069   0.995 -0.2003 -0.1810 -0.4029
 4967TIP3    H214908   2.034   0.931   1.041 -0.0646 -0.2286 -0.4184
 4968TIP3   OH214909   0.997   3.707   4.527 -0.4295  0.4140 -0.4620
 4968TIP3    H114910   1.060   3.743   4.589  0.3515 -0.8664 -0.4618
 4968TIP3    H214911   0.925   3.770   4.525  0.9712  2.0928 -0.6978
 4969TIP3   OH214912   2.227   4.474   2.090  0.0669  0.3705  0.3171
 4969TIP3    H114913   2.308   4.426   2.108  0.7213  1.3999  0.1857
 4969TIP3    H214914   2.160   4.426   2.138  0.8999  0.0307  1.1788
 4970TIP3   OH214915   4.918   2.119   1.366  0.5689 -0.8513 -0.2737
 4970TIP3    H114916   4.840   2.140   1.418  0.2934  0.7034 -1.2510
 4970TIP3    H214917   4.924   2.190   1.302  1.4134 -2.2129 -1.7923
 4971TIP3   OH214918   2.581   2.182   3.828  0.1603  0.9460 -0.2398
 4971TIP3    H114919   2.516   2.240   3.789  0.8086  1.7610 -0.1197
 4971TIP3    H214920   2.610   2.127   3.755 -1.4026 -0.1520 -0.0833
 4972TIP3   OH214921   5.984   5.398   4.721  0.1923  0.6075  0.2989
 4972TIP3    H114922   5.932   5.454   4.779  1.5274  1.3131  0.8593
 4972TIP3    H214923   5.919   5.350   4.670 -1.0143  0.9656  1.4294
 4973TIP3   OH214924   2.468   4.878   0.424  0.4834  0.4071 -0.3747
 4973TIP3    H114925   2.540   4.818   0.438  1.0501  0.4987 -2.5182
 4973TIP3    H214926   2.499   4.962   0.460  0.4731 -0.0920  0.8318
 4974TIP3   OH214927   6.189   2.341   1.073 -0.1033  0.1053  0.0172
 4974TIP3    H114928   6.255   2.348   1.004 -0.7080 -1.3822 -0.7664
 4974TIP3    H214929   6.234   2.296   1.145 -0.2214 -0.8368 -0.4847
 4975TIP3   OH214930   3.948   5.111   1.105 -0.1578 -0.0383 -0.2835
 4975TIP3    H114931   3.858   5.141   1.090 -0.2565 -0.2769 -0.1673
 4975TIP3    H214932   3.979   5.084   1.019 -0.4746 -0.7185 -0.1889
 4976TIP3   OH214933   0.705   0.043   2.722  0.8574  0.2143 -0.9539
 4976TIP3    H114934   0.696   0.057   2.628  0.9941 -1.7321 -1.2840
 4976TIP3    H214935   0.619   0.014   2.751  1.3697 -1.3174 -0.9003
 4977TIP3   OH214936   3.366   0.208   5.058  0.5953  0.1111 -0.0175
 4977TIP3    H114937   3.276   0.213   5.089  0.6490 -0.1940  0.2002
 4977TIP3    H214938   3.389   0.298   5.035  0.4119  0.2812  0.4415
 4978TIP3   OH214939   2.398   5.432   4.553 -0.1601 -0.0627  0.2531
 4978TIP3    H114940   2.424   5.360   4.611 -1.1216  0.2501  1.0992
 4978TIP3    H214941   2.307   5.411   4.529 -0.4498  0.8610  0.5097
 4979TIP3   OH214942   0.459   5.826   4.743  0.4369  0.1138  0.0063
 4979TIP3    H114943   0.377   5.813   4.792  0.2991 -0.4722 -0.3704
 4979TIP3    H214944   0.516   5.873   4.804  0.0835 -0.1417  0.5405
 4980TIP3   OH214945   5.949   5.110   0.437 -0.0987  0.4617 -0.0089
 4980TIP3    H114946   5.911   5.037   0.485 -0.2746  0.2793 -0.4260
 4980TIP3    H214947   6.033   5.126   0.481 -0.2774  0.3240  0.3844
 4981TIP3   OH214948   4.824   4.252   1.824 -0.3842 -0.2377  0.2787
 4981TIP3    H114949   4.801   4.241   1.732 -0.3715 -1.2392  0.3877
 4981TIP3    H214950   4.787   4.176   1.867 -4.1999  2.2011  1.8545
 4982TIP3   OH214951   2.089   5.036   0.225 -0.0471  0.2217 -0.2277
 4982TIP3    H114952   2.144   4.968   0.187  1.2699  1.0015  0.2161
 4982TIP3    H214953   2.114   5.039   0.317  0.4156  1.7408 -0.3681
 4983TIP3   OH214954   0.194   0.771   1.050  0.2274  0.0521 -0.5372
 4983TIP3    H114955   0.234   0.818   1.124  0.8375 -1.5137  0.1737
 4983TIP3    H214956   0.265   0.763   0.986  0.2404 -0.2507 -0.4845
 4984TIP3   OH214957   5.998   3.734   2.711 -0.4706 -0.6542  0.3960
 4984TIP3    H114958   6.068   3.733   2.776  1.9947  0.9989 -2.0511
 4984TIP3    H214959   5.995   3.644   2.678 -1.5986 -1.4609  2.4861
 4985TIP3   OH214960   4.250   5.847   2.496 -0.1047 -0.3954 -0.3345
 4985TIP3    H114961   4.322   5.877   2.441 -0.2244  0.4207 -0.0516
 4985TIP3    H214962   4.225   5.923   2.548  0.0629 -1.1715  0.9238
 4986TIP3   OH214963   0.977   0.176   0.792  0.1914 -0.4341 -0.2225
 4986TIP3    H114964   1.007   0.263   0.819 -0.3563 -0.6711  1.2614
 4986TIP3    H214965   1.057   0.124   0.785  0.3932 -0.2346  0.5214
 4987TIP3   OH214966   0.327   2.907   4.496 -0.3691 -0.0377  0.1947
 4987TIP3    H114967   0.345   2.921   4.589 -0.6654  0.1165  0.2314
 4987TIP3    H214968   0.390   2.962   4.450 -1.3291  1.2102  0.3323
 4988TIP3   OH214969   5.469   2.040   0.857  0.0737  0.3414 -0.3465
 4988TIP3    H114970   5.564   2.040   0.842  0.0087 -1.1137 -0.8840
 4988TIP3    H214971   5.433   1.989   0.784 -1.1176  0.7594 -0.0733
 4989TIP3   OH214972   1.671   1.589   3.690  0.3863  0.0660 -0.0322
 4989TIP3    H114973   1.627   1.528   3.750  0.7341  0.3243  0.4933
 4989TIP3    H214974   1.697   1.662   3.745  0.4356  0.4542 -0.5639
 4990TIP3   OH214975   5.026   1.924   2.687 -0.0717 -0.3952  0.1204
 4990TIP3    H114976   5.042   1.933   2.592 -1.0374  0.5257  0.0267
 4990TIP3    H214977   5.012   1.831   2.700 -1.0653 -0.4042 -0.8443
 4991TIP3   OH214978   0.168   5.335   3.506 -0.2065  0.4471  0.5708
 4991TIP3    H114979   0.076   5.359   3.506 -1.2875 -3.0701  1.2440
 4991TIP3    H214980   0.194   5.340   3.598 -0.6359 -1.2963  0.8213
 4992TIP3   OH214981   1.145   3.449   2.719 -0.0788  0.4500 -0.3176
 4992TIP3    H114982   1.237   3.443   2.747 -0.3416  0.3322  0.5472
 4992TIP3    H214983   1.095   3.424   2.797 -0.7781 -2.6937 -1.6263
 4993TIP3   OH214984   1.934   0.318   0.137  0.7164 -0.3849 -0.3462
 4993TIP3    H114985   1.887   0.282   0.212  0.2291 -1.1698 -1.0018
 4993TIP3    H214986   1.922   0.253   0.068 -1.9388  1.9205 -2.2695
 4994TIP3   OH214987   6.306   3.118   1.005  0.7361 -0.0378 -0.5341
 4994TIP3    H114988   6.248   3.071   0.946 -0.0240  0.3082 -0.0731
 4994TIP3    H214989   6.260   3.118   1.089  0.8202  1.3249 -0.4697
 4995TIP3   OH214990   2.654   0.065   3.507 -0.1954  0.5194  0.0013
 4995TIP3    H114991   2.726   0.034   3.452  0.4633  1.1126  0.5106
 4995TIP3    H214992   2.603  -0.014   3.526  1.0226 -0.1325  0.6567
 4996TIP3   OH214993   2.141   2.004   4.661  0.5066 -0.1199  0.8176
 4996TIP3    H114994   2.096   2.071   4.609  0.0659  0.3456  1.7840
 4996TIP3    H214995   2.199   2.054   4.719  2.2856 -0.6951 -0.3686
 4997TIP3   OH214996   5.299   3.384   3.666 -0.0874  0.1972 -0.7681
 4997TIP3    H114997   5.292   3.289   3.674 -0.1209  0.2508 -0.0426
 4997TIP3    H214998   5.270   3.417   3.751  1.5161  0.7656 -0.3974
 4998TIP3   OH214999   0.383   0.576   1.667  0.1059  0.3556  0.0782
 4998TIP3    H115000   0.298   0.619   1.654 -0.0854 -0.4522 -1.5690
 4998TIP3    H215001   0.365   0.483   1.655  1.4017  0.2585 -1.4310
 4999TIP3   OH215002   3.600   4.065   3.052 -0.5556 -0.2962 -0.3334
 4999TIP3    H115003   3.527   4.006   3.070  0.1452 -1.0609  0.0946
 4999TIP3    H215004   3.678   4.014   3.075  0.0861  0.7144 -0.1866
 5000TIP3   OH215005   1.086   1.838   2.367  0.0291 -0.5389  0.2828
 5000TIP3    H115006   1.048   1.864   2.451 -1.1029  1.3675 -0.7202
 5000TIP3    H215007   1.021   1.778   2.329  0.0913 -0.6653  0.3762
 5001TIP3   OH215008   0.753   1.418   2.863  0.0196  0.3431 -0.9545
 5001TIP3    H115009   0.704   1.412   2.945  1.9840  1.3198  0.3694
 5001TIP3    H215010   0.688   1.447   2.798 -1.1667  1.5676  0.7021
 5002TIP3   OH215011   2.859   5.939   1.017 -0.2311 -0.0032  0.8409
 5002TIP3    H115012   2.831   5.963   1.105  1.6321 -1.0143  1.7731
 5002TIP3    H215013   2.937   5.993   1.001 -0.3461 -0.0828 -0.0625
 5003TIP3   OH215014   5.238   1.558   2.995  1.1130  0.1924  0.0363
 5003TIP3    H115015   5.163   1.525   2.945  1.0660  0.8551 -0.3446
 5003TIP3    H215016   5.313   1.543   2.937  1.5767 -2.0569  1.0842
 5004TIP3   OH215017   3.477   0.631   4.073 -0.3855 -0.0958 -1.0116
 5004TIP3    H115018   3.476   0.724   4.051 -2.7311  0.1352 -0.2002
 5004TIP3    H215019   3.569   0.612   4.091 -0.1838  2.8602  1.9538
 5005TIP3   OH215020   3.339   4.966   0.105 -0.5204  0.5299 -0.1767
 5005TIP3    H115021   3.428   4.976   0.072 -0.1788 -0.1893  0.5064
 5005TIP3    H215022   3.284   5.005   0.037  0.2377  0.0531 -1.0823
 5006TIP3   OH215023   0.300   3.252   1.878  0.1364  0.2267 -0.6801
 5006TIP3    H115024   0.375   3.257   1.938  1.4126 -2.1707 -1.9474
 5006TIP3    H215025   0.315   3.324   1.816 -0.0107  1.3463  0.5524
 5007TIP3   OH215026   0.404   4.338   4.870 -0.5303  0.1050 -0.4843
 5007TIP3    H115027   0.472   4.400   4.843 -1.6055  1.5518 -0.0005
 5007TIP3    H215028   0.452   4.269   4.915  0.5503  1.6353  0.8379
 5008TIP3   OH215029   4.163   1.676   2.458  0.9209  0.3152 -0.2208
 5008TIP3    H115030   4.097   1.745   2.450  0.3301 -0.2878 -0.6205
 5008TIP3    H215031   4.236   1.718   2.504 -0.0039  0.8038  0.8355
 5009TIP3   OH215032   0.983   5.094   1.673  0.1154 -0.3351  0.6706
 5009TIP3    H115033   0.906   5.043   1.702 -1.3423  1.1108 -0.4517
 5009TIP3    H215034   0.950   5.145   1.599  2.2074  0.3223  0.1526
 5010TIP3   OH215035   0.194   0.145   0.737  0.0785  0.2366 -0.3004
 5010TIP3    H115036   0.156   0.206   0.800 -0.6130 -0.6856  0.2052
 5010TIP3    H215037   0.195   0.061   0.783  1.1235 -0.1182 -0.9340
 5011TIP3   OH215038   3.067   1.219   2.180  0.4737 -0.5180 -0.3636
 5011TIP3    H115039   2.998   1.158   2.154  0.3419 -0.1729 -0.8452
 5011TIP3    H215040   3.094   1.261   2.098  1.4001 -0.7983 -0.2116
 5012TIP3   OH215041   3.462   2.693   3.323 -0.0148 -0.0855 -0.2754
 5012TIP3    H115042   3.553   2.692   3.294  0.6787  2.7961  1.4583
 5012TIP3    H215043   3.451   2.610   3.369  2.4268  0.3241  1.2548
 5013TIP3   OH215044   5.923   5.201   1.830 -0.0688  0.5625 -0.6341
 5013TIP3    H115045   5.950   5.168   1.744  0.0238  2.1485 -1.2422
 5013TIP3    H215046   6.002   5.194   1.884  0.2164  0.6782 -1.0282
 5014TIP3   OH215047   5.577   5.810   4.976 -0.5220 -0.0582  0.0227
 5014TIP3    H115048   5.519   5.850   4.911  0.6964 -1.2808 -1.9277
 5014TIP3    H215049   5.539   5.835   5.060 -3.3043 -0.0043 -1.1227
 5015TIP3   OH215050   2.543   4.328   3.586  0.1910 -0.4858  0.0296
 5015TIP3    H115051   2.571   4.392   3.651 -0.9889  0.5611 -0.4423
 5015TIP3    H215052   2.472   4.280   3.629 -1.2035  0.8002 -0.7059
 5016TIP3   OH215053   5.876   1.190   0.857  0.4278  0.3519  0.0797
 5016TIP3    H115054   5.893   1.162   0.947  1.2708 -0.3848 -0.2923
 5016TIP3    H215055   5.782   1.175   0.845  0.3477  0.2584  0.7624
 5017TIP3   OH215056   5.757   0.930   4.450 -0.2679  0.2079  0.2385
 5017TIP3    H115057   5.849   0.958   4.446 -0.3020  0.2575 -0.2894
 5017TIP3    H215058   5.760   0.846   4.496 -0.1292  0.9059  1.5658
 5018TIP3   OH215059   1.582   3.222   4.817 -0.0601 -0.2176 -0.0567
 5018TIP3    H115060   1.580   3.271   4.899  3.5990  1.5957 -0.8407
 5018TIP3    H215061   1.631   3.142   4.837 -0.3795 -0.4431 -0.1678
 5019TIP3   OH215062   1.948   2.137   2.786  0.2055  0.0639 -0.4808
 5019TIP3    H115063   1.853   2.135   2.799  0.4376 -1.3734  1.2746
 5019TIP3    H215064   1.977   2.211   2.840  0.2352 -0.5241  0.3299
 5020TIP3   OH215065   0.279   5.271   1.672  0.0319 -0.3758 -0.2424
 5020TIP3    H115066   0.348   5.334   1.648  0.7599 -0.9348  0.3120
 5020TIP3    H215067   0.276   5.275   1.768 -1.2211  0.1580 -0.2944
 5021TIP3   OH215068   0.697   2.672   2.001 -0.1443 -0.0185  0.6209
 5021TIP3    H115069   0.751   2.628   2.067 -1.8463 -2.0822  0.7328
 5021TIP3    H215070   0.687   2.607   1.931  0.4198  1.6170 -1.0557
 5022TIP3   OH215071   4.310   3.330   1.999  0.2931 -0.0890 -0.0039
 5022TIP3    H115072   4.358   3.294   1.924 -0.0860 -1.8069  0.5361
 5022TIP3    H215073   4.299   3.255   2.058 -1.7168  0.6053  0.5665
 5023TIP3   OH215074   3.736   2.447   4.133 -0.3728  0.3121 -0.1689
 5023TIP3    H115075   3.793   2.373   4.113 -0.2709 -0.0772  1.3840
 5023TIP3    H215076   3.793   2.511   4.175 -0.3391  1.5618 -1.9936
 5024TIP3   OH215077   0.811   2.857   1.191 -0.0780 -0.8073 -0.2332
 5024TIP3    H115078   0.830   2.812   1.274  0.9518 -1.9836 -1.0771
 5024TIP3    H215079   0.862   2.938   1.195 -2.0001  0.4241  1.3332
 5025TIP3   OH215080   5.827   2.440   1.350  0.1868 -0.0874 -0.0530
 5025TIP3    H115081   5.895   2.504   1.328  1.6685 -0.4508  2.9585
 5025TIP3    H215082   5.750   2.493   1.369  0.4078  0.5397 -0.8558
 5026TIP3   OH215083   0.585   2.811   0.273 -0.3029  0.2682 -0.8619
 5026TIP3    H115084   0.554   2.861   0.348 -0.8585 -0.1732 -0.7968
 5026TIP3    H215085   0.576   2.872   0.199 -0.0764  0.5855 -0.6330
 5027TIP3   OH215086   2.617   2.580   1.985  0.3885 -0.2444 -0.2096
 5027TIP3    H115087   2.612   2.608   1.894  0.1122  0.0005 -0.1189
 5027TIP3    H215088   2.565   2.644   2.033 -0.1132 -0.8099  0.0168
 5028TIP3   OH215089  -0.029   0.437   0.700  0.5303 -0.1269 -0.3005
 5028TIP3    H115090   0.062   0.434   0.672  0.3874 -3.1255 -0.7494
 5028TIP3    H215091  -0.031   0.503   0.769  2.8954  0.4066 -0.6525
 5029TIP3   OH215092   3.757   5.327   0.903  0.0517  0.4184  0.0050
 5029TIP3    H115093   3.838   5.350   0.857 -0.6423 -0.6267 -1.8533
 5029TIP3    H215094   3.736   5.239   0.871 -2.0452  0.8389  0.0995
 5030TIP3   OH215095   2.373   0.226   2.180  0.5743 -0.0097 -0.4574
 5030TIP3    H115096   2.345   0.305   2.228  0.3650  0.1651 -0.8664
 5030TIP3    H215097   2.337   0.153   2.231  0.0434  0.1884 -0.5459
 5031TIP3   OH215098   2.834   1.179   2.639  0.2904 -0.2233 -0.0377
 5031TIP3    H115099   2.755   1.139   2.676  1.6928 -3.9045 -0.5608
 5031TIP3    H215100   2.837   1.148   2.549  1.0978  1.9785 -0.8399
 5032TIP3   OH215101   5.844   5.393   0.548  0.8294  0.2124  0.1259
 5032TIP3    H115102   5.900   5.406   0.471  1.1112 -0.7714  0.1495
 5032TIP3    H215103   5.870   5.462   0.608  2.6204 -0.7056  0.4619
 5033TIP3   OH215104   2.551   1.540   4.653 -0.0828  0.2943 -0.3595
 5033TIP3    H115105   2.484   1.582   4.706 -1.3314  0.8511 -2.2837
 5033TIP3    H215106   2.564   1.455   4.694 -0.4547  0.9572  1.2319
 5034TIP3   OH215107   2.366   4.345   0.857  0.1053  0.4337 -0.1372
 5034TIP3    H115108   2.353   4.358   0.763 -0.7148 -0.8389 -0.2277
 5034TIP3    H215109   2.371   4.250   0.868 -1.9787  0.4141  1.3398
 5035TIP3   OH215110   5.864   2.546   4.014 -0.3722  0.0193  0.2457
 5035TIP3    H115111   5.848   2.614   3.949 -1.8819 -0.5444 -0.0025
 5035TIP3    H215112   5.958   2.532   4.011 -0.3166  0.5600 -1.2503
 5036TIP3   OH215113   6.325   2.254   1.300  0.7434 -1.1500  0.4187
 5036TIP3    H115114   6.419   2.236   1.305  0.7050 -1.0480  2.1146
 5036TIP3    H215115   6.284   2.168   1.296  0.8866 -1.2066  0.1477
 5037TIP3   OH215116   0.871   0.931   0.881 -0.3897 -0.2002 -0.0116
 5037TIP3    H115117   0.938   0.991   0.914 -1.9522  1.2207  0.7042
 5037TIP3    H215118   0.891   0.847   0.922  0.8910  0.2089  0.2401
 5038TIP3   OH215119   3.996   0.800   3.155 -0.2954  0.3866  0.2091
 5038TIP3    H115120   3.936   0.744   3.107 -0.7999  1.1336 -0.0436
 5038TIP3    H215121   4.018   0.749   3.233  0.8838 -1.0324 -0.9771
 5039TIP3   OH215122   4.912   1.257   3.715 -0.1538 -0.1536 -0.2539
 5039TIP3    H115123   4.887   1.277   3.805  0.6439 -0.0534 -0.0438
 5039TIP3    H215124   4.877   1.330   3.663  1.6990  1.2418  0.3495
 5040TIP3   OH215125   1.434   1.109   3.068 -0.2484  0.1353 -0.2876
 5040TIP3    H115126   1.523   1.124   3.037  0.0392  2.3989  1.3647
 5040TIP3    H215127   1.380   1.173   3.020 -0.5156  0.6277  0.6487
 5041TIP3   OH215128   2.597   4.748   1.501  0.0595  0.2638  0.2824
 5041TIP3    H115129   2.612   4.658   1.530  1.2408  0.6626  1.0028
 5041TIP3    H215130   2.639   4.753   1.415  1.0372  0.4216  0.7534
 5042TIP3   OH215131   4.797   0.357   4.809 -0.1129 -0.1280  0.1015
 5042TIP3    H115132   4.890   0.375   4.799 -0.4107  1.0744 -0.8042
 5042TIP3    H215133   4.769   0.324   4.724 -0.7304  0.6807 -0.0298
 5043TIP3   OH215134   1.599   3.359   2.984 -0.1313 -0.3060  0.1931
 5043TIP3    H115135   1.639   3.358   3.071  0.6532  1.4208 -0.1043
 5043TIP3    H215136   1.669   3.330   2.926 -0.2552 -0.2136 -0.0025
 5044TIP3   OH215137   0.737   2.878   5.199  0.6365 -0.4317 -0.3102
 5044TIP3    H115138   0.823   2.838   5.214  0.3050 -0.8215  0.6548
 5044TIP3    H215139   0.756   2.959   5.153  1.3765 -1.3711 -1.7335
 5045TIP3   OH215140   5.118   1.238   0.994 -0.4505  0.0081 -0.3553
 5045TIP3    H115141   5.077   1.324   0.995  0.8018  0.6323 -0.7827
 5045TIP3    H215142   5.126   1.214   1.087  2.2082  1.8799  0.0094
 5046TIP3   OH215143   0.543   2.388   0.235  0.0917 -0.3296 -0.1274
 5046TIP3    H115144   0.471   2.444   0.265  0.8095 -0.3908  1.8143
 5046TIP3    H215145   0.584   2.438   0.164 -2.4626 -0.7555 -2.0670
 5047TIP3   OH215146   0.166   2.251   2.405 -0.2084  0.6133 -0.0578
 5047TIP3    H115147   0.243   2.267   2.350 -1.1187  0.0328 -1.5645
 5047TIP3    H215148   0.170   2.157   2.424  1.0619  1.0771  2.4605
 5048TIP3   OH215149   0.340   3.999   1.208  0.3934  0.6888  0.5669
 5048TIP3    H115150   0.413   4.009   1.270  1.8636 -0.5655 -0.8841
 5048TIP3    H215151   0.360   4.062   1.138  0.1594  0.2419  0.0955
 5049TIP3   OH215152   1.273   1.977   1.111  0.1332  0.3866 -0.2834
 5049TIP3    H115153   1.228   1.903   1.153  0.4063  0.5803  0.3606
 5049TIP3    H215154   1.303   1.942   1.027 -0.6953  0.0824 -0.4665
 5050TIP3   OH215155   1.218   3.071   3.421 -0.2128  0.0373 -0.5130
 5050TIP3    H115156   1.277   3.145   3.412  0.3714 -0.2453  0.7968
 5050TIP3    H215157   1.134   3.109   3.446  0.4511  0.2132  1.6499
 5051TIP3   OH215158   4.929   5.360   2.044  0.2344  0.2254  0.0557
 5051TIP3    H115159   4.916   5.454   2.037  0.4567  0.1590 -2.3265
 5051TIP3    H215160   5.011   5.350   2.092  0.4875  1.2868 -0.1341
 5052TIP3   OH215161   3.248   4.284   0.146  0.7829  0.9880  0.3961
 5052TIP3    H115162   3.217   4.329   0.224  2.8098  2.1542  0.5765
 5052TIP3    H215163   3.270   4.355   0.085 -0.5667  0.1102 -1.1999
 5053TIP3   OH215164   1.145   5.437   1.127  0.2706 -0.2346 -0.3003
 5053TIP3    H115165   1.198   5.515   1.142 -1.6274  0.8178  1.4156
 5053TIP3    H215166   1.205   5.363   1.141  1.7003  0.9056 -0.2744
 5054TIP3   OH215167   5.624   2.711   1.118  0.3155 -0.4690 -0.0451
 5054TIP3    H115168   5.691   2.669   1.065  0.2481  0.2207 -0.6867
 5054TIP3    H215169   5.620   2.658   1.198  2.3281  0.0704  0.4585
 5055TIP3   OH215170   5.035   4.718   1.203 -0.1007 -0.3018 -0.3356
 5055TIP3    H115171   5.046   4.778   1.276 -0.2532  0.0383 -0.5877
 5055TIP3    H215172   5.115   4.728   1.151  0.0791 -0.6618 -0.1310
 5056TIP3   OH215173   5.959   4.041   2.347 -0.3629  0.0939 -0.2536
 5056TIP3    H115174   6.035   4.001   2.388  0.2401  0.8314 -0.6111
 5056TIP3    H215175   5.951   3.995   2.263 -1.2076 -0.9747  0.3920
 5057TIP3   OH215176   5.637   1.664   0.144  0.7102  0.1801  0.4591
 5057TIP3    H115177   5.697   1.702   0.079  2.2211  0.0322  1.7273
 5057TIP3    H215178   5.624   1.574   0.115  1.9597 -0.1048  0.7282
 5058TIP3   OH215179   3.230   0.367   2.377  0.4820 -0.4425  0.3241
 5058TIP3    H115180   3.285   0.445   2.391  0.1176 -0.0329 -0.4740
 5058TIP3    H215181   3.270   0.299   2.431  0.7362  0.3325  1.1376
 5059TIP3   OH215182  -0.013   1.359   2.985 -0.3485 -0.2143 -0.0316
 5059TIP3    H115183   0.077   1.365   2.952 -0.2009  1.0678  0.5698
 5059TIP3    H215184  -0.016   1.273   3.029  0.7225 -0.0889  0.3252
 5060TIP3   OH215185   6.027   2.833   4.786  0.9393 -0.2090 -0.2196
 5060TIP3    H115186   6.122   2.831   4.775  1.0239  1.0565  0.0806
 5060TIP3    H215187   6.010   2.774   4.860  1.5538  0.0288  0.1103
 5061TIP3   OH215188   0.367   0.428   2.489  0.2827 -0.3860 -0.0131
 5061TIP3    H115189   0.340   0.481   2.414  0.8066  0.5862  0.4843
 5061TIP3    H215190   0.406   0.489   2.551  0.5919 -1.2924  0.7244
 5062TIP3   OH215191   3.399   3.604   3.351 -0.2912 -0.0587  0.2089
 5062TIP3    H115192   3.329   3.651   3.397 -1.3295  0.3145 -1.6389
 5062TIP3    H215193   3.363   3.516   3.337  0.5397 -0.5803  1.2113
 5063TIP3   OH215194   5.903   0.576   0.565  0.4601 -0.5964 -0.4015
 5063TIP3    H115195   5.892   0.521   0.642  0.8379  0.0049  0.0870
 5063TIP3    H215196   5.989   0.615   0.575 -0.8682  2.3467  0.7534
 5064TIP3   OH215197   3.075   5.971   3.241 -0.1712  0.1716  0.1653
 5064TIP3    H115198   3.030   5.952   3.158  0.5851 -1.3223  0.0645
 5064TIP3    H215199   3.053   5.898   3.298  2.2192 -0.7264  0.0537
 5065TIP3   OH215200   4.566   4.730   1.560 -0.1233  0.3115  0.0343
 5065TIP3    H115201   4.503   4.701   1.494  0.0246  1.3592 -0.5899
 5065TIP3    H215202   4.641   4.671   1.549 -1.3870 -1.7274  1.5745
 5066TIP3   OH215203   1.687   2.065   3.577 -0.0052  0.2957 -0.2524
 5066TIP3    H115204   1.721   2.112   3.654 -0.5410 -0.1039  0.2385
 5066TIP3    H215205   1.721   1.976   3.587 -1.5093 -0.2407  0.4918
 5067TIP3   OH215206   3.324   2.305   1.148 -0.3760 -0.2317 -0.6601
 5067TIP3    H115207   3.283   2.372   1.092  0.5721 -0.6778 -1.9375
 5067TIP3    H215208   3.415   2.302   1.118  0.5384  0.4671  1.8474
 5068TIP3   OH215209   4.520   4.878   3.178  0.6318 -0.3572  0.4055
 5068TIP3    H115210   4.479   4.809   3.126  1.1516 -0.3220 -0.0597
 5068TIP3    H215211   4.533   4.839   3.264  0.8364 -0.8116  0.1706
 5069TIP3   OH215212   1.409   2.204   4.180 -0.3298  0.6581 -0.0245
 5069TIP3    H115213   1.343   2.271   4.197  0.0558  1.2219 -0.7104
 5069TIP3    H215214   1.402   2.186   4.086  0.3455  0.5697 -0.0639
 5070TIP3   OH215215   5.889   2.552   3.646 -0.2865 -0.2138 -0.2503
 5070TIP3    H115216   5.834   2.514   3.577  0.9590  1.2262 -2.1409
 5070TIP3    H215217   5.972   2.505   3.638  0.5150  1.2818 -1.1082
 5071TIP3   OH215218   5.438   1.243   1.233 -0.0891  0.5415 -0.2840
 5071TIP3    H115219   5.404   1.297   1.303 -3.9868 -2.2538  0.2802
 5071TIP3    H215220   5.507   1.191   1.274 -1.4699 -0.1733  1.2053
 5072TIP3   OH215221   1.739   4.499   3.283 -0.4003 -0.0222  0.2070
 5072TIP3    H115222   1.676   4.443   3.329  2.3030 -2.4265  1.3139
 5072TIP3    H215223   1.757   4.570   3.345  0.2537 -1.0736  1.2836
 5073TIP3   OH215224   0.472   1.709   1.888  0.4261 -0.5016  0.1573
 5073TIP3    H115225   0.465   1.627   1.936 -1.4199  0.4259  1.5838
 5073TIP3    H215226   0.512   1.770   1.950 -1.5182  0.5829  0.4029
 5074TIP3   OH215227   1.436   3.125   4.415  0.1348  0.1093  0.5604
 5074TIP3    H115228   1.349   3.113   4.376 -0.0338 -0.7736  1.1826
 5074TIP3    H215229   1.477   3.039   4.410  2.6185  1.2237 -3.4599
 5075TIP3   OH215230   3.912   1.672   4.644  0.3906 -0.5888 -0.4813
 5075TIP3    H115231   3.890   1.679   4.551 -0.4440 -1.6399 -0.3835
 5075TIP3    H215232   3.929   1.578   4.657  1.5637 -0.2918  0.1983
 5076TIP3   OH215233   5.028   4.230  -0.034  0.7218  0.5979  0.9642
 5076TIP3    H115234   4.966   4.173   0.011 -0.2021  1.1107  0.3793
 5076TIP3    H215235   5.058   4.291   0.034  1.6562 -0.5030  1.5688
 5077TIP3   OH215236   2.840   4.733   0.570  0.3592  0.6787 -0.0564
 5077TIP3    H115237   2.895   4.672   0.522  0.5853  0.1674  0.8213
 5077TIP3    H215238   2.844   4.702   0.661 -0.3240  1.4104  0.2342
 5078TIP3   OH215239   0.816   1.446   2.069  0.1842  0.1362 -0.0254
 5078TIP3    H115240   0.809   1.394   2.150  2.1386  0.8361  0.6351
 5078TIP3    H215241   0.824   1.380   2.000 -0.6235 -0.4579  0.4173
 5079TIP3   OH215242   4.328   2.976   4.825  0.0537  0.2469  0.3550
 5079TIP3    H115243   4.266   2.996   4.755 -0.5126 -2.1276  0.0939
 5079TIP3    H215244   4.367   3.060   4.848 -0.7484  1.2810 -1.8601
 5080TIP3   OH215245   6.027   4.906   2.092  0.0539  0.2906 -0.4202
 5080TIP3    H115246   5.948   4.951   2.063  0.2027  0.2670 -0.8701
 5080TIP3    H215247   6.094   4.930   2.028  0.8014  1.4928  0.7500
 5081TIP3   OH215248   3.430   5.540   3.948  0.3407 -0.3045  0.7086
 5081TIP3    H115249   3.401   5.492   4.026  0.1459 -0.1240  0.7471
 5081TIP3    H215250   3.479   5.615   3.983  1.4965 -1.0037  0.6376
 5082TIP3   OH215251   3.326   4.486   2.369 -0.4177 -0.0002 -0.1311
 5082TIP3    H115252   3.235   4.518   2.369 -0.6128 -0.5422  0.0264
 5082TIP3    H215253   3.325   4.411   2.429 -0.4193 -1.5911 -2.0052
 5083TIP3   OH215254   1.364   5.288   3.196 -0.5447  0.2437 -0.1762
 5083TIP3    H115255   1.327   5.368   3.159 -0.2431  0.8141  0.6953
 5083TIP3    H215256   1.459   5.303   3.195 -0.5298  0.3952  1.0097
 5084TIP3   OH215257   2.241   4.418   4.812 -0.0043  0.2349  0.0207
 5084TIP3    H115258   2.149   4.416   4.785  0.4536 -0.4904 -1.6205
 5084TIP3    H215259   2.241   4.380   4.900 -1.3703  1.0606  0.4091
 5085TIP3   OH215260   1.470   0.505   2.082  0.2060  0.0090  0.0921
 5085TIP3    H115261   1.446   0.422   2.122  1.6338  0.6007  2.3775
 5085TIP3    H215262   1.555   0.489   2.041  1.9074  0.8645  2.9562
 5086TIP3   OH215263   4.523   4.043   3.109  0.2547 -0.3295 -0.1812
 5086TIP3    H115264   4.515   3.948   3.116 -1.1250 -0.4370 -2.2322
 5086TIP3    H215265   4.469   4.077   3.180  0.3737 -1.0708  0.2759
 5087TIP3   OH215266   1.009   0.716   1.445 -0.2942 -0.6875  0.2209
 5087TIP3    H115267   1.080   0.756   1.495  0.0147 -0.6979 -0.2033
 5087TIP3    H215268   1.004   0.767   1.365 -0.0990 -1.2971 -0.1938
 5088TIP3   OH215269   5.223   5.140   3.378  0.1584 -0.1285 -0.4102
 5088TIP3    H115270   5.152   5.089   3.419  0.6401  1.4116  2.6218
 5088TIP3    H215271   5.208   5.230   3.408  2.1171  0.6409 -1.5901
 5089TIP3   OH215272   2.283   3.326   1.529 -0.5542 -0.2255 -0.4493
 5089TIP3    H115273   2.282   3.235   1.560 -2.0198 -0.6360 -1.5846
 5089TIP3    H215274   2.297   3.319   1.435 -0.2878  0.7514 -0.4911
 5090TIP3   OH215275   4.525   5.559   1.031 -0.1387 -0.0223  0.0424
 5090TIP3    H115276   4.552   5.563   0.939  1.0152  1.7423  0.4025
 5090TIP3    H215277   4.528   5.466   1.053 -0.4790 -0.4756 -1.7043
 5091TIP3   OH215278   0.127   5.864   3.072  0.3554  0.1743 -0.6750
 5091TIP3    H115279   0.156   5.927   3.138  1.3053  1.3555 -2.1551
 5091TIP3    H215280   0.175   5.784   3.093 -0.6770 -0.0558  1.0807
 5092TIP3   OH215281   5.040   1.509   2.829 -0.4016 -0.1943  0.1097
 5092TIP3    H115282   5.066   1.574   2.764 -1.0850 -0.1263 -0.1018
 5092TIP3    H215283   4.945   1.501   2.818 -0.3887 -0.8661  0.4653
 5093TIP3   OH215284   2.162   3.180   3.965  0.4253 -0.0398 -0.6015
 5093TIP3    H115285   2.226   3.113   3.989 -0.1025 -0.3497 -0.0251
 5093TIP3    H215286   2.212   3.244   3.914  1.3635  0.1187  0.4818
 5094TIP3   OH215287   3.053   4.093   2.481 -0.4342  0.2322  0.2304
 5094TIP3    H115288   2.981   4.132   2.529 -0.4529 -1.1177  1.3647
 5094TIP3    H215289   3.106   4.168   2.452 -1.0885  1.1312  1.2869
 5095TIP3   OH215290   4.303   2.328   2.951  0.2528  0.5550 -0.4324
 5095TIP3    H115291   4.313   2.244   2.994 -0.6818  1.2017  1.1314
 5095TIP3    H215292   4.381   2.338   2.897  0.5028 -1.1698 -0.4342
 5096TIP3   OH215293   5.615   1.553   4.892  0.3240 -0.2448 -0.1932
 5096TIP3    H115294   5.562   1.631   4.875 -0.5411 -0.5503  0.9606
 5096TIP3    H215295   5.672   1.579   4.965  0.2930 -0.5701 -0.0503
 5097TIP3   OH215296   3.455   0.551   0.775  0.2224  0.0930 -0.2502
 5097TIP3    H115297   3.362   0.576   0.775 -0.9375 -3.6805 -0.0664
 5097TIP3    H215298   3.477   0.538   0.867  0.7609  0.2706 -0.3480
 5098TIP3   OH215299   5.658   0.888   1.126 -0.2290  0.9107  0.1444
 5098TIP3    H115300   5.743   0.852   1.102 -0.6510  0.7283 -1.1352
 5098TIP3    H215301   5.651   0.872   1.220  0.2463 -0.9700 -0.1074
 5099TIP3   OH215302   4.686   5.162   3.953 -0.0192 -0.4309 -0.4773
 5099TIP3    H115303   4.662   5.249   3.983  3.6902  0.3204  0.7350
 5099TIP3    H215304   4.666   5.163   3.859 -0.0349  1.7201 -0.4948
 5100TIP3   OH215305   1.681   2.193   1.442 -0.1512 -0.1945 -0.0615
 5100TIP3    H115306   1.631   2.156   1.369  0.9106  0.7002 -1.2844
 5100TIP3    H215307   1.627   2.265   1.474 -1.2041 -1.3729  0.8896
 5101TIP3   OH215308   6.308   5.461   0.098 -0.3428  0.2565  0.0077
 5101TIP3    H115309   6.375   5.427   0.038  0.8546 -0.7322  1.8273
 5101TIP3    H215310   6.229   5.412   0.075  0.3593 -0.8747 -0.0777
 5102TIP3   OH215311   1.426   4.443   3.446 -0.1738 -0.5657  0.6786
 5102TIP3    H115312   1.359   4.379   3.469 -0.3468 -0.3844  0.6790
 5102TIP3    H215313   1.411   4.462   3.354 -1.3791  0.9505  1.1453
 5103TIP3   OH215314   5.352   3.276   4.331  0.7087 -0.3964  0.2470
 5103TIP3    H115315   5.263   3.246   4.313  1.0119 -2.0698  1.3061
 5103TIP3    H215316   5.407   3.225   4.271  0.9901  0.5243 -0.3011
 5104TIP3   OH215317   1.914   3.947   3.802  0.4589 -0.4022 -0.1411
 5104TIP3    H115318   1.899   4.042   3.794  0.2148 -0.4094  0.2382
 5104TIP3    H215319   1.974   3.938   3.876 -0.6234 -0.6337  0.7376
 5105TIP3   OH215320   2.476   5.169   2.053 -0.0334 -0.0447 -0.1378
 5105TIP3    H115321   2.394   5.210   2.027  0.3828  0.2999 -0.9394
 5105TIP3    H215322   2.542   5.238   2.046 -0.0757  0.4907  3.2197
 5106TIP3   OH215323   4.997   2.326   2.270  0.6589 -0.0035  0.7045
 5106TIP3    H115324   4.935   2.389   2.306 -1.3036 -1.4490  0.0218
 5106TIP3    H215325   4.947   2.244   2.263  1.9984 -0.7031 -1.8851
 5107TIP3   OH215326   3.474   5.233   1.771  0.1932 -0.8111 -0.7595
 5107TIP3    H115327   3.442   5.201   1.855 -0.7550 -1.4704 -1.3496
 5107TIP3    H215328   3.442   5.323   1.765  0.3535 -0.7285 -0.3714
 5108TIP3   OH215329   5.798   4.518   3.205 -0.2199  0.0801 -0.1459
 5108TIP3    H115330   5.816   4.472   3.286 -0.4567 -1.2123 -0.7995
 5108TIP3    H215331   5.802   4.611   3.228  0.3016 -0.2601  1.1957
 5109TIP3   OH215332   1.266   5.553   4.164  0.9781  0.4398  0.2089
 5109TIP3    H115333   1.193   5.536   4.224  0.7752  1.6746  0.3507
 5109TIP3    H215334   1.282   5.469   4.121 -1.6741  0.4714 -1.0763
 5110TIP3   OH215335   0.542   4.224   1.608  0.0742 -0.3504  0.3763
 5110TIP3    H115336   0.495   4.227   1.692 -0.0941 -0.1096  0.2747
 5110TIP3    H215337   0.579   4.136   1.605  0.5389 -0.1879  0.9536
 5111TIP3   OH215338   4.517   1.306   2.593 -0.5394  0.2681  0.2751
 5111TIP3    H115339   4.589   1.362   2.623  0.1331 -1.1594  1.4424
 5111TIP3    H215340   4.561   1.237   2.543 -0.7429 -1.9360  2.9081
 5112TIP3   OH215341   1.127   2.453   0.880  0.0214  0.2191 -0.3908
 5112TIP3    H115342   1.087   2.443   0.794 -0.7789 -0.4698  0.0427
 5112TIP3    H215343   1.087   2.532   0.916 -0.9143 -0.4095 -0.0018
 5113TIP3   OH215344   0.311   4.184   3.433 -0.4322 -0.0920  0.2594
 5113TIP3    H115345   0.290   4.185   3.339  0.5477  0.4327  0.0286
 5113TIP3    H215346   0.400   4.149   3.437 -0.0804  0.8501  0.9108
 5114TIP3   OH215347   6.297   5.519   1.270 -0.1944  0.1356  0.0533
 5114TIP3    H115348   6.219   5.510   1.216 -0.4719  1.7166  0.1452
 5114TIP3    H215349   6.278   5.469   1.349  0.0103 -1.7602 -1.0432
 5115TIP3   OH215350   2.878   4.981   0.446  0.6397 -0.3155  0.6163
 5115TIP3    H115351   2.854   4.899   0.489 -1.3437  0.3528  0.8761
 5115TIP3    H215352   2.820   4.987   0.371  0.4635  1.0241  0.8220
 5116TIP3   OH215353   5.491   3.985   2.129  0.0042  0.2527 -0.0815
 5116TIP3    H115354   5.527   3.897   2.140  1.0993  0.4521 -1.6961
 5116TIP3    H215355   5.558   4.033   2.080 -1.5888  1.2446 -1.4096
 5117TIP3   OH215356   1.124   1.401   1.068  0.1824  0.3305  0.3236
 5117TIP3    H115357   1.206   1.411   1.117 -0.2200  0.4954  0.9752
 5117TIP3    H215358   1.139   1.447   0.986  0.7976  0.2315  0.3770
 5118TIP3   OH215359   5.295   0.924   2.576 -0.2323 -0.3928  0.1989
 5118TIP3    H115360   5.390   0.921   2.568 -0.1398  0.4846  0.8279
 5118TIP3    H215361   5.278   0.913   2.670 -0.7540 -0.5033  0.0998
 5119TIP3   OH215362   4.911   3.207   4.584 -0.4724  0.6876  0.5405
 5119TIP3    H115363   4.816   3.204   4.572 -0.5141  1.9293  0.4143
 5119TIP3    H215364   4.927   3.152   4.661 -0.8702 -2.3941 -1.4114
 5120TIP3   OH215365   2.741   0.988   4.433 -0.3619 -0.0050  0.1578
 5120TIP3    H115366   2.715   0.896   4.427  1.1260 -0.3879 -0.9526
 5120TIP3    H215367   2.804   0.990   4.504 -0.1066  0.0896 -0.0723
 5121TIP3   OH215368   3.545   0.975   1.890  0.4416 -0.7129 -0.1755
 5121TIP3    H115369   3.578   1.014   1.971  0.7304 -0.0931 -0.5866
 5121TIP3    H215370   3.469   1.028   1.867  0.5227 -0.7145 -0.4538
 5122TIP3   OH215371   2.469   5.899   0.892 -0.0582 -0.6904  0.1672
 5122TIP3    H115372   2.518   5.978   0.871  0.6055 -1.6847 -2.4612
 5122TIP3    H215373   2.536   5.835   0.916 -0.3427 -1.1544 -0.2524
 5123TIP3   OH215374   0.300   4.790   3.337 -0.5333  0.3947  0.6940
 5123TIP3    H115375   0.320   4.822   3.248 -1.2324  0.0149  0.3957
 5123TIP3    H215376   0.252   4.709   3.323  0.1563 -0.1512  1.4420
 5124TIP3   OH215377   0.842   1.587   3.736  0.3845 -0.1822  0.2799
 5124TIP3    H115378   0.842   1.578   3.832 -2.0585  0.0298  0.3628
 5124TIP3    H215379   0.891   1.511   3.705  1.2624 -0.2268  1.6753
 5125TIP3   OH215380   6.020   4.385   0.972  0.9044  0.2845 -0.8818
 5125TIP3    H115381   5.927   4.371   0.955  0.4295  1.8748  0.1432
 5125TIP3    H215382   6.027   4.388   1.068  2.3057 -1.4210 -0.8786
 5126TIP3   OH215383   4.758   5.479   4.633 -0.5158  0.1092 -0.1316
 5126TIP3    H115384   4.828   5.443   4.579 -0.5022  1.0984 -0.7931
 5126TIP3    H215385   4.799   5.553   4.679 -0.8694  0.0827  0.2308
 5127TIP3   OH215386   5.257   0.172   3.947 -0.1887 -0.5964  0.1931
 5127TIP3    H115387   5.209   0.244   3.987  1.0067  0.1071  0.4106
 5127TIP3    H215388   5.226   0.093   3.992 -1.0216 -0.1506  0.4121
 5128TIP3   OH215389   5.833   4.978   3.021  0.2194  0.3098  0.7453
 5128TIP3    H115390   5.802   4.973   2.931 -0.7467  1.6626  0.9751
 5128TIP3    H215391   5.772   4.925   3.071 -1.8670  2.8862  1.1819
 5129TIP3   OH215392   0.775   2.267   1.514 -0.3153 -0.0060 -0.2679
 5129TIP3    H115393   0.801   2.229   1.430 -2.8876 -0.0881 -1.1302
 5129TIP3    H215394   0.683   2.243   1.523 -1.0462  2.8564  0.9413
 5130TIP3   OH215395   5.145   1.550   0.302 -0.4489  0.0571  0.3541
 5130TIP3    H115396   5.224   1.598   0.278 -0.7706  0.3734 -0.0983
 5130TIP3    H215397   5.105   1.602   0.371 -0.5687  0.2066  0.1713
 5131TIP3   OH215398   2.738   1.006   0.131  0.3058 -0.3873  0.8006
 5131TIP3    H115399   2.674   1.029   0.198 -0.5947 -0.8753  0.1168
 5131TIP3    H215400   2.813   0.972   0.181 -0.0807 -0.0964  1.5888
 5132TIP3   OH215401   4.603   1.413   4.629  0.3774  0.0174 -0.1001
 5132TIP3    H115402   4.669   1.426   4.697  0.4345 -1.4244  0.1528
 5132TIP3    H215403   4.531   1.471   4.655 -0.2945 -1.6621  2.1606
 5133TIP3   OH215404   2.932   3.401   2.056 -0.7680 -0.0861  0.1176
 5133TIP3    H115405   2.892   3.382   2.141 -1.0627  0.8187  0.1869
 5133TIP3    H215406   2.911   3.324   2.003 -0.0844 -0.9269  1.0249
 5134TIP3   OH215407   3.704   1.500   1.306  0.2343  0.6820  0.8077
 5134TIP3    H115408   3.726   1.518   1.215  0.6149  0.3284  0.8261
 5134TIP3    H215409   3.615   1.467   1.303  1.5325 -3.2225  0.0638
 5135TIP3   OH215410   4.134   4.091   1.718  0.4338  0.2121 -0.1342
 5135TIP3    H115411   4.126   4.173   1.766 -0.3842 -0.0110  0.1293
 5135TIP3    H215412   4.083   4.028   1.770 -1.0051  0.0976 -1.6024
 5136TIP3   OH215413   3.146   3.128   4.796  0.0365  0.1839 -0.0297
 5136TIP3    H115414   3.093   3.086   4.864 -1.0559  1.4705 -0.0527
 5136TIP3    H215415   3.221   3.165   4.843 -0.9744  1.5162  0.5999
 5137TIP3   OH215416   0.150   1.694   1.014  0.2395 -0.0050  0.2434
 5137TIP3    H115417   0.112   1.658   1.094  0.5801  0.1902  0.4978
 5137TIP3    H215418   0.172   1.618   0.961  0.1291 -0.1385  0.3896
 5138TIP3   OH215419   4.233   5.836   3.532  0.0147 -0.1097  0.0478
 5138TIP3    H115420   4.189   5.819   3.615  2.7643  0.8570  1.8287
 5138TIP3    H215421   4.307   5.775   3.530  1.0297  1.0953 -0.8072
 5139TIP3   OH215422   3.028   0.402   1.867 -0.2536  0.0153 -0.4181
 5139TIP3    H115423   2.937   0.378   1.885 -0.1341 -0.9431 -1.0476
 5139TIP3    H215424   3.077   0.372   1.944 -0.1696 -1.4252 -1.0098
 5140TIP3   OH215425   4.351   5.143   2.058  0.0118 -0.0259  0.0489
 5140TIP3    H115426   4.346   5.157   1.964  2.2415  0.2781 -0.0763
 5140TIP3    H215427   4.340   5.049   2.069 -0.8514  0.0089 -0.4392
 5141TIP3   OH215428   5.433   4.217   1.023  0.3441  0.0779  0.2877
 5141TIP3    H115429   5.385   4.262   0.954  1.7720 -0.2926 -1.0263
 5141TIP3    H215430   5.439   4.126   0.993  1.7902  0.1019  0.3882
 5142TIP3   OH215431   0.133   1.731   0.159  0.0671  0.3458 -0.1483
 5142TIP3    H115432   0.058   1.675   0.176  0.2174  0.6148  1.5079
 5142TIP3    H215433   0.175   1.692   0.082 -1.8398  0.3076 -1.2211
 5143TIP3   OH215434   5.183   3.249   1.721  0.1455  0.2436  0.1016
 5143TIP3    H115435   5.199   3.281   1.632 -0.1089  1.2161  0.3910
 5143TIP3    H215436   5.104   3.197   1.714  1.1189 -1.2075 -0.5703
 5144TIP3   OH215437   0.712   4.099   3.671  0.7638  0.7922 -0.6114
 5144TIP3    H115438   0.731   4.115   3.763 -0.8193 -1.1562  0.1183
 5144TIP3    H215439   0.726   4.005   3.659 -1.9179  0.4262 -1.5354
 5145TIP3   OH215440   5.448   0.045   3.796 -0.3507  0.0651  0.1408
 5145TIP3    H115441   5.379   0.097   3.837  0.9612  1.5135  0.6257
 5145TIP3    H215442   5.424   0.040   3.704 -2.0713 -1.1388  0.5941
 5146TIP3   OH215443   3.160   2.501   3.800  0.4444 -0.1861  0.5971
 5146TIP3    H115444   3.114   2.484   3.718 -0.6549 -1.6638  1.4547
 5146TIP3    H215445   3.180   2.594   3.798 -0.0742 -0.0830 -1.0882
 5147TIP3   OH215446   1.743   2.540   4.280  0.2761 -0.1207  0.0177
 5147TIP3    H115447   1.753   2.571   4.190  0.2553  0.2836  0.1511
 5147TIP3    H215448   1.649   2.546   4.297  0.0494 -1.8392 -0.5063
 5148TIP3   OH215449   0.482   4.823   4.099  0.0348 -0.0588 -0.1108
 5148TIP3    H115450   0.446   4.749   4.148  1.7964 -1.0038 -0.1721
 5148TIP3    H215451   0.411   4.850   4.041 -1.2496 -0.5191  1.1681
 5149TIP3   OH215452   5.825   1.152   3.810  0.4621 -0.0117  0.4798
 5149TIP3    H115453   5.887   1.224   3.809  0.8194 -0.2939  1.2681
 5149TIP3    H215454   5.773   1.164   3.731 -1.7393  3.0474  2.2006
 5150TIP3   OH215455   5.382   4.682   0.942 -0.5823 -0.1926  0.0780
 5150TIP3    H115456   5.340   4.726   1.016 -1.1560 -1.9280  0.8538
 5150TIP3    H215457   5.456   4.635   0.981 -0.6128 -0.7556 -0.5176
 5151TIP3   OH215458   2.102   1.433   2.870  0.7406  0.1529  0.5438
 5151TIP3    H115459   2.182   1.459   2.824  0.7739 -0.0147  0.5049
 5151TIP3    H215460   2.083   1.346   2.836 -0.3218  0.7920 -0.6076
 5152TIP3   OH215461   0.410   1.377   4.674 -0.4226  0.1815  0.0702
 5152TIP3    H115462   0.427   1.353   4.583 -2.5176 -0.1485 -0.2707
 5152TIP3    H215463   0.428   1.298   4.724 -0.1031  0.1146 -0.1451
 5153TIP3   OH215464   4.788   1.183   1.655  0.2744  0.1642 -0.0893
 5153TIP3    H115465   4.754   1.267   1.623  2.1252 -0.1363 -3.3274
 5153TIP3    H215466   4.879   1.202   1.678  0.0287 -0.4980  1.5546
 5154TIP3   OH215467   2.171   5.024   2.731  0.5611  0.6898 -0.1531
 5154TIP3    H115468   2.176   5.116   2.704  2.2833  0.1260 -2.0144
 5154TIP3    H215469   2.096   4.989   2.683  0.4453  0.9410 -0.1545
 5155TIP3   OH215470   5.501   2.971   0.182  0.2966  0.1287  0.2701
 5155TIP3    H115471   5.514   3.066   0.191 -2.2884  0.4218  1.8947
 5155TIP3    H215472   5.573   2.932   0.231 -0.3559  1.3624  2.3118
 5156TIP3   OH215473   6.311   4.033   0.304  0.1559  0.7890 -0.2099
 5156TIP3    H115474   6.320   4.120   0.265  0.2648  1.7695  1.8703
 5156TIP3    H215475   6.400   4.007   0.326 -0.0242  0.9567  0.7691
 5157TIP3   OH215476   2.337   5.861   2.197  0.8135 -0.0934 -0.0753
 5157TIP3    H115477   2.404   5.798   2.224  0.0659 -1.1356 -0.5721
 5157TIP3    H215478   2.386   5.930   2.151  1.8592  0.6672  2.0367
 5158TIP3   OH215479   6.254   1.390   2.196  0.1253 -0.2878 -0.3897
 5158TIP3    H115480   6.267   1.386   2.291  0.3307 -2.0232 -0.4606
 5158TIP3    H215481   6.294   1.310   2.163 -1.2639 -0.4566 -1.7857
 5159TIP3   OH215482   1.154   0.327   3.412  0.3313 -0.3641 -0.1464
 5159TIP3    H115483   1.230   0.379   3.439  0.5414 -0.7013 -0.0693
 5159TIP3    H215484   1.191   0.261   3.352  0.1374 -0.6655  0.0626
 5160TIP3   OH215485   1.628   1.821   3.372 -0.0643 -0.1744 -0.1396
 5160TIP3    H115486   1.591   1.873   3.301  1.1016  1.1195  0.1582
 5160TIP3    H215487   1.631   1.731   3.337 -1.2428  0.1079 -1.0064
 5161TIP3   OH215488   2.276   3.881   2.725  0.4113 -0.1343 -0.0320
 5161TIP3    H115489   2.333   3.866   2.801 -0.4538 -1.9031  0.3269
 5161TIP3    H215490   2.316   3.830   2.655 -1.2557 -2.3530  0.5286
 5162TIP3   OH215491   4.232   5.500   3.756 -0.8076 -0.0703 -0.0845
 5162TIP3    H115492   4.295   5.557   3.800 -0.3346 -0.2363 -0.5532
 5162TIP3    H215493   4.173   5.472   3.827  0.7701 -1.4775  0.7694
 5163TIP3   OH215494   1.724   2.877   4.164 -0.0643 -0.1999  0.2733
 5163TIP3    H115495   1.633   2.900   4.184  0.5865  1.3249  1.6940
 5163TIP3    H215496   1.774   2.954   4.190  1.6824 -1.1110 -0.2519
 5164TIP3   OH215497   0.258   3.989   4.935  0.2220  0.3854 -0.4390
 5164TIP3    H115498   0.310   3.909   4.943  0.8240  0.9266  1.4052
 5164TIP3    H215499   0.168   3.958   4.925  0.5489 -0.5306 -0.6301
 5165TIP3   OH215500   5.758   3.297   0.053  0.4074  0.0426  0.0748
 5165TIP3    H115501   5.844   3.277   0.018 -0.5922 -2.2832 -1.3231
 5165TIP3    H215502   5.712   3.339  -0.019 -0.3530 -0.9455 -0.0435
 5166TIP3   OH215503   4.415   3.162   1.495 -0.1431 -0.0591 -0.3418
 5166TIP3    H115504   4.489   3.140   1.438 -0.8565 -1.9067 -0.6167
 5166TIP3    H215505   4.356   3.087   1.487 -0.0262 -0.6839  3.2337
 5167TIP3   OH215506   0.233   1.230   1.584 -0.1100  0.3833 -0.0164
 5167TIP3    H115507   0.230   1.261   1.675 -1.4109  1.9393 -0.5373
 5167TIP3    H215508   0.325   1.238   1.559  0.3632 -0.5497  1.2961
 5168TIP3   OH215509   4.368   5.830   4.123  0.6587  0.0205 -0.1954
 5168TIP3    H115510   4.410   5.913   4.147 -2.0091  0.8699  2.0224
 5168TIP3    H215511   4.300   5.856   4.060  0.5303 -0.6540 -0.3384
 5169TIP3   OH215512   0.224   3.871   3.415  0.5085  0.7612 -0.0536
 5169TIP3    H115513   0.312   3.848   3.445  1.1766  1.3763 -1.4575
 5169TIP3    H215514   0.194   3.938   3.477  1.2481  0.9429  0.1111
 5170TIP3   OH215515   0.486   1.830   4.790  0.3103 -0.5726  0.6264
 5170TIP3    H115516   0.542   1.802   4.717  0.9957  0.4975  0.7166
 5170TIP3    H215517   0.402   1.852   4.749  0.5104 -0.5362  0.2326
 5171TIP3   OH215518   1.509   0.464   4.747 -0.0619  0.0964  0.0562
 5171TIP3    H115519   1.519   0.464   4.652 -1.4154  0.6341 -0.1149
 5171TIP3    H215520   1.529   0.375   4.774  0.6080  0.0113 -0.6966
 5172TIP3   OH215521   4.543   0.395   0.219 -0.4172  0.0765  0.4891
 5172TIP3    H115522   4.578   0.358   0.300  0.8279  0.4049  0.1286
 5172TIP3    H215523   4.553   0.325   0.154 -1.0837 -0.0632  0.5298
 5173TIP3   OH215524   0.706   2.044   1.712  0.9370  0.4154 -0.1265
 5173TIP3    H115525   0.792   2.050   1.672  1.4904  0.5315  1.0448
 5173TIP3    H215526   0.687   1.951   1.715  0.9790  0.3946 -0.4630
 5174TIP3   OH215527   2.639   5.799   2.923  0.3539 -0.3050 -0.3874
 5174TIP3    H115528   2.658   5.709   2.950  0.1306 -0.0856  0.5540
 5174TIP3    H215529   2.544   5.806   2.929  0.4347  0.2303  0.3424
 5175TIP3   OH215530   6.375   5.426   4.154  0.4864  0.1504 -0.5252
 5175TIP3    H115531   6.304   5.363   4.170  0.4603  0.6808  1.9029
 5175TIP3    H215532   6.343   5.508   4.191  1.8115  0.7548 -0.6525
 5176TIP3   OH215533   3.175   0.906   4.583  0.7660  0.6029 -0.6830
 5176TIP3    H115534   3.107   0.915   4.650  2.0194  0.7278  0.6113
 5176TIP3    H215535   3.166   0.986   4.530 -0.5906  0.2443 -1.0263
 5177TIP3   OH215536   3.199   4.814   2.779 -1.0856  0.2477 -0.6142
 5177TIP3    H115537   3.289   4.844   2.785 -1.6701  1.9800  0.1147
 5177TIP3    H215538   3.173   4.796   2.869 -1.3467 -0.6299 -0.8616
 5178TIP3   OH215539   2.686   3.116   3.564  0.3153 -0.0832 -0.4115
 5178TIP3    H115540   2.775   3.131   3.597  0.4178 -0.2282 -0.6171
 5178TIP3    H215541   2.629   3.144   3.635  0.4877  1.9684 -1.0039
 5179TIP3   OH215542   0.765   4.945   1.752  0.4043 -0.1175  0.0917
 5179TIP3    H115543   0.684   4.992   1.773  0.3504 -0.8259  1.6017
 5179TIP3    H215544   0.736   4.861   1.718  0.5128  0.5332 -1.7235
 5180TIP3   OH215545   0.378   0.339   2.810 -0.2109  0.1160  0.1824
 5180TIP3    H115546   0.440   0.411   2.803 -1.2902  1.0539 -0.0317
 5180TIP3    H215547   0.346   0.343   2.900 -2.6253  1.9738 -0.6597
 5181TIP3   OH215548   0.080   1.940   4.514  0.3657 -0.6318 -0.0257
 5181TIP3    H115549   0.166   1.952   4.475  0.5507 -0.7020  0.3574
 5181TIP3    H215550   0.025   1.911   4.442  0.4005  0.4805 -0.5178
 5182TIP3   OH215551   3.030   1.393   3.498 -0.0116 -0.1448 -0.4160
 5182TIP3    H115552   3.053   1.327   3.564  1.4921 -1.0281 -1.7618
 5182TIP3    H215553   2.934   1.387   3.492 -0.0318 -1.2355  0.4648
 5183TIP3   OH215554   1.510   1.295   1.390  0.0506 -0.0862  0.5950
 5183TIP3    H115555   1.478   1.288   1.300  0.7769 -0.1292  0.3361
 5183TIP3    H215556   1.580   1.360   1.386  0.0693 -0.0675  1.1371
 5184TIP3   OH215557   2.171   1.505   1.546  0.1864 -0.4401  0.1422
 5184TIP3    H115558   2.151   1.543   1.460 -0.5340 -1.2696 -0.0740
 5184TIP3    H215559   2.167   1.579   1.607  1.9188  0.3830 -0.6914
 5185TIP3   OH215560   4.608   1.691   2.051 -0.0225  0.3817 -0.1383
 5185TIP3    H115561   4.532   1.706   2.108 -0.3935  0.8831 -0.7477
 5185TIP3    H215562   4.635   1.778   2.024 -0.0586  0.1396 -0.9850
 5186TIP3   OH215563   2.529   1.576   2.406  0.6590 -0.1388 -0.4858
 5186TIP3    H115564   2.584   1.608   2.478 -1.7515 -0.4100  1.6029
 5186TIP3    H215565   2.491   1.655   2.368 -0.2900 -0.1314  0.4512
 5187TIP3   OH215566   4.848   5.439   4.205  0.0276 -0.7278 -0.5283
 5187TIP3    H115567   4.879   5.485   4.127  0.8631  0.9003  0.7160
 5187TIP3    H215568   4.756   5.419   4.186  0.1972 -0.2979 -1.8911
 5188TIP3   OH215569   2.229   4.260   1.803 -0.1122 -0.1195  0.0675
 5188TIP3    H115570   2.276   4.247   1.885  0.6580 -0.1171 -0.3635
 5188TIP3    H215571   2.295   4.294   1.743 -0.2532 -1.6725 -1.0286
 5189TIP3   OH215572   5.641   1.578   2.300  0.4026  0.2439  0.2973
 5189TIP3    H115573   5.626   1.526   2.379 -2.3075 -0.2471 -0.4060
 5189TIP3    H215574   5.596   1.528   2.231  1.6535  1.2652 -1.3132
 5190TIP3   OH215575   2.786   0.787   0.579  0.2374  1.3460  0.0444
 5190TIP3    H115576   2.758   0.857   0.637 -1.6152  0.8950 -0.2562
 5190TIP3    H215577   2.758   0.707   0.624  0.3613  0.9062 -0.6508
 5191TIP3   OH215578   3.591   2.629   4.580 -0.4673  0.1120 -0.0107
 5191TIP3    H115579   3.506   2.608   4.541 -1.3207  1.0711  1.2117
 5191TIP3    H215580   3.583   2.601   4.671  0.9598 -0.8136 -0.1390
 5192TIP3   OH215581   5.069   5.403   2.720  0.7303  0.6164  0.4019
 5192TIP3    H115582   5.107   5.391   2.807  1.2240 -0.9588 -0.0093
 5192TIP3    H215583   5.066   5.316   2.682 -2.8530  0.7159  0.1735
 5193TIP3   OH215584   2.710   0.237   2.610 -0.7455 -0.4023  0.5081
 5193TIP3    H115585   2.770   0.211   2.540 -0.6249 -0.6396  0.6984
 5193TIP3    H215586   2.757   0.215   2.691 -0.8389 -0.0287  0.6639
 5194TIP3   OH215587   0.270   1.294   0.408  0.0150  0.1480  0.1465
 5194TIP3    H115588   0.210   1.328   0.475 -0.4544  1.6839 -1.0260
 5194TIP3    H215589   0.227   1.312   0.325  1.1942 -0.5591 -0.6484
 5195TIP3   OH215590   4.970   3.155   1.474  0.2654 -0.6727 -0.6049
 5195TIP3    H115591   5.003   3.220   1.412  1.4000 -0.4827  0.1712
 5195TIP3    H215592   5.023   3.077   1.459 -0.7578 -1.2845 -1.1892
 5196TIP3   OH215593   0.007   1.265   4.424 -0.0508  0.2826 -0.0409
 5196TIP3    H115594   0.101   1.254   4.409  0.5896  1.5886  2.3769
 5196TIP3    H215595  -0.027   1.302   4.343  1.1473 -1.8553 -1.6003
 5197TIP3   OH215596   4.428   3.929   2.213 -0.2306  0.5686 -0.3427
 5197TIP3    H115597   4.347   3.973   2.238 -0.7190 -0.3634 -0.2273
 5197TIP3    H215598   4.481   3.929   2.293 -0.3040  0.7819 -0.2952
 5198TIP3   OH215599   6.106   5.518   0.797 -0.0332 -0.6919 -0.2264
 5198TIP3    H115600   6.030   5.558   0.756  0.0271 -0.6080 -0.2553
 5198TIP3    H215601   6.111   5.430   0.760 -0.5804 -0.9789  0.3586
 5199TIP3   OH215602   3.341   4.399   4.263 -0.0794 -0.0495 -0.6854
 5199TIP3    H115603   3.421   4.426   4.218  2.4122  1.7026  4.1456
 5199TIP3    H215604   3.288   4.478   4.268 -1.0330 -0.5932 -1.6269
 5200TIP3   OH215605   3.063   0.887   1.134  0.0044  0.1437  0.2833
 5200TIP3    H115606   3.084   0.974   1.169  1.0166 -0.7143  1.9596
 5200TIP3    H215607   3.149   0.850   1.111 -0.3915 -0.4978 -0.1838
 5201TIP3   OH215608   4.857   0.461   1.837 -0.2365 -0.1533  0.3606
 5201TIP3    H115609   4.884   0.508   1.916  0.7808  0.0745 -0.1086
 5201TIP3    H215610   4.928   0.399   1.820  1.3715  2.1875 -2.3132
 5202TIP3   OH215611   0.676   3.586   4.630 -0.5023 -0.2012 -0.3185
 5202TIP3    H115612   0.745   3.614   4.690 -0.9750 -0.9674  0.6003
 5202TIP3    H215613   0.609   3.655   4.636 -1.6364 -1.3849  1.8966
 5203TIP3   OH215614   0.317   5.760   1.623  0.2373 -0.2687  0.5622
 5203TIP3    H115615   0.388   5.711   1.583  0.5666 -0.1546  0.9989
 5203TIP3    H215616   0.240   5.739   1.570  0.7819  0.3932 -0.5501
 5204TIP3   OH215617   0.758   2.097   0.732  0.6259  0.5395  0.4801
 5204TIP3    H115618   0.785   2.122   0.644  0.7954 -0.5954  0.1982
 5204TIP3    H215619   0.833   2.050   0.767 -0.6106 -1.9640 -0.0129
 5205TIP3   OH215620   5.953   1.819   4.469 -0.7681 -0.1197 -0.0101
 5205TIP3    H115621   5.992   1.861   4.393 -0.0750 -2.7687 -1.1946
 5205TIP3    H215622   5.943   1.890   4.533 -0.2854  1.9374 -2.1038
 5206TIP3   OH215623   6.089   5.827   0.669 -0.5412 -0.8868  0.8133
 5206TIP3    H115624   6.085   5.842   0.575 -1.8676 -4.1131  0.2489
 5206TIP3    H215625   6.125   5.909   0.705 -2.5379  1.4969 -2.1620
 5207TIP3   OH215626   2.640   4.726   1.856  0.4209  0.0194  0.1060
 5207TIP3    H115627   2.593   4.809   1.858 -0.1967 -0.3312  0.3734
 5207TIP3    H215628   2.724   4.747   1.815 -0.5277  0.3566 -1.7495
 5208TIP3   OH215629   3.162   5.626   0.871  0.5625 -0.1766 -0.3676
 5208TIP3    H115630   3.090   5.590   0.924 -0.0570  0.3788 -0.8188
 5208TIP3    H215631   3.231   5.645   0.935  0.9261 -2.1221 -0.1044
 5209TIP3   OH215632   1.349   5.366   3.876  0.1780  0.2132 -0.3521
 5209TIP3    H115633   1.372   5.301   3.942 -0.0440  0.4983  0.0075
 5209TIP3    H215634   1.255   5.354   3.862  0.1219  0.5077 -0.2288
 5210TIP3   OH215635   1.219   4.608   3.186  0.3158  0.3050  0.0282
 5210TIP3    H115636   1.218   4.701   3.207  0.4793  0.5036 -0.8056
 5210TIP3    H215637   1.266   4.603   3.103 -0.8001 -0.3774 -0.5876
 5211TIP3   OH215638   3.323   3.758   4.673  0.6186 -0.1008  0.5413
 5211TIP3    H115639   3.340   3.787   4.583  0.6243  0.8468  0.8356
 5211TIP3    H215640   3.409   3.758   4.715  0.6872 -1.0235  0.4215
 5212TIP3   OH215641   2.647   5.876   3.459  0.7230  0.2771 -0.1746
 5212TIP3    H115642   2.599   5.838   3.386 -2.5338  0.0480  1.8671
 5212TIP3    H215643   2.661   5.967   3.433 -1.2428  0.4615 -0.7719
 5213TIP3   OH215644   3.881   2.106   1.668  0.1934  0.1206 -0.1648
 5213TIP3    H115645   3.944   2.129   1.600  0.4474 -0.1013 -0.0054
 5213TIP3    H215646   3.933   2.097   1.748 -0.2600  1.6726  0.3476
 5214TIP3   OH215647   4.426   0.432   2.040 -0.3361  0.6938  0.2298
 5214TIP3    H115648   4.487   0.471   1.977 -1.1641  0.5479 -0.6852
 5214TIP3    H215649   4.378   0.506   2.077  1.4551  0.9860  2.1711
 5215TIP3   OH215650   4.688   4.011   1.998  0.1371 -0.0769 -0.5960
 5215TIP3    H115651   4.646   3.936   1.957  1.4064 -1.4237  0.4412
 5215TIP3    H215652   4.618   4.076   2.006 -1.7855 -2.1570  0.9832
 5216TIP3   OH215653   2.604   0.158   4.809 -0.0891 -0.2372  0.2348
 5216TIP3    H115654   2.662   0.089   4.841  0.0291  0.2212  1.0393
 5216TIP3    H215655   2.649   0.195   4.733  1.2839  0.9294  1.5640
 5217TIP3   OH215656   5.759   1.449   3.641  0.2339 -0.1862  0.5538
 5217TIP3    H115657   5.852   1.460   3.625 -0.0088  1.1326 -0.1140
 5217TIP3    H215658   5.729   1.393   3.569  0.1347  1.2739 -0.6080
 5218TIP3   OH215659   4.724   0.583   0.427 -0.5962  0.1825  0.2496
 5218TIP3    H115660   4.699   0.498   0.391 -0.3757 -0.1206  0.7954
 5218TIP3    H215661   4.781   0.621   0.361  1.9218 -1.4614  1.3189
 5219TIP3   OH215662   4.357   4.351   0.894  0.1870 -0.1536  0.5530
 5219TIP3    H115663   4.426   4.415   0.877 -0.0850 -0.5409 -2.5823
 5219TIP3    H215664   4.388   4.302   0.970  1.6613  1.9207  1.3872
 5220TIP3   OH215665   5.546   1.361   0.992 -0.3683  0.1872  0.3191
 5220TIP3    H115666   5.568   1.272   0.963  0.0883 -0.0408  1.3215
 5220TIP3    H215667   5.490   1.348   1.069 -2.3517  0.7775 -0.9634
 5221TIP3   OH215668   4.404   0.393   2.681  0.4260 -0.6572 -0.0759
 5221TIP3    H115669   4.396   0.413   2.775  1.4855  0.2812 -0.1748
 5221TIP3    H215670   4.374   0.472   2.637  0.4559 -0.8991 -0.5298
 5222TIP3   OH215671   2.799   2.667   4.981  0.0659  0.6971  0.4471
 5222TIP3    H115672   2.859   2.704   4.917 -0.6477  2.9190  0.9681
 5222TIP3    H215673   2.854   2.650   5.058  0.4640  0.3312  0.0906
 5223TIP3   OH215674   1.604   5.218   3.492 -0.2885  0.3463 -0.3309
 5223TIP3    H115675   1.510   5.206   3.480 -0.3763  0.3447  0.3325
 5223TIP3    H215676   1.644   5.158   3.430 -0.7227  0.2181 -0.4922
 5224TIP3   OH215677   4.364   0.560   4.989  0.0926  0.0155 -0.2795
 5224TIP3    H115678   4.352   0.469   4.964 -0.8483 -0.0665  0.3942
 5224TIP3    H215679   4.459   0.573   4.988  0.2779 -1.1438  0.1860
 5225TIP3   OH215680   1.454   3.138   2.891  0.3177  0.3906  0.2997
 5225TIP3    H115681   1.512   3.205   2.927  0.2489  0.1634  0.8331
 5225TIP3    H215682   1.378   3.138   2.949  0.7144 -0.7782  0.8478
 5226TIP3   OH215683   2.401   5.689   1.158  0.0469  0.0636  0.1126
 5226TIP3    H115684   2.467   5.720   1.096  0.3981  0.7439  0.7973
 5226TIP3    H215685   2.376   5.768   1.206  0.0927 -0.5092  1.1106
 5227TIP3   OH215686   0.153   0.499   2.290 -0.1976 -0.5729  0.2774
 5227TIP3    H115687   0.126   0.468   2.203  0.0486 -2.8600  0.9465
 5227TIP3    H215688   0.071   0.514   2.337 -0.3311 -0.8620  0.1402
 5228TIP3   OH215689   0.216   3.684   1.467 -0.2537 -0.2390  0.4308
 5228TIP3    H115690   0.161   3.610   1.495 -1.0465  0.2509  0.1948
 5228TIP3    H215691   0.224   3.673   1.372 -1.0050  0.3794  0.2814
 5229TIP3   OH215692   0.239   3.022   0.281  0.1194 -0.1667  0.1066
 5229TIP3    H115693   0.300   3.093   0.300  0.6794 -1.4568  4.0133
 5229TIP3    H215694   0.295   2.946   0.263 -0.3663 -0.7170  0.8852
 5230TIP3   OH215695   1.221   5.316   2.189  0.4785  0.2223 -0.1665
 5230TIP3    H115696   1.281   5.377   2.146 -0.0787  1.0587  0.2240
 5230TIP3    H215697   1.212   5.244   2.127 -0.4299  1.4718 -1.5333
 5231TIP3   OH215698   6.093   1.710   2.344  0.4500  0.1934  0.4304
 5231TIP3    H115699   6.094   1.801   2.374  0.7375  0.1133  0.6578
 5231TIP3    H215700   6.038   1.664   2.407 -2.2944  0.7824 -1.3377
 5232TIP3   OH215701   0.275   5.582   0.682 -0.0802  0.4188 -0.4544
 5232TIP3    H115702   0.288   5.655   0.621 -0.6323  0.6422 -0.3161
 5232TIP3    H215703   0.181   5.583   0.701 -0.0188 -0.0456 -0.0938
 5233TIP3   OH215704   5.409   1.117   1.718  0.0731  0.2251 -0.0112
 5233TIP3    H115705   5.453   1.033   1.728 -0.3926  0.0220  0.3475
 5233TIP3    H215706   5.435   1.167   1.795 -0.6350 -0.0368  0.3996
 5234TIP3   OH215707   3.910   3.167   2.848 -0.0347  0.1161  0.7311
 5234TIP3    H115708   3.838   3.212   2.893 -0.1913 -0.2839  0.8864
 5234TIP3    H215709   3.985   3.177   2.906 -0.2783 -0.5443  1.1677
 5235TIP3   OH215710   1.854   2.557   4.982  0.3133  0.0219 -0.7911
 5235TIP3    H115711   1.901   2.610   5.047  0.7225  1.1820 -1.9841
 5235TIP3    H215712   1.880   2.467   5.000  0.7691  0.3614  0.3502
 5236TIP3   OH215713   2.891   0.675   2.397 -0.1626  0.5277  0.3590
 5236TIP3    H115714   2.809   0.659   2.351 -0.2771 -2.2578  1.3500
 5236TIP3    H215715   2.957   0.678   2.327 -0.8954  1.1789 -0.3246
 5237TIP3   OH215716   2.971   3.189   3.610  0.2668  0.2462 -0.0807
 5237TIP3    H115717   3.059   3.155   3.630 -0.5419 -0.3682  3.0394
 5237TIP3    H215718   2.967   3.273   3.654 -1.1193 -0.3535  1.0144
 5238TIP3   OH215719   3.022   0.109   4.479 -0.0033 -0.0578  0.1973
 5238TIP3    H115720   3.080   0.184   4.463  0.0680  0.1632  1.4198
 5238TIP3    H215721   2.953   0.118   4.414 -1.3360  2.4682  1.8024
 5239TIP3   OH215722   0.415   1.114   3.377  0.2013  0.0219 -0.2688
 5239TIP3    H115723   0.482   1.087   3.314  1.7249  0.3648  1.1330
 5239TIP3    H215724   0.452   1.093   3.463 -1.0511  1.1553  0.5996
 5240TIP3   OH215725   5.109   1.896   1.345 -0.7178 -0.2897 -0.3732
 5240TIP3    H115726   5.081   1.974   1.394  0.4538  0.8701 -1.4665
 5240TIP3    H215727   5.191   1.922   1.303 -0.9240 -1.7184 -1.7539
 5241TIP3   OH215728   3.073   5.808   1.919  0.3501  0.5634 -0.6616
 5241TIP3    H115729   3.000   5.756   1.888 -0.3494  1.0310  0.1804
 5241TIP3    H215730   3.108   5.849   1.840  0.5580 -0.7060 -1.2516
 5242TIP3   OH215731   2.625   1.078   1.883 -0.6492  0.3895 -0.2387
 5242TIP3    H115732   2.674   1.000   1.854  0.0304  0.7664 -0.1144
 5242TIP3    H215733   2.636   1.140   1.811  0.9638  1.2974  0.7322
 5243TIP3   OH215734   1.125   0.053   3.932 -0.4968  0.1500 -0.8184
 5243TIP3    H115735   1.102  -0.037   3.952  0.5112  0.3438  1.5153
 5243TIP3    H215736   1.164   0.087   4.013  1.0994  2.0346 -2.2661
 5244TIP3   OH215737   2.812   5.935   1.747 -0.3595 -0.3220 -0.1668
 5244TIP3    H115738   2.740   5.878   1.771 -2.1280  2.2232  0.9949
 5244TIP3    H215739   2.861   5.947   1.829 -0.3896  0.3418 -0.2441
 5245TIP3   OH215740   3.239   1.859   0.417  0.8046  0.2677 -0.5010
 5245TIP3    H115741   3.241   1.955   0.423 -2.4591  0.4126 -0.1133
 5245TIP3    H215742   3.254   1.842   0.324 -2.5440  1.5202 -1.4152
 5246TIP3   OH215743   6.182   2.309   4.831  0.3603 -0.4086  0.3967
 5246TIP3    H115744   6.212   2.329   4.920  2.5749  0.8592 -0.5548
 5246TIP3    H215745   6.199   2.215   4.821  1.1713 -0.3320  0.9544
 5247TIP3   OH215746   1.461   4.049   4.915 -0.5631 -0.5075 -0.0822
 5247TIP3    H115747   1.510   3.968   4.900  0.4640  0.1650 -0.5579
 5247TIP3    H215748   1.487   4.077   5.002  1.7029  0.9823 -1.1429
 5248TIP3   OH215749   0.029   5.740   1.108  0.3094 -0.5876 -0.2878
 5248TIP3    H115750  -0.050   5.699   1.144 -0.6678  1.9668  0.7820
 5248TIP3    H215751   0.099   5.712   1.166 -0.3819 -0.5478  0.5952
 5249TIP3   OH215752   5.156   4.414   3.132 -0.0740 -0.4865 -0.3634
 5249TIP3    H115753   5.068   4.376   3.127 -0.9251  1.3232 -0.1177
 5249TIP3    H215754   5.183   4.421   3.040  0.1223 -1.6519 -0.4147
 5250TIP3   OH215755   0.312   4.179   2.646  0.0805 -0.5664  0.3584
 5250TIP3    H115756   0.338   4.253   2.592  2.5973 -1.0432  0.7793
 5250TIP3    H215757   0.315   4.104   2.586 -0.0492 -0.6620  0.4721
 5251TIP3   OH215758   3.049   5.288   5.003  0.1222 -0.2440  0.4630
 5251TIP3    H115759   2.954   5.282   5.012  0.2016  0.7021  2.6161
 5251TIP3    H215760   3.063   5.375   4.965  0.1172 -0.4587 -0.0286
 5252TIP3   OH215761   5.913   1.635   0.932 -0.0746  0.7343  0.2280
 5252TIP3    H115762   5.927   1.695   1.004  0.9137  1.5513 -0.6055
 5252TIP3    H215763   5.891   1.690   0.857 -1.1676 -0.0964 -0.0955
 5253TIP3   OH215764   0.139   4.804   4.996 -0.3434  0.3039  0.2860
 5253TIP3    H115765   0.066   4.847   5.040 -0.3137  0.4624  0.1805
 5253TIP3    H215766   0.208   4.802   5.062 -0.9530 -1.2672  0.9179
 5254TIP3   OH215767   6.259   3.833   3.557 -0.2832 -0.0535  0.9017
 5254TIP3    H115768   6.341   3.860   3.599  0.6407 -1.2014 -0.0538
 5254TIP3    H215769   6.232   3.910   3.506  0.1782  0.3540  1.2614
 5255TIP3   OH215770   0.509   1.558   2.340 -0.6778 -0.5546  0.1352
 5255TIP3    H115771   0.589   1.531   2.386 -2.4169 -1.3013  2.9224
 5255TIP3    H215772   0.470   1.476   2.310 -1.6201 -0.4331  0.9878
 5256TIP3   OH215773   0.933   5.373   1.860  0.1341  0.1638 -0.2813
 5256TIP3    H115774   1.016   5.340   1.825 -0.4983 -0.3008 -1.3668
 5256TIP3    H215775   0.905   5.439   1.796 -1.4609 -1.2997 -1.1511
 5257TIP3   OH215776   0.552   4.648   2.003  0.0793 -0.1236  0.3605
 5257TIP3    H115777   0.622   4.631   2.066 -0.0314 -1.1790  0.2142
 5257TIP3    H215778   0.495   4.712   2.047  0.3228 -0.3951  1.0859
 5258TIP3   OH215779   5.045   5.609   3.642 -0.2690 -0.3676 -0.7126
 5258TIP3    H115780   5.101   5.661   3.699  0.9416 -1.4007 -0.9077
 5258TIP3    H215781   4.956   5.637   3.664  0.1856 -0.2784  1.2305
 5259TIP3   OH215782   5.844   3.485   0.297  0.0536 -0.4401 -0.7010
 5259TIP3    H115783   5.773   3.480   0.233 -0.3573 -2.3927 -0.1508
 5259TIP3    H215784   5.871   3.395   0.311  1.0648  0.0606  0.8554
 5260TIP3   OH215785   1.490   4.337   4.827 -0.2114 -0.4630  0.4125
 5260TIP3    H115786   1.519   4.247   4.837 -2.1148 -1.3444 -1.2581
 5260TIP3    H215787   1.558   4.379   4.775 -0.0007 -1.3528 -0.0350
 5261TIP3   OH215788   3.432   1.816   2.170 -0.3028 -0.0853  0.1547
 5261TIP3    H115789   3.382   1.813   2.252 -0.3217  1.3766  0.2259
 5261TIP3    H215790   3.367   1.836   2.103 -0.0533  0.3180  0.0277
 5262TIP3   OH215791   3.539   0.937   3.576  0.3150 -0.5904 -0.1290
 5262TIP3    H115792   3.513   0.951   3.484  0.8385 -0.8802 -0.3263
 5262TIP3    H215793   3.624   0.893   3.570  0.0744 -1.1517  0.4927
 5263TIP3   OH215794   5.048   1.275   1.677  0.1363 -0.2466 -0.3652
 5263TIP3    H115795   5.109   1.212   1.637  0.9501 -0.0967  0.5951
 5263TIP3    H215796   5.099   1.355   1.685 -1.1165  0.8057 -2.2448
 5264TIP3   OH215797   5.603   3.777   4.279  0.1892  0.0535  0.3452
 5264TIP3    H115798   5.637   3.730   4.203 -0.8027 -1.1891  0.6290
 5264TIP3    H215799   5.675   3.833   4.308  1.0030 -0.4123 -0.7320
 5265TIP3   OH215800   4.397   1.445   1.362 -0.3819  0.3437 -0.0405
 5265TIP3    H115801   4.423   1.521   1.310  1.5976 -0.8073 -0.8314
 5265TIP3    H215802   4.381   1.376   1.298  0.7456 -0.7131  0.7749
 5266TIP3   OH215803   2.361   5.388   0.800  0.1663 -0.3181  0.3639
 5266TIP3    H115804   2.436   5.390   0.859 -2.6620 -0.9026  4.4712
 5266TIP3    H215805   2.364   5.302   0.759  1.2600 -0.6930  1.1889
 5267TIP3   OH215806   4.596   5.348   4.948  0.7852  0.7117  0.5474
 5267TIP3    H115807   4.677   5.350   4.998  0.4783  1.7729  1.0268
 5267TIP3    H215808   4.528   5.371   5.011 -0.3008 -2.6259  0.8158
 5268TIP3   OH215809   6.149   0.206   3.519  0.3238  0.9694 -0.0336
 5268TIP3    H115810   6.242   0.189   3.534  0.3682  0.5049 -0.7506
 5268TIP3    H215811   6.110   0.207   3.606  0.4943 -1.8726  0.1706
 5269TIP3   OH215812   2.488   3.843   2.905  0.1862  0.3629 -0.2382
 5269TIP3    H115813   2.427   3.883   2.967  0.2245 -0.2622  0.2134
 5269TIP3    H215814   2.525   3.769   2.952  1.3992  0.8058 -0.4603
 5270TIP3   OH215815   2.730   3.868   4.392  0.4750  0.2462 -0.1888
 5270TIP3    H115816   2.757   3.853   4.301  0.9535  2.0892 -0.3958
 5270TIP3    H215817   2.812   3.883   4.439  0.1341  0.7559  0.2488
 5271TIP3   OH215818   5.926   2.203   4.855 -0.1185 -0.0965  0.1815
 5271TIP3    H115819   5.848   2.237   4.812 -0.1275 -2.5604 -2.0295
 5271TIP3    H215820   5.982   2.279   4.868 -2.4862  1.6104  1.0829
 5272TIP3   OH215821   1.040   0.770   3.609 -0.0254  0.0267  0.7526
 5272TIP3    H115822   1.027   0.731   3.522  0.7988  1.1294  0.1078
 5272TIP3    H215823   1.134   0.789   3.612 -0.0845  0.1776  1.8167
 5273TIP3   OH215824   1.085   4.446   3.399  0.6956  0.2701 -0.0965
 5273TIP3    H115825   1.124   4.525   3.436  1.6861 -0.3970  0.3380
 5273TIP3    H215826   1.031   4.411   3.470 -0.6549  1.1285 -0.6584
 5274TIP3   OH215827   3.924   1.010   2.383  0.3952  0.1628  0.5867
 5274TIP3    H115828   3.951   1.087   2.433 -2.1250  0.8805  0.9982
 5274TIP3    H215829   3.828   1.013   2.384  0.2034 -1.0818 -2.3119
 5275TIP3   OH215830   6.002   3.846   1.649  0.6224  0.2457 -0.2466
 5275TIP3    H115831   6.054   3.903   1.706 -0.2008  0.5811  0.1744
 5275TIP3    H215832   5.988   3.898   1.570  0.6715  0.2653 -0.2431
 5276TIP3   OH215833   5.183   3.866   1.970  0.0561 -0.3249  0.2230
 5276TIP3    H115834   5.254   3.824   1.923 -1.3925 -0.2299 -2.2107
 5276TIP3    H215835   5.219   3.950   1.999  1.2232 -0.7276 -0.0055
 5277TIP3   OH215836   0.762   3.336   2.491 -0.3013  0.5689  0.0111
 5277TIP3    H115837   0.716   3.262   2.453  0.2343 -0.4630  1.3043
 5277TIP3    H215838   0.812   3.373   2.419 -0.4834 -0.3956 -0.6187
 5278TIP3   OH215839   1.838   1.807   4.961  0.0619  0.2697 -0.2498
 5278TIP3    H115840   1.834   1.901   4.977  1.7735  0.4588 -0.7517
 5278TIP3    H215841   1.915   1.795   4.906  0.6811 -1.5705  0.9249
 5279TIP3   OH215842   1.098   1.161   2.805 -0.4827  0.2337 -0.1969
 5279TIP3    H115843   1.125   1.130   2.891 -0.4226 -0.0942 -0.3310
 5279TIP3    H215844   1.091   1.256   2.814  1.3883  0.4183 -0.3532
 5280TIP3   OH215845   5.951   1.626   4.177 -0.1476  0.9848  0.6395
 5280TIP3    H115846   5.936   1.699   4.117  0.6067  0.5158 -0.1485
 5280TIP3    H215847   6.004   1.664   4.247  0.2855  1.1892  0.2073
 5281TIP3   OH215848   3.111   0.386   4.486 -0.3748 -0.0591  0.0039
 5281TIP3    H115849   3.080   0.392   4.396 -0.2696 -2.5493 -0.2741
 5281TIP3    H215850   3.052   0.441   4.536  0.2935  2.3470 -1.7111
 5282TIP3   OH215851   0.182   2.899   1.473  0.1115 -0.0882 -0.6805
 5282TIP3    H115852   0.187   2.963   1.402 -0.1268 -0.3905 -0.9788
 5282TIP3    H215853   0.255   2.921   1.531 -0.8283  1.3695  0.0026
 5283TIP3   OH215854   2.563   2.051   4.150  0.8003 -0.0782  0.0529
 5283TIP3    H115855   2.622   2.093   4.088 -1.2061  2.5260 -0.2562
 5283TIP3    H215856   2.558   2.112   4.224 -0.8658 -0.5874  0.4097
 5284TIP3   OH215857   0.790   3.206   3.704 -0.3916 -0.1288  0.2296
 5284TIP3    H115858   0.733   3.130   3.716 -1.6303  0.4765 -1.3921
 5284TIP3    H215859   0.879   3.173   3.717 -1.0331 -1.2406  2.2408
 5285TIP3   OH215860   4.677   4.939   2.216  0.5885 -0.3424 -0.6272
 5285TIP3    H115861   4.658   4.862   2.163  2.6109 -0.9628 -0.5383
 5285TIP3    H215862   4.694   4.905   2.304 -1.4377  0.5442  0.1558
 5286TIP3   OH215863   5.668   0.194   3.048 -0.3604 -0.3441 -0.3719
 5286TIP3    H115864   5.704   0.185   2.960 -0.0822  0.1229 -0.3101
 5286TIP3    H215865   5.720   0.263   3.088 -0.2736 -0.7805  0.2758
 5287TIP3   OH215866   3.906   1.027   3.240 -0.2999 -0.1973  0.8240
 5287TIP3    H115867   3.944   0.949   3.200 -1.7307 -0.5734  0.1264
 5287TIP3    H215868   3.959   1.042   3.319  2.3100  0.3038 -0.8819
 5288TIP3   OH215869   2.478   3.566   4.315  0.0801 -0.5441  0.2285
 5288TIP3    H115870   2.435   3.503   4.373  1.3343 -0.2130  1.5797
 5288TIP3    H215871   2.571   3.542   4.319  0.4677  0.8811  0.1264
 5289TIP3   OH215872   6.272   0.983   1.927 -0.3795 -0.0453 -0.3301
 5289TIP3    H115873   6.312   0.910   1.880  0.0432  0.4407 -0.7326
 5289TIP3    H215874   6.215   1.025   1.863 -0.8595 -0.2012 -0.0102
 5290TIP3   OH215875   0.836   4.600   2.926 -0.7081  0.0166 -0.4847
 5290TIP3    H115876   0.813   4.622   2.835 -1.8361 -1.2285 -0.5312
 5290TIP3    H215877   0.891   4.673   2.955 -1.4740  1.1372 -1.7217
 5291TIP3   OH215878   6.025   5.693   5.016  0.5608  0.3588  0.3967
 5291TIP3    H115879   6.087   5.766   5.018  0.1920  0.6945 -0.1789
 5291TIP3    H215880   5.972   5.705   5.095  1.8512 -0.5046  1.4421
 5292TIP3   OH215881   3.740   2.783   1.295  0.0639 -0.5273 -0.4607
 5292TIP3    H115882   3.818   2.816   1.338  0.5663 -1.2724 -0.7739
 5292TIP3    H215883   3.771   2.710   1.242 -0.9954 -1.4961  0.1986
 5293TIP3   OH215884   1.420   2.877   2.725 -0.1948  0.5285 -0.6902
 5293TIP3    H115885   1.426   2.952   2.785  0.0169 -0.1661  0.1842
 5293TIP3    H215886   1.373   2.911   2.649  2.5895  2.4675 -1.7653
 5294TIP3   OH215887   5.887   1.596   2.493 -0.3839 -0.1870 -0.3731
 5294TIP3    H115888   5.821   1.660   2.521 -0.5013  0.0035 -1.0675
 5294TIP3    H215889   5.841   1.512   2.492  0.2060 -0.6415  2.2695
 5295TIP3   OH215890   3.630   1.276   0.703  0.2576  0.1125  0.0560
 5295TIP3    H115891   3.608   1.205   0.642  1.4585 -1.0658  0.9459
 5295TIP3    H215892   3.590   1.249   0.786  2.3282 -0.5362  0.8990
 5296TIP3   OH215893   4.889   3.122   3.727 -0.3785  0.2070 -0.2214
 5296TIP3    H115894   4.849   3.199   3.686  1.5041  1.5255  0.2882
 5296TIP3    H215895   4.942   3.158   3.798 -0.8256 -1.7400  1.1875
 5297TIP3   OH215896   4.207   4.800   1.623 -0.1256  0.2444  0.3126
 5297TIP3    H115897   4.188   4.723   1.569  0.2478 -1.1728  2.1124
 5297TIP3    H215898   4.232   4.867   1.560  3.0546 -2.0993 -1.2309
 5298TIP3   OH215899   3.378   0.133   3.030  0.5702  0.2455  0.7055
 5298TIP3    H115900   3.410   0.211   2.984  2.0702 -0.0195  1.2345
 5298TIP3    H215901   3.287   0.125   3.004  1.1004  0.6514 -1.4478
 5299TIP3   OH215902   4.934   0.414   2.695 -0.3795 -0.3875 -0.2400
 5299TIP3    H115903   4.863   0.362   2.656 -0.5904  1.0133 -1.8568
 5299TIP3    H215904   4.932   0.393   2.788 -0.9222 -2.6877 -0.7176
 5300TIP3   OH215905   2.844   5.605   0.727  0.3709  1.1185 -0.7261
 5300TIP3    H115906   2.875   5.587   0.816 -0.1473  0.8783 -0.5942
 5300TIP3    H215907   2.874   5.531   0.675 -0.2168  0.7437 -0.5410
 5301TIP3   OH215908   2.657   3.446   1.273  0.5514 -0.3420  0.1975
 5301TIP3    H115909   2.681   3.465   1.183  1.6909  0.2865  0.6103
 5301TIP3    H215910   2.595   3.516   1.297 -2.4674 -2.3496 -1.0856
 5302TIP3   OH215911   5.273   2.299   5.122  0.0804 -0.4253  0.3064
 5302TIP3    H115912   5.189   2.335   5.093  0.4650  0.3630  0.1376
 5302TIP3    H215913   5.257   2.268   5.211 -0.2345  0.3241  0.5216
 5303TIP3   OH215914  -0.011   2.129   2.811  0.1227 -0.0858 -0.2842
 5303TIP3    H115915   0.044   2.173   2.875  1.9998 -1.4949 -0.8453
 5303TIP3    H215916   0.050   2.080   2.757 -1.7019 -1.7774 -0.9163
 5304TIP3   OH215917   0.245   5.471   3.989  0.2601  0.1642  0.0384
 5304TIP3    H115918   0.320   5.454   4.046  0.0403  1.8242  0.8874
 5304TIP3    H215919   0.169   5.444   4.040  0.1205  0.8298  0.1877
 5305TIP3   OH215920   3.789   2.148   1.259  0.5128 -0.2904 -0.1580
 5305TIP3    H115921   3.747   2.143   1.345  2.5609  0.3384  0.9445
 5305TIP3    H215922   3.816   2.058   1.241  0.6280 -0.3251  0.1694
 5306TIP3   OH215923   0.226   5.129   4.123  0.1191 -0.3152 -0.1359
 5306TIP3    H115924   0.234   5.073   4.200  0.9357  0.1781  0.1527
 5306TIP3    H215925   0.131   5.139   4.110 -0.0271 -0.9351  0.4064
 5307TIP3   OH215926   2.752   2.437   0.156 -0.3717  0.5659  0.1410
 5307TIP3    H115927   2.721   2.414   0.243 -0.4075  0.5886  0.1344
 5307TIP3    H215928   2.706   2.378   0.097  0.1038  0.1480  0.1885
 5308TIP3   OH215929   2.864   4.963   1.655  0.3443  1.0869  0.1583
 5308TIP3    H115930   2.795   5.002   1.709  0.1300  1.6062 -0.4884
 5308TIP3    H215931   2.900   5.036   1.605  0.8857  0.6964 -0.0360
 5309TIP3   OH215932   3.840   4.097   4.323 -0.0222 -0.8118 -0.2596
 5309TIP3    H115933   3.871   4.158   4.256  0.1508 -0.2388  0.3276
 5309TIP3    H215934   3.919   4.070   4.370 -0.0657 -1.7191 -0.6945
 5310TIP3   OH215935   2.339   3.104   3.464 -0.5651 -0.0915  0.0717
 5310TIP3    H115936   2.364   3.054   3.386 -0.9377 -0.8459  0.4225
 5310TIP3    H215937   2.414   3.159   3.482 -0.8550  0.8502 -1.4137
 5311TIP3   OH215938   3.484   2.525   4.040  0.0014 -0.2465 -0.0602
 5311TIP3    H115939   3.567   2.493   4.076 -0.6673  0.7298  2.5184
 5311TIP3    H215940   3.505   2.612   4.006  0.1918 -0.3564 -0.2306
 5312TIP3   OH215941   4.122   4.694   2.341 -0.2039 -0.7990 -0.8486
 5312TIP3    H115942   4.110   4.769   2.282 -1.1225 -0.7336 -0.6083
 5312TIP3    H215943   4.037   4.685   2.385  0.3180 -1.1348  0.1275
 5313TIP3   OH215944   5.421   5.325   4.189  0.2012  0.4347  0.8809
 5313TIP3    H115945   5.378   5.310   4.105  1.9626 -0.3096  0.0652
 5313TIP3    H215946   5.415   5.419   4.202  2.2279  1.0190 -1.4783
 5314TIP3   OH215947   3.894   0.047   2.861 -0.2024 -0.2767 -0.1713
 5314TIP3    H115948   3.975   0.036   2.911 -1.1005 -0.7402  1.2649
 5314TIP3    H215949   3.898  -0.018   2.792  1.8009  1.4163 -1.7833
 5315TIP3   OH215950   3.852   1.197   4.782  0.3616 -0.1520 -0.0276
 5315TIP3    H115951   3.903   1.127   4.821 -1.1623 -0.8293  0.8636
 5315TIP3    H215952   3.835   1.169   4.692 -0.7040 -1.2303  0.4848
 5316TIP3   OH215953   6.349   2.690   1.794 -0.0340  0.5321 -0.3441
 5316TIP3    H115954   6.307   2.670   1.878  0.3528 -0.8058 -0.4475
 5316TIP3    H215955   6.276   2.699   1.732 -0.2721  0.5053 -0.0695
 5317TIP3   OH215956   3.246   5.699   4.984  0.0899 -0.0423 -0.0461
 5317TIP3    H115957   3.261   5.617   5.033 -1.0087  0.2426  0.8205
 5317TIP3    H215958   3.244   5.672   4.893 -1.3452 -1.1973  0.2862
 5318TIP3   OH215959   3.565   1.398   3.847 -0.0228  0.4830  0.1375
 5318TIP3    H115960   3.552   1.412   3.941 -0.3164 -1.8568  0.4972
 5318TIP3    H215961   3.591   1.484   3.814  1.2715  1.1043  2.5389
 5319TIP3   OH215962   4.968   4.021   4.769 -0.0011  0.3659 -0.2882
 5319TIP3    H115963   4.899   3.958   4.787 -0.6284  0.9237 -0.6873
 5319TIP3    H215964   5.044   3.988   4.817  0.0037 -1.2640 -1.3388
 5320TIP3   OH215965   0.048   3.152   5.138  0.2377 -0.1783 -0.1223
 5320TIP3    H115966  -0.026   3.172   5.080  0.2631 -0.5128 -0.2705
 5320TIP3    H215967   0.076   3.064   5.112  0.1755 -0.3758  0.4840
 5321TIP3   OH215968   5.235   4.406   4.569 -0.6326 -0.2462  0.6479
 5321TIP3    H115969   5.226   4.316   4.538  0.2719 -0.1162 -0.0248
 5321TIP3    H215970   5.271   4.454   4.495 -0.2771  0.4913  1.2802
 5322TIP3   OH215971   4.868   0.713   2.973 -0.4754 -0.1472  0.0637
 5322TIP3    H115972   4.805   0.778   2.942  0.2932  0.4700 -0.2399
 5322TIP3    H215973   4.910   0.680   2.894 -0.1032 -0.2247  0.2913
 5323TIP3   OH215974   0.036   1.956   3.092  0.0415  0.5347  0.1517
 5323TIP3    H115975   0.008   1.974   3.182 -1.8237 -0.1832 -0.2251
 5323TIP3    H215976   0.089   2.032   3.067  0.5676  0.7570  1.8275
 5324TIP3   OH215977   2.813   0.698   0.943 -0.0266  0.0635  0.1399
 5324TIP3    H115978   2.782   0.736   1.025  0.6128  0.5671  0.1576
 5324TIP3    H215979   2.763   0.744   0.875  0.7039  0.9345  0.1641
 5325TIP3   OH215980   3.979   0.978   0.038 -0.0344  0.6688  0.3575
 5325TIP3    H115981   4.049   0.925   0.078  2.4799  0.1607 -4.0138
 5325TIP3    H215982   3.901   0.923   0.043  1.6498 -2.0467 -0.8295
 5326TIP3   OH215983   0.830   3.562   3.113  0.4073 -0.4438  0.9429
 5326TIP3    H115984   0.873   3.633   3.066  0.7944 -0.7383  0.8494
 5326TIP3    H215985   0.887   3.544   3.187  0.2269 -0.5444  1.0574
 5327TIP3   OH215986   3.405   1.115   0.807  0.3188 -0.0698 -0.6091
 5327TIP3    H115987   3.370   1.116   0.718 -1.4519 -0.2525  0.0268
 5327TIP3    H215988   3.343   1.170   0.856  1.0293 -0.3072  0.5790
 5328TIP3   OH215989   3.472   5.726   0.951 -0.1367  0.5223 -0.3529
 5328TIP3    H115990   3.561   5.761   0.950  0.6884 -1.4350 -1.1841
 5328TIP3    H215991   3.443   5.736   1.041  2.2150 -1.6769  0.7827
 5329TIP3   OH215992   3.968   0.471   1.150  0.0790  0.2133  0.5094
 5329TIP3    H115993   4.049   0.498   1.195  0.2994  0.5057 -0.0595
 5329TIP3    H215994   3.998   0.408   1.084 -0.0714  0.8221 -0.1484
 5330TIP3   OH215995   6.357   5.945   0.899  0.2856 -0.5804 -0.1930
 5330TIP3    H115996   6.279   5.939   0.954 -1.0673  2.3179 -1.5666
 5330TIP3    H215997   6.411   6.013   0.941  0.8710 -0.7852 -0.5957
 5331TIP3   OH215998   0.598   1.935   3.118  0.2229 -0.5903 -0.0438
 5331TIP3    H115999   0.649   1.854   3.124  0.3770 -0.4203  1.0923
 5331TIP3    H216000   0.633   1.991   3.187 -0.6128  0.0359 -0.1109
 5332TIP3   OH216001   0.495   3.328   2.071  0.6756 -0.0468  0.2482
 5332TIP3    H116002   0.529   3.388   2.139 -0.6908  0.2712  0.6805
 5332TIP3    H216003   0.573   3.287   2.035  1.5315  0.7362  1.1330
 5333TIP3   OH216004   5.439   2.652   3.354  0.5953 -0.2165 -0.3411
 5333TIP3    H116005   5.445   2.567   3.397 -1.0977  0.6846  1.8510
 5333TIP3    H216006   5.353   2.652   3.312  0.3349  0.6063  0.1711
 5334TIP3   OH216007   5.292   0.477   4.301 -0.7446 -0.0863  0.3028
 5334TIP3    H116008   5.234   0.488   4.377  0.5302 -1.4187  1.5513
 5334TIP3    H216009   5.378   0.507   4.333  0.0814 -1.7986 -0.1603
 5335TIP3   OH216010   3.175   5.261   4.339  0.6311  0.3998 -0.2617
 5335TIP3    H116011   3.147   5.190   4.281 -0.6081 -0.0904  0.8763
 5335TIP3    H216012   3.217   5.217   4.413 -1.8779  0.6024  1.4273
 5336TIP3   OH216013   3.811   0.822   2.640  0.4683 -0.6589 -0.3957
 5336TIP3    H116014   3.881   0.888   2.649  1.0157 -1.3491  0.6273
 5336TIP3    H216015   3.736   0.861   2.685  0.3120 -0.0978 -1.1215
 5337TIP3   OH216016   1.175   4.079   4.373  0.1324 -0.3583  0.4790
 5337TIP3    H116017   1.146   4.169   4.358 -2.9245 -1.3786 -0.4169
 5337TIP3    H216018   1.166   4.066   4.468 -1.4900 -0.2895  0.3671
 5338TIP3   OH216019   4.753   3.386   3.800  0.5653 -0.1315 -0.4230
 5338TIP3    H116020   4.693   3.340   3.742 -0.0941  0.6036 -0.3406
 5338TIP3    H216021   4.696   3.438   3.857  1.3265  1.7046 -1.2867
 5339TIP3   OH216022   3.367   1.366   4.149  0.2277 -0.0827  0.3839
 5339TIP3    H116023   3.360   1.273   4.127 -0.8973  0.0080  0.2925
 5339TIP3    H216024   3.300   1.379   4.216  1.0370  0.4656  1.1066
 5340TIP3   OH216025   5.444   1.455   1.537 -0.0123 -0.2820 -0.2468
 5340TIP3    H116026   5.437   1.495   1.451  1.3058 -0.1452 -0.3128
 5340TIP3    H216027   5.354   1.454   1.571 -0.1804  2.5866 -0.3180
 5341TIP3   OH216028   5.689   5.296   1.008  0.0102  0.0989 -0.0941
 5341TIP3    H116029   5.681   5.338   0.922  1.2521 -0.7246 -0.6419
 5341TIP3    H216030   5.608   5.247   1.018  0.3142 -0.6798 -1.3039
 5342TIP3   OH216031   2.784   3.325   1.724  0.2777  0.2197 -0.2549
 5342TIP3    H116032   2.711   3.374   1.760  1.2640  1.1760  0.5168
 5342TIP3    H216033   2.744   3.256   1.672 -1.1554  1.1252 -0.3919
 5343TIP3   OH216034   1.287   1.008   1.867 -0.2788  0.0191 -0.0539
 5343TIP3    H116035   1.275   0.985   1.959  1.2278 -0.1295  0.1293
 5343TIP3    H216036   1.377   1.041   1.862 -0.9258  1.7677 -1.1310
 5344TIP3   OH216037   3.749   3.241   1.963  0.4607  0.2041 -0.1746
 5344TIP3    H116038   3.836   3.204   1.953  0.5242  0.8194 -2.6665
 5344TIP3    H216039   3.757   3.330   1.928 -0.7396  0.9786  1.3996
 5345TIP3   OH216040   4.083   1.953   2.510 -0.3000  0.3175  0.0498
 5345TIP3    H116041   4.097   2.014   2.437  1.5690  1.4916  1.3128
 5345TIP3    H216042   4.042   2.006   2.578  1.6054  0.3416  1.2632
 5346TIP3   OH216043   4.989   1.086   3.510 -0.1438  0.1872 -0.6755
 5346TIP3    H116044   4.929   1.025   3.554  0.8196 -0.6354 -0.4696
 5346TIP3    H216045   4.989   1.164   3.566 -1.4594  0.4497 -0.9924
 5347TIP3   OH216046   1.681   4.525   2.777  0.1367  0.3115  0.1854
 5347TIP3    H116047   1.676   4.580   2.698  1.7699  0.3821  0.1131
 5347TIP3    H216048   1.684   4.435   2.743 -0.5865  0.2630  0.2342
 5348TIP3   OH216049   0.654   5.027   4.241  0.2731  0.2051 -0.1941
 5348TIP3    H116050   0.631   5.000   4.331  2.4608 -2.7518 -0.3849
 5348TIP3    H216051   0.596   4.975   4.186  0.2222  0.6347 -0.5493
 5349TIP3   OH216052   5.959   4.251   0.213  0.3146 -0.1688 -0.0458
 5349TIP3    H116053   6.013   4.233   0.136  0.1518  2.4159 -0.8487
 5349TIP3    H216054   6.010   4.214   0.286  1.9002 -0.1121 -1.0588
 5350TIP3   OH216055   2.783   3.897   0.599  0.4833 -0.2379  0.0546
 5350TIP3    H116056   2.783   3.847   0.681  2.6604  0.9223  0.8408
 5350TIP3    H216057   2.834   3.844   0.539  1.1570  0.1259  0.2958
 5351TIP3   OH216058   6.211   2.762   4.233 -0.0819 -0.5331  0.0968
 5351TIP3    H116059   6.226   2.702   4.160  2.2854 -0.2697  0.2673
 5351TIP3    H216060   6.241   2.712   4.310  0.8868  0.4426  0.3760
 5352TIP3   OH216061   1.506   2.115   2.469 -0.1723  0.1551 -0.5473
 5352TIP3    H116062   1.478   2.183   2.530  0.2737 -0.6162  0.5518
 5352TIP3    H216063   1.573   2.156   2.415  0.5408  0.4337  0.5191
 5353TIP3   OH216064   4.707   4.033   3.964 -0.4015  0.5358 -0.2703
 5353TIP3    H116065   4.744   3.946   3.953  1.5708  1.4365 -1.1667
 5353TIP3    H216066   4.666   4.053   3.880 -1.3538  0.2830  0.1173
 5354TIP3   OH216067   4.734   3.343   2.284  0.3091  0.0785 -0.6992
 5354TIP3    H116068   4.700   3.409   2.224  1.1871  0.8959 -0.3079
 5354TIP3    H216069   4.806   3.301   2.236  0.5197  0.2117 -0.4975
 5355TIP3   OH216070   6.202   0.037   0.689 -0.1878  0.3955  0.0058
 5355TIP3    H116071   6.287   0.014   0.651 -0.2490  1.6984 -1.0070
 5355TIP3    H216072   6.221   0.051   0.782  0.2408 -1.5005  0.2375
 5356TIP3   OH216073   3.973   2.928   1.136  0.0719 -0.4985  0.0665
 5356TIP3    H116074   3.944   3.019   1.147  0.8573 -0.3841  1.4333
 5356TIP3    H216075   4.064   2.936   1.109  0.0517 -0.8940 -0.1179
 5357TIP3   OH216076   3.428   1.761   1.184  0.1644  0.3073  0.1447
 5357TIP3    H116077   3.375   1.836   1.212  0.4775  0.6775 -0.2500
 5357TIP3    H216078   3.427   1.702   1.260 -0.3803  0.5445  0.3280
 5358TIP3   OH216079   4.865   4.514   2.242 -0.1707 -0.5091  0.2627
 5358TIP3    H116080   4.865   4.427   2.201  0.3678 -0.2652 -0.2677
 5358TIP3    H216081   4.791   4.512   2.302  0.1929 -1.5457  0.6989
 5359TIP3   OH216082   5.038   5.106   0.004 -0.3787 -0.1399 -0.3872
 5359TIP3    H116083   5.056   5.117   0.098 -0.3372  0.5199 -0.4709
 5359TIP3    H216084   5.121   5.072  -0.031 -0.8419 -1.7997  0.0496
 5360TIP3   OH216085   4.810   5.145   4.461 -0.2181 -0.7732  0.2266
 5360TIP3    H116086   4.804   5.219   4.400 -0.1403 -0.0351  1.0957
 5360TIP3    H216087   4.723   5.137   4.498 -0.6335 -2.0844 -0.9336
 5361TIP3   OH216088   4.236   4.843   3.917 -0.0151 -0.4577  0.0830
 5361TIP3    H116089   4.150   4.879   3.938  1.0710  1.7756  0.9814
 5361TIP3    H216090   4.244   4.854   3.822 -0.1910  0.6201  0.1827
 5362TIP3   OH216091   0.631   4.256   1.349 -0.4162 -0.4423  0.3632
 5362TIP3    H116092   0.606   4.245   1.440  2.4067  1.7957  1.5801
 5362TIP3    H216093   0.662   4.170   1.321 -3.3473 -1.7096  0.6886
 5363TIP3   OH216094   4.908   0.539   2.110  0.4662  0.6865 -0.3840
 5363TIP3    H116095   4.991   0.513   2.151  1.2322  0.4716 -1.9893
 5363TIP3    H216096   4.844   0.536   2.181  1.9511  1.5155  1.0668
 5364TIP3   OH216097   5.063   4.052   5.129 -0.3569 -0.3395  0.1538
 5364TIP3    H116098   5.090   3.970   5.170 -0.3808 -0.4465 -0.0429
 5364TIP3    H216099   5.140   4.108   5.134 -0.4212 -0.2851  0.5200
 5365TIP3   OH216100   6.052   5.563   1.964 -0.4866 -0.1103 -0.7122
 5365TIP3    H116101   6.066   5.604   2.049 -0.6807  0.7905 -1.0992
 5365TIP3    H216102   6.073   5.471   1.978 -2.5829 -0.4396  0.8573
 5366TIP3   OH216103   4.198   3.598   0.468  0.8277  0.2193  0.0994
 5366TIP3    H116104   4.160   3.525   0.420 -0.5408  0.1020  1.2936
 5366TIP3    H216105   4.125   3.634   0.518  1.7380  1.6732  0.4369
 5367TIP3   OH216106   2.810   2.285   4.483 -0.6319 -0.1972 -0.1592
 5367TIP3    H116107   2.732   2.231   4.470 -3.4510  3.5336 -0.2332
 5367TIP3    H216108   2.864   2.268   4.406 -1.7355 -2.2147 -0.5623
 5368TIP3   OH216109   3.565   0.203   3.227 -0.2552 -0.6549  0.2457
 5368TIP3    H116110   3.619   0.202   3.148  1.0923 -1.4327  1.1351
 5368TIP3    H216111   3.479   0.173   3.198 -0.2513  0.6406 -1.2206
 5369TIP3   OH216112   2.090   1.922   1.124  0.0060 -0.0617 -0.5729
 5369TIP3    H116113   2.061   1.983   1.191 -0.6075 -1.8164  0.8536
 5369TIP3    H216114   2.163   1.966   1.080 -0.8915  1.9540 -0.1325
 5370TIP3   OH216115   3.793   1.628   4.396  0.3692 -0.1922 -0.2729
 5370TIP3    H116116   3.742   1.693   4.347 -0.3738 -1.1277 -0.7612
 5370TIP3    H216117   3.839   1.578   4.328 -0.2844 -1.1779 -0.0024
 5371TIP3   OH216118   5.285   5.370   5.001 -0.2066 -0.0242 -0.3567
 5371TIP3    H116119   5.285   5.449   5.056  0.3545  1.0684 -1.8443
 5371TIP3    H216120   5.219   5.313   5.040  0.2448  0.6378  1.4970
 5372TIP3   OH216121   4.321   2.622   3.998 -0.0213  0.3886  0.5179
 5372TIP3    H116122   4.297   2.707   3.961 -0.8881 -0.1663 -0.2207
 5372TIP3    H216123   4.376   2.581   3.931 -1.8726 -0.7592 -0.3548
 5373TIP3   OH216124   0.564   2.040   2.431  0.5878  0.1919 -0.2740
 5373TIP3    H116125   0.543   2.016   2.521  0.8023 -1.4313 -0.6230
 5373TIP3    H216126   0.625   1.973   2.402 -1.0289 -0.5275 -2.2717
 5374TIP3   OH216127   1.774   2.358   4.508 -0.5755  0.3544  0.0221
 5374TIP3    H116128   1.774   2.406   4.425 -0.8204  0.7036  0.2255
 5374TIP3    H216129   1.791   2.424   4.574  0.8283 -0.1072  0.1555
 5375TIP3   OH216130   1.363   0.951   2.198 -0.7130 -0.2249 -0.6724
 5375TIP3    H116131   1.445   0.942   2.148 -0.2924 -0.9199  0.1091
 5375TIP3    H216132   1.315   0.870   2.180 -1.4831  0.3955 -1.5293
 5376TIP3   OH216133   4.356   4.871   2.052  0.0625  0.2759  0.2796
 5376TIP3    H116134   4.386   4.785   2.082 -2.0613 -0.5998  0.1133
 5376TIP3    H216135   4.390   4.879   1.963 -2.0476 -1.7507 -0.8079
 5377TIP3   OH216136   0.862   0.289   3.367  0.0673  0.6227  0.4381
 5377TIP3    H116137   0.888   0.295   3.459 -1.5586 -0.7526  1.0339
 5377TIP3    H216138   0.898   0.205   3.338  0.6177  1.0777 -0.2126
 5378TIP3   OH216139   3.833   5.737   4.384 -0.1653  0.4683 -0.1213
 5378TIP3    H116140   3.904   5.764   4.325 -0.5821  0.1115 -0.7944
 5378TIP3    H216141   3.765   5.705   4.326 -0.2612 -0.6793  0.5989
 5379TIP3   OH216142   2.293   1.061   4.073  0.1431  0.5464 -0.0789
 5379TIP3    H116143   2.303   1.114   4.152 -2.2653  0.4641  0.3499
 5379TIP3    H216144   2.373   1.009   4.069  0.0626  0.0739  2.6896
 5380TIP3   OH216145   5.207   5.068   1.880 -0.5120 -0.7989 -0.2265
 5380TIP3    H116146   5.138   5.018   1.923  0.1073 -0.8259  0.7704
 5380TIP3    H216147   5.288   5.024   1.906 -0.0049  0.2660  0.0558
 5381TIP3   OH216148   0.153   5.027   3.141 -0.3808  0.5130  0.1335
 5381TIP3    H116149   0.126   4.985   3.222  1.2372  0.9256  0.9314
 5381TIP3    H216150   0.077   5.076   3.113 -2.0523 -2.1576 -0.3606
 5382TIP3   OH216151   4.477   5.934   0.139  0.3097  0.0225 -0.0123
 5382TIP3    H116152   4.430   5.995   0.082  0.3633  0.2435  0.1763
 5382TIP3    H216153   4.550   5.985   0.173  0.5428 -0.2473 -0.1073
 5383TIP3   OH216154   3.838   3.794   4.953  0.3387 -0.1003  0.7170
 5383TIP3    H116155   3.803   3.706   4.968  0.9365 -0.4524  0.0993
 5383TIP3    H216156   3.932   3.781   4.946  0.4702  0.6566  1.0577
 5384TIP3   OH216157   1.429   5.017   0.728  0.3993  0.9060 -0.3466
 5384TIP3    H116158   1.391   4.941   0.772  0.1193  0.9680 -0.4826
 5384TIP3    H216159   1.523   5.010   0.747  0.1147  1.8951  1.8024
 5385TIP3   OH216160   3.467   4.230  -0.021 -0.2874 -0.9730 -0.4400
 5385TIP3    H116161   3.388   4.206   0.028  0.5569 -0.4732  1.2496
 5385TIP3    H216162   3.532   4.166   0.008  0.2759 -0.5687 -0.8046
 5386TIP3   OH216163   0.185   2.368   3.236  0.1377 -0.4917 -0.9788
 5386TIP3    H116164   0.254   2.409   3.183  0.9300 -3.0410 -2.0630
 5386TIP3    H216165   0.229   2.295   3.279 -1.0844  0.0684  1.3422
 5387TIP3   OH216166   5.765   2.955   1.171 -0.3334  0.3962  1.0776
 5387TIP3    H116167   5.843   2.951   1.116 -0.8883  1.3509  0.1881
 5387TIP3    H216168   5.719   2.872   1.155  0.3014 -0.0088  1.3288
 5388TIP3   OH216169   1.952   5.861   1.755  0.0727  0.4676  0.0091
 5388TIP3    H116170   2.023   5.919   1.726  0.3070  0.2935  0.2451
 5388TIP3    H216171   1.915   5.905   1.832  1.1030 -0.3505  0.9928
 5389TIP3   OH216172   1.019   3.456   3.311  0.3417  0.4486  0.3061
 5389TIP3    H116173   0.957   3.420   3.375  0.8160  0.7941  0.9689
 5389TIP3    H216174   1.045   3.380   3.259 -1.3966  0.4681 -0.6468
 5390TIP3   OH216175   4.565   4.037   3.463  0.5308 -0.2522 -0.1823
 5390TIP3    H116176   4.647   4.009   3.422 -1.0203 -2.5387 -1.9980
 5390TIP3    H216177   4.521   4.090   3.396  0.3094  0.5717  0.5993
 5391TIP3   OH216178   5.039   2.962   2.341 -0.0693 -0.7382 -0.7462
 5391TIP3    H116179   5.068   2.871   2.349  0.1075 -0.5428  1.5163
 5391TIP3    H216180   5.119   3.013   2.354 -0.6216 -0.2487  0.9100
 5392TIP3   OH216181   5.110   4.552   2.076  0.0054 -0.0148  0.0970
 5392TIP3    H116182   5.094   4.629   2.020 -2.2194  0.1713  0.8971
 5392TIP3    H216183   5.026   4.536   2.119  1.8041  0.5285  4.2638
 5393TIP3   OH216184   2.102   0.532   3.602 -0.2052 -0.3013 -0.3950
 5393TIP3    H116185   2.108   0.583   3.683 -0.9222 -0.9393  0.0740
 5393TIP3    H216186   2.193   0.510   3.580 -0.0804 -1.3564  1.0500
 5394TIP3   OH216187   3.792   4.152   2.829  0.3134  0.1868  0.5635
 5394TIP3    H116188   3.833   4.071   2.861  0.0266 -0.6637 -1.1361
 5394TIP3    H216189   3.713   4.160   2.883  0.7076 -0.2672  1.2357
 5395TIP3   OH216190   6.109   3.385   4.756  0.4376 -0.4247 -0.6468
 5395TIP3    H116191   6.098   3.480   4.753  0.1050 -0.4816 -1.6571
 5395TIP3    H216192   6.021   3.351   4.770  0.8366 -0.5398  2.2728
 5396TIP3   OH216193   2.283   5.328   1.928 -0.5919 -0.2609 -0.2173
 5396TIP3    H116194   2.298   5.277   1.849  1.5077  2.7726 -1.9784
 5396TIP3    H216195   2.286   5.419   1.900  0.2562  0.9917  3.3388
 5397TIP3   OH216196   0.793   1.497   3.980  0.1124  0.7433 -0.1187
 5397TIP3    H116197   0.718   1.438   3.978  0.9623 -0.3554 -1.2918
 5397TIP3    H216198   0.761   1.576   4.023 -1.6210  0.1789 -0.3233
 5398TIP3   OH216199   5.557   1.412   0.049 -0.4000  0.8621 -0.7858
 5398TIP3    H116200   5.617   1.347   0.014 -0.2405  0.4029  0.3055
 5398TIP3    H216201   5.478   1.403  -0.004 -0.9222 -1.2509  0.2410
 5399TIP3   OH216202   1.915   1.420   5.051  0.3575  0.2573  0.4838
 5399TIP3    H116203   1.913   1.492   5.114  0.1872 -0.4538  1.3083
 5399TIP3    H216204   1.828   1.380   5.056  0.3227  0.2180 -0.2479
 5400TIP3   OH216205   5.159   2.006   0.688 -0.2793  0.1916  0.8593
 5400TIP3    H116206   5.229   1.945   0.664  0.0865  0.3296  1.5388
 5400TIP3    H216207   5.136   1.981   0.778 -2.0869 -0.7704  0.1800
 5401TIP3   OH216208   3.955   1.879   2.224 -0.2136  0.1427  0.2764
 5401TIP3    H116209   3.952   1.970   2.254  0.0162  0.0678  0.5282
 5401TIP3    H216210   4.047   1.862   2.205  0.0362 -0.5780  1.9326
 5402TIP3   OH216211   2.258   1.519   2.621 -0.4620  0.2315 -0.7833
 5402TIP3    H116212   2.258   1.597   2.564  1.1425  0.9906  0.1767
 5402TIP3    H216213   2.243   1.446   2.561 -0.2928  1.1293 -1.9633
 5403TIP3   OH216214   4.584   0.247   4.551 -0.5940  0.1564 -0.4739
 5403TIP3    H116215   4.595   0.154   4.534 -0.3548  0.1000 -0.0099
 5403TIP3    H216216   4.659   0.289   4.510  0.0673  0.0049  0.5529
 5404TIP3   OH216217   1.425   5.534   2.436 -0.2150 -0.0618 -0.0541
 5404TIP3    H116218   1.450   5.537   2.343  0.7503  2.1539  0.2185
 5404TIP3    H216219   1.504   5.504   2.480 -0.4959 -0.5519  0.1212
 5405TIP3   OH216220   3.747   4.731   4.246 -0.4729  0.1648  0.0353
 5405TIP3    H116221   3.802   4.736   4.168  0.8165  3.4219  0.9959
 5405TIP3    H216222   3.808   4.705   4.316 -1.1662 -0.6130  0.3755
 5406TIP3   OH216223   0.358   4.858   3.052 -0.8358 -0.0360  0.4471
 5406TIP3    H116224   0.300   4.930   3.077 -0.0726  1.0144 -0.6505
 5406TIP3    H216225   0.358   4.860   2.956  0.2354 -0.6293  0.4204
 5407TIP3   OH216226   0.839   0.701   3.792 -0.0715 -0.3441  0.4596
 5407TIP3    H116227   0.901   0.736   3.728 -1.4045  2.4235  0.5229
 5407TIP3    H216228   0.894   0.651   3.853  1.4717 -1.5274 -1.7438
 5408TIP3   OH216229   2.025   1.350   3.734  0.0021 -0.3753 -0.5016
 5408TIP3    H116230   2.093   1.284   3.717 -0.5608 -0.6293 -1.9197
 5408TIP3    H216231   1.953   1.301   3.774  0.6274 -0.1096  0.9832
 5409TIP3   OH216232   0.405   1.972   3.813  0.0390  0.4000  0.4760
 5409TIP3    H116233   0.317   1.934   3.803 -0.3135  1.5241 -1.1964
 5409TIP3    H216234   0.395   2.038   3.881 -0.1544 -0.1821  1.0198
 5410TIP3   OH216235   0.308   3.239   3.777 -0.0571 -0.1393  0.1006
 5410TIP3    H116236   0.238   3.183   3.745  1.1370 -1.2804 -0.6130
 5410TIP3    H216237   0.326   3.208   3.866  1.1169 -1.4461 -0.5633
 5411TIP3   OH216238   4.530   3.822   4.978 -0.1239  0.5601 -0.1496
 5411TIP3    H116239   4.468   3.773   5.031  0.8293 -0.0607  0.4384
 5411TIP3    H216240   4.544   3.768   4.900 -0.1102  0.5583 -0.1462
 5412TIP3   OH216241   2.347   4.033   2.232  0.3913 -0.1924  0.7996
 5412TIP3    H116242   2.310   3.962   2.180  1.8467  0.5346 -1.3823
 5412TIP3    H216243   2.433   4.000   2.260  1.0946  0.6488 -0.2584
 5413TIP3   OH216244   3.437   4.733   0.248  0.3080  0.3618  0.0336
 5413TIP3    H116245   3.360   4.754   0.195  0.9531  1.0450 -0.6719
 5413TIP3    H216246   3.468   4.818   0.280  2.2189  0.4492 -1.7874
 5414TIP3   OH216247   2.352   5.223   2.345  0.4412 -0.0234 -0.1933
 5414TIP3    H116248   2.414   5.168   2.298  0.0740 -0.0754 -0.6291
 5414TIP3    H216249   2.384   5.312   2.334  0.4689 -0.0557 -0.3631
 5415TIP3   OH216250   2.905   4.837   2.938 -0.5060  0.5621  0.3731
 5415TIP3    H116251   2.819   4.796   2.944 -1.5140  2.6457  1.6877
 5415TIP3    H216252   2.937   4.837   3.029  1.2592 -0.8316 -0.1992
 5416TIP3   OH216253   4.163   1.938   5.171 -0.0043  0.1852 -0.1675
 5416TIP3    H116254   4.247   1.892   5.170  0.3898  0.8939 -1.4891
 5416TIP3    H216255   4.102   1.875   5.210  1.1843 -0.2155  1.1302
 5417TIP3   OH216256   5.214   3.933   3.037 -0.5388 -0.3180  0.0902
 5417TIP3    H116257   5.234   3.995   3.108 -0.4690 -0.4251  0.1653
 5417TIP3    H216258   5.162   3.983   2.975  1.4691  0.5169 -1.0073
 5418TIP3   OH216259   3.177   3.533   2.098  0.1892 -0.2218 -0.4032
 5418TIP3    H116260   3.152   3.561   2.186 -0.3254 -1.6108 -0.0802
 5418TIP3    H216261   3.099   3.489   2.063 -0.7558  3.0461 -2.8448
 5419TIP3   OH216262   5.711   2.442   2.895 -0.0783  0.4168  0.1621
 5419TIP3    H116263   5.790   2.493   2.881  0.8020 -0.0384  2.9914
 5419TIP3    H216264   5.736   2.375   2.959 -2.2645 -0.9599 -0.3166
 5420TIP3   OH216265   3.251   1.816   4.768  0.2162 -0.1154  0.2262
 5420TIP3    H116266   3.213   1.862   4.693 -0.4550 -2.7127 -1.1517
 5420TIP3    H216267   3.177   1.802   4.827 -0.2123 -1.6776 -0.6149
 5421TIP3   OH216268   0.185   0.185   2.612  0.2027  0.2301  0.0238
 5421TIP3    H116269   0.197   0.226   2.527  3.0128 -1.2515 -0.4305
 5421TIP3    H216270   0.252   0.226   2.668 -0.9173  0.4522  1.2574
 5422TIP3   OH216271   4.269   5.028   4.930  0.6650 -0.0672  0.0883
 5422TIP3    H116272   4.196   5.022   4.992 -0.0931 -2.1192 -0.9129
 5422TIP3    H216273   4.246   5.103   4.874  0.1650  0.3153  0.7792
 5423TIP3   OH216274   5.612   5.707   2.259 -0.8555 -0.3167  0.1987
 5423TIP3    H116275   5.560   5.785   2.238 -0.4103 -0.1203 -0.1990
 5423TIP3    H216276   5.567   5.667   2.333 -0.3871  1.0110  1.2316
 5424TIP3   OH216277   6.192   1.110   5.209 -0.9023 -0.0427 -0.5534
 5424TIP3    H116278   6.120   1.052   5.183  0.1995 -1.5879 -0.2950
 5424TIP3    H216279   6.267   1.079   5.158  0.0519  0.2266  0.6436
 5425TIP3   OH216280   0.130   0.962   4.027  0.6292  0.2334  0.5122
 5425TIP3    H116281   0.191   0.958   4.101  0.7218 -1.3841  0.3760
 5425TIP3    H216282   0.086   0.877   4.027 -0.5823  0.8294 -0.2871
 5426TIP3   OH216283   3.675   3.294   4.074  0.4289  0.0995 -0.4843
 5426TIP3    H116284   3.689   3.204   4.103  1.1917  0.1302 -0.7406
 5426TIP3    H216285   3.757   3.319   4.032  0.6076  1.2668  0.4968
 5427TIP3   OH216286   1.958   1.355   0.869 -0.0424 -0.3134  0.0778
 5427TIP3    H116287   2.040   1.352   0.821  0.3232 -2.5419  0.7262
 5427TIP3    H216288   1.971   1.422   0.936  0.4798  0.7651 -1.0623
 5428TIP3   OH216289   2.572   0.103   0.117 -0.5981 -0.0889 -0.3181
 5428TIP3    H116290   2.527   0.158   0.181 -0.9625 -1.6429  0.8033
 5428TIP3    H216291   2.523   0.116   0.036 -1.1927  0.5732  0.1320
 5429TIP3   OH216292   3.624   2.426   2.305 -0.1101 -0.1705 -0.3868
 5429TIP3    H116293   3.670   2.376   2.373 -1.1460  1.1243  1.3408
 5429TIP3    H216294   3.545   2.458   2.348 -1.1579  0.1571 -2.4250
 5430TIP3   OH216295   5.021   4.963   3.169  0.0517  0.2271 -0.1336
 5430TIP3    H116296   5.075   5.026   3.121  0.0144  0.6455  0.3637
 5430TIP3    H216297   5.084   4.900   3.204  0.2968  1.0335  0.9251
 5431TIP3   OH216298   5.931   5.951   1.792  0.3354 -0.5771 -0.4739
 5431TIP3    H116299   5.882   6.032   1.803  0.9976 -0.3158  0.5543
 5431TIP3    H216300   5.864   5.887   1.765 -0.2071  0.2585 -1.1591
 5432TIP3   OH216301   3.640   4.165   2.212  0.4759 -0.2899 -0.5029
 5432TIP3    H116302   3.562   4.121   2.178 -1.1632 -0.4465  3.0385
 5432TIP3    H216303   3.621   4.259   2.201 -1.2524 -0.2289  1.9890
 5433TIP3   OH216304   5.723   1.125   0.393  0.3862 -0.8079  0.1112
 5433TIP3    H116305   5.738   1.219   0.402 -3.4209  0.0539 -1.0579
 5433TIP3    H216306   5.685   1.098   0.476 -1.3494 -0.5987 -0.5830
 5434TIP3   OH216307   1.147   2.872   1.081  0.3226  0.1355  0.1521
 5434TIP3    H116308   1.167   2.790   1.126  0.6387 -0.0449 -0.3103
 5434TIP3    H216309   1.232   2.904   1.050  0.1338  0.3593 -0.1373
 5435TIP3   OH216310   2.741   0.095   2.280 -0.2444 -0.0075  0.1564
 5435TIP3    H116311   2.825   0.114   2.321 -0.9888 -0.9700  2.2872
 5435TIP3    H216312   2.743   0.142   2.196  2.1244  0.5022  0.4440
 5436TIP3   OH216313   5.951   0.557   5.153 -0.1320 -0.6492 -0.0883
 5436TIP3    H116314   5.874   0.557   5.095 -1.6134 -3.3431  1.6453
 5436TIP3    H216315   5.923   0.609   5.229  0.6107  0.1906 -0.3774
 5437TIP3   OH216316   4.315   4.676   5.129 -0.2845  0.0793 -0.3750
 5437TIP3    H116317   4.227   4.715   5.129 -0.3830 -0.0883 -2.1302
 5437TIP3    H216318   4.330   4.651   5.038  1.7868  0.5168 -0.1831
 5438TIP3   OH216319   2.377   4.765   0.741 -0.0850 -0.3939 -0.0535
 5438TIP3    H116320   2.318   4.690   0.737 -1.3938  0.6598 -2.2176
 5438TIP3    H216321   2.441   4.749   0.672 -0.2044  0.3006 -0.3401
 5439TIP3   OH216322   1.251   0.660   2.082 -0.3720  0.7334 -0.1430
 5439TIP3    H116323   1.338   0.619   2.087 -0.2840  1.0624  2.6089
 5439TIP3    H216324   1.190   0.587   2.095 -0.5427  0.5678 -1.6664
 5440TIP3   OH216325   2.910   4.214   3.054 -0.2849  0.0197  0.2421
 5440TIP3    H116326   2.860   4.166   2.988 -0.3787  1.9342 -1.1708
 5440TIP3    H216327   2.856   4.290   3.074  0.0044 -0.2428  2.1623
 5441TIP3   OH216328   6.276   2.124   0.789  0.7388 -0.0591 -0.3399
 5441TIP3    H116329   6.283   2.029   0.777  1.4709  0.2142 -2.3776
 5441TIP3    H216330   6.300   2.138   0.881 -0.1778 -1.8934  0.2338
 5442TIP3   OH216331   2.784   0.471   3.631  0.0045  0.9170 -0.1698
 5442TIP3    H116332   2.862   0.428   3.666 -0.8428  0.3712  1.1273
 5442TIP3    H216333   2.713   0.442   3.688 -1.5622 -0.3777 -2.6263
 5443TIP3   OH216334   5.558   0.127   1.558 -0.3850 -0.3191 -0.6217
 5443TIP3    H116335   5.490   0.129   1.626  0.7455 -0.0631  0.5405
 5443TIP3    H216336   5.514   0.089   1.482 -1.7093 -0.5793  0.2282
 5444TIP3   OH216337   1.476   2.974   5.171  0.4660  0.4082 -0.8694
 5444TIP3    H116338   1.452   3.045   5.112 -1.1291 -0.0810 -0.8517
 5444TIP3    H216339   1.458   3.008   5.258 -0.0006  0.1028 -0.8429
 5445TIP3   OH216340   2.514   2.070   1.603  0.2458  0.3202  0.8549
 5445TIP3    H116341   2.502   1.992   1.549  1.0967  0.2810  0.6981
 5445TIP3    H216342   2.556   2.133   1.545 -1.5885  1.3670  0.6113
 5446TIP3   OH216343   4.785   3.966   1.080 -0.1195  0.2676  0.4849
 5446TIP3    H116344   4.816   3.949   1.169 -1.7810 -1.1254  0.8580
 5446TIP3    H216345   4.707   3.911   1.071 -0.9582  1.6511 -1.2643
 5447TIP3   OH216346   1.954   1.142   2.386 -0.2526  0.2780 -0.0158
 5447TIP3    H116347   1.878   1.084   2.392  0.7190 -0.8701  2.4024
 5447TIP3    H216348   1.991   1.124   2.300 -2.0346  0.0386 -0.7885
 5448TIP3   OH216349   2.969   2.179   4.196  0.4208  0.0178  0.1515
 5448TIP3    H116350   3.000   2.256   4.149  0.0854  0.2865  0.3599
 5448TIP3    H216351   2.904   2.140   4.138  0.0601  0.3081  0.3543
 5449TIP3   OH216352   2.828   5.546   5.222 -0.5491 -0.0511  0.3211
 5449TIP3    H116353   2.813   5.608   5.151  0.7984 -0.6964 -0.5594
 5449TIP3    H216354   2.839   5.462   5.179 -0.3152 -0.5658  1.3457
 5450TIP3   OH216355   5.146   4.021   4.099 -0.3967  0.0653  0.3917
 5450TIP3    H116356   5.062   3.988   4.131  0.2314 -2.1946 -0.1144
 5450TIP3    H216357   5.212   3.973   4.149  0.6068 -2.1317 -2.6850
 5451TIP3   OH216358   0.054   5.127   1.210  0.1696 -0.0209 -0.2619
 5451TIP3    H116359   0.069   5.134   1.304 -0.7111 -0.1011 -0.1042
 5451TIP3    H216360   0.089   5.041   1.186  2.9967  1.1169 -0.5643
 5452TIP3   OH216361   2.239   5.623   1.860 -0.0377  0.4488 -0.3327
 5452TIP3    H116362   2.171   5.615   1.793  0.5517  0.8278 -0.9951
 5452TIP3    H216363   2.301   5.686   1.824  1.4893 -1.0500 -0.4659
 5453TIP3   OH216364   3.946   5.994   2.160  0.4811 -0.1347  0.0270
 5453TIP3    H116365   3.869   5.979   2.107  0.3253 -0.1194  0.2453
 5453TIP3    H216366   4.012   5.933   2.127  1.0649  1.2875 -1.5514
 5454TIP3   OH216367   2.414   2.192   0.434 -0.3416 -0.7294 -0.2001
 5454TIP3    H116368   2.428   2.140   0.355  1.6558  1.9840 -1.8329
 5454TIP3    H216369   2.436   2.281   0.407 -0.6900  0.5069  3.1737
 5455TIP3   OH216370   4.911   2.092   0.945  0.0758 -0.2311 -0.4311
 5455TIP3    H116371   4.824   2.115   0.977  1.3605  2.0697  1.7456
 5455TIP3    H216372   4.947   2.175   0.913  2.3550 -0.5255  1.1276
 5456TIP3   OH216373   3.596   1.620   3.450 -0.4586  0.0398 -0.7697
 5456TIP3    H116374   3.601   1.542   3.395  1.0236  0.3980 -1.1828
 5456TIP3    H216375   3.685   1.656   3.450 -0.3828  0.0467  1.8825
 5457TIP3   OH216376   1.257   5.209   1.229 -0.4213 -0.8394 -0.4772
 5457TIP3    H116377   1.261   5.228   1.323 -0.4846 -0.9211 -0.4585
 5457TIP3    H216378   1.274   5.115   1.223  2.0007 -0.4638 -0.7119
 5458TIP3   OH216379   4.173   1.450   1.096  0.0093 -0.0008 -0.5772
 5458TIP3    H116380   4.249   1.393   1.104  0.3364  0.1853 -2.0227
 5458TIP3    H216381   4.204   1.536   1.126 -0.6446 -0.6275  2.1526
 5459TIP3   OH216382   2.744   3.933   1.544 -0.2684  0.2215 -0.1615
 5459TIP3    H116383   2.715   3.846   1.573  1.7584  0.4860  3.2203
 5459TIP3    H216384   2.666   3.988   1.554 -0.4271 -0.3407  2.3672
 5460TIP3   OH216385   2.882   2.151   3.247 -0.2931 -0.2628 -0.0976
 5460TIP3    H116386   2.898   2.130   3.340 -2.3463 -0.1549  0.3146
 5460TIP3    H216387   2.968   2.176   3.214  0.3806  0.3519  1.9482
 5461TIP3   OH216388   0.897   1.287   1.854  0.2576  0.6732 -1.0961
 5461TIP3    H116389   0.934   1.310   1.768  2.8451  2.3125  0.2968
 5461TIP3    H216390   0.966   1.236   1.897 -1.1376 -0.4493 -0.0863
 5462TIP3   OH216391   4.757   2.643   1.122  0.3137  0.2140 -0.1532
 5462TIP3    H116392   4.839   2.655   1.074 -0.1738 -0.4850 -1.2202
 5462TIP3    H216393   4.756   2.550   1.146 -1.5452 -0.6483 -2.9794
 5463TIP3   OH216394   6.270   2.344   3.230 -0.3259  0.6720  0.2714
 5463TIP3    H116395   6.366   2.342   3.232 -0.3180 -0.1728 -0.3149
 5463TIP3    H216396   6.243   2.273   3.288 -0.5312 -0.9819 -1.7413
 5464TIP3   OH216397   1.121   1.937   2.955  0.4852  0.6231  0.1163
 5464TIP3    H116398   1.103   1.936   3.049 -0.0479  0.6904  0.0186
 5464TIP3    H216399   1.151   1.848   2.935 -2.1964 -0.3094 -0.1529
 5465TIP3   OH216400   6.072   0.370   0.694  0.4466  0.3065  0.4295
 5465TIP3    H116401   6.081   0.341   0.603 -0.9613 -0.0558  0.3923
 5465TIP3    H216402   6.162   0.387   0.722  0.9598 -0.2355 -0.8119
 5466TIP3   OH216403   3.970   0.874   4.308  0.2497  0.1064  0.2024
 5466TIP3    H116404   3.947   0.782   4.318 -0.8949  0.3928  0.3641
 5466TIP3    H216405   3.995   0.902   4.396  0.6929 -0.0736  0.1341
 5467TIP3   OH216406   5.400   5.046   2.981  0.5585  0.0667 -0.3390
 5467TIP3    H116407   5.473   5.092   2.940  1.9903 -2.6415 -1.0612
 5467TIP3    H216408   5.361   4.995   2.910  0.5332 -1.6092  0.8187
 5468TIP3   OH216409   6.157   1.303   4.170 -0.1949 -0.3788  0.2984
 5468TIP3    H116410   6.165   1.216   4.131  0.3246 -0.0868 -0.2745
 5468TIP3    H216411   6.091   1.347   4.117 -0.2878 -0.3445  0.4426
 5469TIP3   OH216412   4.902   1.846   1.133 -0.1153  0.5290 -0.2559
 5469TIP3    H116413   4.956   1.902   1.077 -1.2535  2.2548  0.2799
 5469TIP3    H216414   4.942   1.852   1.220  0.9758 -1.2288 -0.5807
 5470TIP3   OH216415   1.255   4.277   2.751 -0.4573  0.0598 -0.2138
 5470TIP3    H116416   1.163   4.254   2.766 -0.8975  0.1985 -2.3577
 5470TIP3    H216417   1.264   4.278   2.655  2.0987 -1.1493 -0.0525
 5471TIP3   OH216418   2.689   4.993   1.911 -0.2505 -1.2554  0.4442
 5471TIP3    H116419   2.608   5.034   1.940 -0.6963 -1.3579 -0.6127
 5471TIP3    H216420   2.757   5.033   1.965 -0.6546  0.9493 -0.5726
 5472TIP3   OH216421   0.911   5.521   0.640  0.1650 -0.1416 -0.5978
 5472TIP3    H116422   0.833   5.573   0.657  0.9702  0.5387  1.2169
 5472TIP3    H216423   0.884   5.431   0.657 -0.1861  0.1131  0.2310
 5473TIP3   OH216424   5.560   5.405   2.309 -0.2500 -0.2001  0.6972
 5473TIP3    H116425   5.637   5.448   2.270 -0.7513 -1.0089 -1.2919
 5473TIP3    H216426   5.589   5.316   2.327 -0.7846 -0.5829 -0.3060
 5474TIP3   OH216427   1.283   2.693   2.119  0.3458 -1.0548  0.5773
 5474TIP3    H116428   1.226   2.629   2.076 -0.2598 -0.5576  0.6283
 5474TIP3    H216429   1.282   2.769   2.061 -1.4253  0.0787  1.9896
 5475TIP3   OH216430   2.602   0.298   2.036 -0.1560  0.3156 -0.0168
 5475TIP3    H116431   2.612   0.378   2.087  2.5614 -0.7501  1.3262
 5475TIP3    H216432   2.525   0.255   2.074 -1.5920  2.1925 -0.7076
 5476TIP3   OH216433   1.288   3.110   1.757 -0.5093  0.3383 -0.1634
 5476TIP3    H116434   1.314   3.178   1.819 -0.9208 -0.5361  0.9784
 5476TIP3    H216435   1.195   3.095   1.774 -0.6741  0.2084 -1.1099
 5477TIP3   OH216436   2.702   0.783   3.346  0.5762 -0.0460 -0.0133
 5477TIP3    H116437   2.766   0.735   3.399 -0.8466 -0.8977  1.0187
 5477TIP3    H216438   2.666   0.716   3.287  1.1063  0.5786 -1.0703
 5478TIP3   OH216439   1.060   1.901   1.820  0.1819  0.5802  0.9488
 5478TIP3    H116440   1.105   1.862   1.895 -0.2575  1.6799  1.8071
 5478TIP3    H216441   0.967   1.897   1.842 -0.1887 -1.3453 -0.6556
 5479TIP3   OH216442   6.189   5.826   3.123 -0.2285  0.0721  0.3270
 5479TIP3    H116443   6.168   5.842   3.215  0.4052 -3.0980  1.1364
 5479TIP3    H216444   6.283   5.844   3.116  0.7144 -3.5343  1.4817
 5480TIP3   OH216445   3.756   2.723   3.300 -0.2664 -0.3017 -0.2822
 5480TIP3    H116446   3.775   2.777   3.222  0.8677 -1.6587 -0.9907
 5480TIP3    H216447   3.812   2.760   3.368  0.3429 -0.4096 -0.7058
 5481TIP3   OH216448   2.332   2.119   1.853 -0.1184  0.2120 -0.1494
 5481TIP3    H116449   2.338   2.213   1.869  1.4478  0.0514  0.4448
 5481TIP3    H216450   2.387   2.105   1.776  1.0691 -0.4070  0.7719
 5482TIP3   OH216451   2.665   4.299   4.110 -0.5905 -0.3298 -0.3422
 5482TIP3    H116452   2.663   4.230   4.176  0.3600  0.4532  0.5266
 5482TIP3    H216453   2.720   4.265   4.040  0.0980 -0.3495  0.2060
 5483TIP3   OH216454   2.092   2.642   4.801  0.7035  0.4812  0.0046
 5483TIP3    H116455   2.049   2.635   4.886 -3.1014 -0.1128 -1.7507
 5483TIP3    H216456   2.105   2.551   4.774  4.1458  0.5920  0.7779
 5484TIP3   OH216457   6.057   1.980   3.651  0.4073  0.1305  0.0448
 5484TIP3    H116458   6.128   1.953   3.710 -0.5200  0.7212  1.4659
 5484TIP3    H216459   6.047   1.907   3.590  1.0492 -0.7078  0.9290
 5485TIP3   OH216460   6.049   1.476   4.960 -0.0393  0.1859 -0.5251
 5485TIP3    H116461   5.969   1.516   4.996 -0.3170 -0.5951 -0.2580
 5485TIP3    H216462   6.110   1.475   5.034  0.7538  2.0910 -1.0796
 5486TIP3   OH216463   1.693   4.704   4.415 -0.2844  0.0428  0.1200
 5486TIP3    H116464   1.633   4.774   4.389 -1.2764  0.1484  2.4657
 5486TIP3    H216465   1.777   4.748   4.429 -0.5468  0.5197  0.2130
 5487TIP3   OH216466   3.152   2.272   1.451  0.1118  0.7586  0.6001
 5487TIP3    H116467   3.166   2.311   1.538  2.2756  1.3936  0.0387
 5487TIP3    H216468   3.062   2.293   1.429 -0.0180  1.8942  2.0580
 5488TIP3   OH216469   1.415   5.303   2.730  0.7802 -0.5900 -0.2523
 5488TIP3    H116470   1.336   5.338   2.690  1.0169  0.4665  0.1755
 5488TIP3    H216471   1.456   5.378   2.772  0.6609 -1.6133  1.7958
 5489TIP3   OH216472   1.327   5.515   3.408 -0.1714 -0.5036  0.3190
 5489TIP3    H116473   1.302   5.571   3.334 -0.3834 -0.2164  0.6100
 5489TIP3    H216474   1.267   5.539   3.478  0.4300 -0.3401  0.7807
 5490TIP3   OH216475   5.128   5.227   1.184  0.3453 -0.0392  0.3557
 5490TIP3    H116476   5.049   5.193   1.226 -1.3098  0.3841 -2.2064
 5490TIP3    H216477   5.169   5.283   1.250 -2.6805  1.4633  1.1030
 5491TIP3   OH216478   2.142   4.430   0.280  0.0425 -0.0854  0.0698
 5491TIP3    H116479   2.096   4.485   0.343 -0.3890 -0.7316  0.3425
 5491TIP3    H216480   2.089   4.350   0.276 -0.1104  0.0492 -1.3321
 5492TIP3   OH216481   3.041   4.774   1.030 -0.4002  0.0442 -0.4557
 5492TIP3    H116482   3.039   4.722   0.949 -2.0698  0.9204 -1.0161
 5492TIP3    H216483   3.012   4.714   1.098 -0.7490 -0.2138 -0.8261
 5493TIP3   OH216484   5.878   5.314   3.244  0.0150 -0.0942 -0.0436
 5493TIP3    H116485   5.895   5.220   3.251  1.4383  0.2218  1.1741
 5493TIP3    H216486   5.864   5.343   3.334  1.4314  1.1548 -0.1889
 5494TIP3   OH216487   6.002   5.067   3.693  0.0728  0.5101  0.0982
 5494TIP3    H116488   5.962   5.096   3.775 -0.5160 -0.8619  0.3220
 5494TIP3    H216489   5.929   5.061   3.631  0.1914 -0.2815  0.0174
 5495TIP3   OH216490   4.945   0.006   1.280  0.1399  0.2548  0.1036
 5495TIP3    H116491   5.011   0.062   1.322 -1.2430  1.8135  0.3005
 5495TIP3    H216492   4.892  -0.027   1.352  0.3639 -0.5627 -0.0967
 5496TIP3   OH216493   4.044   0.006   5.026  0.6660 -0.2621 -0.2464
 5496TIP3    H116494   4.019   0.097   5.045  0.6227 -0.2538 -0.3421
 5496TIP3    H216495   3.992  -0.046   5.087 -0.5855 -0.3351 -1.3234
 5497TIP3   OH216496   2.937   2.733   2.557 -0.0701  0.0871 -0.4720
 5497TIP3    H116497   3.004   2.771   2.499 -0.1954 -1.4720 -1.7087
 5497TIP3    H216498   2.900   2.661   2.506 -0.4283 -1.1450  1.4427
 5498TIP3   OH216499   4.647   0.508   2.252 -0.3020  0.0759  0.4068
 5498TIP3    H116500   4.605   0.543   2.174  1.6711  0.0133 -0.7493
 5498TIP3    H216501   4.698   0.434   2.221  0.9811  0.3832  1.6537
 5499TIP3   OH216502   5.851   3.407   3.158  0.4035 -0.7911  0.0756
 5499TIP3    H116503   5.831   3.434   3.247 -0.3267 -2.2461  0.3681
 5499TIP3    H216504   5.867   3.490   3.112 -0.0273  0.0304  1.3385
 5500TIP3   OH216505   2.184   0.622   4.563  0.0779  0.4593 -0.4873
 5500TIP3    H116506   2.153   0.543   4.518  1.8051 -0.3209 -0.4219
 5500TIP3    H216507   2.187   0.597   4.655 -0.1059  0.8601 -0.3751
 5501TIP3   OH216508   3.905   2.581   2.996  0.6275  0.6173  0.0828
 5501TIP3    H116509   3.982   2.564   3.050  0.8157 -1.2844 -0.7416
 5501TIP3    H216510   3.939   2.618   2.915  0.5666  0.8585  0.1652
 5502TIP3   OH216511   4.498   4.412   0.583  0.4401  0.8619 -0.4163
 5502TIP3    H116512   4.549   4.428   0.663  0.3724  0.0098 -0.1974
 5502TIP3    H216513   4.561   4.375   0.522  0.7363  2.4393 -1.1313
 5503TIP3   OH216514   3.879   0.912   0.837  0.8440  0.3413  0.4449
 5503TIP3    H116515   3.860   1.006   0.844  0.1766  0.2485 -0.0840
 5503TIP3    H216516   3.797   0.873   0.808  1.0223 -0.4570  0.9786
 5504TIP3   OH216517   1.095   0.363   3.683  0.1928 -0.2214  0.0613
 5504TIP3    H116518   1.011   0.317   3.686 -1.0706  1.9111 -1.1328
 5504TIP3    H216519   1.140   0.326   3.607 -2.2351  2.6370 -3.0293
 5505TIP3   OH216520   3.552   5.025   1.622 -0.0120 -0.1432  0.5472
 5505TIP3    H116521   3.646   5.022   1.642  0.8120  3.3811 -1.8982
 5505TIP3    H216522   3.517   5.091   1.682 -0.1363  1.1212 -0.8701
 5506TIP3   OH216523   0.597   5.146   0.666  0.3575 -0.7447 -0.0864
 5506TIP3    H116524   0.527   5.196   0.708  1.8840  0.2517  1.3853
 5506TIP3    H216525   0.551   5.078   0.617 -1.6262 -0.7889  1.6614
 5507TIP3   OH216526   4.568   4.586   3.754  0.2277  0.3936 -0.1675
 5507TIP3    H116527   4.653   4.548   3.730 -0.6171 -1.0282 -1.0299
 5507TIP3    H216528   4.504   4.519   3.730 -1.1252  1.2805  0.8274
 5508TIP3   OH216529   1.077   5.588   2.101  0.5793 -0.3406 -0.0366
 5508TIP3    H116530   1.025   5.509   2.113  0.2596  0.0594  1.4628
 5508TIP3    H216531   1.116   5.579   2.014 -2.5974 -0.3053 -1.5861
 5509TIP3   OH216532   3.747   1.694   4.875 -0.1390 -0.1742  0.2619
 5509TIP3    H116533   3.686   1.766   4.859  0.8440  0.4510 -0.8779
 5509TIP3    H216534   3.808   1.697   4.801  0.6593 -1.4225  0.8215
 5510TIP3   OH216535   1.990   3.852   2.821 -0.0404  0.5785 -0.0210
 5510TIP3    H116536   2.085   3.855   2.808 -0.1299 -0.6346 -1.1720
 5510TIP3    H216537   1.954   3.882   2.738 -0.6852  0.8112  0.3355
 5511TIP3   OH216538   0.960   4.329   2.175  0.1691  0.4097  1.1679
 5511TIP3    H116539   1.020   4.263   2.210  0.8255  1.4478  2.0435
 5511TIP3    H216540   1.016   4.403   2.153 -0.7337  1.2081  1.5064
 5512TIP3   OH216541   0.555   1.502   4.236 -0.4523 -0.2290  0.6147
 5512TIP3    H116542   0.606   1.570   4.193 -1.6427  0.3713  0.0995
 5512TIP3    H216543   0.609   1.424   4.230  0.3932  0.3801  0.0777
 5513TIP3   OH216544   0.617   5.066   5.179 -0.4346 -0.3071  0.4202
 5513TIP3    H116545   0.692   5.059   5.238  0.7990  1.8047 -0.7616
 5513TIP3    H216546   0.629   4.993   5.118  0.3627 -0.3331  0.5855
 5514TIP3   OH216547   5.511   2.219   5.015 -0.0326  0.2209  0.7058
 5514TIP3    H116548   5.506   2.247   4.924 -0.1302  0.6601  0.8464
 5514TIP3    H216549   5.431   2.252   5.055 -0.3926 -0.6767  0.7622
 5515TIP3   OH216550   2.757   4.540   1.119 -0.0213 -0.1203 -0.3499
 5515TIP3    H116551   2.700   4.614   1.143  0.0717 -0.5549  1.3882
 5515TIP3    H216552   2.845   4.576   1.124 -0.0617  0.2250 -1.7929
 5516TIP3   OH216553   4.906   2.868   1.172  0.0441  0.3940  0.4113
 5516TIP3    H116554   4.934   2.878   1.263  1.8222 -0.8632  0.0619
 5516TIP3    H216555   4.960   2.797   1.138 -0.5787  0.8243 -1.6352
 5517TIP3   OH216556   2.092   4.139   0.797  0.2232 -0.3574  0.4996
 5517TIP3    H116557   2.174   4.131   0.847  1.2199 -2.8250 -1.3003
 5517TIP3    H216558   2.119   4.132   0.705 -1.6863  2.5718 -0.4210
 5518TIP3   OH216559   2.328   0.796   5.056 -0.6623 -0.0405  0.0836
 5518TIP3    H116560   2.394   0.860   5.083  1.3306 -0.7968 -2.5723
 5518TIP3    H216561   2.245   0.836   5.080  0.5576  3.0112 -0.3415
 5519TIP3   OH216562   4.320   4.034   4.763  0.3067  0.1710  0.0451
 5519TIP3    H116563   4.313   3.939   4.763  1.3850  0.0814 -0.0484
 5519TIP3    H216564   4.256   4.063   4.699  0.5336 -0.5419 -0.5145
 5520TIP3   OH216565   4.988   0.949   4.691 -0.3346 -0.1106  0.0324
 5520TIP3    H116566   5.040   0.921   4.766 -1.5196  1.1702  1.3930
 5520TIP3    H216567   5.038   1.020   4.652 -0.3647  0.1383  0.4468
 5521TIP3   OH216568   2.110   4.357   3.534  0.0157  0.3152 -0.3735
 5521TIP3    H116569   2.032   4.402   3.567  1.8284  2.1756  1.7327
 5521TIP3    H216570   2.151   4.421   3.475 -0.9086 -1.3672 -3.0382
 5522TIP3   OH216571   4.296   4.120   4.461  0.3427 -0.4947  0.0668
 5522TIP3    H116572   4.391   4.110   4.463  0.3408 -0.4864  0.3093
 5522TIP3    H216573   4.282   4.214   4.454  0.3574 -0.3423  1.5746
 5523TIP3   OH216574   1.794   2.071   3.906 -0.1686  0.3650 -0.5494
 5523TIP3    H116575   1.755   2.064   3.993 -1.5312  0.4942 -1.1211
 5523TIP3    H216576   1.828   2.161   3.902  2.9941 -0.6074  1.0258
 5524TIP3   OH216577   5.614   0.893   2.563 -0.0174 -0.4934 -0.2053
 5524TIP3    H116578   5.671   0.951   2.513  0.1265  1.1480  1.7461
 5524TIP3    H216579   5.660   0.809   2.565  1.5147  0.3159 -0.1049
 5525TIP3   OH216580   2.210   4.747   2.227  0.3377 -0.0198 -0.0859
 5525TIP3    H116581   2.220   4.652   2.218 -1.1396 -0.1669 -0.3696
 5525TIP3    H216582   2.278   4.772   2.290  0.1343 -1.4128  0.7346
 5526TIP3   OH216583   4.822   1.258   2.817 -0.0522  0.0344 -0.4501
 5526TIP3    H116584   4.780   1.333   2.773  2.1623  0.8365 -1.3761
 5526TIP3    H216585   4.832   1.193   2.748 -1.0217 -0.7179  0.1064
 5527TIP3   OH216586   4.603   5.373   0.417  0.4684  0.1479 -0.7022
 5527TIP3    H116587   4.631   5.316   0.489  0.6158 -2.1463 -2.4515
 5527TIP3    H216588   4.672   5.438   0.409  1.2738 -0.5789  0.1661
 5528TIP3   OH216589   5.457   3.104   2.262  0.4907 -0.1468 -0.1314
 5528TIP3    H116590   5.505   3.135   2.339  0.4849 -0.0704 -0.1581
 5528TIP3    H216591   5.525   3.072   2.202  0.6061  0.9988 -0.6387
 5529TIP3   OH216592   4.425   3.440   0.981  0.1179  0.0202 -0.2439
 5529TIP3    H116593   4.390   3.529   0.981  2.5619  1.0851  1.4682
 5529TIP3    H216594   4.402   3.405   1.067 -0.5448 -0.9434 -0.7845
 5530TIP3   OH216595   1.417   0.269   4.031 -0.0975  0.1793 -0.0185
 5530TIP3    H116596   1.463   0.276   3.947  0.0780 -0.9950 -0.0293
 5530TIP3    H216597   1.487   0.280   4.096  0.0061 -0.3735 -0.0333
 5531TIP3   OH216598   5.331   4.277   4.156 -0.3650 -0.1337  0.6411
 5531TIP3    H116599   5.308   4.278   4.063  0.3259  0.5189  0.4709
 5531TIP3    H216600   5.314   4.187   4.183 -2.6906  0.1826  0.4288
 5532TIP3   OH216601   0.882   0.968   2.919 -0.4278  0.1664 -0.1855
 5532TIP3    H116602   0.901   1.052   2.876  1.1459 -1.0032 -1.9172
 5532TIP3    H216603   0.900   0.902   2.852  2.5871 -1.8287  2.3100
 5533TIP3   OH216604   5.317   2.538   1.222 -0.2625 -0.1866  0.1850
 5533TIP3    H116605   5.234   2.554   1.267  0.7877  0.0043  2.1574
 5533TIP3    H216606   5.330   2.617   1.168 -1.4420 -0.3199 -0.3254
 5534TIP3   OH216607   5.930  -0.000   1.353 -0.4034  0.0375  0.0423
 5534TIP3    H116608   5.904  -0.006   1.445  0.3948 -1.0199  0.2197
 5534TIP3    H216609   5.938   0.094   1.337 -1.4883  0.2772  0.7735
 5535TIP3   OH216610   5.953   4.710   4.079 -0.4019  0.1008  0.3377
 5535TIP3    H116611   5.947   4.712   3.983  0.8397  1.4359  0.2525
 5535TIP3    H216612   5.897   4.781   4.108  0.2768  0.5724  0.5172
 5536TIP3   OH216613   0.030   4.723   1.935  0.3620 -0.0150 -0.2411
 5536TIP3    H116614   0.013   4.668   1.858 -2.9382  2.2009 -1.3329
 5536TIP3    H216615  -0.012   4.678   2.007 -0.1931 -0.1182 -0.6232
 5537TIP3   OH216616   2.195   0.591   1.677 -0.1328 -0.3151 -0.4363
 5537TIP3    H116617   2.262   0.533   1.714 -0.9826  0.5389  2.7090
 5537TIP3    H216618   2.232   0.679   1.687 -0.3649 -0.0464 -1.8023
 5538TIP3   OH216619   5.307   0.882   4.390  0.4584 -0.5392 -0.0932
 5538TIP3    H116620   5.245   0.841   4.330 -1.0329  1.4953 -0.0285
 5538TIP3    H216621   5.380   0.909   4.335 -0.4840  0.4981 -0.8842
 5539TIP3   OH216622   0.943   0.742   4.814  0.7002  0.2952  0.2009
 5539TIP3    H116623   1.036   0.762   4.812  0.7397  0.1688  0.6735
 5539TIP3    H216624   0.938   0.653   4.848  0.3577  0.6355  1.0735
 5540TIP3   OH216625   0.931   5.845   1.536  0.8294 -0.0087  0.0247
 5540TIP3    H116626   0.960   5.812   1.452 -0.5350 -0.9658 -0.1089
 5540TIP3    H216627   0.868   5.914   1.515  2.0611  1.2248  0.2919
 5541TIP3   OH216628   1.219   5.054   2.680  0.2888 -0.4522 -0.5325
 5541TIP3    H116629   1.240   5.132   2.730 -0.8001 -0.4695 -0.0201
 5541TIP3    H216630   1.218   5.083   2.589  1.1918 -0.1756 -0.4570
 5542TIP3   OH216631   5.620   5.667   3.511  0.3267  0.1365  0.2203
 5542TIP3    H116632   5.574   5.751   3.502  0.7146  0.2006 -1.6754
 5542TIP3    H216633   5.712   5.692   3.520  0.3585 -0.0651  0.4366
 5543TIP3   OH216634   4.328   2.289   3.349  0.4250 -1.5014  0.5683
 5543TIP3    H116635   4.272   2.224   3.305  0.7817 -1.6581  0.3427
 5543TIP3    H216636   4.348   2.250   3.434 -0.6436 -0.9976  1.0710
 5544TIP3   OH216637   1.331   1.345   4.901  0.1311 -0.3149  0.5257
 5544TIP3    H116638   1.302   1.269   4.851  2.0953 -1.0897  0.5100
 5544TIP3    H216639   1.322   1.318   4.993  2.9817 -1.5153  0.5409
 5545TIP3   OH216640   4.887   4.525   1.742 -0.6993 -0.4757  0.3252
 5545TIP3    H116641   4.863   4.443   1.785 -1.7251 -0.2991  0.1060
 5545TIP3    H216642   4.896   4.502   1.650  0.4376 -0.6272  0.4564
 5546TIP3   OH216643   3.047   1.863   1.018  0.5096 -0.2428  0.1485
 5546TIP3    H116644   3.116   1.832   1.078  1.2342  0.2423 -0.4164
 5546TIP3    H216645   3.092   1.925   0.961 -0.7173  1.1996  0.6964
 5547TIP3   OH216646   4.324   4.005   1.361  0.4276  1.2150 -0.2590
 5547TIP3    H116647   4.322   3.909   1.357  0.1115  1.1715  0.6897
 5547TIP3    H216648   4.415   4.028   1.339  1.2765  0.5289  2.1910
 5548TIP3   OH216649   0.959   4.808   4.786  0.5243  0.6659  0.5550
 5548TIP3    H116650   0.939   4.794   4.694  1.2839  0.7783  0.3643
 5548TIP3    H216651   1.052   4.787   4.794  0.1689 -0.6256  1.5642
 5549TIP3   OH216652   3.062   4.049   4.889  0.3608 -0.1988 -0.0158
 5549TIP3    H116653   3.035   3.961   4.864 -1.0277  0.1853  0.0655
 5549TIP3    H216654   2.998   4.076   4.954  1.0288  0.7121  0.2764
 5550TIP3   OH216655   1.871   1.759   1.428  0.4505  0.6603 -0.1202
 5550TIP3    H116656   1.910   1.832   1.475 -0.9662  2.0236 -0.9549
 5550TIP3    H216657   1.814   1.716   1.491  1.0637  0.4360  0.2898
 5551TIP3   OH216658   1.922   4.862   5.184 -0.3099 -0.1650 -0.1850
 5551TIP3    H116659   1.950   4.907   5.104 -2.1095 -0.7707 -1.2185
 5551TIP3    H216660   1.968   4.907   5.254 -1.8263  3.2137 -1.1258
 5552TIP3   OH216661   4.125   1.444   0.710  0.2944 -0.4855  0.1863
 5552TIP3    H116662   4.166   1.386   0.774  0.4596  0.7224  1.2134
 5552TIP3    H216663   4.155   1.531   0.735  1.3635 -0.0741 -2.2950
 5553TIP3   OH216664   0.375   4.711   4.483 -1.2090  0.0727  0.2637
 5553TIP3    H116665   0.302   4.685   4.540  0.2944 -1.2017  1.6946
 5553TIP3    H216666   0.453   4.703   4.538  0.1468  0.4268 -1.5151
 5554TIP3   OH216667   1.339   2.744   1.396  0.3254 -0.3583  0.7838
 5554TIP3    H116668   1.425   2.720   1.431 -0.9403 -1.9665  3.0719
 5554TIP3    H216669   1.325   2.834   1.426  1.3641  0.1024 -0.0397
 5555TIP3   OH216670   1.126   2.187   2.340 -0.8865  0.0731  0.1548
 5555TIP3    H116671   1.034   2.166   2.324 -0.4883 -1.1128 -0.7355
 5555TIP3    H216672   1.149   2.137   2.418 -0.4233 -1.5009 -0.9315
 5556TIP3   OH216673   4.265   3.374   4.140 -0.4900 -0.2747 -0.0956
 5556TIP3    H116674   4.180   3.347   4.173 -0.6944  0.1481 -0.2722
 5556TIP3    H216675   4.266   3.343   4.049 -0.6890  0.2267 -0.2710
 5557TIP3   OH216676   1.474   4.575   2.116 -0.7610 -0.8018 -0.0473
 5557TIP3    H116677   1.474   4.655   2.168 -2.7097  0.9789 -2.5427
 5557TIP3    H216678   1.540   4.590   2.048 -0.8821 -1.4608 -0.3188
 5558TIP3   OH216679   5.352   2.609   0.664 -0.4966  0.0697  0.1497
 5558TIP3    H116680   5.373   2.631   0.573  1.2323 -1.2395  0.1776
 5558TIP3    H216681   5.322   2.691   0.703 -0.5991  0.8039 -1.4128
 5559TIP3   OH216682   5.942   4.989   1.082  0.6006  0.2563 -0.0740
 5559TIP3    H116683   5.943   5.085   1.072 -0.1401  0.2916  0.1762
 5559TIP3    H216684   5.866   4.960   1.033  1.3718 -0.3184 -0.9628
 5560TIP3   OH216685   1.318   5.210   3.442  0.1638 -0.1919  0.2670
 5560TIP3    H116686   1.268   5.291   3.450  0.0013 -0.2173 -0.4462
 5560TIP3    H216687   1.344   5.206   3.350  1.7156 -0.0405  0.6613
 5561TIP3   OH216688   3.527   0.758   1.751 -0.0499 -0.7417  0.1210
 5561TIP3    H116689   3.500   0.824   1.816 -0.9936 -0.1728 -0.8232
 5561TIP3    H216690   3.594   0.803   1.699  1.4783 -1.5422  1.3026
 5562TIP3   OH216691   6.037   2.101   5.126 -0.3717  0.2321 -0.3072
 5562TIP3    H116692   6.071   2.013   5.112 -1.0433  0.2423 -2.3032
 5562TIP3    H216693   6.009   2.130   5.039 -2.6808  1.3595  0.7262
 5563TIP3   OH216694   2.510   4.497   0.345  0.4644  0.3754  0.0573
 5563TIP3    H116695   2.582   4.539   0.298  0.4965 -0.5678 -0.7615
 5563TIP3    H216696   2.467   4.442   0.279  0.3626 -0.8031  1.0766
 5564TIP3   OH216697   4.023   0.970   4.580 -0.0074 -0.1840  0.3588
 5564TIP3    H116698   4.103   1.014   4.551 -0.3685  0.6694  0.6330
 5564TIP3    H216699   4.054   0.896   4.633  0.6297 -1.0099 -1.1101
 5565TIP3   OH216700   2.469   1.899   4.619 -0.1026 -0.2536  0.0143
 5565TIP3    H116701   2.375   1.882   4.630 -0.3020  1.2938  1.0338
 5565TIP3    H216702   2.509   1.868   4.700  0.2388 -0.7225 -0.3326
 5566TIP3   OH216703   6.021   4.754   3.008 -0.1591 -0.5575 -0.4580
 5566TIP3    H116704   5.999   4.728   3.097 -3.0763 -0.9278 -1.1952
 5566TIP3    H216705   5.984   4.842   2.998  0.0464 -0.5540 -1.3352
 5567TIP3   OH216706   3.068   1.338   1.550 -0.0831  0.0876 -0.5755
 5567TIP3    H116707   3.091   1.338   1.457  2.3060 -1.2657 -0.0620
 5567TIP3    H216708   3.113   1.414   1.587  1.6561 -1.1304 -0.0302
 5568TIP3   OH216709   4.389   2.105   3.959  0.1669  0.4778  0.4288
 5568TIP3    H116710   4.367   2.017   3.930  1.0419  0.7868 -1.2631
 5568TIP3    H216711   4.372   2.104   4.054  1.2470 -1.8470  0.6542
 5569TIP3   OH216712   5.377   4.968   3.263 -0.0768 -0.8073 -0.1773
 5569TIP3    H116713   5.402   5.010   3.181  1.2864  0.3588  0.7908
 5569TIP3    H216714   5.315   5.028   3.303 -0.5120 -1.2339 -0.1995
 5570TIP3   OH216715   5.111   2.514   0.827 -0.4966  0.0942 -0.0459
 5570TIP3    H116716   5.188   2.537   0.775  0.0428 -0.7604  0.3478
 5570TIP3    H216717   5.039   2.510   0.763 -0.0977  0.3122 -0.5144
 5571TIP3   OH216718   3.710   5.664   0.190  0.2570  0.2863 -0.0582
 5571TIP3    H116719   3.660   5.730   0.239  1.6480  2.4529 -1.3556
 5571TIP3    H216720   3.801   5.695   0.196  0.8857 -1.2528 -1.1880
 5572TIP3   OH216721   0.085   4.991   4.718 -0.3054  0.3993  0.3568
 5572TIP3    H116722   0.054   4.948   4.798  1.8489 -2.7476 -0.3074
 5572TIP3    H216723   0.064   4.930   4.648  0.6975  1.6081 -1.0532
 5573TIP3   OH216724   1.793   5.285   2.032  0.1238  0.0632 -0.5626
 5573TIP3    H116725   1.869   5.330   2.070  0.0193 -0.3353  0.1489
 5573TIP3    H216726   1.730   5.281   2.104 -0.2673 -0.2890 -0.9217
 5574TIP3   OH216727   0.435   1.283   2.235 -0.0026 -0.0246  0.1878
 5574TIP3    H116728   0.399   1.197   2.256 -0.8451  0.6510  1.6284
 5574TIP3    H216729   0.483   1.269   2.153 -1.1175 -1.5961 -0.2444
 5575TIP3   OH216730   2.060   2.902   4.444  0.4146  0.1285  0.3165
 5575TIP3    H116731   2.149   2.870   4.456  0.5537  1.0501  2.1112
 5575TIP3    H216732   2.006   2.823   4.440  1.2831 -0.4366 -0.8136
 5576TIP3   OH216733   3.948   4.639   3.322 -0.2893  0.3353  0.4734
 5576TIP3    H116734   4.038   4.618   3.348 -0.0236  0.6329 -0.1786
 5576TIP3    H216735   3.936   4.593   3.239 -0.5539  0.7313  0.2899
 5577TIP3   OH216736   5.747   5.582   4.282 -0.0354 -0.0338  0.0784
 5577TIP3    H116737   5.716   5.667   4.313 -1.6132 -1.1538  1.7748
 5577TIP3    H216738   5.808   5.603   4.211 -0.6851  2.4765  0.1751
 5578TIP3   OH216739   5.085   5.062   4.306 -0.0313 -0.2377  0.3071
 5578TIP3    H116740   5.025   4.987   4.315  0.8690 -0.9410  0.6144
 5578TIP3    H216741   5.082   5.084   4.213 -1.2896  0.1989  0.4248
 5579TIP3   OH216742   1.030   4.446   0.004  0.0893 -0.1025  0.2353
 5579TIP3    H116743   1.036   4.368   0.059 -1.0572  0.4999  1.2708
 5579TIP3    H216744   1.121   4.472  -0.010  0.4772 -1.3903  0.1879
 5580TIP3   OH216745   2.844   1.503   2.477 -0.3094  0.6202 -0.7114
 5580TIP3    H116746   2.808   1.446   2.409  0.5977 -1.4663  0.4689
 5580TIP3    H216747   2.932   1.469   2.492 -0.5689  0.8682  1.6920
 5581TIP3   OH216748   4.595   5.391   1.711  0.5377  0.0986 -0.4072
 5581TIP3    H116749   4.673   5.346   1.681  1.0110 -0.0011  0.9221
 5581TIP3    H216750   4.566   5.442   1.635  2.5664  1.0853 -0.5906
 5582TIP3   OH216751   0.807   0.639   1.650 -0.2347 -0.1666 -0.1239
 5582TIP3    H116752   0.878   0.676   1.597 -2.2971  1.8311 -1.6933
 5582TIP3    H216753   0.729   0.646   1.595 -1.8653 -1.3532  1.8840
 5583TIP3   OH216754   3.283   4.944   1.324  0.1698 -0.0597  0.6680
 5583TIP3    H116755   3.248   4.914   1.408  0.1869 -0.6451  0.4741
 5583TIP3    H216756   3.208   4.983   1.280 -0.3543 -1.5717  0.1359
 5584TIP3   OH216757   0.347   0.971   5.095 -0.1924 -0.1662  0.2253
 5584TIP3    H116758   0.300   1.051   5.117  1.1311  0.6009  0.3501
 5584TIP3    H216759   0.343   0.918   5.175  0.8225  0.7435  0.9114
 5585TIP3   OH216760   0.449   1.195   2.928  0.0365  0.0344  0.7826
 5585TIP3    H116761   0.543   1.184   2.945  0.1065  1.2895  1.2817
 5585TIP3    H216762   0.433   1.144   2.848  1.8916  2.5535 -1.3840
 5586TIP3   OH216763   1.211   3.465   0.469  0.0684 -0.4576 -0.1514
 5586TIP3    H116764   1.259   3.435   0.547  1.1292 -0.7670 -0.8979
 5586TIP3    H216765   1.175   3.384   0.431 -0.2788 -0.3312 -0.0936
 5587TIP3   OH216766   5.378   1.633   4.654  0.2894  0.4768  0.3333
 5587TIP3    H116767   5.355   1.679   4.734 -0.8589  1.5109 -0.5414
 5587TIP3    H216768   5.381   1.702   4.587  0.9474 -0.3937 -0.5620
 5588TIP3   OH216769   1.804   1.130   2.663 -0.3686 -0.7308  0.3904
 5588TIP3    H116770   1.709   1.140   2.661 -0.3205 -0.3767 -0.5919
 5588TIP3    H216771   1.822   1.053   2.609 -0.1005 -0.8085  0.5886
 5589TIP3   OH216772   2.525   0.268   3.642 -0.3680  0.2952 -0.0368
 5589TIP3    H116773   2.580   0.207   3.593  0.2558  0.4072  0.5068
 5589TIP3    H216774   2.571   0.280   3.726 -1.0874  0.5946  0.3227
 5590TIP3   OH216775   0.103   3.668   4.281 -0.1770  0.1840 -0.1569
 5590TIP3    H116776   0.065   3.585   4.252  2.5543 -1.0666 -0.4753
 5590TIP3    H216777   0.122   3.715   4.200 -0.1041  0.3478 -0.0438
 5591TIP3   OH216778   3.116   2.875   3.481 -0.2427 -0.2408 -0.1053
 5591TIP3    H116779   3.062   2.852   3.557 -0.5804  1.3537  0.1772
 5591TIP3    H216780   3.079   2.958   3.451  2.4041  1.2532  0.4741
 5592TIP3   OH216781   5.072   4.589   3.385 -0.2880 -0.3050 -0.7210
 5592TIP3    H116782   5.013   4.541   3.327 -1.2788 -0.2845  0.2457
 5592TIP3    H216783   5.125   4.643   3.325 -2.3549  0.9370 -1.5569
 5593TIP3   OH216784   4.497   4.268   1.105 -0.2930  0.3384  0.4683
 5593TIP3    H116785   4.469   4.278   1.196  0.3057  0.7473  0.6147
 5593TIP3    H216786   4.591   4.253   1.110  0.1740  2.5539 -0.1485
 5594TIP3   OH216787   2.765   3.584   4.783  0.8132 -0.2101 -0.1641
 5594TIP3    H116788   2.763   3.488   4.792 -1.6219 -0.1056  1.3107
 5594TIP3    H216789   2.802   3.615   4.866  2.2955  0.1614 -0.9262
 5595TIP3   OH216790   1.573   4.761   5.149 -1.2732 -0.2372  0.1410
 5595TIP3    H116791   1.604   4.744   5.060 -1.0417 -0.1981  0.2133
 5595TIP3    H216792   1.603   4.849   5.168  2.1613 -1.5642  1.7004
 5596TIP3   OH216793   5.120   2.843   2.627 -0.1268 -0.8968 -0.0696
 5596TIP3    H116794   5.177   2.910   2.589  0.0222 -0.5837  0.6987
 5596TIP3    H216795   5.034   2.884   2.632  0.4250  0.1098  2.5554
 5597TIP3   OH216796   4.314   4.866   0.169  0.2677  0.5893  0.1043
 5597TIP3    H116797   4.255   4.813   0.223 -0.4724  0.4152 -0.8564
 5597TIP3    H216798   4.306   4.828   0.081  0.3649  1.7578 -0.4184
 5598TIP3   OH216799   1.005   0.988   0.238  0.0309  0.3661 -0.3185
 5598TIP3    H116800   0.974   0.973   0.148  1.1864  1.8950 -1.0150
 5598TIP3    H216801   1.099   1.005   0.228  0.5065 -1.0047  1.3752
 5599TIP3   OH216802   0.128   4.222   3.631  0.0911 -0.0493  0.1641
 5599TIP3    H116803   0.085   4.136   3.631 -0.1664  0.0675 -1.1499
 5599TIP3    H216804   0.179   4.223   3.550 -1.0457  1.6048 -0.5579
 5600TIP3   OH216805   0.482   4.413   2.860 -0.4083 -0.3504 -0.0948
 5600TIP3    H116806   0.408   4.468   2.833  0.1465  0.5158  0.1154
 5600TIP3    H216807   0.548   4.426   2.791  0.3436  0.5121  0.7603
 5601TIP3   OH216808   3.764   3.540   4.990 -0.0094 -0.3731  0.4177
 5601TIP3    H116809   3.844   3.520   5.038  0.6184 -0.0893 -0.4868
 5601TIP3    H216810   3.694   3.527   5.054  0.6489 -1.8307  0.8887
 5602TIP3   OH216811   5.203   1.691   0.748 -0.0713  0.2529 -0.3050
 5602TIP3    H116812   5.214   1.695   0.843 -1.2660  1.0674 -0.1658
 5602TIP3    H216813   5.277   1.640   0.717 -0.3644 -1.1676  1.1894
 5603TIP3   OH216814   2.637   4.899   2.653  0.5171  1.1030  0.1628
 5603TIP3    H116815   2.626   4.921   2.746 -0.6442  2.8181 -0.3417
 5603TIP3    H216816   2.730   4.911   2.636  0.8605  0.1401  1.2362
 5604TIP3   OH216817   5.790  -0.010   5.150 -0.4466  0.3617  0.3059
 5604TIP3    H116818   5.733   0.052   5.195  0.0656  0.7241  0.4624
 5604TIP3    H216819   5.855   0.044   5.105  0.1036 -0.0607  0.5776
 5605TIP3   OH216820   5.030   4.717   0.317  0.4610  0.1602  0.0423
 5605TIP3    H116821   5.126   4.719   0.313  0.5338  0.2129  1.5038
 5605TIP3    H216822   5.003   4.725   0.225  1.8282  1.9266 -0.2836
 5606TIP3   OH216823   1.607   3.324   2.376 -0.4610  0.5672 -0.3227
 5606TIP3    H116824   1.677   3.363   2.428 -1.6333  2.1097  0.1637
 5606TIP3    H216825   1.546   3.289   2.441 -1.7519  2.1757 -0.6063
 5607TIP3   OH216826   1.380   2.964   0.973  0.1425  0.4560  0.3860
 5607TIP3    H116827   1.412   3.001   0.891 -1.7799  0.5260 -0.3682
 5607TIP3    H216828   1.460   2.936   1.019  1.2595  0.2290 -1.5674
 5608TIP3   OH216829   4.213   0.855   2.993  0.2609 -0.5803 -0.4496
 5608TIP3    H116830   4.279   0.893   3.050  0.7286  0.2563 -1.5019
 5608TIP3    H216831   4.132   0.855   3.044  1.0626 -1.6540  0.8704
 5609TIP3   OH216832   0.598   0.715   3.613  0.2399  0.7144  0.2656
 5609TIP3    H116833   0.520   0.669   3.644 -0.7173  0.8361 -1.7880
 5609TIP3    H216834   0.661   0.707   3.685 -0.9345 -1.1911  1.1666
 5610TIP3   OH216835   1.088   2.169   4.697 -0.1050  0.1012  0.4014
 5610TIP3    H116836   1.056   2.090   4.655 -2.4588  1.1951 -0.0388
 5610TIP3    H216837   1.143   2.211   4.631 -1.2066  0.2278 -0.4742
 5611TIP3   OH216838   3.130   4.335   1.592 -0.1635  0.2782 -0.1409
 5611TIP3    H116839   3.040   4.303   1.591 -1.0478  2.5577 -0.4396
 5611TIP3    H216840   3.158   4.325   1.683 -2.8395  4.5834  1.4969
 5612TIP3   OH216841   1.221   5.096   3.027 -0.7158  0.0426  0.2122
 5612TIP3    H116842   1.228   5.170   3.087  0.1564 -0.5377  0.8626
 5612TIP3    H216843   1.189   5.133   2.945  2.4391  1.6774 -0.4132
 5613TIP3   OH216844   4.050   1.370   3.817  0.1083 -0.4824  0.2027
 5613TIP3    H116845   4.138   1.408   3.817 -1.2073  2.8660 -0.0271
 5613TIP3    H216846   4.025   1.366   3.909 -0.0958  0.0953  0.1731
 5614TIP3   OH216847   2.319   5.498   2.325  0.2364 -0.0110 -0.3568
 5614TIP3    H116848   2.265   5.511   2.403 -0.3002 -1.2972 -0.4853
 5614TIP3    H216849   2.269   5.538   2.254  0.4292  0.6044 -0.1507
 5615TIP3   OH216850   2.345   4.863   4.791 -0.2978 -0.0826  0.0945
 5615TIP3    H116851   2.414   4.863   4.725 -1.5983 -0.5201 -1.3524
 5615TIP3    H216852   2.390   4.851   4.874  1.6156  2.4606 -0.4497
 5616TIP3   OH216853   5.767   0.229   2.047 -0.2595  0.3424 -0.2828
 5616TIP3    H116854   5.696   0.263   1.992  0.3506  0.6016 -0.9180
 5616TIP3    H216855   5.749   0.135   2.052 -0.1730  0.2711 -1.1513
 5617TIP3   OH216856   3.451   2.730   2.663  0.0567 -0.2700 -0.2245
 5617TIP3    H116857   3.473   2.822   2.649 -2.2349  0.3695 -0.0564
 5617TIP3    H216858   3.422   2.726   2.755 -1.8875 -0.6344 -0.7958
 5618TIP3   OH216859   4.094   5.205   3.785  0.0376 -0.0899 -0.1962
 5618TIP3    H116860   4.093   5.287   3.834  0.7290 -0.3369  0.2563
 5618TIP3    H216861   4.002   5.181   3.775 -0.1184 -0.1914  1.2633
 5619TIP3   OH216862   3.826   4.613   5.181 -0.5154  0.6241 -0.4089
 5619TIP3    H116863   3.779   4.696   5.184  0.8344  1.4431 -0.9983
 5619TIP3    H216864   3.777   4.559   5.119 -2.1394  0.4741  0.9304
 5620TIP3   OH216865   2.467   5.836   0.626 -0.4303  0.6089  0.2060
 5620TIP3    H116866   2.506   5.917   0.592 -1.5783  1.4500  0.8312
 5620TIP3    H216867   2.428   5.862   0.710 -1.2898 -0.4719  0.1539
 5621TIP3   OH216868   5.765   0.325   3.766  0.1756  0.0795 -0.5682
 5621TIP3    H116869   5.712   0.405   3.768  2.2742  1.5734 -0.5012
 5621TIP3    H216870   5.763   0.297   3.674 -1.3280 -0.3561 -0.4202
 5622TIP3   OH216871   3.783   2.667   0.052 -0.0413 -0.1102 -0.4229
 5622TIP3    H116872   3.735   2.601   0.103 -0.7579  0.2266 -0.6534
 5622TIP3    H216873   3.799   2.738   0.114 -0.5683  0.1304 -0.5588
 5623TIP3   OH216874   2.829   0.032   4.667 -0.4106 -0.4940  0.2337
 5623TIP3    H116875   2.745   0.011   4.625  0.3918 -2.4982 -0.4908
 5623TIP3    H216876   2.885   0.060   4.595 -0.3978  0.7349  0.7024
 5624TIP3   OH216877   0.519   0.132   4.954 -0.5839 -0.0725  0.1932
 5624TIP3    H116878   0.471   0.123   5.036 -1.1677  1.1912  0.0072
 5624TIP3    H216879   0.592   0.190   4.975 -1.3703  1.1703 -0.4162
 5625TIP3   OH216880   5.359   2.331   0.015 -0.0010 -0.8956  0.5013
 5625TIP3    H116881   5.290   2.368   0.071  0.0694 -2.3826  1.6563
 5625TIP3    H216882   5.405   2.407  -0.020 -2.8149  0.2211 -1.1451
 5626TIP3   OH216883   5.864   5.948   0.230  0.5211  0.0379 -0.2172
 5626TIP3    H116884   5.848   5.938   0.136  1.7257 -1.0514 -0.3431
 5626TIP3    H216885   5.790   5.904   0.272 -1.3875  2.7084 -0.5477
 5627TIP3   OH216886   1.424   5.698   3.983  0.0718  0.1328  0.4093
 5627TIP3    H116887   1.348   5.666   4.031  0.6346 -0.6065  0.8333
 5627TIP3    H216888   1.413   5.793   3.979 -1.0315  0.0014  0.1706
 5628TIP3   OH216889   4.485   5.576   1.544  0.7031 -0.1656  0.0826
 5628TIP3    H116890   4.523   5.646   1.493  1.0235 -0.8671 -0.6631
 5628TIP3    H216891   4.467   5.615   1.630 -0.7593  1.3058 -0.8415
 5629TIP3   OH216892   0.329   2.901   2.183  0.1651 -0.4383  0.3872
 5629TIP3    H116893   0.316   2.965   2.252 -0.1966  0.3208 -0.3693
 5629TIP3    H216894   0.249   2.905   2.130 -0.2855 -2.1860  0.8523
 5630TIP3   OH216895   4.114   4.067   0.274  0.7999 -0.5179 -0.1490
 5630TIP3    H116896   4.192   4.061   0.329  0.9720  1.6312 -0.0831
 5630TIP3    H216897   4.040   4.068   0.335  0.9500  1.0969  0.0435
 5631TIP3   OH216898   4.950   0.858   1.068 -0.2755  0.3387 -0.0395
 5631TIP3    H116899   4.963   0.864   0.974 -0.2467  0.7193 -0.0135
 5631TIP3    H216900   4.928   0.766   1.084 -0.5800  0.3401 -0.4513
 5632TIP3   OH216901   1.616   0.241   5.157 -0.2254 -0.0609  0.1219
 5632TIP3    H116902   1.575   0.326   5.143 -0.6010  0.0225  1.5685
 5632TIP3    H216903   1.702   0.249   5.115  0.7807  1.9564  2.3063
 5633TIP3   OH216904   3.118   0.690   2.232 -0.0644 -0.1662 -0.4431
 5633TIP3    H116905   3.188   0.756   2.226  0.5374 -0.6110  1.1711
 5633TIP3    H216906   3.161   0.608   2.207 -1.0168  0.1030 -3.2766
 5634TIP3   OH216907   2.750   1.721   2.611 -0.3490  0.5617 -0.1218
 5634TIP3    H116908   2.769   1.699   2.702 -2.1498 -1.0714 -0.0848
 5634TIP3    H216909   2.804   1.661   2.560 -1.2849 -0.3609 -0.0663
 5635TIP3   OH216910   2.327   3.581   1.123  0.3548  0.1004 -0.0601
 5635TIP3    H116911   2.255   3.624   1.169 -0.6449 -0.9700 -0.5690
 5635TIP3    H216912   2.356   3.645   1.058 -0.1481  0.5446  0.1478
 5636TIP3   OH216913   3.791   0.973   2.904  0.4310  0.4670  0.0376
 5636TIP3    H116914   3.717   0.938   2.854  0.9509 -1.3450  0.4494
 5636TIP3    H216915   3.782   0.933   2.991  1.8287  0.3129  0.1330
 5637TIP3   OH216916   1.630   0.219   1.534 -0.5455 -0.0326 -0.1484
 5637TIP3    H116917   1.620   0.241   1.627 -0.3870  2.4974 -0.6510
 5637TIP3    H216918   1.563   0.153   1.518  0.7223 -2.0531  2.1678
 5638TIP3   OH216919   3.600   1.639   4.602  0.3084 -0.5227 -0.1801
 5638TIP3    H116920   3.655   1.600   4.535 -0.1982 -3.2193  0.8488
 5638TIP3    H216921   3.586   1.569   4.667  0.0675  1.6624  2.3203
 5639TIP3   OH216922   0.850   1.310   3.264 -0.3138 -0.0756  0.2149
 5639TIP3    H116923   0.821   1.223   3.236 -2.1584  0.0102  1.6469
 5639TIP3    H216924   0.772   1.365   3.254  0.6205  1.2529  0.0453
 5640TIP3   OH216925   4.162   4.768   0.394 -0.2511 -0.2391 -0.0192
 5640TIP3    H116926   4.254   4.771   0.420 -0.4048 -2.0484  0.8616
 5640TIP3    H216927   4.140   4.675   0.391 -1.6028  0.0791 -1.9191
 5641TIP3   OH216928   3.434   1.275   0.281 -0.6944 -0.0428  0.7137
 5641TIP3    H116929   3.448   1.191   0.238 -2.1808 -0.0351  0.1486
 5641TIP3    H216930   3.499   1.333   0.242 -1.0977 -0.3947 -0.5183
 5642TIP3   OH216931   0.222   4.419   1.908  0.4450 -0.1037 -0.2122
 5642TIP3    H116932   0.156   4.378   1.964  1.4393 -1.3525  0.1019
 5642TIP3    H216933   0.172   4.472   1.847 -0.6580  2.6569  2.8029
 5643TIP3   OH216934   5.327   5.490   4.741  0.2999 -0.1240 -0.5161
 5643TIP3    H116935   5.298   5.431   4.811  1.7607  0.8470  0.9993
 5643TIP3    H216936   5.357   5.432   4.671 -0.8396 -1.1261 -0.2044
 5644TIP3   OH216937   2.073   2.898   1.489 -0.0866 -0.2368 -0.2624
 5644TIP3    H116938   2.041   2.874   1.576  1.0941  1.4292  0.6921
 5644TIP3    H216939   2.082   2.814   1.443 -1.0431 -1.1276  1.0857
 5645TIP3   OH216940   3.724   5.095   2.528  0.4081 -0.1533  0.3623
 5645TIP3    H116941   3.764   5.026   2.476  2.3152  0.9133  0.3162
 5645TIP3    H216942   3.797   5.136   2.575 -0.9559  0.2958  2.2601
 5646TIP3   OH216943   3.363   1.010   2.623 -0.2631  0.1998 -0.0171
 5646TIP3    H116944   3.282   1.034   2.578 -1.3536 -0.6059  1.4381
 5646TIP3    H216945   3.423   0.984   2.552 -0.9256  1.7057 -1.1842
 5647TIP3   OH216946   0.676   1.365   3.511  0.6067 -0.1379 -0.7049
 5647TIP3    H116947   0.762   1.399   3.487  1.0642 -1.5525 -1.1399
 5647TIP3    H216948   0.621   1.384   3.434 -0.0488  2.5278  0.3017
 5648TIP3   OH216949   6.229   2.720   5.107  0.5628 -0.4597  0.5231
 5648TIP3    H116950   6.138   2.749   5.109  0.5118 -0.6630  1.2844
 5648TIP3    H216951   6.224   2.629   5.077  0.2568 -1.3668  3.1295
 5649TIP3   OH216952   0.435   0.122   0.235  0.4369 -0.5116 -0.0625
 5649TIP3    H116953   0.473   0.189   0.179  1.0426 -1.1901 -0.4926
 5649TIP3    H216954   0.487   0.125   0.316 -1.8149  1.9616  1.4378
 5650TIP3   OH216955   3.743   4.464   2.188 -0.2719  0.7320 -0.4723
 5650TIP3    H116956   3.706   4.511   2.114  1.6201  0.7484 -1.4627
 5650TIP3    H216957   3.831   4.438   2.159  0.7558  1.2055  1.9191
 5651TIP3   OH216958   5.552   0.930   4.261 -0.0463  0.0489 -0.5448
 5651TIP3    H116959   5.634   0.943   4.309  0.6814 -2.1229 -1.0670
 5651TIP3    H216960   5.570   0.961   4.173  0.1065 -0.0961 -0.5652
 5652TIP3   OH216961   3.935   3.291   3.115 -0.0167 -0.3002 -0.2051
 5652TIP3    H116962   3.980   3.261   3.194 -0.6086  0.0094  0.2505
 5652TIP3    H216963   3.924   3.385   3.128 -1.0968 -0.4263 -0.1583
 5653TIP3   OH216964   1.804   0.112   3.819  0.2805  0.4931 -0.1213
 5653TIP3    H116965   1.855   0.160   3.754 -0.8433  0.9401 -0.7012
 5653TIP3    H216966   1.810   0.165   3.898  0.8579  0.4449 -0.1298
 5654TIP3   OH216967   2.866   3.153   4.616 -0.4789  0.2805  0.0891
 5654TIP3    H116968   2.949   3.158   4.570 -0.5488  0.0362 -0.0668
 5654TIP3    H216969   2.800   3.171   4.549 -0.5606  0.3174  0.1780
 5655TIP3   OH216970   3.470   5.384   2.279 -0.0858 -0.3947  0.0335
 5655TIP3    H116971   3.480   5.291   2.263 -0.3306 -0.2897 -0.7834
 5655TIP3    H216972   3.410   5.390   2.353 -1.2832 -0.8786 -0.8589
 5656TIP3   OH216973   3.133   5.714   2.233 -1.1281  0.2443 -0.2710
 5656TIP3    H116974   3.183   5.644   2.190 -1.1455 -0.7958  1.3394
 5656TIP3    H216975   3.194   5.752   2.296 -1.9682 -0.2375  0.8641
 5657TIP3   OH216976   4.933   3.589   1.601  0.3772 -0.7143 -0.3603
 5657TIP3    H116977   4.883   3.611   1.680  0.2265 -0.1455 -0.6162
 5657TIP3    H216978   5.012   3.642   1.608  0.5558 -0.9725 -0.3909
 5658TIP3   OH216979   2.389   0.430   1.778  0.6528  0.5485  0.4993
 5658TIP3    H116980   2.437   0.348   1.791 -1.5339 -1.2788 -1.9372
 5658TIP3    H216981   2.456   0.492   1.749  2.1110 -0.8269  0.7284
 5659TIP3   OH216982   2.520   1.024   0.312  0.3027 -0.3868  0.0439
 5659TIP3    H116983   2.520   1.050   0.404  0.3952  0.2803 -0.1417
 5659TIP3    H216984   2.479   0.937   0.312 -2.6586  0.8861  0.3860
 5660TIP3   OH216985   1.930   2.963   3.961 -0.1199  0.1157 -0.3168
 5660TIP3    H116986   2.021   2.986   3.983 -0.1976  1.1418 -1.0338
 5660TIP3    H216987   1.904   2.903   4.031  0.9006  0.3044  0.2532
 5661TIP3   OH216988   2.529   4.669   4.686 -0.1443 -0.6386 -0.4617
 5661TIP3    H116989   2.496   4.628   4.606  0.8316 -1.1741 -0.6084
 5661TIP3    H216990   2.523   4.600   4.752  0.9148 -0.8405 -0.5603
 5662TIP3   OH216991   6.318   2.026   2.347 -0.0083  0.2100 -0.1361
 5662TIP3    H116992   6.307   2.074   2.264 -1.4183  1.0921  0.5141
 5662TIP3    H216993   6.244   2.055   2.401 -1.1917 -3.0033  0.1801
 5663TIP3   OH216994   2.825   1.670   4.627 -0.4626 -0.3014  0.3279
 5663TIP3    H116995   2.813   1.686   4.721 -2.0251  0.7572 -0.0083
 5663TIP3    H216996   2.760   1.604   4.605 -0.7362  0.1228 -0.1657
 5664TIP3   OH216997   4.452   0.209   1.040  0.2899  0.7034  0.2813
 5664TIP3    H116998   4.448   0.264   0.961 -0.1395 -0.0213 -0.2147
 5664TIP3    H216999   4.377   0.150   1.032 -2.7281  3.6348  3.5319
 5665TIP3   OH217000   4.680   3.146   0.591  0.3075  0.3679 -0.2076
 5665TIP3    H117001   4.645   3.112   0.674 -0.5646  1.2472 -0.1942
 5665TIP3    H217002   4.674   3.072   0.531  1.5640 -0.4801  0.6589
 5666TIP3   OH217003   4.752   0.916   2.854 -0.1968  0.4589 -0.3562
 5666TIP3    H117004   4.838   0.956   2.846 -0.2465  0.5733 -0.3297
 5666TIP3    H217005   4.719   0.911   2.764  0.6553 -1.4197 -0.5904
 5667TIP3   OH217006   0.078   2.210   0.523  0.0095  0.1749  0.5468
 5667TIP3    H117007   0.031   2.238   0.601  3.0176 -1.6133  3.2775
 5667TIP3    H217008   0.138   2.282   0.503 -1.2417  0.9375 -0.7083
 5668TIP3   OH217009   1.928   2.101   0.787 -0.1994 -0.4743  0.2779
 5668TIP3    H117010   1.855   2.129   0.842 -0.1564 -1.8683  1.0784
 5668TIP3    H217011   1.994   2.170   0.798  0.3795 -1.3551  3.1170
 5669TIP3   OH217012   5.903   4.262   5.119  0.4001  0.0893  0.1180
 5669TIP3    H117013   5.994   4.241   5.096  0.1425 -0.0974 -0.7705
 5669TIP3    H217014   5.871   4.314   5.046 -0.1136  0.4279  0.5774
 5670TIP3   OH217015   3.190   4.651   2.091 -0.6094  0.0340  0.1672
 5670TIP3    H117016   3.114   4.660   2.033 -1.3127 -0.0219  1.0457
 5670TIP3    H217017   3.156   4.601   2.166  0.3360 -0.1140  0.5067
 5671TIP3   OH217018   0.425   1.715   2.878  0.3325 -0.2851 -0.4835
 5671TIP3    H117019   0.356   1.778   2.896  0.4831 -0.1970 -0.1937
 5671TIP3    H217020   0.434   1.666   2.960  0.5796 -0.3242 -0.5324
 5672TIP3   OH217021   2.664   1.042   1.116 -0.0592  0.1219 -0.3991
 5672TIP3    H117022   2.668   0.949   1.094 -2.7638  0.0489 -0.9337
 5672TIP3    H217023   2.577   1.055   1.152  0.7315  2.2302  0.9736
 5673TIP3   OH217024   1.945   5.288   0.441 -0.5729  0.0795 -0.2736
 5673TIP3    H117025   1.915   5.285   0.351  0.5936 -0.2007 -0.6708
 5673TIP3    H217026   2.039   5.272   0.436 -0.4842  0.0655  0.9914
 5674TIP3   OH217027   2.381   4.888   3.644 -0.3027  0.5523  0.1368
 5674TIP3    H117028   2.319   4.817   3.661  1.2830 -1.1455 -0.7461
 5674TIP3    H217029   2.393   4.931   3.728 -0.8287 -0.6376  0.8417
 5675TIP3   OH217030   2.979   2.150   1.145 -0.0003 -0.0418 -0.0203
 5675TIP3    H117031   3.071   2.175   1.142 -0.2405  1.0552  0.9219
 5675TIP3    H217032   2.979   2.055   1.143  1.2250 -0.0868  1.1389
 5676TIP3   OH217033   5.792   4.897   4.224 -0.1558 -0.3356  0.0001
 5676TIP3    H117034   5.719   4.839   4.246  0.1758 -0.1863  1.5969
 5676TIP3    H217035   5.754   4.985   4.227 -0.6754 -0.4168 -2.4866
 5677TIP3   OH217036   3.441   5.858   5.123  0.3951  0.1184 -0.3870
 5677TIP3    H117037   3.396   5.805   5.058 -2.3044  0.4933  1.0593
 5677TIP3    H217038   3.508   5.905   5.073 -0.7902 -0.4645 -2.6660
 5678TIP3   OH217039   2.807   1.695   2.893 -0.0540 -0.1888  0.2535
 5678TIP3    H117040   2.763   1.751   2.957  0.0311  0.9475 -0.6533
 5678TIP3    H217041   2.899   1.720   2.899 -0.3554  1.8758 -2.1151
 5679TIP3   OH217042   6.343   5.195   3.983  0.0495 -0.1160 -0.1440
 5679TIP3    H117043   6.261   5.152   4.006 -0.6471  0.3138 -1.7054
 5679TIP3    H217044   6.317   5.281   3.951  0.9102 -0.6825 -2.5515
 5680TIP3   OH217045   4.566   3.072   2.691  0.0714 -0.2639  0.1068
 5680TIP3    H117046   4.482   3.063   2.646 -0.0890  1.8373 -0.0979
 5680TIP3    H217047   4.626   3.103   2.623  0.6533 -0.3409  0.5816
 5681TIP3   OH217048   1.198   5.109   2.413 -0.2945  0.1692  0.0496
 5681TIP3    H117049   1.128   5.053   2.380 -0.7326  0.3993  0.5620
 5681TIP3    H217050   1.203   5.181   2.350  0.7319 -0.7759 -0.9771
 5682TIP3   OH217051   3.363   4.039   0.807 -0.6112  0.1990  0.2739
 5682TIP3    H117052   3.398   4.096   0.875 -0.1701 -0.2181  0.4064
 5682TIP3    H217053   3.277   4.075   0.787 -0.8066  0.2519  1.1503
 5683TIP3   OH217054   2.604   3.660   4.562  0.2211  0.1262 -0.0257
 5683TIP3    H117055   2.669   3.651   4.631  0.0552  0.3573  0.1639
 5683TIP3    H217056   2.633   3.736   4.511 -0.1653  0.5338  0.3553
 5684TIP3   OH217057   0.556   2.919   1.374 -0.2096  0.4808  0.1185
 5684TIP3    H117058   0.604   2.856   1.320 -1.8659  0.2881 -1.2054
 5684TIP3    H217059   0.611   2.930   1.451  1.1514 -0.9710 -0.5691
 5685TIP3   OH217060   2.956   2.768   4.791 -0.0497 -0.0498 -0.2878
 5685TIP3    H117061   2.950   2.764   4.695 -0.7809 -0.6203 -0.2331
 5685TIP3    H217062   2.927   2.856   4.814  1.4433  0.5667 -0.6627
 5686TIP3   OH217063   3.304   3.167   0.716  0.1083 -0.3128 -0.0466
 5686TIP3    H117064   3.333   3.148   0.627  1.1739  1.9244 -0.2525
 5686TIP3    H217065   3.217   3.205   0.707 -0.0916 -0.7660 -0.0521
 5687TIP3   OH217066   4.803   5.205   2.268  0.1719  0.3608  0.4339
 5687TIP3    H117067   4.761   5.119   2.265  0.0470  0.4283  0.2311
 5687TIP3    H217068   4.810   5.231   2.177  1.0595  0.1626  0.4415
 5688TIP3   OH217069   5.295   3.434   3.083 -0.2336 -0.3041  0.5383
 5688TIP3    H117070   5.386   3.405   3.089  0.1664  0.1617 -2.0434
 5688TIP3    H217071   5.245   3.364   3.125  1.0146 -2.8390 -1.8447
 5689TIP3   OH217072   1.182   2.345   1.298  0.0617  0.2946 -0.1662
 5689TIP3    H117073   1.189   2.255   1.330  2.8922 -0.1826 -1.8015
 5689TIP3    H217074   1.190   2.399   1.376  1.7650 -0.8801  0.5264
 5690TIP3   OH217075   3.219   1.863   3.484 -0.0060  0.6480  0.7190
 5690TIP3    H117076   3.250   1.773   3.474  0.9124  1.1149 -0.8624
 5690TIP3    H217077   3.235   1.883   3.576  1.7108 -0.1189  0.6186
 5691TIP3   OH217078   3.858   5.759   2.987  0.5085  0.2648 -0.1203
 5691TIP3    H117079   3.832   5.735   3.076  0.8388  0.9343  0.1652
 5691TIP3    H217080   3.860   5.676   2.940  0.0453 -0.0651  0.4174
 5692TIP3   OH217081   5.355   1.959   3.040 -0.1927 -0.4966  0.1029
 5692TIP3    H117082   5.312   1.903   3.105 -0.4412  0.2570  0.6010
 5692TIP3    H217083   5.315   2.045   3.052 -0.0970 -0.3012 -0.9217
 5693TIP3   OH217084   4.495   2.057   0.085 -0.1526  0.2310  0.0606
 5693TIP3    H117085   4.515   1.974   0.041 -1.3230 -0.3206  0.5240
 5693TIP3    H217086   4.467   2.032   0.173 -0.8194  1.0937  0.1105
 5694TIP3   OH217087   4.405   0.403   1.240  0.2086  0.3732  0.3579
 5694TIP3    H117088   4.486   0.454   1.230  0.6597 -0.1544  1.1534
 5694TIP3    H217089   4.420   0.325   1.186  0.4093  0.0847  0.8205
 5695TIP3   OH217090   0.996   3.895   0.437 -0.2315  0.2315  0.0748
 5695TIP3    H117091   0.981   3.831   0.367 -0.3378 -0.0863  0.3835
 5695TIP3    H217092   0.935   3.869   0.506 -0.9424  1.2135 -0.1439
 5696TIP3   OH217093   3.456   0.560   0.479  0.9818 -0.6766  0.0282
 5696TIP3    H117094   3.423   0.566   0.569  0.7797 -0.0281 -0.0825
 5696TIP3    H217095   3.515   0.635   0.470  0.8690 -0.6393 -0.4312
 5697TIP3   OH217096   5.947   1.547   0.126  0.1458  0.1034 -0.7291
 5697TIP3    H117097   6.009   1.542   0.053 -0.0063  0.6920 -0.9019
 5697TIP3    H217098   5.882   1.612   0.098  1.4190  2.1984  0.9426
 5698TIP3   OH217099   1.131   5.172   0.952  0.6011  0.0670 -0.0621
 5698TIP3    H117100   1.088   5.158   0.868  0.4890 -1.1663  0.1777
 5698TIP3    H217101   1.062   5.204   1.010  0.3662 -0.3787 -0.0932
 5699TIP3   OH217102   2.975   4.090   0.356  0.2394 -0.3004 -0.0993
 5699TIP3    H117103   3.031   4.167   0.356 -0.4660  0.2328  0.7207
 5699TIP3    H217104   3.036   4.016   0.364  0.8432  0.2457  0.4269
 5700TIP3   OH217105   0.215   0.098   1.089 -0.2792  0.0695 -0.4385
 5700TIP3    H117106   0.277   0.044   1.040  0.2226  0.2536 -0.0142
 5700TIP3    H217107   0.264   0.178   1.109 -0.6556  0.2177 -0.0982
 5701TIP3   OH217108   2.759   0.541   4.214 -0.2653 -0.0976 -0.2380
 5701TIP3    H117109   2.851   0.557   4.234 -0.7052  1.4808  0.7489
 5701TIP3    H217110   2.737   0.606   4.148 -0.8204 -0.0287  0.0074
 5702TIP3   OH217111   1.443   1.669   1.240  0.2460  0.1061 -0.1582
 5702TIP3    H117112   1.490   1.593   1.207  2.9260  2.4424 -2.1142
 5702TIP3    H217113   1.351   1.642   1.238  0.9976 -2.7930 -1.4805
 5703TIP3   OH217114   2.080   2.804   4.169  0.3121 -0.0204  0.2281
 5703TIP3    H117115   2.076   2.841   4.257  3.0951 -1.8153  1.2494
 5703TIP3    H217116   2.090   2.710   4.183 -0.0940 -0.4651 -2.0714
 5704TIP3   OH217117   2.464   5.523   1.652  0.0287 -0.4124 -0.2706
 5704TIP3    H117118   2.524   5.516   1.578  0.2441 -0.8018 -0.0597
 5704TIP3    H217119   2.378   5.508   1.614 -0.4387  3.5433 -1.2749
 5705TIP3   OH217120   5.155   2.855   1.731  0.5305  0.3130 -0.1847
 5705TIP3    H117121   5.249   2.863   1.715  0.5139  0.6635 -0.1189
 5705TIP3    H217122   5.114   2.872   1.647  0.5725 -1.3609 -0.5903
 5706TIP3   OH217123   1.845   0.489   2.389  0.3508  0.0835  0.0939
 5706TIP3    H117124   1.753   0.477   2.363  0.8917 -0.1640 -1.8532
 5706TIP3    H217125   1.868   0.407   2.433  0.4209 -1.0413 -1.9472
 5707TIP3   OH217126   1.808   0.106   4.778  0.5200  0.0028 -0.3075
 5707TIP3    H117127   1.715   0.126   4.774  0.8403  1.3534 -2.1011
 5707TIP3    H217128   1.844   0.167   4.842  0.2897 -0.0529 -0.1254
 5708TIP3   OH217129   0.676   3.788   3.359  0.2525 -0.1109 -0.1722
 5708TIP3    H117130   0.764   3.817   3.333 -0.2618  0.1155 -1.7519
 5708TIP3    H217131   0.617   3.834   3.300 -0.8094 -1.7700 -0.4677
 5709TIP3   OH217132   0.034   4.224   0.522 -0.1951  0.1774  0.5978
 5709TIP3    H117133   0.057   4.148   0.575  1.6925 -0.2485 -0.6970
 5709TIP3    H217134   0.066   4.202   0.434  0.3789  2.4386  0.1735
 5710TIP3   OH217135   4.272   0.882   1.828 -0.3701  0.2176  0.2274
 5710TIP3    H117136   4.223   0.961   1.804 -0.0895  0.1159 -0.7279
 5710TIP3    H217137   4.358   0.915   1.853 -0.5074  0.2825  0.6169
 5711TIP3   OH217138   6.091   4.955   0.628  0.7958  0.2034  0.4791
 5711TIP3    H117139   6.062   4.864   0.625 -1.3292  0.8357  0.0328
 5711TIP3    H217140   6.151   4.959   0.703 -0.4750 -1.1928  1.6200
 5712TIP3   OH217141   2.835   3.004   4.274  0.1821  0.5497  0.1670
 5712TIP3    H117142   2.767   3.062   4.308 -0.1216  0.8649 -0.9337
 5712TIP3    H217143   2.795   2.917   4.275  0.4300  0.4367  1.2649
 5713TIP3   OH217144   0.614   5.255   4.599 -0.0522  0.4036 -0.4586
 5713TIP3    H117145   0.569   5.339   4.597  2.4713  1.8841  0.3017
 5713TIP3    H217146   0.576   5.209   4.673  0.3965  2.0622  0.8658
 5714TIP3   OH217147   2.507   2.474   4.550 -0.2659  0.3531  0.0743
 5714TIP3    H117148   2.413   2.478   4.537 -0.2860  0.9365  0.3266
 5714TIP3    H217149   2.519   2.499   4.642  0.1828  1.1498 -0.1852
 5715TIP3   OH217150   2.564   0.964   4.220 -0.5647 -0.8774 -0.2048
 5715TIP3    H117151   2.631   1.005   4.275 -0.5389 -1.5055  0.2410
 5715TIP3    H217152   2.511   0.913   4.282 -0.2982 -1.9189 -0.8100
 5716TIP3   OH217153   3.876   1.685   1.425  0.0093 -0.0188  0.2159
 5716TIP3    H117154   3.829   1.617   1.377 -0.5775  0.5331 -0.0105
 5716TIP3    H217155   3.828   1.695   1.507 -0.6546  0.9751 -0.2763
 5717TIP3   OH217156   0.181   3.601   0.351  0.0250  0.2079 -0.1074
 5717TIP3    H117157   0.174   3.506   0.361 -1.8195  0.3200  0.0207
 5717TIP3    H217158   0.133   3.620   0.270 -1.2807  1.1920  0.8635
 5718TIP3   OH217159   0.378   1.200   0.777  0.0195 -0.2651  0.0674
 5718TIP3    H117160   0.391   1.170   0.867 -2.4041  0.4058  0.7253
 5718TIP3    H217161   0.460   1.244   0.755  1.1024 -1.4435  1.5106
 5719TIP3   OH217162   6.019   5.256   2.538  0.1135 -0.2128  0.1093
 5719TIP3    H117163   6.028   5.314   2.462  0.7508  1.1475  1.1678
 5719TIP3    H217164   6.100   5.269   2.587 -1.2057  0.7632  2.2114
 5720TIP3   OH217165   1.439   1.759   3.814 -0.2962  0.2383  0.0942
 5720TIP3    H117166   1.428   1.664   3.818  0.9364  0.0737 -0.0179
 5720TIP3    H217167   1.360   1.794   3.854 -0.8832 -0.8307 -0.1005
 5721TIP3   OH217168   2.540   3.126   1.754 -0.2324  0.3962 -0.3740
 5721TIP3    H117169   2.494   3.157   1.832 -0.4060  1.2364 -0.8061
 5721TIP3    H217170   2.470   3.108   1.691 -0.2218 -1.7487  0.1427
 5722TIP3   OH217171   1.685   5.840   3.959  0.7920 -0.3345 -0.2391
 5722TIP3    H117172   1.618   5.856   4.025  1.7954  0.3566  0.6491
 5722TIP3    H217173   1.640   5.793   3.889 -0.7894  0.7830 -0.0214
 5723TIP3   OH217174   2.578   1.110   2.454 -0.0095 -0.1172  0.3269
 5723TIP3    H117175   2.491   1.128   2.419  0.0588  1.3111  0.8542
 5723TIP3    H217176   2.569   1.122   2.549  0.8139  0.2490  0.3641
 5724TIP3   OH217177   4.260   3.734   4.382 -0.3927 -0.2524 -0.0903
 5724TIP3    H117178   4.278   3.765   4.470 -1.2139 -2.0268  0.7735
 5724TIP3    H217179   4.190   3.791   4.350 -1.8746 -1.1095  1.4357
 5725TIP3   OH217180   5.030   2.711   3.818  0.4231  0.2322 -0.0806
 5725TIP3    H117181   5.106   2.765   3.839  0.0441  0.5151  0.6081
 5725TIP3    H217182   4.971   2.723   3.892 -0.6001  0.5858 -0.9222
 5726TIP3   OH217183   0.260   2.595   4.685  0.2449 -0.2557 -0.1938
 5726TIP3    H117184   0.222   2.682   4.693  0.8367  0.0970 -1.1369
 5726TIP3    H217185   0.185   2.539   4.663 -0.1847 -0.0498  0.6979
 5727TIP3   OH217186   4.127   1.888   3.442 -0.1727 -0.1151 -0.1206
 5727TIP3    H117187   4.206   1.901   3.494 -0.8149  0.5856  0.7104
 5727TIP3    H217188   4.137   1.947   3.368  0.4491 -0.6439 -0.4739
 5728TIP3   OH217189   6.093   0.325   4.814 -0.5851  0.2951  0.0171
 5728TIP3    H117190   6.126   0.415   4.824  2.1861 -0.3843 -1.9806
 5728TIP3    H217191   6.156   0.283   4.755 -2.0509 -2.8557  0.5339
 5729TIP3   OH217192   3.049   4.291   4.751  0.3348  0.0048 -0.5826
 5729TIP3    H117193   2.962   4.323   4.727  0.3334  0.9791  0.5779
 5729TIP3    H217194   3.039   4.196   4.758 -0.9502  0.1955  0.6200
 5730TIP3   OH217195   4.492   5.596   4.191 -0.4143  0.1960  0.1959
 5730TIP3    H117196   4.476   5.577   4.283  0.6716  1.1311  0.5929
 5730TIP3    H217197   4.433   5.669   4.171 -1.6210 -0.8441 -0.2449
 5731TIP3   OH217198   3.177   0.297   0.454 -0.1476  0.2351  0.0379
 5731TIP3    H117199   3.228   0.343   0.388  0.6754  1.0685  1.2128
 5731TIP3    H217200   3.128   0.230   0.405  0.5068  0.7615 -1.3751
 5732TIP3   OH217201   0.495   5.937   1.760 -0.3185 -0.0921  0.7924
 5732TIP3    H117202   0.438   5.885   1.704 -0.0357  0.1584  0.2657
 5732TIP3    H217203   0.576   5.887   1.764 -0.7002 -0.6605  1.8831
 5733TIP3   OH217204   2.120   2.539   4.191  0.7931 -0.6501  0.1736
 5733TIP3    H117205   2.201   2.514   4.146  0.5704 -0.4032 -0.3814
 5733TIP3    H217206   2.090   2.459   4.233  1.1135 -0.8413  0.0428
 5734TIP3   OH217207   0.892   1.663   2.200  0.0303  0.1864 -0.1332
 5734TIP3    H117208   0.836   1.606   2.148  1.5110  0.2027 -1.8583
 5734TIP3    H217209   0.976   1.618   2.203  0.1137  0.3823  1.9832
 5735TIP3   OH217210   1.933   0.854   0.683 -0.3025 -0.0660  0.1085
 5735TIP3    H117211   1.894   0.834   0.768 -0.2101 -0.6804  0.0102
 5735TIP3    H217212   1.865   0.834   0.619  0.4626 -2.1478 -0.1406
 5736TIP3   OH217213   0.978   0.931   2.126 -0.0674 -0.3240 -0.2809
 5736TIP3    H117214   0.946   0.844   2.152 -2.0854  0.3437 -0.3652
 5736TIP3    H217215   1.043   0.954   2.193 -0.2143 -1.4823  0.2776
 5737TIP3   OH217216   0.911   5.724   2.836  0.4141 -0.4335 -0.9394
 5737TIP3    H117217   0.826   5.680   2.828 -1.3942  2.7971 -1.0603
 5737TIP3    H217218   0.966   5.682   2.769 -1.5224 -1.6446 -1.8509
 5738TIP3   OH217219   2.723   0.332   3.376 -0.4381  0.2724  0.0119
 5738TIP3    H117220   2.720   0.376   3.461 -1.9953  0.1384  0.0493
 5738TIP3    H217221   2.716   0.239   3.397  2.8474 -0.1204 -0.0656
 5739TIP3   OH217222   2.808   4.942   0.137  0.0214  0.2120 -0.4037
 5739TIP3    H117223   2.882   4.997   0.109 -1.6554  2.0720 -1.3981
 5739TIP3    H217224   2.735   4.970   0.082 -1.9556 -0.1685  1.8784
 5740TIP3   OH217225   0.543   5.643   3.521  0.4235 -0.4257  0.8034
 5740TIP3    H117226   0.495   5.675   3.444  0.3820 -0.7878  0.6787
 5740TIP3    H217227   0.554   5.550   3.505 -0.4344 -0.6984  1.6778
 5741TIP3   OH217228   0.153   1.789   3.451 -0.3159 -0.2215  0.2468
 5741TIP3    H117229   0.069   1.748   3.432 -1.5610  1.4195  1.9547
 5741TIP3    H217230   0.156   1.865   3.392 -0.7852  0.6269  1.2949
 5742TIP3   OH217231   3.558   5.147   0.163  0.3366 -0.2309  0.2550
 5742TIP3    H117232   3.511   5.193   0.092 -0.0314 -0.8415  0.1015
 5742TIP3    H217233   3.499   5.152   0.238  1.9947  3.2194  1.5466
 5743TIP3   OH217234   5.686   0.837  -0.030 -0.0698 -0.4752  0.0062
 5743TIP3    H117235   5.660   0.763   0.025  1.4339  0.0491  1.4940
 5743TIP3    H217236   5.732   0.896   0.029 -1.2262  1.6971 -1.1440
 5744TIP3   OH217237   1.621   4.575   0.263  0.0692 -0.6604  0.0483
 5744TIP3    H117238   1.684   4.645   0.283 -2.0333  1.4921 -0.5062
 5744TIP3    H217239   1.618   4.572   0.167  1.4398 -2.8535 -0.0072
 5745TIP3   OH217240   2.524   0.430   4.356 -0.3858 -0.2846  0.2792
 5745TIP3    H117241   2.511   0.439   4.450  1.8607 -0.0813  0.6345
 5745TIP3    H217242   2.614   0.460   4.341 -0.8223  0.1034 -2.0031
 5746TIP3   OH217243   5.335   4.137   2.717 -0.3374 -0.1451 -0.3259
 5746TIP3    H117244   5.365   4.046   2.717 -1.3976 -0.5170  0.7062
 5746TIP3    H217245   5.333   4.162   2.624  1.3077 -0.6910 -0.5399
 5747TIP3   OH217246   2.491   0.649   3.199  0.2964 -0.2717  0.9216
 5747TIP3    H117247   2.472   0.658   3.106  1.6030 -1.7636  0.4685
 5747TIP3    H217248   2.426   0.586   3.230  1.9375 -2.4428  0.2032
 5748TIP3   OH217249   1.566   5.758   2.809  0.6082 -0.6676  0.2403
 5748TIP3    H117250   1.538   5.827   2.868 -1.8866 -2.3098  1.1316
 5748TIP3    H217251   1.616   5.803   2.740  0.4883  1.7373  1.6434
 5749TIP3   OH217252   3.979   2.652   1.734  0.0071 -0.5357 -0.3244
 5749TIP3    H117253   3.893   2.642   1.775 -1.3597  1.2122 -2.5093
 5749TIP3    H217254   4.029   2.577   1.764 -2.3254 -1.6855  0.9525
 5750TIP3   OH217255   5.788   4.065   4.080 -0.3551 -0.0784  0.1801
 5750TIP3    H117256   5.829   4.011   4.012 -1.0176  0.0564 -0.3356
 5750TIP3    H217257   5.790   4.010   4.159  0.2632 -0.3021  0.0165
 5751TIP3   OH217258   1.640   2.126   2.783  0.0341 -0.6467  0.2263
 5751TIP3    H117259   1.608   2.043   2.747 -1.5391  0.0738 -0.1428
 5751TIP3    H217260   1.585   2.192   2.742  2.1557  0.7284 -0.5125
 5752TIP3   OH217261   4.339   3.035   0.491  0.1040 -0.4762  0.3655
 5752TIP3    H117262   4.305   3.095   0.558 -0.8346 -0.2023 -0.3272
 5752TIP3    H217263   4.268   3.028   0.428  1.2477 -0.1456 -0.9917
 5753TIP3   OH217264   0.027   3.501   1.529 -0.1981 -0.6061  0.2075
 5753TIP3    H117265  -0.055   3.541   1.556 -1.3733 -2.2362 -0.7534
 5753TIP3    H217266   0.052   3.445   1.603 -0.6746 -1.1190 -0.0121
 5754TIP3   OH217267   3.128   4.837   2.469  0.5307 -0.3904  0.5472
 5754TIP3    H117268   3.220   4.811   2.468  0.4713 -0.5911  0.1193
 5754TIP3    H217269   3.131   4.932   2.452  0.6902 -0.2667  1.2043
 5755TIP3   OH217270   2.191   0.679   4.844  0.3023 -0.0503 -0.4515
 5755TIP3    H117271   2.102   0.714   4.838  0.3826 -0.0013 -1.3942
 5755TIP3    H217272   2.230   0.727   4.918  0.4685  2.0076 -1.7960
 5756TIP3   OH217273   4.040   2.635   2.738  0.3273 -0.1823 -0.2232
 5756TIP3    H117274   4.109   2.688   2.777  0.7268 -1.6232  1.1083
 5756TIP3    H217275   4.085   2.558   2.703 -0.5110 -0.8440  0.1099
 5757TIP3   OH217276   1.182   2.877   4.580  0.0083 -0.2168 -0.1942
 5757TIP3    H117277   1.250   2.905   4.641 -0.2139 -2.3749  1.1308
 5757TIP3    H217278   1.104   2.866   4.634 -0.8578  0.2268 -1.3257
 5758TIP3   OH217279   5.032   2.285   3.228  0.6739  0.0451  0.0230
 5758TIP3    H117280   4.992   2.276   3.142  1.1287  1.4308 -0.3497
 5758TIP3    H217281   5.009   2.373   3.257 -0.6586 -0.8499  1.9557
 5759TIP3   OH217282   0.662   3.726   2.697 -0.0094 -0.0137 -0.3019
 5759TIP3    H117283   0.651   3.737   2.602 -1.0095  0.6672 -0.1266
 5759TIP3    H217284   0.576   3.748   2.734  0.2810 -0.5462  0.7502
 5760TIP3   OH217285   1.034   2.407   0.315  0.1413 -0.3158  0.1776
 5760TIP3    H117286   1.129   2.419   0.322  0.3905 -1.2604 -1.1189
 5760TIP3    H217287   1.014   2.337   0.378  0.1800  0.3952  0.9860
 5761TIP3   OH217288   4.531   3.808   1.925  0.1780 -0.6662  0.3586
 5761TIP3    H117289   4.460   3.872   1.924  1.7861  1.1907 -0.0833
 5761TIP3    H217290   4.506   3.747   1.995 -2.0330 -0.3450 -0.0683
 5762TIP3   OH217291   3.810   0.050   2.567 -0.3733  0.1678 -0.0273
 5762TIP3    H117292   3.857  -0.031   2.585  0.8413  1.1194  1.3491
 5762TIP3    H217293   3.719   0.024   2.554  0.1941 -1.5186 -0.7793
 5763TIP3   OH217294   2.637   3.391   3.788 -0.1206 -0.3334 -0.3425
 5763TIP3    H117295   2.621   3.468   3.841  0.2619  2.0470 -3.3907
 5763TIP3    H217296   2.708   3.345   3.833 -0.3950  1.0310  1.5843
 5764TIP3   OH217297   4.945   3.808   0.862  0.2696  0.4286  0.4606
 5764TIP3    H117298   5.004   3.873   0.825  0.2859  0.0765 -0.1492
 5764TIP3    H217299   4.879   3.859   0.909 -0.0025  0.9165 -0.4264
 5765TIP3   OH217300   4.226   5.594   0.823 -0.3920 -0.2887 -0.1966
 5765TIP3    H117301   4.301   5.542   0.851 -1.8621 -1.8215  1.0821
 5765TIP3    H217302   4.170   5.599   0.901 -1.6688  0.7405 -1.1380
 5766TIP3   OH217303   4.296   2.001   3.666  0.0877 -0.1017  0.4066
 5766TIP3    H117304   4.246   2.076   3.635  0.3567 -0.4939 -1.0375
 5766TIP3    H217305   4.255   1.978   3.750 -1.5798  0.1279 -0.3109
 5767TIP3   OH217306   0.657   4.346   0.929 -0.2281  0.3769  0.7992
 5767TIP3    H117307   0.746   4.373   0.951  0.1146  0.4339 -0.5890
 5767TIP3    H217308   0.661   4.322   0.836 -1.7701  0.8735  0.5776
 5768TIP3   OH217309   5.632   1.310   4.057 -0.4803  0.0557 -0.1764
 5768TIP3    H117310   5.667   1.344   4.139  0.7741  2.0455 -1.4307
 5768TIP3    H217311   5.539   1.332   4.059 -0.2900  0.8556  0.3833
 5769TIP3   OH217312   2.594   2.311   5.118 -0.1922  0.1547 -0.2757
 5769TIP3    H117313   2.552   2.392   5.148 -1.1989 -0.0441 -1.1072
 5769TIP3    H217314   2.638   2.336   5.037 -0.6042 -0.1531 -0.5969
 5770TIP3   OH217315   3.644   5.668   2.359  0.2213 -0.0441  0.2632
 5770TIP3    H117316   3.698   5.744   2.337 -0.8635  0.3133 -1.3664
 5770TIP3    H217317   3.667   5.603   2.293  1.2457 -1.2405  1.7345
 5771TIP3   OH217318   0.778   5.334   2.877  0.1430  0.7028 -0.2628
 5771TIP3    H117319   0.730   5.382   2.809 -1.6495  0.0459  0.4784
 5771TIP3    H217320   0.717   5.330   2.951  2.3657  2.2270  1.8014
 5772TIP3   OH217321   0.389   4.651   1.446 -0.9351 -0.2398  0.1628
 5772TIP3    H117322   0.480   4.680   1.451 -1.4056  1.3271  0.2162
 5772TIP3    H217323   0.363   4.637   1.537 -1.5385  2.1034  0.4383
 5773TIP3   OH217324   3.548   1.601   1.837 -0.3857 -0.0648  0.0326
 5773TIP3    H117325   3.532   1.581   1.745  0.1995  0.2064 -0.1281
 5773TIP3    H217326   3.630   1.556   1.858 -0.1477  0.4556  0.2289
 5774TIP3   OH217327   2.692   0.313   3.854 -0.2361  0.2498 -0.4907
 5774TIP3    H117328   2.785   0.328   3.836  0.5473 -0.4383  2.4468
 5774TIP3    H217329   2.690   0.282   3.945 -3.2171 -1.2142 -0.9489
 5775TIP3   OH217330   0.879   1.580   3.440  0.0992 -0.2951  0.0449
 5775TIP3    H117331   0.883   1.610   3.531  1.4391 -1.3319  0.3609
 5775TIP3    H217332   0.941   1.636   3.393 -1.5284  1.1191 -0.5601
 5776TIP3   OH217333   5.716   5.653   0.033  0.4894 -0.2708  0.0105
 5776TIP3    H117334   5.767   5.576   0.008  0.4350 -0.2987 -0.0164
 5776TIP3    H217335   5.653   5.664  -0.039  0.3118 -0.3707  0.1487
 5777TIP3   OH217336   6.319   2.466   3.859 -0.0649 -0.4740  0.2346
 5777TIP3    H117337   6.251   2.442   3.796  0.9077  0.0813 -1.0793
 5777TIP3    H217338   6.328   2.389   3.915 -1.2020 -0.8473 -0.0745
 5778TIP3   OH217339   3.292   1.157   0.515 -0.4751 -0.5300  0.1507
 5778TIP3    H117340   3.320   1.200   0.435 -0.6728 -1.2118 -0.2952
 5778TIP3    H217341   3.197   1.170   0.518 -0.5061 -0.7376  0.1242
 5779TIP3   OH217342   6.101   4.770   3.652  0.1211  0.2087  0.9245
 5779TIP3    H117343   6.121   4.693   3.706  0.7137  0.8265  1.6037
 5779TIP3    H217344   6.117   4.845   3.709  0.0458  0.8625  0.1119
 5780TIP3   OH217345   1.701   1.144   0.040 -0.2413 -0.3495  0.6229
 5780TIP3    H117346   1.732   1.234   0.050  2.1583 -1.1804  1.3845
 5780TIP3    H217347   1.774   1.098  -0.002 -1.2099 -2.0592  0.7217
 5781TIP3   OH217348   4.646   2.611   1.548 -0.8369 -0.3199  0.1816
 5781TIP3    H117349   4.619   2.648   1.632 -2.4697 -0.9865 -0.0265
 5781TIP3    H217350   4.655   2.686   1.490  0.2584  0.1443  0.9004
 5782TIP3   OH217351   0.205   4.927   1.886 -0.3642 -0.0658 -0.0794
 5782TIP3    H117352   0.181   4.954   1.798  3.3626 -1.0159 -1.5946
 5782TIP3    H217353   0.157   4.845   1.900 -2.9245  1.3248 -0.0585
 5783TIP3   OH217354   4.233   4.864   2.954 -0.2999  0.2628 -0.3375
 5783TIP3    H117355   4.243   4.777   2.993  2.4280  0.9086  0.6124
 5783TIP3    H217356   4.287   4.863   2.876  0.0532  1.2024 -0.1257
 5784TIP3   OH217357   0.194   1.271   1.047 -0.1153 -0.0671  0.0454
 5784TIP3    H117358   0.105   1.241   1.065  0.2331 -2.2753 -1.5609
 5784TIP3    H217359   0.182   1.346   0.988 -0.9162  1.2375  1.7705
 5785TIP3   OH217360   4.361   4.176   4.182  0.0117  0.3036  0.0574
 5785TIP3    H117361   4.303   4.250   4.168 -0.4489  0.6835  3.2250
 5785TIP3    H217362   4.326   4.132   4.260  0.7963 -2.7521 -1.1559
 5786TIP3   OH217363   1.101   2.762   4.882 -0.1252  0.3768 -0.8513
 5786TIP3    H117364   1.046   2.688   4.904 -0.1315  0.0062 -2.0540
 5786TIP3    H217365   1.160   2.772   4.957  0.3874 -1.3310 -0.9997
 5787TIP3   OH217366   0.314   5.554   0.973  0.6972 -0.1929  0.1674
 5787TIP3    H117367   0.326   5.543   0.879  1.3795 -1.1742  0.3542
 5787TIP3    H217368   0.288   5.646   0.984  1.0159  0.0372 -0.9344
 5788TIP3   OH217369   0.774   2.087   2.020  0.1769  0.0738  0.5104
 5788TIP3    H117370   0.755   2.089   1.926  0.7775  1.3503  0.3893
 5788TIP3    H217371   0.818   2.004   2.033  0.2298 -0.0551 -0.3784
 5789TIP3   OH217372   4.831   3.633   1.863  0.1477  0.1732  0.3368
 5789TIP3    H117373   4.904   3.585   1.904  1.1530 -1.1983 -2.7435
 5789TIP3    H217374   4.754   3.581   1.885  0.7766 -1.0249 -0.1570
 5790TIP3   OH217375   3.044   3.779   4.803  0.0317  0.8130 -0.0464
 5790TIP3    H117376   3.117   3.732   4.764  1.6795  2.2763  1.1145
 5790TIP3    H217377   2.977   3.712   4.816  1.8262 -0.9960  0.4803
 5791TIP3   OH217378   4.822   0.045   3.109 -0.7863 -0.3786  0.0642
 5791TIP3    H117379   4.876   0.115   3.147 -0.3220  0.7587 -2.4682
 5791TIP3    H217380   4.883  -0.028   3.099 -0.5030 -0.1404  0.0202
 5792TIP3   OH217381   3.378   0.796   3.760 -0.6760 -0.5045  0.3295
 5792TIP3    H117382   3.447   0.818   3.697 -1.2087 -0.4329 -0.2423
 5792TIP3    H217383   3.389   0.861   3.830  1.1921 -1.8238  1.3351
 5793TIP3   OH217384   2.516   1.113   0.582 -0.1493  0.2810  0.3261
 5793TIP3    H117385   2.464   1.085   0.658 -1.9252  1.2170 -0.4692
 5793TIP3    H217386   2.603   1.077   0.598 -1.0030 -1.3144  1.7798
 5794TIP3   OH217387   4.517   1.059   4.204 -0.0625  0.2537  0.0676
 5794TIP3    H117388   4.489   0.980   4.157 -0.0311  0.9149 -1.0884
 5794TIP3    H217389   4.600   1.034   4.245 -0.5063 -0.5892  0.5013
 5795TIP3   OH217390   4.856   4.556   0.712  0.0955 -0.0849 -0.2668
 5795TIP3    H117391   4.838   4.567   0.619 -0.9575  0.5653 -0.0025
 5795TIP3    H217392   4.921   4.624   0.732  2.8663 -2.2545 -1.1604
 5796TIP3   OH217393   5.707   3.524   4.152  0.5977  0.3732  0.3737
 5796TIP3    H117394   5.659   3.503   4.233 -2.2783  0.7999 -1.0838
 5796TIP3    H217395   5.747   3.441   4.127 -0.5886 -0.4183  0.9559
 5797TIP3   OH217396   1.773   3.172   3.840 -0.1336  0.0862 -0.5531
 5797TIP3    H117397   1.742   3.138   3.756  0.2699  1.2661 -1.2007
 5797TIP3    H217398   1.816   3.097   3.882  1.6399 -0.0034 -2.3788
 5798TIP3   OH217399   5.411   5.543   1.347  0.1419  0.5478 -0.1765
 5798TIP3    H117400   5.317   5.525   1.337  0.4749 -1.9013  0.3583
 5798TIP3    H217401   5.433   5.507   1.433  1.2136  2.9794  0.6685
 5799TIP3   OH217402   4.454   1.923   1.035  0.1640 -0.3444 -0.0397
 5799TIP3    H117403   4.524   1.901   1.095 -0.5163 -0.8572  0.5867
 5799TIP3    H217404   4.490   1.906   0.948  0.1721 -2.5769  0.3413
 5800TIP3   OH217405   3.431   2.568   1.370 -0.4513 -0.4285  0.1937
 5800TIP3    H117406   3.495   2.506   1.405  0.4463 -0.1297 -0.8506
 5800TIP3    H217407   3.426   2.547   1.277  0.4741  1.5272 -0.3697
 5801TIP3   OH217408   1.053   1.407   4.047  0.0694 -0.2885 -0.0820
 5801TIP3    H117409   1.059   1.314   4.023 -0.4182 -0.1105 -0.9037
 5801TIP3    H217410   0.960   1.426   4.044 -0.2330 -0.5867  3.2707
 5802TIP3   OH217411   1.691   2.726   3.335  0.5015  0.5079  0.2179
 5802TIP3    H117412   1.730   2.789   3.275 -0.7507  0.6541 -0.4842
 5802TIP3    H217413   1.705   2.641   3.293 -1.4791  0.7062 -1.0071
 5803TIP3   OH217414   5.935   3.027   1.414 -0.1952  0.2091  0.4259
 5803TIP3    H117415   6.028   3.039   1.393  0.0521 -0.1315  1.2633
 5803TIP3    H217416   5.894   3.004   1.331 -0.3426  4.4900 -0.9335
 5804TIP3   OH217417   1.691   0.952   1.298 -0.4657  0.7559 -0.0496
 5804TIP3    H117418   1.738   1.012   1.240  0.5669  1.0584  1.0685
 5804TIP3    H217419   1.729   0.966   1.384 -1.6834  0.0090  0.6430
 5805TIP3   OH217420   0.104   2.872   4.090 -0.3853  0.2232  0.0529
 5805TIP3    H117421   0.063   2.890   4.175 -1.8591  1.0810 -0.7831
 5805TIP3    H217422   0.198   2.876   4.107 -0.6415  0.1579  1.6753
 5806TIP3   OH217423   5.898   5.444   3.484 -0.2940 -0.3332 -0.3164
 5806TIP3    H117424   5.841   5.425   3.559  0.7978 -1.3297  0.2929
 5806TIP3    H217425   5.987   5.433   3.518  0.2279 -1.0478 -1.8094
 5807TIP3   OH217426   3.689   1.657   4.021  0.1176  0.4222  0.7445
 5807TIP3    H117427   3.706   1.576   4.070  0.5266  0.5237  0.7709
 5807TIP3    H217428   3.766   1.669   3.966 -0.8545 -0.3239 -0.8265
 5808TIP3   OH217429   5.661   2.118   1.610  0.3424  0.3272  0.3482
 5808TIP3    H117430   5.694   2.028   1.609 -0.6022 -0.0652 -2.0407
 5808TIP3    H217431   5.739   2.172   1.619  1.3257 -0.6829 -1.4460
 5809TIP3   OH217432   1.279   1.443   3.600  0.4824 -0.2397  0.3719
 5809TIP3    H117433   1.331   1.468   3.524  0.7929 -2.0508 -0.0612
 5809TIP3    H217434   1.205   1.394   3.564 -0.6850  0.9311  1.0976
 5810TIP3   OH217435   2.416   3.262   1.961  0.0306  0.1086  0.0662
 5810TIP3    H117436   2.333   3.229   1.995  0.2736  0.3155  0.8923
 5810TIP3    H217437   2.471   3.272   2.038  0.4035  1.1744 -0.3143
 5811TIP3   OH217438   5.245   0.561   0.183  0.5611  0.2766  0.3232
 5811TIP3    H117439   5.172   0.512   0.147  0.2069  0.0616  1.2935
 5811TIP3    H217440   5.277   0.615   0.111 -0.4149  0.2148 -0.1640
 5812TIP3   OH217441   2.999   3.162   0.631 -0.0954 -0.0995  0.2465
 5812TIP3    H117442   3.020   3.204   0.714  0.0031  0.2796  0.0347
 5812TIP3    H217443   2.979   3.235   0.572  1.4880 -0.2557 -0.5381
 5813TIP3   OH217444   0.088   3.318   0.267  0.5105 -0.1511 -0.2445
 5813TIP3    H117445   0.015   3.380   0.264  1.4931  1.0296 -0.8103
 5813TIP3    H217446   0.127   3.322   0.180  0.9461 -1.1588 -0.1155
 5814TIP3   OH217447   3.283   3.377   2.337  0.2748  0.4836 -0.0985
 5814TIP3    H117448   3.288   3.301   2.278  1.0775  1.0224 -0.7444
 5814TIP3    H217449   3.305   3.452   2.282  1.0931  1.0024  0.8817
 5815TIP3   OH217450   2.003   1.720   1.762  0.2048 -0.4441 -0.1132
 5815TIP3    H117451   1.952   1.784   1.812 -0.9673 -1.9056  0.6399
 5815TIP3    H217452   2.063   1.773   1.710  0.1560  1.2201  1.4192
 5816TIP3   OH217453   2.353   1.667   3.559  0.1733  0.2168  0.0944
 5816TIP3    H117454   2.268   1.634   3.532 -0.0816  1.1861 -0.3390
 5816TIP3    H217455   2.339   1.699   3.649  0.7668 -2.0629  1.0641
 5817TIP3   OH217456   1.603   3.209   4.070  0.1909 -0.4879 -0.2409
 5817TIP3    H117457   1.635   3.203   3.980  5.1485 -3.2311  1.2837
 5817TIP3    H217458   1.555   3.128   4.084 -1.4197  0.3691 -0.5466
 5818TIP3   OH217459   3.927   2.540   1.337  0.5669  0.3667 -0.0519
 5818TIP3    H117460   3.851   2.545   1.395  0.4399  0.3881 -0.2197
 5818TIP3    H217461   3.926   2.450   1.304 -0.6081  0.9329 -1.6907
 5819TIP3   OH217462   5.664   4.805   1.420  0.1987 -0.4124 -0.3178
 5819TIP3    H117463   5.636   4.811   1.329  0.1442 -0.5621 -0.3107
 5819TIP3    H217464   5.735   4.868   1.427 -1.2256  1.2253  0.0830
 5820TIP3   OH217465   1.431   3.252   2.593  0.1706 -0.3473 -0.3777
 5820TIP3    H117466   1.437   3.233   2.687  0.8166  0.2404 -0.2943
 5820TIP3    H217467   1.352   3.305   2.584  0.6487  0.4372 -0.0187
 5821TIP3   OH217468   1.644   5.470   5.013 -0.2362 -0.1315 -0.5249
 5821TIP3    H117469   1.624   5.436   4.926 -0.6869  0.5307 -0.6857
 5821TIP3    H217470   1.575   5.436   5.069 -1.6762  1.8248 -1.0033
 5822TIP3   OH217471   0.363   5.783   3.287 -0.0950  0.1841  0.4636
 5822TIP3    H117472   0.290   5.845   3.298 -0.4687 -0.4102  1.5264
 5822TIP3    H217473   0.410   5.815   3.211 -2.3279 -0.2476 -1.2178
 5823TIP3   OH217474   0.587   5.675   1.496 -0.7310 -0.0749 -0.2777
 5823TIP3    H117475   0.588   5.698   1.403 -2.2560  0.1475 -0.2720
 5823TIP3    H217476   0.654   5.731   1.535 -0.4307  0.2019 -1.1567
 5824TIP3   OH217477   5.609   5.134   3.448 -0.0877  0.4089 -0.3428
 5824TIP3    H117478   5.636   5.092   3.367  0.3215  1.9614 -1.0544
 5824TIP3    H217479   5.547   5.073   3.488 -0.1779 -0.4451 -1.7373
 5825TIP3   OH217480   4.904   5.640   2.036  0.6372 -0.9797  0.2088
 5825TIP3    H117481   4.889   5.660   1.944 -0.8409 -1.1431  0.3877
 5825TIP3    H217482   4.997   5.658   2.050  0.7417 -0.3571 -1.1543
 5826TIP3   OH217483   2.837   4.149   3.949 -0.0748  0.0070  0.0887
 5826TIP3    H117484   2.927   4.132   3.976  0.8029  2.1714 -1.2424
 5826TIP3    H217485   2.843   4.163   3.854 -1.9098 -0.2956 -0.1107
 5827TIP3   OH217486   0.382   3.660   2.974  0.7409 -0.4099  0.0255
 5827TIP3    H117487   0.473   3.691   2.976  0.3425  0.9107 -0.8690
 5827TIP3    H217488   0.359   3.647   3.065  1.1350  1.4412  0.4293
 5828TIP3   OH217489   4.562   0.064   1.965  0.3275 -0.5827  0.2189
 5828TIP3    H117490   4.530   0.115   2.040 -0.8206 -0.3837 -0.3783
 5828TIP3    H217491   4.596   0.129   1.904  1.4795 -0.7616  0.6424
 5829TIP3   OH217492   1.219   5.951   1.810 -0.3392  0.1088  0.3682
 5829TIP3    H117493   1.259   5.995   1.735  0.1105  0.3001  0.7159
 5829TIP3    H217494   1.190   5.867   1.775 -0.0774  0.1718 -0.0076
 5830TIP3   OH217495   3.898   0.676   1.505  0.2765 -0.4077  0.0966
 5830TIP3    H117496   3.825   0.648   1.449 -0.3666 -0.4253  0.9173
 5830TIP3    H217497   3.973   0.680   1.446 -0.1822 -1.3052 -0.5717
 5831TIP3   OH217498   2.713   2.200   2.422 -0.1991  0.0883  0.1521
 5831TIP3    H117499   2.688   2.114   2.454 -2.1827  1.0347  1.3368
 5831TIP3    H217500   2.632   2.238   2.388  1.0675  0.6389 -2.5568
 5832TIP3   OH217501   1.372   2.081   3.634  0.0893  0.3100 -0.1508
 5832TIP3    H117502   1.457   2.089   3.592  0.6726  0.8792  1.0931
 5832TIP3    H217503   1.349   1.988   3.624  2.5705 -0.7477  2.6094
 5833TIP3   OH217504   1.665   5.060   0.446  1.0003 -0.1491 -0.2827
 5833TIP3    H117505   1.708   5.096   0.369 -1.2065  0.6140 -1.2457
 5833TIP3    H217506   1.655   5.135   0.505 -1.6083  0.4546 -1.3552
 5834TIP3   OH217507   2.332   1.933   0.644  0.2157  0.2792  0.1407
 5834TIP3    H117508   2.263   1.900   0.587 -0.7593  1.7087  0.4375
 5834TIP3    H217509   2.413   1.912   0.598 -0.4236 -0.9922 -0.4536
 5835TIP3   OH217510   0.261   0.276   3.278 -0.5257 -0.2949 -0.1679
 5835TIP3    H117511   0.197   0.346   3.268 -1.3998 -1.2927 -2.4961
 5835TIP3    H217512   0.213   0.206   3.322 -1.0304 -0.9526 -1.6941
 5836TIP3   OH217513   4.969   2.559   4.451 -0.0008 -0.1093  0.3760
 5836TIP3    H117514   4.993   2.622   4.519  2.1453  1.0302 -1.3200
 5836TIP3    H217515   4.978   2.607   4.369  0.1877 -2.1894 -0.8932
 5837TIP3   OH217516   3.315   3.993   1.998 -0.3276  0.3402 -0.0061
 5837TIP3    H117517   3.236   3.979   2.049  0.7491 -1.9953  1.1674
 5837TIP3    H217518   3.385   3.956   2.051  0.9931 -1.4247 -2.7455
 5838TIP3   OH217519   0.932   5.030   0.480 -0.0388 -0.1263 -0.1970
 5838TIP3    H117520   0.839   5.054   0.485  0.1364  0.4535  0.3770
 5838TIP3    H217521   0.945   5.004   0.388 -0.9359 -0.9447 -0.1138
 5839TIP3   OH217522   0.055   3.319   2.813 -0.4821  0.9371 -0.0700
 5839TIP3    H117523   0.105   3.351   2.889 -0.2429  1.7289 -0.5501
 5839TIP3    H217524  -0.035   3.316   2.845 -0.2961  0.6540  0.4413
 5840TIP3   OH217525   1.700   0.497   3.313  0.5396  0.8260 -0.1505
 5840TIP3    H117526   1.612   0.526   3.292  0.1799  1.1219  1.5929
 5840TIP3    H217527   1.734   0.461   3.231 -0.5883  2.1979 -1.2588
 5841TIP3   OH217528   4.118   1.159   1.275  0.5943  0.6577  0.5130
 5841TIP3    H117529   4.058   1.089   1.304  2.5054 -1.1870  0.2619
 5841TIP3    H217530   4.068   1.207   1.209 -1.8789  1.5261  2.8275
 5842TIP3   OH217531   0.658   0.600   5.112  0.3580  0.6663  0.3080
 5842TIP3    H117532   0.745   0.579   5.146  0.2009 -1.5992 -0.5171
 5842TIP3    H217533   0.675   0.651   5.032  0.9776 -0.2232 -0.1471
 5843TIP3   OH217534   3.674   2.147   3.991  0.1637  0.2806  0.0059
 5843TIP3    H117535   3.741   2.088   4.026 -0.9111 -0.5326  0.7311
 5843TIP3    H217536   3.591   2.107   4.015 -0.6323  0.3481 -2.3764
 5844TIP3   OH217537   3.704   0.623   2.493  0.2322 -0.3974 -0.0939
 5844TIP3    H117538   3.760   0.552   2.525  0.8874 -1.2910 -2.9315
 5844TIP3    H217539   3.741   0.702   2.531  2.1426 -1.1732 -0.2224
 5845TIP3   OH217540   4.526   4.614   1.827 -0.1743  0.1446  1.0676
 5845TIP3    H117541   4.524   4.662   1.744 -1.8251  1.3601  1.7633
 5845TIP3    H217542   4.519   4.522   1.801  2.6910  0.1899 -0.2636
 5846TIP3   OH217543   4.769   1.314   0.812 -0.5426  0.2032 -0.1641
 5846TIP3    H117544   4.826   1.239   0.827 -0.9478  0.0077  0.4434
 5846TIP3    H217545   4.825   1.379   0.771  0.0522 -0.0841  0.1765
 5847TIP3   OH217546   0.826   3.111   0.407  0.2042  0.0227  0.3062
 5847TIP3    H117547   0.844   3.067   0.324  2.5654  1.1931  0.1263
 5847TIP3    H217548   0.739   3.080   0.432  0.9922 -3.3362 -0.6387
 5848TIP3   OH217549   1.034   1.436   2.894  0.2093  1.0529 -0.6051
 5848TIP3    H117550   0.949   1.397   2.876  0.9764 -0.8852 -0.2653
 5848TIP3    H217551   1.047   1.500   2.823 -1.4554  1.3153 -0.7100
 5849TIP3   OH217552   4.569   5.638   2.399 -0.1729  0.5625 -0.0207
 5849TIP3    H117553   4.578   5.591   2.481 -2.1248  2.5321  1.4290
 5849TIP3    H217554   4.614   5.722   2.414  0.0217  0.6897 -1.2012
 5850TIP3   OH217555   3.030   3.197   1.314 -0.0061  0.1839 -0.0128
 5850TIP3    H117556   2.953   3.173   1.366  0.0586 -0.7531 -0.3343
 5850TIP3    H217557   3.105   3.175   1.369  0.0491  0.1339 -0.1081
 5851TIP3   OH217558   5.844   2.716   3.370  0.1969  0.0183  1.2336
 5851TIP3    H117559   5.829   2.800   3.325 -1.1824 -0.5143  0.6602
 5851TIP3    H217560   5.815   2.732   3.460 -2.8937 -0.6015  0.4700
 5852TIP3   OH217561   3.184   5.894   1.690 -0.2419  0.3500  0.0837
 5852TIP3    H117562   3.172   5.959   1.621 -0.9755 -1.5132 -1.6479
 5852TIP3    H217563   3.264   5.848   1.665  0.0925  0.3487  1.1080
 5853TIP3   OH217564   2.635   1.433   3.227  0.2041 -0.4282 -0.0152
 5853TIP3    H117565   2.557   1.378   3.224  0.2075 -0.3781 -1.5022
 5853TIP3    H217566   2.697   1.389   3.169  0.6440  0.5033 -0.2605
 5854TIP3   OH217567   2.112   0.747   1.105 -0.2985 -0.1148 -0.1870
 5854TIP3    H117568   2.153   0.804   1.171 -3.4226  0.2801  1.6284
 5854TIP3    H217569   2.102   0.663   1.150 -2.4652  0.1573 -0.0643
 5855TIP3   OH217570   4.511   1.468   3.372 -0.0997  0.0694  0.0636
 5855TIP3    H117571   4.602   1.438   3.376 -0.1605 -0.7638 -2.7045
 5855TIP3    H217572   4.462   1.402   3.421  0.2807 -2.4018 -2.5766
 5856TIP3   OH217573   3.539   5.897   1.249 -0.2914  0.1715 -0.3067
 5856TIP3    H117574   3.621   5.945   1.246 -0.2944  0.1464 -2.6544
 5856TIP3    H217575   3.478   5.950   1.197 -1.2786 -0.6376 -0.0143
 5857TIP3   OH217576   3.343   4.683   3.808  0.6220  1.0688  0.2709
 5857TIP3    H117577   3.274   4.699   3.743  1.5062  0.4208 -0.8529
 5857TIP3    H217578   3.419   4.729   3.774  0.7257  1.9234  1.5985
 5858TIP3   OH217579   1.047   5.716   4.079  0.2594 -0.2624 -0.2222
 5858TIP3    H117580   1.137   5.687   4.094  0.3880  0.4016  0.3627
 5858TIP3    H217581   1.009   5.649   4.022  0.4948 -1.6718  1.1952
 5859TIP3   OH217582   1.691   2.662   3.745 -0.7444 -0.3140 -0.5032
 5859TIP3    H117583   1.712   2.593   3.682  0.5978 -1.1863  0.8384
 5859TIP3    H217584   1.595   2.665   3.746 -0.8090 -1.1405 -1.6452
 5860TIP3   OH217585   5.592   3.416   4.461  0.3897 -0.3025 -0.1699
 5860TIP3    H117586   5.526   3.371   4.407 -0.5426  0.1838  0.5390
 5860TIP3    H217587   5.637   3.345   4.507  0.1902 -0.6320 -0.4761
 5861TIP3   OH217588   4.702   0.169   0.803 -0.1071  0.2178 -0.5842
 5861TIP3    H117589   4.627   0.227   0.794  0.3119  0.6994 -0.9895
 5861TIP3    H217590   4.737   0.160   0.714  0.1220 -0.2671 -0.4508
 5862TIP3   OH217591   5.875   4.041   4.938  0.5628  0.1558  0.1417
 5862TIP3    H117592   5.843   4.106   5.000 -1.5655 -0.5609 -0.1156
 5862TIP3    H217593   5.898   4.091   4.860 -0.5649  0.6632  0.1257
 5863TIP3   OH217594   1.577   1.669   0.910  0.6869 -0.3393  0.2348
 5863TIP3    H117595   1.588   1.734   0.979  1.6522  0.2485 -0.4637
 5863TIP3    H217596   1.650   1.683   0.850 -0.6915 -0.1351 -1.4860
 5864TIP3   OH217597   3.831   4.253   1.334  0.1483 -0.0466  0.4897
 5864TIP3    H117598   3.856   4.346   1.339  0.8285 -0.1842 -0.1864
 5864TIP3    H217599   3.871   4.213   1.411 -0.7661  0.3472  1.1913
 5865TIP3   OH217600   1.428   0.609  -0.000 -0.4113 -0.0435 -0.1431
 5865TIP3    H117601   1.466   0.655   0.075 -0.8113 -0.1736  0.1421
 5865TIP3    H217602   1.353   0.563   0.036  0.5388 -1.7317 -0.2288
 5866TIP3   OH217603   0.985   4.708   4.526 -0.2630  0.4596 -0.3330
 5866TIP3    H117604   0.918   4.643   4.506  0.2166 -1.0603  2.5127
 5866TIP3    H217605   1.064   4.677   4.481 -0.0926 -0.8558  0.8333
 5867TIP3   OH217606   3.716   5.875   0.959 -0.2535 -0.6418 -0.1463
 5867TIP3    H117607   3.800   5.847   0.996  0.2738  0.3554 -0.5519
 5867TIP3    H217608   3.739   5.912   0.874 -1.1730 -0.7697 -0.4648
 5868TIP3   OH217609   0.065   0.454   2.965  0.1310 -0.3734 -0.7291
 5868TIP3    H117610   0.109   0.539   2.957  0.7997 -0.8102 -1.8068
 5868TIP3    H217611   0.025   0.440   2.879  1.8196 -2.1106 -1.2832
 5869TIP3   OH217612   5.646   3.957   1.240  0.0552 -0.3309  0.2387
 5869TIP3    H117613   5.665   3.891   1.306 -0.4459 -1.3108 -0.5565
 5869TIP3    H217614   5.718   4.019   1.246  0.7637 -1.1737  0.7388
 5870TIP3   OH217615   1.247   0.977   2.582  0.1678 -0.6295  0.3170
 5870TIP3    H117616   1.322   1.004   2.530 -1.4633  2.7971 -0.4970
 5870TIP3    H217617   1.253   1.029   2.662  0.4428 -2.8892  1.8577
 5871TIP3   OH217618   0.211   5.277   1.952 -0.1087  0.2197  0.5647
 5871TIP3    H117619   0.167   5.361   1.944 -1.2541 -0.4397 -0.2302
 5871TIP3    H217620   0.142   5.216   1.977  0.1293 -1.0049 -1.5268
 5872TIP3   OH217621   0.210   4.859   0.640 -0.4298 -0.3181  0.1092
 5872TIP3    H117622   0.179   4.944   0.669 -0.6703  0.2001 -1.5539
 5872TIP3    H217623   0.140   4.825   0.585 -0.0943 -1.3485  0.2838
 5873TIP3   OH217624   4.647   3.495   2.039  0.1156  0.2658 -0.2462
 5873TIP3    H117625   4.565   3.518   1.995 -0.1922 -0.1183  0.1306
 5873TIP3    H217626   4.657   3.401   2.024 -0.1729  0.0561  0.8044
 5874TIP3   OH217627   2.093   5.976   0.560  0.1857  0.1139  0.5408
 5874TIP3    H117628   2.057   6.007   0.476 -0.4818 -0.1883  0.7052
 5874TIP3    H217629   2.037   5.901   0.583  0.8789 -0.3140  0.8544
 5875TIP3   OH217630   3.135   3.030   1.067  0.3379  0.4776  0.2405
 5875TIP3    H117631   3.108   2.999   1.154  0.1592  0.8333  0.3157
 5875TIP3    H217632   3.101   3.119   1.063 -2.0975 -0.4138 -1.2570
 5876TIP3   OH217633   6.001   1.682   3.721  0.1456 -0.0745 -0.3591
 5876TIP3    H117634   6.061   1.740   3.768  0.7225  0.5999 -1.8494
 5876TIP3    H217635   6.036   1.594   3.737 -1.7768 -0.3453  3.4313
 5877TIP3   OH217636   5.161   5.812   5.053  0.1647 -0.0464 -0.3473
 5877TIP3    H117637   5.162   5.840   4.962  0.0670 -0.5236 -0.4962
 5877TIP3    H217638   5.069   5.800   5.074  0.2220 -0.6930 -0.4274
 5878TIP3   OH217639   3.510   5.692   3.032  0.1952  0.2466  0.3684
 5878TIP3    H117640   3.451   5.766   3.047  0.8502  1.3831 -2.2007
 5878TIP3    H217641   3.591   5.717   3.075  0.2079  0.7264  0.0679
 5879TIP3   OH217642   6.118   4.217   0.456 -0.2661  0.3428 -0.3005
 5879TIP3    H117643   6.109   4.216   0.551  0.1270 -0.1251 -0.2628
 5879TIP3    H217644   6.189   4.155   0.438  0.0542  0.8592 -0.8535
 5880TIP3   OH217645   5.451   2.816   0.502  0.6178  0.0122  0.2228
 5880TIP3    H117646   5.523   2.810   0.438  1.0417  0.4070  0.6521
 5880TIP3    H217647   5.487   2.869   0.573  0.2549 -0.6805  0.9306
 5881TIP3   OH217648   3.750   2.064   4.705  0.0155 -0.1968 -0.2453
 5881TIP3    H117649   3.693   2.007   4.654 -0.2144  0.2575 -0.4992
 5881TIP3    H217650   3.714   2.152   4.693 -0.0014 -0.0731  0.6422
 5882TIP3   OH217651   3.544   0.738   5.175 -0.2887  0.5959 -0.3727
 5882TIP3    H117652   3.606   0.786   5.231 -0.1676 -1.2219  1.1054
 5882TIP3    H217653   3.587   0.737   5.089  1.8101 -0.6134  0.6078
 5883TIP3   OH217654   0.230   1.040   3.084  0.6590  0.0826  0.1527
 5883TIP3    H117655   0.187   1.004   3.006  0.4042  0.8137 -0.0475
 5883TIP3    H217656   0.297   0.975   3.105 -0.8088 -1.3199  0.7445
 5884TIP3   OH217657   4.661   5.436   3.433 -0.4127  0.8073 -0.2401
 5884TIP3    H117658   4.692   5.518   3.394  0.2188  1.8936  2.3408
 5884TIP3    H217659   4.739   5.394   3.468 -1.2198  1.9306  3.3801
 5885TIP3   OH217660   5.594   3.771   1.858 -0.0908  0.1545  0.0718
 5885TIP3    H117661   5.523   3.721   1.898 -1.1935  0.5484 -1.3044
 5885TIP3    H217662   5.553   3.817   1.785  0.9662  2.7394  0.9989
 5886TIP3   OH217663   1.334   4.173   0.960 -0.0040  0.1383  0.2054
 5886TIP3    H117664   1.298   4.151   1.046  2.5216  1.0922  1.6162
 5886TIP3    H217665   1.324   4.268   0.953  1.0400  0.2499  0.0765
 5887TIP3   OH217666   0.140   3.956   0.568 -0.0857  0.1462 -0.5991
 5887TIP3    H117667   0.228   3.922   0.585 -1.1721 -2.1121  1.1669
 5887TIP3    H217668   0.084   3.877   0.566 -2.2171  1.5734 -0.5537
 5888TIP3   OH217669   3.063   1.740   5.001  0.0427  0.2124 -0.1045
 5888TIP3    H117670   3.093   1.816   5.051  0.9026 -0.7534  0.9215
 5888TIP3    H217671   3.018   1.686   5.065 -2.0358  0.5964 -1.1769
 5889TIP3   OH217672   1.530   1.167   0.731 -0.4533  0.1114 -0.5032
 5889TIP3    H117673   1.625   1.177   0.735 -0.2573 -1.8671  0.7966
 5889TIP3    H217674   1.515   1.099   0.666 -1.0631  1.0007 -1.3265
 5890TIP3   OH217675   5.578   4.414   0.459 -0.0915  0.5016  0.2711
 5890TIP3    H117676   5.657   4.437   0.410  0.7257  0.5057  1.5274
 5890TIP3    H217677   5.533   4.350   0.404  1.5498 -0.6182  0.1681
 5891TIP3   OH217678   3.100   4.091   2.820 -0.0866  0.3148  0.5192
 5891TIP3    H117679   3.038   4.040   2.871  1.1065 -3.3516 -1.3588
 5891TIP3    H217680   3.046   4.137   2.755 -1.1150  0.5775  1.5338
 5892TIP3   OH217681   4.112   0.713   4.700  0.2008 -0.0421  0.3862
 5892TIP3    H117682   4.127   0.618   4.697 -0.1331 -0.0963  0.3393
 5892TIP3    H217683   4.043   0.724   4.765  1.3191  0.3184  1.5470
 5893TIP3   OH217684   0.936   5.633   1.699  0.7556 -0.2270  0.1765
 5893TIP3    H117685   0.947   5.710   1.642 -0.1190  0.5962  1.0916
 5893TIP3    H217686   0.877   5.576   1.650 -1.4852  1.2857  0.9764
 5894TIP3   OH217687   2.562   5.835   3.965  0.2908 -0.5282 -0.0544
 5894TIP3    H117688   2.533   5.911   4.015 -2.2739 -1.0833 -0.5114
 5894TIP3    H217689   2.602   5.871   3.886 -0.6399  0.3868 -0.1258
 5895TIP3   OH217690   3.409   1.234   4.514  0.1086  0.4014 -0.3244
 5895TIP3    H117691   3.356   1.303   4.554 -0.7911  0.1062 -0.9859
 5895TIP3    H217692   3.470   1.208   4.583 -0.4569  0.8978  0.3789
 5896TIP3   OH217693   2.572   3.446   3.506 -1.0846 -0.1288  0.3876
 5896TIP3    H117694   2.573   3.425   3.599  0.6732 -1.7053  0.0713
 5896TIP3    H217695   2.659   3.422   3.475 -1.4624  0.8486 -1.5752
 5897TIP3   OH217696   2.349   5.843   2.951 -0.6145  0.3541  0.3950
 5897TIP3    H117697   2.299   5.811   2.875  2.0068  1.0955 -1.7919
 5897TIP3    H217698   2.358   5.937   2.935  2.8323  0.0321 -0.3011
 5898TIP3   OH217699   0.746   0.318   4.451  0.0034 -0.1282  0.8231
 5898TIP3    H117700   0.693   0.398   4.449 -0.1697 -0.1979 -1.8383
 5898TIP3    H217701   0.825   0.342   4.499 -1.2056  0.7948  2.4497
 5899TIP3   OH217702   2.123   2.381   2.809 -0.2014  0.1346  0.4168
 5899TIP3    H117703   2.066   2.453   2.783 -0.8038 -0.2963  0.5001
 5899TIP3    H217704   2.196   2.383   2.747 -0.0943  0.9478  0.5648
 5900TIP3   OH217705   2.220   4.631   4.628 -0.2280 -0.4375  0.0175
 5900TIP3    H117706   2.236   4.715   4.670 -0.6052 -0.5769  0.4488
 5900TIP3    H217707   2.241   4.566   4.695 -1.1461 -0.6512  0.1216
 5901TIP3   OH217708   1.451   2.993   4.118 -0.9556 -0.3262  0.4382
 5901TIP3    H117709   1.380   2.990   4.182 -3.3975  1.9149 -1.8621
 5901TIP3    H217710   1.433   2.919   4.060 -1.3115  0.0803  0.0152
 5902TIP3   OH217711   0.541   5.171   0.050  0.6927 -0.4332 -0.5202
 5902TIP3    H117712   0.589   5.241   0.006  0.8153 -1.3019 -1.7958
 5902TIP3    H217713   0.449   5.193   0.038  0.7349 -0.3075 -0.6074
 5903TIP3   OH217714   2.206   2.511   4.510  0.5685 -0.0534 -0.0093
 5903TIP3    H117715   2.128   2.522   4.456  0.5854 -1.8296 -0.4570
 5903TIP3    H217716   2.174   2.475   4.593  0.9674 -1.9067 -0.6108
 5904TIP3   OH217717   2.214   2.173   2.973  0.0279 -0.1362  0.0548
 5904TIP3    H117718   2.213   2.244   2.908 -0.9558 -0.6890 -0.5614
 5904TIP3    H217719   2.188   2.095   2.924 -0.1227 -0.6876  0.9845
 5905TIP3   OH217720   3.083   4.547   0.249 -0.6300  0.1201  0.1971
 5905TIP3    H117721   3.048   4.528   0.162  1.5113  0.3913 -0.7919
 5905TIP3    H217722   3.117   4.637   0.243 -0.8863  0.3286  1.4691
 5906TIP3   OH217723   0.121   0.241   4.528 -0.3305  0.5906  0.4506
 5906TIP3    H117724   0.147   0.333   4.526  1.7984  0.0738 -2.6573
 5906TIP3    H217725   0.204   0.193   4.539 -1.0501 -0.9966 -0.6558
 5907TIP3   OH217726   3.739   3.389   0.590 -0.1967  0.3523 -0.4197
 5907TIP3    H117727   3.789   3.413   0.668 -0.5743  0.1630 -0.1130
 5907TIP3    H217728   3.681   3.319   0.619 -2.4507  2.2071 -0.0676
 5908TIP3   OH217729   1.129   0.390   0.855 -0.1805  0.1981 -0.2031
 5908TIP3    H117730   1.141   0.465   0.796 -0.1099  0.0500 -0.3809
 5908TIP3    H217731   1.203   0.396   0.916 -0.3726  0.4728  0.0028
 5909TIP3   OH217732   3.877   3.606   0.486 -0.2792 -0.2124  0.4540
 5909TIP3    H117733   3.839   3.522   0.513 -1.3313 -0.8182 -2.4897
 5909TIP3    H217734   3.808   3.670   0.501  0.2430  0.0339  1.9586
 5910TIP3   OH217735   6.226   2.666   2.813  0.0970 -0.3186  0.4332
 5910TIP3    H117736   6.178   2.600   2.863  0.9833 -0.8587  0.6065
 5910TIP3    H217737   6.201   2.650   2.722 -0.0292 -0.6126  0.5180
 5911TIP3   OH217738   3.262   2.507   2.152  0.1173  0.0301  0.6137
 5911TIP3    H117739   3.204   2.576   2.183 -1.4857 -0.8870 -0.2650
 5911TIP3    H217740   3.236   2.429   2.201  1.9109 -0.0155  1.6050
 5912TIP3   OH217741   2.597   5.477   1.992 -0.1287 -0.3270 -0.8441
 5912TIP3    H117742   2.550   5.551   1.954  0.6010 -0.0294 -1.1911
 5912TIP3    H217743   2.617   5.420   1.918 -0.8574 -0.9866 -0.5526
 5913TIP3   OH217744   5.099   0.829   0.279 -0.1760 -0.1621  0.1144
 5913TIP3    H117745   5.155   0.822   0.203 -0.7299 -1.4776 -0.1936
 5913TIP3    H217746   5.134   0.766   0.342 -1.3334 -1.0651 -0.1174
 5914TIP3   OH217747   4.113   4.341   5.077 -0.6491 -0.0284 -0.0619
 5914TIP3    H117748   4.163   4.376   5.150  2.0453 -1.5891 -1.0085
 5914TIP3    H217749   4.105   4.414   5.015  2.0775 -0.1185 -0.6337
 5915TIP3   OH217750   2.350   4.533   2.696  0.1577 -0.1391 -0.3100
 5915TIP3    H117751   2.434   4.558   2.659 -0.5544 -0.6344 -2.4139
 5915TIP3    H217752   2.290   4.529   2.621 -1.5323 -0.6937  0.9764
 5916TIP3   OH217753   4.060   3.748   0.921 -0.2874 -0.6918 -0.1207
 5916TIP3    H117754   4.073   3.788   0.835  1.8304  2.1455  1.3397
 5916TIP3    H217755   4.149   3.733   0.954 -1.0389 -1.5551  1.6470
 5917TIP3   OH217756   4.327   1.152   0.722  0.1919  0.1693 -0.2066
 5917TIP3    H117757   4.406   1.155   0.668  1.3101 -1.9650  1.1839
 5917TIP3    H217758   4.275   1.082   0.684  1.4217 -2.0223  1.8715
 5918TIP3   OH217759   1.251   2.514   1.504 -0.8964  0.4283  0.2034
 5918TIP3    H117760   1.167   2.518   1.549 -0.7467  1.4524  0.4290
 5918TIP3    H217761   1.261   2.600   1.464  1.1307  1.2443  2.2304
 5919TIP3   OH217762   5.495   5.615   2.499  0.7064  0.2727 -0.1575
 5919TIP3    H117763   5.513   5.595   2.591 -1.5248 -0.7390  0.1265
 5919TIP3    H217764   5.507   5.531   2.454  0.7600  0.5295 -0.6334
 5920TIP3   OH217765   4.599   3.922   2.446 -0.2989 -0.2390  0.1928
 5920TIP3    H117766   4.607   3.866   2.523 -0.7993 -0.1214  0.3332
 5920TIP3    H217767   4.689   3.945   2.423 -0.1332 -0.5124  0.5648
 5921TIP3   OH217768   3.844   4.604   4.803 -0.0350  0.3391 -0.5938
 5921TIP3    H117769   3.929   4.573   4.835 -0.4718 -0.5924 -0.3028
 5921TIP3    H217770   3.780   4.549   4.848 -0.8750  1.8889  0.1812
 5922TIP3   OH217771   5.395   5.151   1.522  0.1640 -0.0030 -0.3559
 5922TIP3    H117772   5.456   5.084   1.552  0.3539  0.6933  0.8750
 5922TIP3    H217773   5.403   5.150   1.426  2.6747  0.5915 -0.2127
 5923TIP3   OH217774   3.232   1.098   3.934  0.6914  0.2167 -0.2635
 5923TIP3    H117775   3.247   1.053   3.850  1.6689 -2.4708  1.2272
 5923TIP3    H217776   3.137   1.098   3.944  0.6123 -0.2797 -0.9557
 5924TIP3   OH217777   5.455   1.833   1.933 -0.1911  0.6285 -0.4617
 5924TIP3    H117778   5.402   1.907   1.904 -1.2023 -0.5750 -1.8146
 5924TIP3    H217779   5.459   1.842   2.028 -0.8979  2.0013 -0.5353
 5925TIP3   OH217780   4.327   3.193   2.608  0.3861 -0.0782 -0.1242
 5925TIP3    H117781   4.341   3.243   2.527  1.1474  0.4071  0.2916
 5925TIP3    H217782   4.239   3.218   2.637  0.1137 -0.2510 -0.8024
 5926TIP3   OH217783   3.778   1.587   0.036  0.2470 -0.0741 -0.1658
 5926TIP3    H117784   3.772   1.646  -0.039 -0.8079 -0.1774 -0.1780
 5926TIP3    H217785   3.869   1.557   0.035  1.1635  2.4070  0.5004
 5927TIP3   OH217786   5.086   3.368   4.892 -0.0988 -1.4904  0.6110
 5927TIP3    H117787   5.164   3.372   4.948  0.0845 -0.0892  0.2991
 5927TIP3    H217788   5.050   3.457   4.895  0.3960 -1.0991 -2.1589
 5928TIP3   OH217789   3.729   2.965   0.518 -0.2459 -0.1264 -0.8497
 5928TIP3    H117790   3.665   2.894   0.505 -0.9541  0.1732  0.8511
 5928TIP3    H217791   3.679   3.036   0.557  0.5627  1.1900 -2.1082
 5929TIP3   OH217792   3.555   5.671   1.866  0.1084  0.0267  0.0670
 5929TIP3    H117793   3.639   5.625   1.871  0.2079  0.2764  1.0145
 5929TIP3    H217794   3.579   5.764   1.867 -0.1923  0.1105  1.1696
 5930TIP3   OH217795   4.285   1.049   4.389  0.0323 -0.4446 -0.2147
 5930TIP3    H117796   4.295   0.962   4.429  0.8800 -0.0583  0.4511
 5930TIP3    H217797   4.364   1.060   4.336 -0.6441 -0.5645 -1.2652
 5931TIP3   OH217798   1.914   1.645   0.640 -0.6086  0.1421  0.6074
 5931TIP3    H117799   1.991   1.679   0.685 -0.4751  1.3872 -0.4851
 5931TIP3    H217800   1.840   1.688   0.683 -0.6003  0.0237  0.7410
 5932TIP3   OH217801   3.661   1.931   2.404 -0.1855  0.0085 -0.1044
 5932TIP3    H117802   3.735   1.909   2.460 -0.2912 -2.2438 -0.7375
 5932TIP3    H217803   3.594   1.866   2.426 -0.8558  0.1416 -1.6076
 5933TIP3   OH217804   5.730   0.181   3.536 -0.9155 -0.0742 -0.3527
 5933TIP3    H117805   5.650   0.161   3.487 -1.0790 -0.8007  0.1987
 5933TIP3    H217806   5.798   0.184   3.468 -1.5809  1.8547 -1.0064
 5934TIP3   OH217807   1.907   4.839   4.733  0.4549 -0.5102  0.2158
 5934TIP3    H117808   1.916   4.934   4.739 -0.4205 -0.3298 -1.0560
 5934TIP3    H217809   1.941   4.817   4.646 -0.4819 -1.2054  0.0107
 5935TIP3   OH217810   6.106   3.855   4.951 -0.6049  0.0650  0.9784
 5935TIP3    H117811   6.034   3.910   4.922  0.2845  0.8466  0.1471
 5935TIP3    H217812   6.119   3.878   5.043  0.4932  2.1771  0.3750
 5936TIP3   OH217813   3.357   0.189   2.536  0.2831  0.9244 -0.2358
 5936TIP3    H117814   3.443   0.190   2.578 -0.8092  0.9462  2.1622
 5936TIP3    H217815   3.298   0.150   2.602 -1.8778  2.5900 -1.0589
 5937TIP3   OH217816   2.119   1.834   2.963 -0.0335  0.2293  0.3163
 5937TIP3    H117817   2.065   1.901   3.005  0.9927  1.1496  0.2290
 5937TIP3    H217818   2.182   1.808   3.030  0.0548 -0.0903  0.1100
 5938TIP3   OH217819   2.284   4.820   0.201  0.1842  0.1933  0.0624
 5938TIP3    H117820   2.359   4.835   0.259 -0.6339  0.1382  1.1855
 5938TIP3    H217821   2.322   4.798   0.116  1.4280  0.8981  0.4153
 5939TIP3   OH217822   1.314   2.364   2.424  0.1545  0.5010  0.1697
 5939TIP3    H117823   1.317   2.415   2.343 -0.1997  0.3238  0.0433
 5939TIP3    H217824   1.245   2.300   2.409 -0.3927  0.9210  0.8871
 5940TIP3   OH217825   2.967   2.859   3.717 -0.1422  0.0943  0.5299
 5940TIP3    H117826   2.916   2.907   3.783 -0.5567 -0.3410  0.5285
 5940TIP3    H217827   2.921   2.776   3.707 -0.5274  0.4493 -0.8630
 5941TIP3   OH217828   1.010   5.940   5.115 -0.0545  0.6529  0.2832
 5941TIP3    H117829   1.096   5.897   5.118 -0.1485  0.3520 -0.7610
 5941TIP3    H217830   1.028   6.031   5.140  0.5650  0.5823  0.1252
 5942TIP3   OH217831   2.618   5.742   1.795  0.3769  0.0685  0.1968
 5942TIP3    H117832   2.525   5.758   1.782  0.3491 -0.2345 -0.0094
 5942TIP3    H217833   2.637   5.667   1.737  0.2741 -1.2696  1.8177
 5943TIP3   OH217834   1.934   3.410   0.930 -0.0761  0.3662 -0.4563
 5943TIP3    H117835   2.013   3.450   0.966 -0.1861  1.8280 -1.7257
 5943TIP3    H217836   1.933   3.321   0.966 -0.0167  1.5501  2.8706
 5944TIP3   OH217837   2.684   4.131   4.507  0.2654  0.1099  0.1413
 5944TIP3    H117838   2.760   4.077   4.530  0.7698  0.9550  0.5133
 5944TIP3    H217839   2.671   4.115   4.413  1.4374  0.6012 -0.1177
 5945TIP3   OH217840   2.653   5.905   3.722  0.2188 -0.0593 -0.2529
 5945TIP3    H117841   2.747   5.921   3.735  0.2853 -1.6463  1.9980
 5945TIP3    H217842   2.645   5.876   3.631  1.7204  1.2038 -0.8180
 5946TIP3   OH217843   4.728   3.731   3.763 -0.0777  0.2901  0.4315
 5946TIP3    H117844   4.637   3.709   3.783 -0.3264  0.6549 -0.2682
 5946TIP3    H217845   4.765   3.760   3.847 -0.7581  0.6757  0.6055
 5947TIP3   OH217846   6.138   4.770   0.124  0.0672 -0.0535 -0.2563
 5947TIP3    H117847   6.057   4.727   0.153  0.4713  0.5615  1.9398
 5947TIP3    H217848   6.164   4.825   0.198  3.0239 -0.9512 -0.4925
 5948TIP3   OH217849   4.944   0.372   3.006 -0.5085  0.2417 -0.2058
 5948TIP3    H117850   4.947   0.326   3.091 -3.6659  1.7746  0.8873
 5948TIP3    H217851   4.991   0.454   3.022  0.5586 -0.2730 -0.5802
 5949TIP3   OH217852   1.485   4.632   1.836  0.6160  0.1190  0.8778
 5949TIP3    H117853   1.533   4.569   1.890  1.2941 -0.6212 -0.5291
 5949TIP3    H217854   1.554   4.684   1.794  0.1003  0.7111  0.7475
 5950TIP3   OH217855   5.572   5.608   1.871 -0.6634 -0.2701  0.0217
 5950TIP3    H117856   5.623   5.531   1.898 -0.8700  0.2157  1.8707
 5950TIP3    H217857   5.481   5.580   1.879 -0.7514 -0.5586 -1.5822
 5951TIP3   OH217858   5.198   2.971   4.636 -0.6205 -0.1357 -0.1699
 5951TIP3    H117859   5.254   3.049   4.636 -0.4333 -0.2707 -0.2064
 5951TIP3    H217860   5.166   2.965   4.546 -0.5364 -0.1729 -0.1970
 5952TIP3   OH217861   4.008   5.732   2.534 -0.3702  0.1452  0.1168
 5952TIP3    H117862   4.092   5.754   2.493 -0.2207 -1.2846 -0.4359
 5952TIP3    H217863   3.946   5.796   2.500  0.2847  0.5608 -0.3154
 5953TIP3   OH217864   1.060   2.108   4.282 -0.1420 -0.3149 -0.0815
 5953TIP3    H117865   1.036   2.130   4.372 -0.1788 -0.4575 -0.0561
 5953TIP3    H217866   1.117   2.180   4.254 -0.3626 -0.1237 -0.0437
 5954TIP3   OH217867   5.989   2.812   1.073 -0.1674  0.3910  0.1744
 5954TIP3    H117868   6.007   2.720   1.052 -0.1848  0.5424 -0.5563
 5954TIP3    H217869   6.061   2.838   1.130  0.0283  0.0176  0.1017
 5955TIP3   OH217870   0.451   1.040   1.758 -0.4801 -0.2297  0.3702
 5955TIP3    H117871   0.392   1.089   1.815  0.1462  0.3360  0.5454
 5955TIP3    H217872   0.538   1.059   1.792 -0.1043  0.0218 -0.6966
 5956TIP3   OH217873   6.240   4.406   2.962 -0.8400  0.7620 -0.1557
 5956TIP3    H117874   6.256   4.354   2.884 -1.6949 -0.3153  0.3559
 5956TIP3    H217875   6.201   4.487   2.929  1.3489  1.5399 -1.0350
 5957TIP3   OH217876   3.403   0.498   1.439 -0.3779 -0.1726  0.5639
 5957TIP3    H117877   3.410   0.402   1.434 -1.1433 -0.1721 -2.9206
 5957TIP3    H217878   3.309   0.515   1.444 -0.2335  0.4058  1.3722
 5958TIP3   OH217879   2.536   2.176   4.784  0.1854 -0.2709  0.3954
 5958TIP3    H117880   2.554   2.214   4.698  0.0952 -0.9393  0.0761
 5958TIP3    H217881   2.622   2.148   4.816  0.1098 -0.8242  0.1317
 5959TIP3   OH217882   0.863   0.228   2.215 -0.2718 -0.6783 -0.0706
 5959TIP3    H117883   0.921   0.226   2.139  1.1195  1.8712  0.7667
 5959TIP3    H217884   0.905   0.291   2.274 -1.6309 -2.0496  2.5303
 5960TIP3   OH217885   1.589   5.823   3.704 -0.4519  0.2714 -0.8824
 5960TIP3    H117886   1.644   5.876   3.647 -0.8300 -0.6000 -2.0854
 5960TIP3    H217887   1.564   5.748   3.651 -1.1371 -0.3731  0.3075
 5961TIP3   OH217888   5.926   3.214   2.277  0.0718  0.1846  0.5869
 5961TIP3    H117889   6.010   3.235   2.237  0.1014 -0.2610  0.4071
 5961TIP3    H217890   5.947   3.194   2.368  0.2056 -0.2577  0.4586
 5962TIP3   OH217891   1.833   5.102   0.235 -0.0912 -0.1378  0.3319
 5962TIP3    H117892   1.918   5.060   0.226  0.5870  1.0949  0.9148
 5962TIP3    H217893   1.806   5.120   0.144  0.1640 -0.7082  0.1381
 5963TIP3   OH217894   6.281   0.063   1.779  0.4362  0.1005  0.3692
 5963TIP3    H117895   6.317  -0.026   1.777 -0.9703 -0.5313  1.3155
 5963TIP3    H217896   6.250   0.079   1.690 -2.0793 -1.6301  0.8184
 5964TIP3   OH217897   2.775   5.622   3.593 -0.7715  0.6915  0.4325
 5964TIP3    H117898   2.858   5.616   3.640 -0.1841 -0.2744 -0.6760
 5964TIP3    H217899   2.771   5.712   3.561 -0.0846  0.6985  0.3701
 5965TIP3   OH217900   3.635   4.943   3.776 -0.2623 -0.5112 -0.1145
 5965TIP3    H117901   3.547   4.979   3.775 -0.0397  0.0277 -1.1503
 5965TIP3    H217902   3.627   4.860   3.729 -0.5459 -1.2996  1.2813
 5966TIP3   OH217903   5.439   4.831   1.572  0.1227  0.8602  0.4459
 5966TIP3    H117904   5.421   4.746   1.612 -1.9704  0.3499 -1.3840
 5966TIP3    H217905   5.507   4.814   1.508 -1.4352  0.1178 -1.0989
 5967TIP3   OH217906   2.921   1.908   3.701  0.4103 -0.2461 -0.2252
 5967TIP3    H117907   2.921   1.819   3.665  1.6491 -0.0795 -0.6918
 5967TIP3    H217908   2.906   1.896   3.795 -1.7276 -0.7684 -0.5824
 5968TIP3   OH217909   4.734   5.929   1.823  0.1793  0.1053  0.2827
 5968TIP3    H117910   4.724   5.841   1.785  0.5002  0.1669  0.0460
 5968TIP3    H217911   4.822   5.929   1.860  0.3724  0.4943 -0.1692
 5969TIP3   OH217912   0.780   0.084   1.266 -0.1628 -0.2459  0.2081
 5969TIP3    H117913   0.688   0.074   1.241 -0.7184  1.2291  1.4821
 5969TIP3    H217914   0.790   0.027   1.342 -0.2407  0.1850  0.5428
 5970TIP3   OH217915   5.255   2.321   3.890 -0.4900  0.0765  1.0097
 5970TIP3    H117916   5.165   2.305   3.919 -1.4134  1.6479 -0.8098
 5970TIP3    H217917   5.253   2.304   3.796  1.2957 -0.4560  1.0341
 5971TIP3   OH217918   5.431   5.796   1.291 -0.5602  0.4355  0.7853
 5971TIP3    H117919   5.407   5.705   1.310 -1.3123  0.3953 -0.2636
 5971TIP3    H217920   5.484   5.823   1.366 -0.8690 -0.6581  1.4219
 5972TIP3   OH217921   2.449   1.642   0.017 -0.1112 -0.8203  0.3310
 5972TIP3    H117922   2.364   1.658  -0.024  0.3642 -0.4794 -0.5466
 5972TIP3    H217923   2.428   1.621   0.108 -1.1504 -1.0043  0.0627
 5973TIP3   OH217924   3.487   2.786   2.296  0.0506  0.2737  0.7024
 5973TIP3    H117925   3.471   2.702   2.338 -1.7705  0.3052  0.1296
 5973TIP3    H217926   3.473   2.851   2.365  1.4680  0.1419  1.1470
 5974TIP3   OH217927   3.991   2.135   2.327  0.3449  0.1328 -0.2136
 5974TIP3    H117928   4.006   2.223   2.291 -0.3877  0.1929 -0.3858
 5974TIP3    H217929   3.934   2.150   2.402 -1.0010 -0.3206 -1.1060
 5975TIP3   OH217930   1.445   4.007   2.702 -0.3085 -0.1716  0.2791
 5975TIP3    H117931   1.446   3.914   2.723 -0.6610 -0.0722  0.7642
 5975TIP3    H217932   1.410   4.011   2.612 -0.1604 -0.5115  0.2054
 5976TIP3   OH217933   1.167   2.350   4.154  0.1319 -0.0591 -0.0841
 5976TIP3    H117934   1.078   2.380   4.135 -0.3889 -1.1269  0.5253
 5976TIP3    H217935   1.224   2.411   4.107 -0.9879 -0.8258 -2.6368
 5977TIP3   OH217936   2.024   3.317   3.004 -0.2878 -0.4705 -0.4784
 5977TIP3    H117937   2.091   3.380   2.981 -0.2789  1.1138  3.1409
 5977TIP3    H217938   2.070   3.251   3.055 -0.9706 -1.1655 -0.7427
 5978TIP3   OH217939   5.278   4.909   2.736 -0.0090  0.3512 -0.1939
 5978TIP3    H117940   5.298   4.817   2.716  0.8495  0.1496  1.4299
 5978TIP3    H217941   5.183   4.915   2.729 -0.1368 -0.8373  0.3236
 5979TIP3   OH217942   4.626   5.421   4.026 -0.3403 -0.6764 -0.4592
 5979TIP3    H117943   4.595   5.437   3.937 -1.8062 -2.0359 -0.2360
 5979TIP3    H217944   4.576   5.481   4.080 -0.1522 -0.5315 -0.4447
 5980TIP3   OH217945   4.712   1.935   3.966 -0.1881 -0.6026  0.4002
 5980TIP3    H117946   4.677   1.929   3.877  1.2779 -0.1843 -0.2422
 5980TIP3    H217947   4.732   2.028   3.978  1.0758 -0.8668  0.5450
 5981TIP3   OH217948   4.078   5.399   1.163  0.5726  0.7561 -0.0704
 5981TIP3    H117949   4.077   5.348   1.082  1.2842  0.4366  0.1166
 5981TIP3    H217950   3.989   5.388   1.199  0.0051  1.5299 -1.1803
 5982TIP3   OH217951   3.791   4.992   1.730  0.3221  0.1710 -0.1458
 5982TIP3    H117952   3.870   5.015   1.779 -0.1339 -0.4696  0.9354
 5982TIP3    H217953   3.812   4.908   1.689  1.1472  1.2923 -2.1359
 5983TIP3   OH217954   3.408   3.719   2.778 -0.3941 -0.7096 -0.4161
 5983TIP3    H117955   3.412   3.698   2.685 -1.7873 -1.7205 -0.2796
 5983TIP3    H217956   3.363   3.803   2.782 -1.2594 -1.1499 -0.6234
 5984TIP3   OH217957   3.813   1.831   1.851  0.6500  0.2844 -0.1538
 5984TIP3    H117958   3.753   1.805   1.922 -0.5962  0.7116 -1.0185
 5984TIP3    H217959   3.848   1.915   1.881 -0.4340  0.8254 -0.3479
 5985TIP3   OH217960   1.299   3.459   4.460  0.4834 -0.4742 -0.0980
 5985TIP3    H117961   1.371   3.397   4.471  0.5277 -0.2660  0.8735
 5985TIP3    H217962   1.270   3.478   4.549  0.0379  0.4068 -0.4203
 5986TIP3   OH217963   5.366   0.312   0.930  0.5461 -0.0263 -0.2036
 5986TIP3    H117964   5.313   0.386   0.901  0.4822  0.0878  0.1903
 5986TIP3    H217965   5.453   0.330   0.894  1.1047  1.4065  1.6917
 5987TIP3   OH217966   6.235   3.810   4.496 -0.0880  0.2480 -0.0278
 5987TIP3    H117967   6.312   3.821   4.441 -0.6964  3.3791 -0.4529
 5987TIP3    H217968   6.266   3.831   4.584 -0.2300  0.6015 -0.0583
 5988TIP3   OH217969   3.558   4.608   4.565 -0.1766 -0.4627 -0.2383
 5988TIP3    H117970   3.540   4.651   4.481 -1.3777 -1.1730 -0.3760
 5988TIP3    H217971   3.609   4.530   4.542 -0.5667 -0.6959 -0.3370
 5989TIP3   OH217972   6.119   5.655   0.180  0.2779 -0.0806 -0.0319
 5989TIP3    H117973   6.133   5.728   0.119  1.2451  0.9075  1.3279
 5989TIP3    H217974   6.191   5.595   0.163 -0.0165 -0.2927 -0.5421
 5990TIP3   OH217975   0.433   4.018   4.441 -0.1238  0.0215 -0.8338
 5990TIP3    H117976   0.397   4.106   4.456 -0.8337 -0.3813 -0.1138
 5990TIP3    H217977   0.465   4.020   4.350 -0.5539  0.8725 -0.9724
 5991TIP3   OH217978   5.851   5.546   4.898  0.1357 -0.0775  0.0750
 5991TIP3    H117979   5.906   5.612   4.939  1.5251 -0.6962 -0.7423
 5991TIP3    H217980   5.772   5.542   4.953  1.6411 -0.4466  2.3112
 5992TIP3   OH217981   5.616   2.663   1.680 -0.6742  0.2752 -0.6022
 5992TIP3    H117982   5.679   2.717   1.632  0.4703  0.1404  0.6813
 5992TIP3    H217983   5.655   2.575   1.678 -1.1532  0.0567 -0.3593
 5993TIP3   OH217984   6.024   5.899   2.332  0.1825  0.0643 -0.2536
 5993TIP3    H117985   6.111   5.926   2.359 -0.5766  0.8837  1.5297
 5993TIP3    H217986   5.964   5.954   2.383 -1.3807 -0.0218 -1.9034
 5994TIP3   OH217987   6.166   3.155   4.956  0.2948 -0.2921  0.2040
 5994TIP3    H117988   6.161   3.210   4.878 -0.0859 -0.7278 -0.0832
 5994TIP3    H217989   6.077   3.156   4.991  0.5723  0.3319  0.9436
 5995TIP3   OH217990   0.687   0.204   3.151 -0.1735 -0.9208 -0.8845
 5995TIP3    H117991   0.726   0.120   3.126  2.5109  0.4893 -1.8034
 5995TIP3    H217992   0.746   0.239   3.218 -0.5571  0.7384 -1.3649
 5996TIP3   OH217993   3.563   3.695   1.234  0.7380  0.0911  0.5715
 5996TIP3    H117994   3.468   3.692   1.248  0.5564  0.1210 -0.5988
 5996TIP3    H217995   3.588   3.783   1.262  0.3820  0.1790  0.6213
 5997TIP3   OH217996   0.390   2.391   2.285  0.3407  0.0992  0.1274
 5997TIP3    H117997   0.464   2.332   2.271  0.5400  0.5870 -0.9495
 5997TIP3    H217998   0.426   2.479   2.270 -0.8168  0.2453 -2.1387
 5998TIP3   OH217999   4.814   3.779   4.773 -0.4472 -0.1329  0.8130
 5998TIP3    H118000   4.741   3.765   4.712 -0.5435  0.9004  0.6598
 5998TIP3    H218001   4.878   3.713   4.749 -1.6098 -1.5161  1.4070
 5999TIP3   OH218002   5.890   2.198   3.725 -0.2994 -0.1978 -0.2202
 5999TIP3    H118003   5.934   2.126   3.679  0.2048  0.0193 -0.0729
 5999TIP3    H218004   5.871   2.162   3.812  0.2196 -0.0485 -0.0477
 6000TIP3   OH218005   4.185   1.291   3.406 -0.2099 -0.6240 -0.2064
 6000TIP3    H118006   4.107   1.312   3.457 -0.5933  0.7252 -1.2718
 6000TIP3    H218007   4.151   1.258   3.323  0.3630 -0.6910 -0.4194
 6001TIP3   OH218008   3.350   2.531   1.905 -0.6051 -0.0093 -0.2054
 6001TIP3    H118009   3.292   2.602   1.879 -1.6335 -0.5177  0.6081
 6001TIP3    H218010   3.337   2.524   2.000 -0.3685 -1.1441 -0.2468
 6002TIP3   OH218011   3.749   5.302   4.960  0.3323  0.0247  0.0978
 6002TIP3    H118012   3.742   5.209   4.938  0.4165  0.1358 -0.4216
 6002TIP3    H218013   3.768   5.303   5.054 -0.1224 -0.4652  0.1994
 6003TIP3   OH218014   5.798   0.281   4.806  0.0475 -0.4292 -0.3054
 6003TIP3    H118015   5.891   0.301   4.805 -0.2610  1.1066 -0.1564
 6003TIP3    H218016   5.765   0.323   4.886 -0.8326 -0.7065 -0.5063
 6004TIP3   OH218017   2.902   2.502   2.402 -0.2777 -0.4147 -0.4217
 6004TIP3    H118018   2.859   2.425   2.366 -0.1337  0.2045 -1.9767
 6004TIP3    H218019   2.950   2.540   2.329  1.3791 -0.0021  0.8093
 6005TIP3   OH218020   1.885   1.035   4.778 -0.6357 -0.5447 -0.1800
 6005TIP3    H118021   1.866   0.985   4.698  0.0073 -1.3074  0.1322
 6005TIP3    H218022   1.854   0.979   4.849 -0.8908 -0.0214  0.1303
 6006TIP3   OH218023   4.160   0.412   1.781  0.9802 -0.3304 -0.7720
 6006TIP3    H118024   4.148   0.366   1.865 -1.3517  0.2567 -0.7036
 6006TIP3    H218025   4.215   0.487   1.802 -1.5468  1.1973  0.8658
 6007TIP3   OH218026   5.972   0.443   2.111 -0.0083  0.1779 -0.5119
 6007TIP3    H118027   5.975   0.504   2.038 -0.4078  0.1978 -0.5164
 6007TIP3    H218028   5.901   0.383   2.089  1.2098 -1.0952 -1.1214
 6008TIP3   OH218029   2.800   3.290   4.102  0.2743 -0.1341  0.0544
 6008TIP3    H118030   2.878   3.300   4.047 -1.7085  0.2619 -2.9338
 6008TIP3    H218031   2.758   3.211   4.069 -1.0635  0.1880  0.9359
 6009TIP3   OH218032   0.946   3.431   2.316  0.0442  0.0534  0.2548
 6009TIP3    H118033   1.018   3.395   2.368  0.1200 -1.6448 -0.9685
 6009TIP3    H218034   0.978   3.517   2.288  1.0983 -0.1690  0.7167
 6010TIP3   OH218035   2.528   2.447   0.815 -0.0587 -0.5031  0.0929
 6010TIP3    H118036   2.595   2.514   0.830  1.7179 -1.8716 -1.3237
 6010TIP3    H218037   2.524   2.399   0.898  0.6356 -0.3421  0.2276
 6011TIP3   OH218038   6.301   0.664   5.135  0.6909 -0.2402 -0.3641
 6011TIP3    H118039   6.220   0.614   5.137  0.1025  0.6768 -0.6785
 6011TIP3    H218040   6.369   0.601   5.158 -0.0252 -1.1754 -0.7680
 6012TIP3   OH218041   0.331   4.007   0.797  0.0469 -0.4135 -0.4881
 6012TIP3    H118042   0.313   3.915   0.817  0.4010 -0.6787 -1.3680
 6012TIP3    H218043   0.421   4.021   0.826  0.4256 -0.6917 -1.5026
 6013TIP3   OH218044   3.816   5.939   3.626  0.3022  0.1539  0.4837
 6013TIP3    H118045   3.772   5.936   3.541 -0.0297 -1.3397  0.6846
 6013TIP3    H218046   3.797   6.026   3.660 -0.1715  0.5107 -0.6531
 6014TIP3   OH218047   6.176   1.646   0.780 -0.7323 -0.4161 -0.3240
 6014TIP3    H118048   6.100   1.652   0.838  0.7485  1.1888  1.6154
 6014TIP3    H218049   6.190   1.552   0.769 -0.1293 -0.9259  3.4131
 6015TIP3   OH218050   2.590   5.464   3.801 -0.9109  0.4235  0.1604
 6015TIP3    H118051   2.644   5.507   3.734 -0.0018 -0.0130  0.5919
 6015TIP3    H218052   2.620   5.502   3.884 -1.8949  0.8166  0.3480
 6016TIP3   OH218053   5.259   4.122   2.115  0.1416 -0.2422  0.0386
 6016TIP3    H118054   5.244   4.174   2.036 -0.5476 -0.5781 -0.0548
 6016TIP3    H218055   5.353   4.102   2.113  0.5480  1.4341  0.3475
 6017TIP3   OH218056   0.993   0.243   2.655 -0.3762 -0.4362  0.0094
 6017TIP3    H118057   0.944   0.232   2.737 -0.2004 -1.7099 -0.0335
 6017TIP3    H218058   0.967   0.167   2.602 -1.0572  0.7621 -1.4198
 6018TIP3   OH218059   0.932   4.561   4.974 -0.5500 -0.0071  0.4816
 6018TIP3    H118060   0.919   4.645   4.930  1.0631 -0.0153 -0.0887
 6018TIP3    H218061   0.964   4.503   4.905  0.2371 -0.5363  1.2693
 6019TIP3   OH218062   2.680   5.277   1.475 -0.0212 -0.2781 -0.5572
 6019TIP3    H118063   2.664   5.347   1.412  0.7843  0.3689 -0.0601
 6019TIP3    H218064   2.775   5.273   1.484 -0.1339  0.3678  1.3918
 6020TIP3   OH218065   2.060   3.539   3.897  0.5877 -0.0577  0.2568
 6020TIP3    H118066   1.988   3.489   3.859 -0.2237  1.4038 -0.1861
 6020TIP3    H218067   2.071   3.614   3.838  0.2471  1.5088  2.0803
 6021TIP3   OH218068   1.531   1.439   1.101 -0.4329  0.1352 -0.5426
 6021TIP3    H118069   1.614   1.393   1.088 -1.0153 -0.9293 -0.6128
 6021TIP3    H218070   1.530   1.506   1.034 -0.0969 -0.5310 -1.2282
 6022TIP3   OH218071   2.869   2.307   0.946  0.6229 -0.4775  0.1867
 6022TIP3    H118072   2.892   2.239   1.010 -1.3854 -0.9173  0.5128
 6022TIP3    H218073   2.929   2.291   0.873  1.6962 -1.1679  1.1570
 6023TIP3   OH218074   5.660   5.015   1.639  0.2889 -0.5813  0.5115
 6023TIP3    H118075   5.724   5.079   1.607  0.0753  0.4474  2.0239
 6023TIP3    H218076   5.642   4.959   1.563  0.6300  1.0360 -0.8271
 6024TIP3   OH218077   0.271   2.363   1.526 -0.6132  0.4066  0.1858
 6024TIP3    H118078   0.295   2.432   1.465  2.2943 -0.0335  0.7146
 6024TIP3    H218079   0.257   2.408   1.609  0.8143  0.4465  0.4220
 6025TIP3   OH218080   6.064   0.365   2.935  0.0665  1.0051  0.0243
 6025TIP3    H118081   6.070   0.323   3.021 -1.7859  0.8836  0.1359
 6025TIP3    H218082   5.994   0.317   2.890 -0.2583  2.2503 -0.8449
 6026TIP3   OH218083   3.821   5.063   4.577 -0.4773  0.1998  0.4598
 6026TIP3    H118084   3.808   5.023   4.491  1.2712  0.2365  0.1503
 6026TIP3    H218085   3.776   5.148   4.572 -0.1795  0.3037 -0.4943
 6027TIP3   OH218086   3.619   4.091   0.461  0.2762  0.0766 -1.0295
 6027TIP3    H118087   3.557   4.086   0.388  0.5173 -0.9920 -1.1799
 6027TIP3    H218088   3.578   4.151   0.523 -2.2885 -2.5578  0.0955
 6028TIP3   OH218089   2.144   5.306   0.183  0.1086  0.1336 -0.3211
 6028TIP3    H118090   2.211   5.316   0.116  0.8147 -1.1691  0.1562
 6028TIP3    H218091   2.112   5.216   0.172 -1.0698  0.4976 -0.0765
 6029TIP3   OH218092   1.112   2.088   0.486  0.5327 -0.0397 -0.9733
 6029TIP3    H118093   1.191   2.109   0.536  1.2497 -2.7648 -0.8019
 6029TIP3    H218094   1.091   1.998   0.512 -2.7978  0.6383 -0.8321
 6030TIP3   OH218095   6.093   2.794   3.872  0.1060 -0.1035  0.2766
 6030TIP3    H118096   6.093   2.741   3.792 -1.7561 -0.0664  0.1977
 6030TIP3    H218097   6.091   2.730   3.943  0.1145 -0.1324  0.2510
 6031TIP3   OH218098   0.521   3.298   1.277 -0.1423  0.6734  0.5075
 6031TIP3    H118099   0.470   3.272   1.200 -0.3688 -0.9319  1.1609
 6031TIP3    H218100   0.612   3.299   1.247 -0.3173  1.0844 -0.0246
 6032TIP3   OH218101   3.158   0.499   3.407  0.6220  0.5154  0.0265
 6032TIP3    H118102   3.207   0.574   3.442  0.6038  0.6391 -0.2180
 6032TIP3    H218103   3.224   0.448   3.360  0.3712  1.0788 -0.9602
 6033TIP3   OH218104   4.383   5.211   5.174  0.5690 -0.1500  0.2899
 6033TIP3    H118105   4.293   5.210   5.141  0.5628  0.4614  0.2653
 6033TIP3    H218106   4.434   5.167   5.107  0.3905  0.1281 -0.0355
 6034TIP3   OH218107   5.275   3.993   0.089  0.5166 -0.1390  0.3865
 6034TIP3    H118108   5.304   4.082   0.074  1.4112  0.0038  2.5713
 6034TIP3    H218109   5.339   3.938   0.043  0.8347  0.3041  0.2981
 6035TIP3   OH218110   0.290   1.111   1.984  0.5750 -0.6210  0.5155
 6035TIP3    H118111   0.254   1.022   1.974 -0.8067 -0.0409  0.0526
 6035TIP3    H218112   0.368   1.099   2.037  1.9363 -2.4585 -1.6777
 6036TIP3   OH218113   1.603   4.786   3.801  0.0303  0.2768  0.2867
 6036TIP3    H118114   1.577   4.786   3.709  0.4838  0.4000  0.1555
 6036TIP3    H218115   1.534   4.737   3.846  0.2518 -0.5570 -0.2546
 6037TIP3   OH218116   2.028   3.653   0.736  0.0184  0.3751  0.2344
 6037TIP3    H118117   2.044   3.560   0.720 -0.4861  0.5139 -1.1338
 6037TIP3    H218118   1.966   3.679   0.668  1.2747  2.0641 -0.3259
 6038TIP3   OH218119   0.579   4.124   3.441 -0.1252  1.0480  0.1479
 6038TIP3    H118120   0.562   4.034   3.414 -2.6555  1.4819  0.1225
 6038TIP3    H218121   0.632   4.115   3.521 -1.1267 -0.4992  0.6777
 6039TIP3   OH218122   0.722   3.201   1.935  0.5711  0.0371  0.0833
 6039TIP3    H118123   0.787   3.227   2.000  0.2220  0.6766  0.1831
 6039TIP3    H218124   0.709   3.107   1.950  1.3296 -0.0586  0.1797
 6040TIP3   OH218125   5.138   0.026   2.171  0.0418  0.0243  0.2095
 6040TIP3    H118126   5.137  -0.070   2.163  1.0020  0.0478 -0.4035
 6040TIP3    H218127   5.075   0.045   2.240 -1.9644 -0.8653 -1.2710
 6041TIP3   OH218128   3.645   4.934   0.464 -0.1462 -0.2906  0.1382
 6041TIP3    H118129   3.633   4.841   0.444 -0.6470 -0.7714  2.3936
 6041TIP3    H218130   3.715   4.936   0.529 -1.6514  0.6758  1.7888
 6042TIP3   OH218131   3.322   5.247   1.065  0.4195 -0.0998  0.1946
 6042TIP3    H118132   3.376   5.317   1.026  0.7820 -0.4319  0.0887
 6042TIP3    H218133   3.367   5.166   1.040 -0.2235 -0.3933 -0.0342
 6043TIP3   OH218134   1.273   0.630   2.441  0.0756  0.3637 -0.1402
 6043TIP3    H118135   1.209   0.667   2.379  0.5847 -0.3197 -1.0947
 6043TIP3    H218136   1.300   0.705   2.494  1.6454  1.6276 -2.5059
 6044TIP3   OH218137   3.724   2.523   1.540 -0.6705 -0.2398  0.1895
 6044TIP3    H118138   3.723   2.587   1.611 -1.0658 -0.5515  0.4720
 6044TIP3    H218139   3.731   2.438   1.584  1.2231 -0.3510 -0.2280
 6045TIP3   OH218140   1.015   5.428   3.342  0.7009 -0.4670 -0.9897
 6045TIP3    H118141   1.055   5.514   3.330 -2.4339  0.9984 -1.9963
 6045TIP3    H218142   0.974   5.433   3.429 -0.7676 -0.3214 -1.6655
 6046TIP3   OH218143   6.236   1.332   1.845  0.0511  0.3287 -0.0078
 6046TIP3    H118144   6.234   1.427   1.840 -0.9643  0.4786  2.0422
 6046TIP3    H218145   6.325   1.311   1.875  0.3680  0.5864 -0.7436
 6047TIP3   OH218146   1.232   5.820   0.897 -0.4280 -0.4719  0.4214
 6047TIP3    H118147   1.214   5.905   0.856 -1.5629  0.2268  2.2561
 6047TIP3    H218148   1.153   5.769   0.882  0.2600 -1.2760 -0.6971
 6048TIP3   OH218149   5.250   3.214   0.018  0.5165  0.5476 -0.0246
 6048TIP3    H118150   5.157   3.197   0.010  0.6443  0.0664 -0.5711
 6048TIP3    H218151   5.258   3.273   0.093 -0.2606  0.8975 -0.2110
 6049TIP3   OH218152   4.616   0.842   1.673  0.2326 -0.6017 -0.4995
 6049TIP3    H118153   4.662   0.898   1.611 -2.0422  0.8636 -0.9488
 6049TIP3    H218154   4.567   0.902   1.729 -2.5219 -2.0650 -1.1633
 6050TIP3   OH218155   5.681   3.379   2.744 -0.0091  0.5285  0.2513
 6050TIP3    H118156   5.763   3.420   2.714  0.1057  1.0995  1.2901
 6050TIP3    H218157   5.616   3.407   2.680  1.0486 -2.1852 -2.2368
 6051TIP3   OH218158   3.644   5.621   4.199  0.0453  0.6231 -0.2944
 6051TIP3    H118159   3.566   5.661   4.235 -1.6770 -0.1460 -2.9123
 6051TIP3    H218160   3.645   5.532   4.235 -0.6459  0.4364 -0.7313
 6052TIP3   OH218161   5.180   2.189   4.554 -0.1982 -0.1281 -0.2550
 6052TIP3    H118162   5.137   2.114   4.512 -1.0045  0.5815 -0.7278
 6052TIP3    H218163   5.113   2.225   4.612 -0.0115  0.5660 -0.4659
 6053TIP3   OH218164   0.401   5.145   1.052  0.0019  0.2514 -0.3157
 6053TIP3    H118165   0.316   5.190   1.051  1.4032  3.0965 -1.4124
 6053TIP3    H218166   0.405   5.099   0.968 -1.1096 -1.3883  0.4761
 6054TIP3   OH218167   6.193   0.578   4.843 -0.2053 -0.0223  0.2318
 6054TIP3    H118168   6.202   0.642   4.772  0.7771  1.0822  1.2990
 6054TIP3    H218169   6.280   0.540   4.852 -1.3038 -3.7502 -2.2664
 6055TIP3   OH218170   2.703   2.558   0.579  0.3191 -0.8044 -0.1735
 6055TIP3    H118171   2.776   2.568   0.518 -0.4435  0.9725 -0.8583
 6055TIP3    H218172   2.742   2.575   0.665  0.5560  1.1432 -0.6290
 6056TIP3   OH218173   0.022   4.590   4.844 -0.0138  0.6419 -0.4752
 6056TIP3    H118174   0.058   4.512   4.886  0.8543  1.1314 -0.2737
 6056TIP3    H218175   0.066   4.663   4.887 -0.9366  1.2563 -0.5476
 6057TIP3   OH218176   2.898   1.892   4.255  0.2823  0.2961  0.3008
 6057TIP3    H118177   2.926   1.811   4.296  2.2339 -0.6484 -2.6049
 6057TIP3    H218178   2.957   1.959   4.290  1.9340 -0.4990 -0.8414
 6058TIP3   OH218179   1.845   3.574   4.234  0.0075  0.0556  0.2687
 6058TIP3    H118180   1.888   3.499   4.194 -1.2711 -0.3119 -0.4630
 6058TIP3    H218181   1.846   3.642   4.167  0.9802  0.6585  0.8591
 6059TIP3   OH218182   3.421   0.528  -0.025 -0.0199  0.1334  0.2960
 6059TIP3    H118183   3.448   0.487   0.057 -0.2883  0.8834  0.7670
 6059TIP3    H218184   3.453   0.618  -0.019  0.8437 -0.0736 -0.8669
 6060TIP3   OH218185   1.414   2.729   4.258 -0.7092  0.0870 -0.5679
 6060TIP3    H118186   1.328   2.708   4.296 -0.7800 -1.1560 -1.3630
 6060TIP3    H218187   1.461   2.773   4.329 -1.5902 -0.2878  0.2721
 6061TIP3   OH218188   3.538   5.454   2.763  0.4792  0.2133 -0.4417
 6061TIP3    H118189   3.598   5.504   2.708  1.4896 -0.2251  0.2411
 6061TIP3    H218190   3.528   5.506   2.842  1.8009 -0.7841  0.4161
 6062TIP3   OH218191   1.528   3.710   2.773 -0.3275  0.0831  0.1659
 6062TIP3    H118192   1.601   3.719   2.833  0.0347  0.8761 -0.3712
 6062TIP3    H218193   1.569   3.687   2.689 -0.7012  0.4500 -0.1187
 6063TIP3   OH218194   0.819   0.180   4.224  0.0489  0.0873  0.3568
 6063TIP3    H118195   0.787   0.192   4.314 -0.5837  0.4549  0.0882
 6063TIP3    H218196   0.913   0.164   4.234  0.3095  1.8464  0.9780
 6064TIP3   OH218197   3.445   0.732   3.390 -0.4403 -0.2474  0.2599
 6064TIP3    H118198   3.536   0.760   3.381 -0.7398  1.4693  1.8058
 6064TIP3    H218199   3.395   0.798   3.342 -1.0009  0.3596  1.6202
 6065TIP3   OH218200   3.504   4.767   1.562  0.2649 -0.6116 -0.2938
 6065TIP3    H118201   3.450   4.760   1.641 -1.6105  0.5956 -1.3865
 6065TIP3    H218202   3.541   4.855   1.567 -0.5699 -0.1984 -1.1543
 6066TIP3   OH218203   4.183   5.643   1.546 -0.4510  0.5451 -0.7233
 6066TIP3    H118204   4.202   5.696   1.469 -1.0091  1.1144 -0.4829
 6066TIP3    H218205   4.211   5.555   1.523 -0.6370  0.7046 -1.5821
 6067TIP3   OH218206   6.137   0.762   4.619  0.3655  0.0206  0.3942
 6067TIP3    H118207   6.141   0.855   4.643 -3.1736  0.2445  0.5931
 6067TIP3    H218208   6.152   0.762   4.524  0.7470  0.7351  0.4420
 6068TIP3   OH218209   4.390   2.763   0.515 -0.0577 -0.2128 -0.0934
 6068TIP3    H118210   4.380   2.858   0.510  1.4793  0.0557  1.0368
 6068TIP3    H218211   4.319   2.734   0.571  1.4278  0.7702  2.4632
 6069TIP3   OH218212   5.539   1.307   2.154 -0.0167 -0.2668 -0.0138
 6069TIP3    H118213   5.515   1.314   2.246 -2.7515  0.0979 -0.6870
 6069TIP3    H218214   5.627   1.267   2.155  0.3050  0.3283  2.7251
 6070TIP3   OH218215   2.695   0.730   4.446  0.1956  0.1639 -0.0610
 6070TIP3    H118216   2.709   0.671   4.372  0.6411  0.9242 -0.5999
 6070TIP3    H218217   2.745   0.692   4.518  1.3958  0.4736 -0.7136
 6071TIP3   OH218218   1.527   5.822   2.258 -0.4322  0.2994 -0.4317
 6071TIP3    H118219   1.500   5.805   2.168 -0.2188 -0.5082 -0.3550
 6071TIP3    H218220   1.619   5.796   2.262 -0.2216  1.0435 -0.1630
 6072TIP3   OH218221   5.717   1.830   0.360  0.4179  0.4563  0.0352
 6072TIP3    H118222   5.798   1.781   0.348 -0.4108 -1.6709  2.1624
 6072TIP3    H218223   5.657   1.793   0.296 -0.5111 -2.3303  2.2767
 6073TIP3   OH218224   5.700   2.141   0.300 -0.3384  0.3402  0.5882
 6073TIP3    H118225   5.729   2.052   0.321 -0.0499  0.7168  1.8997
 6073TIP3    H218226   5.635   2.129   0.231  0.4188 -0.7960  0.0302
 6074TIP3   OH218227   4.819   2.830   4.351 -0.5086  0.0241  0.2124
 6074TIP3    H118228   4.787   2.871   4.270 -2.3865 -0.4385  0.6505
 6074TIP3    H218229   4.858   2.901   4.401 -0.0917  0.4813 -0.7418
 6075TIP3   OH218230   1.192   5.555   1.805 -0.1392 -0.1813  0.6235
 6075TIP3    H118231   1.108   5.589   1.776  0.4881  0.1569 -0.8496
 6075TIP3    H218232   1.193   5.464   1.777  0.3901  0.0957 -0.3138
 6076TIP3   OH218233   1.055   5.638   0.830 -1.1526  0.1997  0.0561
 6076TIP3    H118234   1.029   5.622   0.739 -3.6611 -0.1311  0.7530
 6076TIP3    H218235   1.056   5.551   0.870 -0.8514  0.4220  0.5324
 6077TIP3   OH218236   1.130   0.903   5.015 -0.1289 -0.8541  0.1471
 6077TIP3    H118237   1.046   0.908   5.061 -0.1122  0.6760  0.0331
 6077TIP3    H218238   1.169   0.821   5.047 -0.2848 -0.0506  2.5672
 6078TIP3   OH218239   4.130   5.712   4.945  0.0484  0.0142 -0.1840
 6078TIP3    H118240   4.097   5.644   5.003  0.1155 -0.8693 -1.1537
 6078TIP3    H218241   4.054   5.766   4.925  0.3079  1.2431  1.8872
 6079TIP3   OH218242   4.972   3.472   3.012 -0.2824 -0.0678 -0.6028
 6079TIP3    H118243   4.987   3.553   3.061  0.3859  0.0366 -0.9701
 6079TIP3    H218244   5.058   3.446   2.981 -0.5044 -0.8788 -0.5625
 6080TIP3   OH218245   6.015   3.282   0.765  0.2800  0.5328  0.3038
 6080TIP3    H118246   6.015   3.310   0.857  0.7927  0.3966  0.3501
 6080TIP3    H218247   6.083   3.214   0.761  0.0443  0.3189 -0.1107
 6081TIP3   OH218248   2.912   5.395   2.347  0.2541 -0.3035 -0.7390
 6081TIP3    H118249   2.939   5.481   2.379 -0.5405  0.1080 -1.1411
 6081TIP3    H218250   2.960   5.333   2.401  0.7035  0.3961 -0.3253
 6082TIP3   OH218251   1.207   4.561   4.164 -0.2057  0.0987 -0.3754
 6082TIP3    H118252   1.233   4.629   4.227 -0.6091 -1.1939  1.2549
 6082TIP3    H218253   1.120   4.588   4.134 -0.7069 -0.0531  0.8570
 6083TIP3   OH218254   1.220   3.844   1.990 -1.0036  0.2989 -0.1001
 6083TIP3    H118255   1.146   3.821   1.934 -1.0646 -0.3260  0.2283
 6083TIP3    H218256   1.297   3.812   1.944 -1.2825 -3.5389  1.7479
 6084TIP3   OH218257   4.664   3.293   0.982 -0.0553 -0.0648  0.2413
 6084TIP3    H118258   4.647   3.199   0.978 -0.8206  0.0429  0.7397
 6084TIP3    H218259   4.578   3.333   0.995  0.4680  0.5493  2.1615
 6085TIP3   OH218260   2.601   3.729   0.319 -0.1899 -0.0205 -0.0021
 6085TIP3    H118261   2.534   3.729   0.387 -1.5378 -0.8084 -1.2712
 6085TIP3    H218262   2.654   3.652   0.338  1.1135  1.2065  1.6546
 6086TIP3   OH218263   4.089   2.236   4.258 -0.2154  0.3049  0.2599
 6086TIP3    H118264   4.041   2.245   4.176  1.4574  1.0101 -0.7090
 6086TIP3    H218265   4.120   2.146   4.259 -0.3720  0.2514  0.1814
 6087TIP3   OH218266   1.940   3.737   4.586 -0.1914  0.0833 -0.3618
 6087TIP3    H118267   1.891   3.659   4.561  0.6045 -0.0955 -1.4424
 6087TIP3    H218268   1.933   3.795   4.510 -0.9334  1.1518  0.5023
 6088TIP3   OH218269   0.212   4.452   2.484 -0.4935 -0.2613 -0.0581
 6088TIP3    H118270   0.215   4.372   2.432 -0.3032 -0.3747  0.1233
 6088TIP3    H218271   0.189   4.521   2.422 -1.0682 -0.5193 -0.1370
 6089TIP3   OH218272   4.622   5.957   3.445  0.5893  0.2547 -0.6753
 6089TIP3    H118273   4.616   5.871   3.405  0.0147  0.8911 -2.0267
 6089TIP3    H218274   4.531   5.987   3.453  0.5927 -0.3107  2.2325
 6090TIP3   OH218275   5.724   5.368   4.086 -0.4693 -1.0251 -0.4215
 6090TIP3    H118276   5.694   5.453   4.054 -0.9552 -0.5773  1.1490
 6090TIP3    H218277   5.648   5.331   4.130  0.7318 -0.5807  2.2056
 6091TIP3   OH218278   5.417   1.477   1.999 -0.1122 -0.1996  1.0894
 6091TIP3    H118279   5.438   1.389   2.030  1.2607 -0.6153 -0.7992
 6091TIP3    H218280   5.503   1.516   1.980 -0.7716  0.6081 -0.4282
 6092TIP3   OH218281   3.738   5.623   3.681  0.0884  0.6408  0.3587
 6092TIP3    H118282   3.795   5.595   3.609 -0.8618  1.1504 -0.6133
 6092TIP3    H218283   3.674   5.681   3.640 -1.8039 -0.7477  1.2150
 6093TIP3   OH218284   5.878   1.836   0.701  0.3678 -0.4657 -0.0652
 6093TIP3    H118285   5.809   1.815   0.638  1.1441  0.3401 -1.2044
 6093TIP3    H218286   5.945   1.881   0.650  0.7676  0.7360  1.4300
 6094TIP3   OH218287   5.019   1.353   4.878  0.2124  0.2562 -0.0373
 6094TIP3    H118288   5.083   1.283   4.870 -0.2581 -0.2420  0.4080
 6094TIP3    H218289   5.070   1.432   4.894  0.6968 -0.2289  0.8932
 6095TIP3   OH218290   5.502   3.765   3.572  0.0682 -0.1964  0.0228
 6095TIP3    H118291   5.468   3.848   3.603 -0.4829 -0.0387 -0.9447
 6095TIP3    H218292   5.425   3.710   3.558  0.2328 -0.1319 -1.3593
 6096TIP3   OH218293   5.104   5.482   0.697 -0.6154  0.2739 -0.0849
 6096TIP3    H118294   5.011   5.471   0.679 -0.3065  0.2018 -1.8529
 6096TIP3    H218295   5.115   5.577   0.710 -0.9072  0.3071 -0.0826
 6097TIP3   OH218296   5.232   0.081   0.940  0.8102  0.0291 -0.5792
 6097TIP3    H118297   5.270   0.169   0.942  0.3218  0.2282  1.0149
 6097TIP3    H218298   5.303   0.025   0.910  1.8587  0.6479  0.6382
 6098TIP3   OH218299   2.081   1.892   3.676  0.5819 -0.4046  0.4452
 6098TIP3    H118300   2.114   1.980   3.693  0.6016 -0.7629  2.5009
 6098TIP3    H218301   2.148   1.834   3.711  0.2424 -1.2452 -0.2500
 6099TIP3   OH218302   0.839   4.687   0.723  0.5848  0.3179  0.1696
 6099TIP3    H118303   0.750   4.670   0.691  0.6188  0.4858 -0.0177
 6099TIP3    H218304   0.839   4.781   0.744  0.8322  0.4079 -0.2071
 6100TIP3   OH218305   5.355   0.241   2.761 -0.1840 -0.0193 -0.8772
 6100TIP3    H118306   5.365   0.335   2.774  1.1846  0.0535 -2.2213
 6100TIP3    H218307   5.299   0.233   2.683  0.2352 -0.2953 -1.1561
 6101TIP3   OH218308   3.121   1.009   0.296  0.3921 -0.2493 -0.2026
 6101TIP3    H118309   3.134   0.978   0.207  0.7742 -0.1962 -0.1682
 6101TIP3    H218310   3.199   0.978   0.344  0.1431 -0.3660  0.1323
 6102TIP3   OH218311   0.801   0.516   2.037 -0.3276 -0.0892 -0.3288
 6102TIP3    H118312   0.817   0.600   1.994 -2.3519 -0.1968 -1.4226
 6102TIP3    H218313   0.706   0.509   2.042 -0.2014 -1.2117  2.0456
 6103TIP3   OH218314   1.365   1.930   0.783  0.0689 -1.1788  0.0210
 6103TIP3    H118315   1.281   1.889   0.759  0.5657 -1.9074 -0.4987
 6103TIP3    H218316   1.411   1.940   0.700 -0.4968  1.5767 -0.0825
 6104TIP3   OH218317   4.754   0.161   3.466 -0.0875 -0.1025 -0.6628
 6104TIP3    H118318   4.665   0.137   3.490 -0.7415  1.8649 -0.9804
 6104TIP3    H218319   4.792   0.196   3.546  0.1213 -0.1300 -0.7478
 6105TIP3   OH218320   0.872   5.103   1.111  0.3246  0.3472 -0.0645
 6105TIP3    H118321   0.899   5.012   1.098  0.5012  0.4230 -0.2408
 6105TIP3    H218322   0.794   5.113   1.056  0.0424  0.1780  0.3033
 6106TIP3   OH218323   5.748   3.987   4.350  0.0645  0.5393  0.4003
 6106TIP3    H118324   5.700   4.069   4.366 -1.5987 -0.8448  3.3439
 6106TIP3    H218325   5.836   4.004   4.385 -0.0650  1.2530  0.3972
 6107TIP3   OH218326   2.615   4.056   2.789 -0.0667 -0.1183  0.1432
 6107TIP3    H118327   2.573   3.970   2.793  0.5103 -0.3717  1.1287
 6107TIP3    H218328   2.641   4.075   2.880  0.8910  0.5471 -0.2492
 6108TIP3   OH218329   2.789   0.019   1.467 -0.0757  0.1622  0.1367
 6108TIP3    H118330   2.811   0.076   1.541  1.0020  1.5459 -1.1680
 6108TIP3    H218331   2.700   0.045   1.443 -0.3362 -0.1148  0.7680
 6109TIP3   OH218332   2.600   2.812   0.972  0.4098 -0.2846  0.0696
 6109TIP3    H118333   2.638   2.881   1.026  2.5653 -1.6431  0.3809
 6109TIP3    H218334   2.538   2.768   1.030  0.2688  0.3039  0.3792
 6110TIP3   OH218335   5.974   1.527   3.122 -0.1678  0.1449  0.6542
 6110TIP3    H118336   5.955   1.543   3.029  2.4204 -1.3728 -0.2399
 6110TIP3    H218337   6.067   1.547   3.132 -0.0527 -1.0941  2.5770
 6111TIP3   OH218338   5.070   0.504   4.475 -0.0789  0.2420  0.6031
 6111TIP3    H118339   5.017   0.549   4.408 -0.7804  0.0391  1.0039
 6111TIP3    H218340   5.037   0.539   4.558 -1.4165 -1.7762  0.9998
 6112TIP3   OH218341   4.425   5.577   5.149 -0.3090 -0.1328 -0.0198
 6112TIP3    H118342   4.333   5.590   5.171 -0.7551 -1.3635 -1.0296
 6112TIP3    H218343   4.441   5.638   5.077 -0.3416  0.0209  0.1006
 6113TIP3   OH218344   3.812   4.036   2.426 -0.2189  0.2197 -0.3366
 6113TIP3    H118345   3.762   4.071   2.353 -0.5118  0.5677  0.0285
 6113TIP3    H218346   3.902   4.030   2.392  0.3495  3.5238  0.2673
 6114TIP3   OH218347   6.318   4.083   1.461  0.6996 -0.4792 -0.0767
 6114TIP3    H118348   6.230   4.045   1.464 -0.1123  1.2874 -0.3545
 6114TIP3    H218349   6.355   4.051   1.378 -0.9635  1.3259 -1.6121
 6115TIP3   OH218350   3.170   4.354   1.882  0.2512 -0.0504  0.1518
 6115TIP3    H118351   3.107   4.288   1.912 -0.1271  0.2607  0.0481
 6115TIP3    H218352   3.132   4.438   1.907 -1.5720  0.4710 -3.5975
 6116TIP3   OH218353   4.338   1.646   3.889  0.0030  0.3286  0.4683
 6116TIP3    H118354   4.416   1.664   3.837  0.0845  0.0051  0.4718
 6116TIP3    H218355   4.355   1.560   3.928  0.2203  0.8569  1.5592
 6117TIP3   OH218356   2.476   1.823   2.288 -0.3031 -0.2118 -0.2830
 6117TIP3    H118357   2.422   1.811   2.210  0.9218 -0.6346 -1.0959
 6117TIP3    H218358   2.532   1.898   2.267  0.3559 -0.6145  0.0020
 6118TIP3   OH218359   4.470   4.908   0.725 -0.2195 -0.6913 -0.3073
 6118TIP3    H118360   4.535   4.927   0.657  0.0812 -0.8793 -0.0723
 6118TIP3    H218361   4.432   4.993   0.746  2.4217  0.0386  2.0978
 6119TIP3   OH218362   1.957   0.333   3.740  0.4945 -0.1153 -0.3817
 6119TIP3    H118363   1.897   0.380   3.798 -0.7971  0.3305 -1.9844
 6119TIP3    H218364   2.000   0.402   3.689  1.1166 -0.5133 -0.3960
 6120TIP3   OH218365   4.328   1.570   0.033  0.3963 -0.2203  0.3464
 6120TIP3    H118366   4.326   1.661   0.063  0.9771 -0.2416  0.4658
 6120TIP3    H218367   4.402   1.532   0.080  0.9089 -0.4322 -0.6294
 6121TIP3   OH218368   0.317   3.807   2.235  0.6333 -0.0012 -0.5702
 6121TIP3    H118369   0.295   3.730   2.288  2.9397 -0.0156  0.4829
 6121TIP3    H218370   0.325   3.774   2.146 -0.1941 -0.6132 -0.4270
 6122TIP3   OH218371   4.897   4.196   2.520  0.3431  0.0080 -0.5058
 6122TIP3    H118372   4.806   4.217   2.500  0.5200 -0.3456 -1.7921
 6122TIP3    H218373   4.934   4.167   2.437  1.0607 -1.9041  0.3962
 6123TIP3   OH218374   1.988   3.878   4.363  0.1580  0.3024  0.0585
 6123TIP3    H118375   1.933   3.888   4.286  0.7255  3.0688 -0.0958
 6123TIP3    H218376   2.074   3.853   4.328 -0.3617 -1.6154  0.0984
 6124TIP3   OH218377   6.070   4.440   2.577 -0.0675 -0.1276 -0.1714
 6124TIP3    H118378   6.003   4.487   2.626 -0.1111  0.1128 -0.4601
 6124TIP3    H218379   6.112   4.506   2.523 -1.3823 -0.6977 -1.9860
 6125TIP3   OH218380   2.974   5.173   0.127 -0.4494  0.3381  0.3722
 6125TIP3    H118381   2.924   5.248   0.096  1.9171  2.0472  0.3783
 6125TIP3    H218382   2.987   5.190   0.220  0.2171  0.0045  0.3463
 6126TIP3   OH218383   3.411   3.467   1.829  0.3110 -0.4078 -0.0745
 6126TIP3    H118384   3.452   3.464   1.743  0.1129  0.0202 -0.1825
 6126TIP3    H218385   3.420   3.377   1.863  1.7359 -0.2204  0.0922
 6127TIP3   OH218386   2.737   3.082   2.259  0.1707  0.1694 -0.1721
 6127TIP3    H118387   2.807   3.141   2.230 -0.1987  0.3469 -0.7285
 6127TIP3    H218388   2.763   3.056   2.347  1.8241 -1.1324 -0.9789
 6128TIP3   OH218389   5.380   3.757   5.015  0.6616  0.4117 -0.4534
 6128TIP3    H118390   5.400   3.684   4.956 -0.1737 -1.1348  1.1169
 6128TIP3    H218391   5.461   3.771   5.064  0.1989 -0.9231  0.7391
 6129TIP3   OH218392   2.782   3.021   1.099  0.2001 -0.7032 -0.1226
 6129TIP3    H118393   2.779   2.980   1.185 -0.3794 -0.9972 -0.2717
 6129TIP3    H218394   2.841   2.965   1.048 -0.7672 -1.5169 -0.3928
 6130TIP3   OH218395   1.515   1.504   4.234 -0.2087  0.2027 -0.0391
 6130TIP3    H118396   1.438   1.561   4.238 -1.2986 -1.2209  0.6226
 6130TIP3    H218397   1.488   1.425   4.283  1.5068 -0.5351 -0.2203
 6131TIP3   OH218398   4.787   0.190   3.989  0.1336 -0.1971 -0.1011
 6131TIP3    H118399   4.765   0.234   4.071  0.5715 -0.0531 -0.0543
 6131TIP3    H218400   4.706   0.147   3.961 -0.4091  0.9268 -0.3271
 6132TIP3   OH218401   4.179   3.189  -0.009 -0.0390 -0.3089 -0.7113
 6132TIP3    H118402   4.270   3.210  -0.031  0.8819 -1.5373  1.6157
 6132TIP3    H218403   4.184   3.149   0.078 -2.6955 -1.3802 -0.9662
 6133TIP3   OH218404   4.081   1.228   2.081 -0.3477 -0.0161 -0.8622
 6133TIP3    H118405   4.026   1.286   2.133 -0.1592 -0.6398  0.0640
 6133TIP3    H218406   4.160   1.278   2.065 -0.8979  0.6302 -1.6031
 6134TIP3   OH218407   1.158   1.447   4.361 -0.2989  0.0652  0.1956
 6134TIP3    H118408   1.241   1.484   4.391 -1.0612  0.9234  1.3327
 6134TIP3    H218409   1.135   1.498   4.284 -0.4199  0.7206  0.6623
 6135TIP3   OH218410   4.643   1.646   3.571  0.0148 -0.7131 -0.9511
 6135TIP3    H118411   4.564   1.612   3.530 -0.2922  0.0222 -0.9764
 6135TIP3    H218412   4.670   1.718   3.515  0.8176 -1.0812 -1.0496
 6136TIP3   OH218413   1.605   0.604   0.892 -0.0944 -0.6942 -0.6581
 6136TIP3    H118414   1.572   0.648   0.970 -0.0385 -2.2937  0.3171
 6136TIP3    H218415   1.675   0.660   0.861 -0.4505  0.2294  0.1562
 6137TIP3   OH218416   4.087   5.047   0.040 -0.6239  0.6094 -0.3204
 6137TIP3    H118417   4.052   4.981   0.101 -0.0400 -0.8831 -1.5491
 6137TIP3    H218418   4.146   5.100   0.094 -1.7859  0.7156  0.8919
 6138TIP3   OH218419   4.796   2.589   3.667 -0.1629 -0.4140  0.1174
 6138TIP3    H118420   4.747   2.642   3.730  0.9914 -0.6878  1.3156
 6138TIP3    H218421   4.888   2.604   3.690  0.3505 -0.0052 -1.9666
 6139TIP3   OH218422   4.486   2.222   3.577  0.2460  0.0307  0.2136
 6139TIP3    H118423   4.531   2.143   3.547  1.4715  0.6886  0.2625
 6139TIP3    H218424   4.467   2.205   3.669  0.4890 -0.2119  0.2202
 6140TIP3   OH218425   2.730   2.912   0.493 -0.8007  0.3830  0.9058
 6140TIP3    H118426   2.748   2.964   0.415 -1.3619 -1.7671 -0.7642
 6140TIP3    H218427   2.641   2.879   0.480 -0.6799 -0.5261  2.1603
 6141TIP3   OH218428   2.030   4.924   3.668  0.6659  0.7686 -0.6007
 6141TIP3    H118429   1.978   4.995   3.706 -0.1765  0.7409 -1.6595
 6141TIP3    H218430   2.032   4.942   3.574 -1.5691 -1.7776 -1.2616
 6142TIP3   OH218431   5.109   4.383   0.896 -0.0181 -0.2398 -0.7358
 6142TIP3    H118432   5.030   4.329   0.884  0.2121 -1.0779  1.0801
 6142TIP3    H218433   5.078   4.473   0.887 -0.8964 -0.5946 -1.4351
 6143TIP3   OH218434   5.099   3.713   3.598 -0.3851  0.4575  0.5897
 6143TIP3    H118435   5.165   3.655   3.561 -0.5352  0.6702 -0.0118
 6143TIP3    H218436   5.020   3.660   3.603 -0.5610  0.6469 -0.0968
 6144TIP3   OH218437   4.691   0.510   1.579  0.3093  0.3347 -0.2011
 6144TIP3    H118438   4.769   0.533   1.629  0.9930 -1.6417 -0.2696
 6144TIP3    H218439   4.676   0.584   1.521  1.7357  1.0228  0.2832
 6145TIP3   OH218440   1.591   4.753   2.588 -0.3930 -0.2513 -0.1133
 6145TIP3    H118441   1.500   4.750   2.557 -0.6862 -0.0540  0.7156
 6145TIP3    H218442   1.643   4.763   2.508 -1.1158 -0.1164 -0.5721
 6146TIP3   OH218443   1.771   1.839   0.792  0.9780 -0.3210  0.3539
 6146TIP3    H118444   1.738   1.918   0.834 -1.3089  0.3576 -2.4166
 6146TIP3    H218445   1.851   1.866   0.747  0.3814  0.3652 -0.3125
 6147TIP3   OH218446   3.424   4.836   2.520  0.1432  0.3493 -0.0923
 6147TIP3    H118447   3.423   4.747   2.555 -0.9492 -0.1404 -1.2514
 6147TIP3    H218448   3.512   4.847   2.486  0.2045 -0.4165 -0.2083
 6148TIP3   OH218449   2.944   0.377   2.814  0.0530  0.4822  0.1344
 6148TIP3    H118450   2.875   0.443   2.823  1.2926  1.6980  1.3160
 6148TIP3    H218451   2.964   0.375   2.720 -0.9835  0.7153 -0.1051
 6149TIP3   OH218452   1.895   4.144   4.437 -0.2591 -0.0059 -0.4175
 6149TIP3    H118453   1.910   4.180   4.349  1.0741  1.0878  0.2148
 6149TIP3    H218454   1.931   4.056   4.434  1.4790  0.6646 -0.4920
 6150TIP3   OH218455   1.880   0.246   4.991 -0.2216  0.2155 -0.1476
 6150TIP3    H118456   1.923   0.232   5.075 -1.1146  0.6707  0.3964
 6150TIP3    H218457   1.926   0.320   4.951 -0.2447  0.4482  0.2572
 6151TIP3   OH218458   4.800   1.985   2.865  0.0180  0.3174 -0.4990
 6151TIP3    H118459   4.879   1.943   2.829 -0.6516 -2.6843  1.1555
 6151TIP3    H218460   4.763   2.033   2.791  2.2675  0.1066 -1.8769
 6152TIP3   OH218461   0.770   3.691   4.035  0.0591 -0.5470 -0.6281
 6152TIP3    H118462   0.712   3.723   3.966  0.4419  0.1104 -0.6553
 6152TIP3    H218463   0.842   3.754   4.037  2.4354 -2.8841 -2.6970
 6153TIP3   OH218464   0.795   4.095   2.830 -0.5570  0.1053  0.1421
 6153TIP3    H118465   0.832   4.095   2.742 -0.6863 -3.2189 -0.0294
 6153TIP3    H218466   0.700   4.089   2.816 -0.5209 -1.6579  0.4146
 6154TIP3   OH218467   1.087   0.147   4.624  0.1241  0.5173  0.8626
 6154TIP3    H118468   1.126   0.234   4.619  0.4152  0.3648  0.4271
 6154TIP3    H218469   1.068   0.124   4.534  0.5241 -0.0848  0.9271
 6155TIP3   OH218470   5.593   0.951   2.146 -0.0387  0.4914  0.1195
 6155TIP3    H118471   5.639   0.868   2.147  0.0885  0.5478 -0.5080
 6155TIP3    H218472   5.661   1.017   2.133 -0.3639  0.4859 -2.1444
 6156TIP3   OH218473   0.271   5.530   3.316  0.3744 -0.1805 -0.0401
 6156TIP3    H118474   0.264   5.472   3.392 -2.1347 -1.5789 -1.2432
 6156TIP3    H218475   0.312   5.609   3.351 -1.3242 -0.4701  2.9812
 6157TIP3   OH218476   6.125   5.727   1.769  0.5469 -0.3618  0.0122
 6157TIP3    H118477   6.065   5.802   1.761  1.1404  0.0163 -1.1440
 6157TIP3    H218478   6.094   5.679   1.846  0.1687  1.0886  0.7976
 6158TIP3   OH218479   0.184   4.537   4.629  0.0121 -0.0107 -0.2997
 6158TIP3    H118480   0.126   4.555   4.702  0.2781 -1.3317  0.2605
 6158TIP3    H218481   0.143   4.464   4.582 -0.3750  1.0750 -1.7463
 6159TIP3   OH218482   2.790  -0.006   4.033 -0.2705 -0.0602 -0.2378
 6159TIP3    H118483   2.805   0.010   3.940 -0.5175  0.5836 -0.1692
 6159TIP3    H218484   2.877  -0.001   4.073 -0.2516  0.3780 -0.3283
 6160TIP3   OH218485   0.490   1.304   1.474 -0.0120  0.0553  0.0694
 6160TIP3    H118486   0.551   1.320   1.402  0.0805 -1.8595 -0.3348
 6160TIP3    H218487   0.538   1.332   1.552  0.0574  1.7321 -0.5367
 6161TIP3   OH218488   3.897   0.092   2.309 -0.4950 -0.6098  0.7388
 6161TIP3    H118489   3.835   0.140   2.254  1.3871  1.9713  0.6629
 6161TIP3    H218490   3.871   0.113   2.399 -0.5496 -0.6333  0.7282
 6162TIP3   OH218491   5.570   3.248   0.239 -0.3760 -0.4198 -0.2020
 6162TIP3    H118492   5.504   3.315   0.256 -0.7354 -0.3914 -1.5659
 6162TIP3    H218493   5.625   3.285   0.170  0.0688 -1.0913 -0.2211
 6163TIP3   OH218494   6.100   1.006   4.860  0.1020 -0.1398 -0.0314
 6163TIP3    H118495   6.169   1.065   4.890 -1.4378  1.1722  1.1410
 6163TIP3    H218496   6.084   1.033   4.769  0.4698  0.2071  0.0022
 6164TIP3   OH218497   1.296   4.962   3.590 -0.7356  0.2448  0.4905
 6164TIP3    H118498   1.303   5.022   3.516  0.0800 -0.6840 -0.2033
 6164TIP3    H218499   1.350   5.002   3.659 -0.3740  0.4205  0.1064
 6165TIP3   OH218500   1.201   3.853   2.490  0.0043  0.3488 -0.2094
 6165TIP3    H118501   1.149   3.773   2.481  0.0763  0.0961  1.3339
 6165TIP3    H218502   1.287   3.829   2.457 -0.1174 -0.0664 -0.2359
 6166TIP3   OH218503   1.140   4.270   3.144  0.4706 -0.1111  0.6243
 6166TIP3    H118504   1.074   4.216   3.100  0.3242  0.0078  0.6959
 6166TIP3    H218505   1.223   4.228   3.123  0.5502  0.8158 -1.0859
 6167TIP3   OH218506   5.885   0.024   0.450 -0.1711  0.0183  0.1682
 6167TIP3    H118507   5.836   0.099   0.414  1.5643  1.2699  0.2680
 6167TIP3    H218508   5.850  -0.052   0.404  0.1566  1.2543 -2.2912
 6168TIP3   OH218509   3.565   1.913   4.553 -0.5249 -0.0724  0.5421
 6168TIP3    H118510   3.584   1.830   4.599  1.9433  0.1559  0.0758
 6168TIP3    H218511   3.601   1.900   4.465  1.1310  1.8940  0.8526
 6169TIP3   OH218512   0.892   4.502   1.298  0.1370  0.0068  0.1666
 6169TIP3    H118513   0.855   4.485   1.211  1.0520 -0.3960 -0.1668
 6169TIP3    H218514   0.920   4.416   1.329 -1.1803 -0.0205  1.3542
 6170TIP3   OH218515   2.302   2.387   1.738  0.0307  0.5066 -0.1344
 6170TIP3    H118516   2.281   2.404   1.830  1.1640  2.9635 -0.2526
 6170TIP3    H218517   2.283   2.469   1.694 -0.0137 -0.4800 -2.0366
 6171TIP3   OH218518   1.553   4.274   1.313  0.1153  0.3560  0.3461
 6171TIP3    H118519   1.641   4.285   1.276 -0.0286 -0.4773 -0.2491
 6171TIP3    H218520   1.565   4.293   1.406  1.3642 -1.6854  0.6667
 6172TIP3   OH218521   1.342   3.182   2.006 -0.3477  0.5360  0.0084
 6172TIP3    H118522   1.309   3.263   2.044  0.0899  2.0115 -2.4923
 6172TIP3    H218523   1.435   3.182   2.026 -0.4322  0.3711  0.4216
 6173TIP3   OH218524   6.033   4.165   3.978 -0.1970  0.6388  0.4516
 6173TIP3    H118525   6.046   4.188   4.070  1.9981  0.2740  0.2787
 6173TIP3    H218526   5.961   4.221   3.949 -0.4055  1.3179  2.1796
 6174TIP3   OH218527   1.080   3.209   0.385  0.1057 -0.3744 -0.2475
 6174TIP3    H118528   0.989   3.195   0.410 -0.8142  2.8618 -1.2586
 6174TIP3    H218529   1.129   3.202   0.467 -1.3975  0.0146  0.7207
 6175TIP3   OH218530   2.423   5.903   4.485 -0.1597  0.2527 -0.0953
 6175TIP3    H118531   2.513   5.916   4.457  0.1812 -1.9755 -0.2380
 6175TIP3    H218532   2.430   5.870   4.574 -0.8106 -0.1161 -0.1731
 6176TIP3   OH218533   5.144   5.446   4.107  0.5063 -0.1886  0.4020
 6176TIP3    H118534   5.090   5.393   4.048 -1.5188  3.0742 -0.9363
 6176TIP3    H218535   5.105   5.435   4.193 -0.4435 -0.1771 -0.0178
 6177TIP3   OH218536   3.093   2.690   2.268 -0.4030  0.0318  0.4269
 6177TIP3    H118537   3.137   2.741   2.336 -0.6029  0.5505  0.1731
 6177TIP3    H218538   3.077   2.753   2.197  1.1399 -0.8195 -0.7264
 6178TIP3   OH218539   1.248   5.504   4.807 -0.5277  0.1864 -0.4239
 6178TIP3    H118540   1.296   5.504   4.724 -1.1084 -0.4152 -0.7721
 6178TIP3    H218541   1.161   5.473   4.784 -0.3957 -1.0152  0.5851
 6179TIP3   OH218542   0.999   0.930   1.240 -0.5684 -0.3421 -0.6765
 6179TIP3    H118543   0.916   0.940   1.193 -0.9784 -2.0130 -0.3888
 6179TIP3    H218544   1.058   0.891   1.175 -0.1268  0.4308 -0.7502
 6180TIP3   OH218545   2.554   4.710   1.190 -0.9125  0.4938 -0.2353
 6180TIP3    H118546   2.556   4.757   1.107  0.0897  1.9642  0.5751
 6180TIP3    H218547   2.475   4.741   1.233  0.5040  2.7465  0.9494
 6181TIP3   OH218548   0.484   3.559   0.364 -0.6857 -0.2059  0.2585
 6181TIP3    H118549   0.413   3.606   0.409  0.0549  1.8966 -0.6366
 6181TIP3    H218550   0.554   3.555   0.429 -0.3284  1.0798 -0.0016
 6182TIP3   OH218551   4.552   1.098   0.572 -0.4585  0.0080  0.6438
 6182TIP3    H118552   4.528   1.005   0.573 -3.3299  0.6113  2.9186
 6182TIP3    H218553   4.645   1.099   0.592  0.0125 -2.3706 -0.9631
 6183TIP3   OH218554   6.252   4.980   4.938 -0.3338  0.3153  0.5433
 6183TIP3    H118555   6.316   5.016   5.000  1.2947 -0.3403 -0.6820
 6183TIP3    H218556   6.186   5.048   4.929  0.6406  1.3778  1.1956
 6184TIP3   OH218557   0.598   0.717   1.168  0.1838 -0.0155  0.3954
 6184TIP3    H118558   0.667   0.784   1.170  0.3937 -0.1666 -0.8461
 6184TIP3    H218559   0.645   0.635   1.154 -0.0485 -0.5064  2.1901
 6185TIP3   OH218560   4.827   1.714   2.785 -0.2745 -0.1158  0.6290
 6185TIP3    H118561   4.863   1.754   2.865 -0.5385 -1.2457  1.3435
 6185TIP3    H218562   4.742   1.680   2.812 -1.0295  0.7634 -0.5358
 6186TIP3   OH218563   3.670   3.113   0.192 -0.1857 -0.2464 -0.1132
 6186TIP3    H118564   3.590   3.062   0.185 -0.0296 -0.7529  1.4670
 6186TIP3    H218565   3.680   3.154   0.106 -0.5298 -2.5522 -1.3081
 6187TIP3   OH218566   5.206   4.869   2.310  0.2412  0.2342 -0.3218
 6187TIP3    H118567   5.241   4.815   2.381  1.0274  1.4127  0.2041
 6187TIP3    H218568   5.112   4.848   2.309  0.7597 -2.4363 -1.3004
 6188TIP3   OH218569   0.389   1.674   5.024 -0.5691 -0.1357  1.0709
 6188TIP3    H118570   0.462   1.613   5.037  0.7025  1.5997  2.5125
 6188TIP3    H218571   0.417   1.730   4.952 -0.8278  0.0339  1.1004
 6189TIP3   OH218572   4.504   1.676   1.248 -0.0986 -0.4470 -0.4318
 6189TIP3    H118573   4.542   1.762   1.264 -1.0426  0.2183 -1.5988
 6189TIP3    H218574   4.538   1.650   1.162 -0.2256 -1.0225 -0.3156
 6190TIP3   OH218575   3.825   1.481   2.028 -0.2536  0.0322 -0.1290
 6190TIP3    H118576   3.829   1.432   2.110 -1.7953 -1.4296 -0.8487
 6190TIP3    H218577   3.769   1.556   2.047  0.8230  0.6892  0.5687
 6191TIP3   OH218578   4.049   4.782   5.126 -0.0787 -0.1872 -0.2793
 6191TIP3    H118579   3.989   4.856   5.129  0.1667 -0.0000  0.0825
 6191TIP3    H218580   3.994   4.706   5.144 -0.5097 -0.2112 -1.6018
 6192TIP3   OH218581   1.674   4.890   2.826 -0.0089 -0.4237  0.3339
 6192TIP3    H118582   1.633   4.840   2.756  0.8642  0.1530 -0.6190
 6192TIP3    H218583   1.610   4.958   2.849  0.2978  0.3434 -0.9917
 6193TIP3   OH218584   4.326   1.380   3.952 -0.3059  0.2286  0.0174
 6193TIP3    H118585   4.362   1.416   4.034 -0.2125 -2.0127  1.0613
 6193TIP3    H218586   4.324   1.285   3.968  1.1420 -0.4562 -3.1410
 6194TIP3   OH218587   4.503   0.114   2.936 -0.0895 -0.0350  0.0336
 6194TIP3    H118588   4.590   0.152   2.924 -0.2151  0.6731  1.2675
 6194TIP3    H218589   4.454   0.180   2.984 -0.6685 -1.2535  1.1887
 6195TIP3   OH218590   5.118   2.921   4.389  0.2926 -0.3452  0.1029
 6195TIP3    H118591   5.070   2.988   4.341  0.8932 -0.3914 -0.5799
 6195TIP3    H218592   5.132   2.850   4.326  0.8619 -0.5197  0.4080
 6196TIP3   OH218593   2.156   2.891   2.204 -0.2223  0.3683 -0.5968
 6196TIP3    H118594   2.154   2.822   2.271  0.1194  0.1672 -0.7964
 6196TIP3    H218595   2.065   2.898   2.176 -0.5792  1.2065  0.6567
 6197TIP3   OH218596   0.858   2.632   0.282  0.0826 -0.1636  0.4138
 6197TIP3    H118597   0.784   2.629   0.223  0.4143  0.0665 -0.0200
 6197TIP3    H218598   0.907   2.552   0.264 -0.1312 -0.3828  0.7964
 6198TIP3   OH218599   4.237   5.356   2.397 -0.4596 -0.6166 -0.2751
 6198TIP3    H118600   4.331   5.369   2.388 -0.2979  0.1482  1.8464
 6198TIP3    H218601   4.222   5.264   2.377  0.6265 -0.5955 -1.2507
 6199TIP3   OH218602   1.918   1.378   2.503 -0.0646 -0.0423  0.4351
 6199TIP3    H118603   1.825   1.369   2.485  0.1495 -0.6506 -0.4508
 6199TIP3    H218604   1.957   1.296   2.473  0.7111  0.0361  1.1614
 6200TIP3   OH218605   4.699   2.456   4.510  0.4623  0.2239  0.6244
 6200TIP3    H118606   4.645   2.530   4.485  0.6274  0.4276  0.8686
 6200TIP3    H218607   4.789   2.488   4.503  0.5655 -0.2058 -0.0831
 6201TIP3   OH218608   1.964   0.248   2.519  0.4601  0.2906 -0.5226
 6201TIP3    H118609   2.058   0.264   2.520  0.4669  0.9029  2.7898
 6201TIP3    H218610   1.955   0.158   2.552 -0.1151  0.5187 -0.0461
 6202TIP3   OH218611   2.504   5.231   3.691  0.2446  0.1739 -0.3970
 6202TIP3    H118612   2.520   5.317   3.731  1.8435 -0.5755  0.6975
 6202TIP3    H218613   2.545   5.236   3.605 -0.3293  0.7427 -0.6428
 6203TIP3   OH218614   4.515   0.039   0.316 -0.2064 -0.3890 -0.2760
 6203TIP3    H118615   4.604   0.018   0.345 -0.3153 -1.2907 -0.5683
 6203TIP3    H218616   4.527   0.076   0.229 -0.0444  0.4548  0.0922
 6204TIP3   OH218617   5.362   3.170   4.602  0.3859 -0.2513  0.0710
 6204TIP3    H118618   5.449   3.131   4.593  0.8385  0.4242  1.3569
 6204TIP3    H218619   5.342   3.205   4.514  0.9544 -1.3044 -0.4934
 6205TIP3   OH218620   0.125   2.627   2.862 -1.0415  0.5041  0.1883
 6205TIP3    H118621   0.154   2.542   2.828  1.5160  1.4182 -0.1556
 6205TIP3    H218622   0.036   2.636   2.830 -1.1996 -1.8008 -0.2199
 6206TIP3   OH218623   5.997   1.035   3.476  0.4111  0.5337 -0.2985
 6206TIP3    H118624   6.008   1.124   3.442 -2.0989  2.2394  2.7845
 6206TIP3    H218625   6.072   1.023   3.535  0.2222  1.0158  0.0416
 6207TIP3   OH218626   2.978   5.186   2.526 -0.1247 -0.4582 -0.3871
 6207TIP3    H118627   2.929   5.107   2.502 -0.1886 -1.0398  1.5157
 6207TIP3    H218628   3.067   5.154   2.543 -0.0305 -0.0341 -0.0831
 6208TIP3   OH218629   0.989   5.410   3.035  0.1838 -0.3629  0.1484
 6208TIP3    H118630   0.902   5.397   2.997  0.2090 -1.5546  0.4345
 6208TIP3    H218631   0.978   5.389   3.128  0.3421  1.5264  0.6397
 6209TIP3   OH218632   3.508   4.455   4.058  0.3644 -0.2379 -0.6979
 6209TIP3    H118633   3.516   4.549   4.039 -0.4795  0.0879  0.4479
 6209TIP3    H218634   3.591   4.431   4.098 -0.0201  0.4131  0.5204
 6210TIP3   OH218635   6.295   5.935   1.700  0.8576  0.6486  0.0100
 6210TIP3    H118636   6.234   5.889   1.758  0.9064  0.9538  0.3005
 6210TIP3    H218637   6.371   5.955   1.754  2.4856 -2.2052 -1.0198
 6211TIP3   OH218638   3.301   0.096   0.773 -0.1938 -0.3961  0.5898
 6211TIP3    H118639   3.376   0.120   0.827 -1.4613 -0.1741  2.3353
 6211TIP3    H218640   3.254   0.178   0.760 -2.0630 -1.0373  2.6739
 6212TIP3   OH218641   5.588   5.064   3.965 -0.3683  0.0380  0.3821
 6212TIP3    H118642   5.496   5.088   3.952 -0.1665 -0.3128 -2.1447
 6212TIP3    H218643   5.629   5.081   3.881  1.7531 -0.4833  1.2638
 6213TIP3   OH218644   2.541   3.098   4.797  0.1699 -0.2398 -0.1043
 6213TIP3    H118645   2.456   3.123   4.761  0.9954  0.7811 -1.4950
 6213TIP3    H218646   2.526   3.086   4.890 -1.4059  0.3348 -0.2567
 6214TIP3   OH218647   4.306   2.930   3.860  0.2497 -0.4287  0.0818
 6214TIP3    H118648   4.288   2.909   3.951 -0.9032  0.5945  0.1117
 6214TIP3    H218649   4.286   3.024   3.852  0.4607 -0.4671 -1.1832
 6215TIP3   OH218650   0.349   1.340   3.175 -0.2745 -0.4816 -0.1261
 6215TIP3    H118651   0.362   1.295   3.092  0.7223 -0.7646  0.1700
 6215TIP3    H218652   0.329   1.270   3.237  0.7463 -0.4810  0.2250
 6216TIP3   OH218653   3.681   3.386   2.659  0.1886  0.1159  0.0772
 6216TIP3    H118654   3.776   3.374   2.666  0.0619 -0.0677  1.9744
 6216TIP3    H218655   3.657   3.432   2.739 -1.3981 -0.3362 -0.1085
 6217TIP3   OH218656   2.427   3.758   2.537 -0.6841  0.1991  0.0261
 6217TIP3    H118657   2.337   3.751   2.506 -1.0427  2.2734  0.4675
 6217TIP3    H218658   2.459   3.667   2.538 -3.2853 -0.8179  1.4649
 6218TIP3   OH218659   6.156   4.443   3.623  0.4888 -0.3253 -0.4069
 6218TIP3    H118660   6.139   4.477   3.711  0.3509 -0.2015 -0.4799
 6218TIP3    H218661   6.201   4.360   3.637 -0.2686 -0.7115 -0.2036
 6219TIP3   OH218662   0.405   2.150   0.337  0.9083  0.9750 -0.0368
 6219TIP3    H118663   0.494   2.137   0.306  0.5098 -0.7754 -0.5505
 6219TIP3    H218664   0.372   2.223   0.285  2.4994  2.7003  1.2381
 6220TIP3   OH218665   2.044   2.286   2.190  0.4105  0.0329 -0.1022
 6220TIP3    H118666   1.956   2.323   2.198  0.6051  0.6772 -0.8479
 6220TIP3    H218667   2.083   2.299   2.277  0.4665  1.6067 -0.3298
 6221TIP3   OH218668   4.605   4.143   2.863  0.2147 -0.5996  0.0307
 6221TIP3    H118669   4.614   4.134   2.958  0.3408 -1.2348 -0.0352
 6221TIP3    H218670   4.682   4.097   2.828 -0.2164 -0.9951 -0.3988
 6222TIP3   OH218671   0.379   2.010   1.267  0.2597 -0.1776  0.1848
 6222TIP3    H118672   0.327   2.090   1.281  1.1616  0.3861  0.4053
 6222TIP3    H218673   0.453   2.039   1.215 -0.2495 -1.2190 -1.1648
 6223TIP3   OH218674   4.595   2.686   4.437  0.1494 -0.2090 -0.1715
 6223TIP3    H118675   4.525   2.702   4.373 -0.0231 -0.1369  0.0335
 6223TIP3    H218676   4.669   2.738   4.405  0.0185 -0.0641 -0.2390
 6224TIP3   OH218677   5.203   4.132   1.503 -0.1691  0.1019 -0.4018
 6224TIP3    H118678   5.248   4.181   1.434  0.0438  0.9108  0.2883
 6224TIP3    H218679   5.150   4.198   1.547 -1.6913 -0.7480 -0.9017
 6225TIP3   OH218680   4.869   4.628   3.897  0.5086 -0.3427 -0.1808
 6225TIP3    H118681   4.863   4.540   3.861 -0.2960  0.4866 -2.2507
 6225TIP3    H218682   4.812   4.626   3.974  0.0564 -1.4768 -0.5241
 6226TIP3   OH218683   1.455   4.895   4.495  0.3784 -0.5895 -0.3548
 6226TIP3    H118684   1.507   4.975   4.494  2.1979 -1.7023 -1.6681
 6226TIP3    H218685   1.438   4.878   4.587  2.8326 -0.4273  0.1826
 6227TIP3   OH218686   4.584   4.298   2.068 -0.0082 -0.4616  0.2563
 6227TIP3    H118687   4.512   4.236   2.068 -1.0630  0.7150  0.2093
 6227TIP3    H218688   4.587   4.332   1.978  2.0873 -2.1023 -0.3760
 6228TIP3   OH218689   0.283   1.085   2.408 -0.0606  0.5495  0.5006
 6228TIP3    H118690   0.289   0.999   2.366 -2.0486  0.9819 -0.8050
 6228TIP3    H218691   0.334   1.075   2.489  1.3013 -1.2722 -0.4732
 6229TIP3   OH218692   3.894   3.429   3.962  0.4429 -0.0241 -0.2021
 6229TIP3    H118693   3.928   3.483   4.033  1.1183  0.4061 -0.8462
 6229TIP3    H218694   3.965   3.367   3.944  0.3594  0.0148 -0.6546
 6230TIP3   OH218695   3.911   5.243   2.308  0.4087 -0.4363 -0.4005
 6230TIP3    H118696   3.918   5.323   2.360  2.2190 -1.5292  1.1710
 6230TIP3    H218697   3.967   5.180   2.353  0.6985 -1.9901 -2.7555
 6231TIP3   OH218698   3.866   0.673   0.568  0.0728  0.4635 -0.5419
 6231TIP3    H118699   3.954   0.645   0.595  0.0707  1.1125  0.1596
 6231TIP3    H218700   3.812   0.664   0.646 -0.6199 -0.4148 -1.1042
 6232TIP3   OH218701   0.064   3.030   0.496  0.1224  0.3515  0.6481
 6232TIP3    H118702   0.108   3.016   0.413  0.0450 -1.2328  0.8463
 6232TIP3    H218703   0.109   2.973   0.558  0.0596  1.3570  1.6716
 6233TIP3   OH218704   2.799   2.079   4.915  0.2045 -0.0031  0.0573
 6233TIP3    H118705   2.865   2.059   4.849  0.9854 -2.3673  1.4120
 6233TIP3    H218706   2.847   2.123   4.986 -0.0469 -0.0512  0.2619
 6234TIP3   OH218707   1.320   4.887   1.965 -0.4820  0.0459 -0.0153
 6234TIP3    H118708   1.342   4.814   1.907 -0.7325 -0.1784  0.1738
 6234TIP3    H218709   1.331   4.852   2.053 -0.8135  0.1725  0.0756
 6235TIP3   OH218710   1.148   2.977   2.813 -0.0121 -0.3793  0.2893
 6235TIP3    H118711   1.152   2.968   2.717  0.5288 -1.1443  0.3789
 6235TIP3    H218712   1.081   2.914   2.839 -0.2861 -0.0422  0.4013
 6236TIP3   OH218713   2.686   2.969   1.925  0.1788  0.2335  0.7181
 6236TIP3    H118714   2.682   3.039   1.989 -0.5390  0.8760 -0.0034
 6236TIP3    H218715   2.650   3.007   1.845  2.1067 -0.1854 -0.4164
 6237TIP3   OH218716   3.117   0.694   3.171  0.1002 -0.0046  0.1048
 6237TIP3    H118717   3.100   0.605   3.202 -1.9915  0.1286 -0.4973
 6237TIP3    H218718   3.183   0.684   3.103  0.3833 -0.9990  0.5155
 6238TIP3   OH218719   1.434   4.411   3.177  0.0526 -0.1802 -0.4603
 6238TIP3    H118720   1.515   4.440   3.135  0.0673  1.0241  0.3569
 6238TIP3    H218721   1.366   4.422   3.111 -0.1368  2.8436  0.1315
 6239TIP3   OH218722   1.376   4.945   1.661  0.7706 -0.1399  0.0335
 6239TIP3    H118723   1.363   4.995   1.741 -0.8592  1.2048 -1.0014
 6239TIP3    H218724   1.287   4.917   1.636  1.2638 -0.6421 -1.2304
 6240TIP3   OH218725   3.070   4.570   0.521 -0.2270  0.5212  0.6108
 6240TIP3    H118726   3.039   4.480   0.514 -0.5563  0.6421  0.5059
 6240TIP3    H218727   3.107   4.589   0.434  1.5244 -0.1227  1.1664
 6241TIP3   OH218728   0.809   5.797   0.607  0.4563 -0.0214 -0.4660
 6241TIP3    H118729   0.899   5.825   0.591  0.2568  0.1701 -1.3457
 6241TIP3    H218730   0.778   5.767   0.521 -0.7314  1.1443 -0.4700
 6242TIP3   OH218731   2.768   3.507   0.346  0.2709  0.9312  0.0030
 6242TIP3    H118732   2.833   3.577   0.347 -0.2362  1.4043  0.4646
 6242TIP3    H218733   2.779   3.463   0.431  2.0278 -0.9299 -1.0845
 6243TIP3   OH218734   6.152   5.663   3.970 -0.4351  0.0060  0.3680
 6243TIP3    H118735   6.168   5.655   4.064  0.9766  0.8057  0.2338
 6243TIP3    H218736   6.194   5.746   3.946  1.1763 -1.2252 -1.3504
 6244TIP3   OH218737   2.086   3.877   3.608  0.1878 -0.0474  0.3832
 6244TIP3    H118738   2.003   3.870   3.656 -0.2263 -1.0107 -0.4312
 6244TIP3    H218739   2.118   3.965   3.628 -1.1458  0.4274  0.5418
 6245TIP3   OH218740   3.185   2.993   0.027  0.0922  0.6873 -0.2985
 6245TIP3    H118741   3.131   3.070   0.041 -0.4603  0.4689 -1.1827
 6245TIP3    H218742   3.136   2.940  -0.035  0.4876 -0.3547  0.2486
 6246TIP3   OH218743   5.536   4.151   4.422 -0.3390 -0.1685  0.3460
 6246TIP3    H118744   5.533   4.133   4.516 -0.8204  0.1825  0.4014
 6246TIP3    H218745   5.501   4.240   4.413 -1.8156 -0.7726 -0.3205
 6247TIP3   OH218746   5.821   5.953   0.577  0.0018 -0.5527 -0.0660
 6247TIP3    H118747   5.899   5.967   0.631 -0.8955  1.7594  0.7666
 6247TIP3    H218748   5.855   5.915   0.496  1.8067 -0.9698  0.8386
 6248TIP3   OH218749   0.063   0.260   4.817  0.4536 -0.2868  0.4242
 6248TIP3    H118750   0.071   0.277   4.723 -0.0512  1.8011  0.7201
 6248TIP3    H218751   0.095   0.340   4.859  1.8435 -1.6381  2.0864
 6249TIP3   OH218752   6.253   5.959   2.465  0.3639 -0.6155  0.3031
 6249TIP3    H118753   6.347   5.969   2.448  0.4544  3.5010  1.9690
 6249TIP3    H218754   6.249   5.933   2.557 -0.1023 -0.4413  0.3339
 6250TIP3   OH218755   0.471   1.193   4.930 -0.2326  0.7783 -0.1274
 6250TIP3    H118756   0.405   1.141   4.976  1.3952  0.4923  2.0385
 6250TIP3    H218757   0.530   1.129   4.890  1.3238  0.8534  1.8825
 6251TIP3   OH218758   1.902   5.228   0.721 -0.1532 -0.2509 -0.3002
 6251TIP3    H118759   1.935   5.307   0.763  0.5481 -0.1288 -1.0519
 6251TIP3    H218760   1.884   5.254   0.631  1.3322 -1.2373 -0.9223
 6252TIP3   OH218761   3.358   5.504   1.809  0.2584 -0.3345 -0.1045
 6252TIP3    H118762   3.327   5.504   1.900 -0.1120 -0.5096 -0.2285
 6252TIP3    H218763   3.442   5.549   1.813 -0.4604  1.0421  0.0908
 6253TIP3   OH218764   2.504   2.580   2.932  0.1933  0.1049 -0.0856
 6253TIP3    H118765   2.512   2.497   2.884  0.7825  0.6335 -0.9421
 6253TIP3    H218766   2.578   2.579   2.992  0.4702  0.2003 -0.4171
 6254TIP3   OH218767   0.042   1.462   4.008 -0.3949  0.2269 -0.0329
 6254TIP3    H118768   0.123   1.413   3.997  0.4894  1.8232 -1.0526
 6254TIP3    H218769  -0.013   1.406   4.062  1.6219 -0.6227  1.2419
 6255TIP3   OH218770   5.395   3.361   0.842 -0.0365 -0.2722 -0.3497
 6255TIP3    H118771   5.318   3.307   0.826  0.7765 -0.8275 -2.9549
 6255TIP3    H218772   5.469   3.301   0.828  0.8608  0.6845  0.2172
 6256TIP3   OH218773   0.544   5.863   0.678 -0.1799 -0.0286  0.3308
 6256TIP3    H118774   0.496   5.840   0.599 -0.8743  0.2239  0.6692
 6256TIP3    H218775   0.633   5.883   0.647 -0.6168  0.7341 -0.4773
 6257TIP3   OH218776   6.225   2.322   1.971  0.3161  0.0163 -0.2552
 6257TIP3    H118777   6.282   2.282   2.036 -0.6314 -0.4374  0.3174
 6257TIP3    H218778   6.171   2.249   1.939 -1.0939  0.7079  0.4404
 6258TIP3   OH218779   4.389   3.990   0.897  0.0808  0.4742  0.0623
 6258TIP3    H118780   4.395   4.063   0.959  0.2119  0.1688  0.4188
 6258TIP3    H218781   4.303   3.999   0.857 -1.6258 -1.3870  2.9537
 6259TIP3   OH218782   2.699   5.583   4.024 -0.5664  0.0130 -1.1774
 6259TIP3    H118783   2.780   5.621   3.989 -0.1877 -0.9349 -1.3692
 6259TIP3    H218784   2.642   5.658   4.038  0.0211  0.6212 -1.8934
 6260TIP3   OH218785   3.875   1.343   3.152 -0.6767 -0.1069 -0.3904
 6260TIP3    H118786   3.930   1.384   3.085  0.5203  1.4164  1.4312
 6260TIP3    H218787   3.896   1.250   3.146  0.1902  0.1316 -1.4382
 6261TIP3   OH218788   5.939   0.497   4.005 -0.1903  0.0594 -0.4160
 6261TIP3    H118789   5.928   0.453   3.921 -0.8634  1.8121 -1.3118
 6261TIP3    H218790   5.860   0.552   4.014 -0.8712 -1.1560  2.0846
 6262TIP3   OH218791   0.951   2.272   3.117  0.2440  0.2526  0.4644
 6262TIP3    H118792   1.028   2.241   3.164  1.2986  0.5927 -0.9917
 6262TIP3    H218793   0.910   2.192   3.081 -0.8424 -0.0646  2.2693
 6263TIP3   OH218794   3.992   1.933   2.890  0.0239 -0.3929  0.6538
 6263TIP3    H118795   4.073   1.960   2.848 -0.6368 -0.3131 -0.6167
 6263TIP3    H218796   4.020   1.878   2.963  1.1934 -1.2439 -0.3866
 6264TIP3   OH218797   1.413   5.004   4.834 -0.0506 -0.5721  0.2616
 6264TIP3    H118798   1.429   5.060   4.910 -0.5371 -0.3493  0.2048
 6264TIP3    H218799   1.497   4.962   4.817  0.4250  0.4092  0.0905
 6265TIP3   OH218800   3.505   2.955   4.813 -0.7810  0.2829 -0.0139
 6265TIP3    H118801   3.429   2.915   4.771 -1.4879  0.4389  1.1032
 6265TIP3    H218802   3.565   2.882   4.828 -1.3900 -0.1134  0.5568
 6266TIP3   OH218803   5.451   3.114   4.948  0.3418 -0.3177 -0.4331
 6266TIP3    H118804   5.520   3.049   4.935 -0.3181 -1.0979 -0.1079
 6266TIP3    H218805   5.387   3.095   4.879  0.0553 -0.1359 -0.2201
 6267TIP3   OH218806   5.011   4.971   4.019  0.0774 -0.1947 -0.0937
 6267TIP3    H118807   4.938   4.963   3.957  0.2799  0.7626 -0.4704
 6267TIP3    H218808   5.026   4.881   4.049 -0.8980 -0.4799 -0.4209
 6268TIP3   OH218809   1.945   2.297   5.112 -0.3223  0.0840  0.4799
 6268TIP3    H118810   1.851   2.286   5.124 -0.0648 -1.1794  1.5792
 6268TIP3    H218811   1.984   2.221   5.156  1.1408 -0.2668 -1.2877
 6269TIP3   OH218812   0.267   5.352   3.077 -0.0253  0.6636 -0.7558
 6269TIP3    H118813   0.178   5.325   3.056 -0.2064  1.7824 -1.5369
 6269TIP3    H218814   0.258   5.403   3.157 -0.2153  1.3944 -1.2284
 6270TIP3   OH218815   1.271   0.251   1.576 -0.0164 -0.2134 -0.0429
 6270TIP3    H118816   1.339   0.186   1.558  0.3302  0.3551 -0.8252
 6270TIP3    H218817   1.204   0.236   1.510  0.1208  0.2961 -0.3054
 6271TIP3   OH218818   6.220   3.483   0.303  0.3509 -0.3106 -0.0160
 6271TIP3    H118819   6.193   3.560   0.253  0.8804  0.4644  0.8636
 6271TIP3    H218820   6.177   3.494   0.388  0.0508 -1.2328 -0.0456
 6272TIP3   OH218821   5.323   5.720   0.879 -0.5078 -0.4546  0.4102
 6272TIP3    H118822   5.249   5.750   0.827 -1.0297 -1.3784  0.6000
 6272TIP3    H218823   5.289   5.714   0.968  0.0335 -0.0848  0.6459
 6273TIP3   OH218824   5.746   2.379   4.347  0.0746  0.3883  0.1142
 6273TIP3    H118825   5.817   2.352   4.405 -1.2893 -2.0812  0.7461
 6273TIP3    H218826   5.722   2.300   4.298 -2.5718  0.9784  0.3029
 6274TIP3   OH218827   0.950   3.856   3.915  0.1539 -0.0272 -0.0968
 6274TIP3    H118828   0.987   3.878   3.829 -0.5819 -1.0657 -0.7024
 6274TIP3    H218829   1.004   3.904   3.977  1.2132  0.1092 -1.0886
 6275TIP3   OH218830   5.776   5.276   2.892  0.2972 -0.2525  0.3760
 6275TIP3    H118831   5.694   5.237   2.921  0.5701 -0.8160  0.4146
 6275TIP3    H218832   5.784   5.252   2.800  0.1232  0.3188  0.2136
 6276TIP3   OH218833   3.319   2.446   5.106 -0.5464 -0.5422  0.2418
 6276TIP3    H118834   3.399   2.484   5.069  0.2422 -1.5908  0.8087
 6276TIP3    H218835   3.306   2.365   5.056  0.7276 -2.1598  2.3836
 6277TIP3   OH218836   5.643   1.616   3.211 -0.2605 -0.2332  0.0661
 6277TIP3    H118837   5.729   1.590   3.244 -0.7691 -0.2861  1.4048
 6277TIP3    H218838   5.646   1.712   3.206 -0.5462 -0.1309  1.4137
 6278TIP3   OH218839   5.866   4.725   0.889  0.1877 -0.3553  0.0916
 6278TIP3    H118840   5.869   4.634   0.859 -0.6688 -0.8788  1.4617
 6278TIP3    H218841   5.955   4.744   0.917  0.6164 -0.3943 -1.2083
 6279TIP3   OH218842   2.207   3.988   1.753  0.0267  0.8514  0.5587
 6279TIP3    H118843   2.160   3.990   1.670  0.5736  1.6765  0.2526
 6279TIP3    H218844   2.191   4.075   1.791 -0.1930  0.4941  1.3055
 6280TIP3   OH218845   4.442   5.942   4.516 -0.0668  0.0045 -0.0027
 6280TIP3    H118846   4.519   5.968   4.566  0.3772 -0.7820 -0.2472
 6280TIP3    H218847   4.368   5.957   4.575  0.2613  0.8547  0.2002
 6281TIP3   OH218848   2.474   3.239   4.205  0.2174 -0.0791  0.2219
 6281TIP3    H118849   2.476   3.149   4.237 -0.2521 -0.1311  0.1229
 6281TIP3    H218850   2.562   3.255   4.173  0.3228 -0.4849  0.2999
 6282TIP3   OH218851   3.189   0.371   0.743 -0.1923 -0.0540  0.1005
 6282TIP3    H118852   3.150   0.459   0.737  0.8750  0.5221  1.0437
 6282TIP3    H218853   3.173   0.332   0.658 -0.6020  1.1020 -0.3839
 6283TIP3   OH218854   5.343   3.286   0.502  0.2337 -0.5539  0.3768
 6283TIP3    H118855   5.312   3.364   0.547  0.0557  1.0119 -2.2525
 6283TIP3    H218856   5.268   3.226   0.504 -0.3659  0.1895  0.5941
 6284TIP3   OH218857   1.677   2.325   5.006 -0.7027 -0.1483  0.2589
 6284TIP3    H118858   1.661   2.242   5.052 -1.0883 -0.7647 -0.9421
 6284TIP3    H218859   1.632   2.390   5.059  0.4784 -0.5141  1.8020
 6285TIP3   OH218860   4.118   5.126   1.516  0.1575 -0.0568  0.1700
 6285TIP3    H118861   4.109   5.103   1.608 -0.1647 -1.2146 -0.1250
 6285TIP3    H218862   4.046   5.079   1.473 -0.3700  1.3503 -0.5372
 6286TIP3   OH218863   2.711   3.224   4.413 -0.3196  0.4890  0.1797
 6286TIP3    H118864   2.653   3.291   4.449 -0.9539  0.4226 -0.6878
 6286TIP3    H218865   2.739   3.259   4.329 -0.2873 -0.1352 -0.0768
 6287TIP3   OH218866   5.152   3.453   0.633  0.7367  0.1463 -0.0644
 6287TIP3    H118867   5.095   3.376   0.638  1.5359 -0.5781 -1.4154
 6287TIP3    H218868   5.157   3.485   0.723 -0.8495 -0.4574  0.2765
 6288TIP3   OH218869   3.817   1.271   2.748  0.5759 -0.5472 -0.7498
 6288TIP3    H118870   3.752   1.342   2.753  0.1303 -1.0259  0.9260
 6288TIP3    H218871   3.769   1.198   2.708  0.4846 -0.4791 -0.7664
 6289TIP3   OH218872   2.553   1.930   0.354 -0.2896 -0.0930  0.5747
 6289TIP3    H118873   2.630   1.947   0.299 -1.0403  0.5141 -0.3318
 6289TIP3    H218874   2.584   1.872   0.423  0.9128 -0.0794  0.0593
 6290TIP3   OH218875   5.880   5.616   0.690 -0.1120 -0.3955  0.1999
 6290TIP3    H118876   5.937   5.691   0.671  1.4590 -1.6670 -0.4536
 6290TIP3    H218877   5.810   5.651   0.744  0.7418  1.4709  0.1701
 6291TIP3   OH218878   2.300   5.728   2.690  0.0421  0.8547  0.5715
 6291TIP3    H118879   2.283   5.691   2.603 -0.1346  0.7254  0.6605
 6291TIP3    H218880   2.339   5.814   2.672  0.5351  0.5915  0.3647
 6292TIP3   OH218881   6.144   0.761   4.345  0.0354 -0.5642 -0.3186
 6292TIP3    H118882   6.226   0.761   4.295  1.1037  1.6709  1.2480
 6292TIP3    H218883   6.084   0.814   4.293  1.0192  1.4302  0.4872
 6293TIP3   OH218884   2.527   3.280   2.213  0.5527  0.0960  0.3896
 6293TIP3    H118885   2.455   3.338   2.239  1.1562  0.8243  0.4560
 6293TIP3    H218886   2.598   3.301   2.274  0.7450 -0.7944  0.4843
 6294TIP3   OH218887   1.262   5.191   0.270 -0.1534  0.2193  0.6309
 6294TIP3    H118888   1.345   5.234   0.248  0.1754 -1.0005 -0.6689
 6294TIP3    H218889   1.287   5.120   0.329 -0.3285  0.1165  0.5795
 6295TIP3   OH218890   5.473   5.478   0.482 -0.0941  0.2580  0.5134
 6295TIP3    H118891   5.476   5.562   0.527  1.9299  0.1236  0.7253
 6295TIP3    H218892   5.473   5.500   0.389 -2.5436  0.5011  0.5132
 6296TIP3   OH218893   2.469   2.618   4.230 -0.5921 -0.0106  0.1116
 6296TIP3    H118894   2.439   2.637   4.141 -2.3747  1.0041  0.8562
 6296TIP3    H218895   2.485   2.524   4.232  0.6233  0.1241 -1.5703
 6297TIP3   OH218896   3.611   4.230   0.725 -0.2972  0.4900  0.3111
 6297TIP3    H118897   3.663   4.280   0.788 -1.3838  0.8694  0.9427
 6297TIP3    H218898   3.520   4.247   0.750 -0.7188 -1.5035  0.2993
 6298TIP3   OH218899   4.833   2.462   4.109  0.2254 -0.3235 -0.2806
 6298TIP3    H118900   4.755   2.416   4.137  0.6551 -1.0070 -0.1818
 6298TIP3    H218901   4.899   2.439   4.175  0.2497  1.0431  0.1991
 6299TIP3   OH218902   1.659   1.974   0.284 -0.1670  0.4186  0.1509
 6299TIP3    H118903   1.719   2.007   0.218 -0.5001  0.5716 -0.0779
 6299TIP3    H218904   1.647   1.881   0.262 -0.2927  0.4741 -0.0138
 6300TIP3   OH218905   5.940   5.595   4.522  0.0089 -0.5299  0.4220
 6300TIP3    H118906   5.871   5.571   4.459 -0.0576 -0.6393  0.5365
 6300TIP3    H218907   5.950   5.517   4.577 -0.2089 -0.2944  0.7959
 6301TIP3   OH218908   0.136   5.591   1.474 -0.2288  0.5290 -0.3090
 6301TIP3    H118909   0.185   5.547   1.404 -0.6003  0.8059 -0.7483
 6301TIP3    H218910   0.061   5.629   1.429 -0.2074  1.1278  0.1666
 6302TIP3   OH218911   3.615   1.855   4.252  0.1060  0.1427 -1.1429
 6302TIP3    H118912   3.639   1.816   4.168 -1.2315 -0.0646 -1.4595
 6302TIP3    H218913   3.696   1.894   4.285  0.8800 -0.6513 -2.0471
 6303TIP3   OH218914   3.122   1.620   1.487 -0.5496  0.1351  0.4238
 6303TIP3    H118915   3.063   1.641   1.560 -1.3552 -1.1512  0.1782
 6303TIP3    H218916   3.106   1.688   1.422 -1.3431  0.1425  0.6185
 6304TIP3   OH218917   1.089   5.378   3.828  0.1724 -0.3582  0.1194
 6304TIP3    H118918   1.057   5.390   3.918 -0.0614 -0.9672  0.1186
 6304TIP3    H218919   1.054   5.294   3.801  1.4792 -0.8895 -0.0109
 6305TIP3   OH218920   0.716   2.188   0.301  0.1993  0.0969 -0.2397
 6305TIP3    H118921   0.668   2.271   0.300  0.6564  0.4306  1.6822
 6305TIP3    H218922   0.774   2.193   0.225  1.0954  2.1159  0.4987
 6306TIP3   OH218923   2.702   5.937   5.222 -0.2379 -0.2387 -0.3561
 6306TIP3    H118924   2.751   5.945   5.140 -0.5814 -1.3612 -0.6810
 6306TIP3    H218925   2.621   5.986   5.206 -1.4041 -2.4560 -1.5921
 6307TIP3   OH218926   5.390   0.563   2.745 -0.3921  0.2238  0.2951
 6307TIP3    H118927   5.358   0.532   2.660 -0.1516  0.5917  0.0666
 6307TIP3    H218928   5.369   0.656   2.746  0.1333  0.3430  0.3961
 6308TIP3   OH218929   3.408   0.042   0.123 -0.2510  0.4218  0.1493
 6308TIP3    H118930   3.337   0.101   0.100  0.8349  1.1852 -1.4944
 6308TIP3    H218931   3.371  -0.046   0.113 -1.4613  0.7813  1.1855
 6309TIP3   OH218932   2.875   2.932   0.737 -0.0143  0.9456  0.0659
 6309TIP3    H118933   2.808   2.923   0.670 -1.4166  2.9848  1.0851
 6309TIP3    H218934   2.921   3.012   0.715  3.1432 -1.0806 -1.3762
 6310TIP3   OH218935   2.828   2.800   2.157 -0.0621 -0.4316  0.9509
 6310TIP3    H118936   2.758   2.792   2.222 -3.1457  0.0758 -1.9884
 6310TIP3    H218937   2.861   2.889   2.168 -1.0695 -0.0915  1.3559
 6311TIP3   OH218938   0.319   5.696   1.896 -0.3902  0.0905  0.5786
 6311TIP3    H118939   0.268   5.615   1.893  2.4251 -1.8097 -0.1290
 6311TIP3    H218940   0.317   5.729   1.806 -0.0514 -0.2016  0.4634
 6312TIP3   OH218941   5.484   3.318   3.917 -0.4898  0.5410  0.4464
 6312TIP3    H118942   5.432   3.366   3.982 -1.0326 -2.7746  2.7362
 6312TIP3    H218943   5.568   3.304   3.959  0.1333  0.6199 -0.7302
 6313TIP3   OH218944   6.141   3.553   0.574  0.0683  0.0569  0.0692
 6313TIP3    H118945   6.067   3.591   0.620 -0.2894 -0.7243  0.1486
 6313TIP3    H218946   6.119   3.460   0.564  1.2657 -0.3009  0.5584
 6314TIP3   OH218947   1.201   1.016   3.236  0.2665  0.1887 -0.0707
 6314TIP3    H118948   1.223   1.046   3.147 -0.7566  1.0358 -0.0602
 6314TIP3    H218949   1.216   0.922   3.233  0.2964  0.2061 -1.1489
 6315TIP3   OH218950   4.286   1.417   2.860 -0.0808  0.2841 -0.2790
 6315TIP3    H118951   4.315   1.327   2.849  1.8422  0.7045  0.9384
 6315TIP3    H218952   4.321   1.444   2.945 -0.8910  2.0846 -0.4571
 6316TIP3   OH218953   1.717   5.908   5.165 -0.3201 -0.3290 -0.6263
 6316TIP3    H118954   1.640   5.961   5.143 -0.1179  0.2195 -0.0464
 6316TIP3    H218955   1.684   5.843   5.226 -0.3341 -0.1223 -0.4128
 6317TIP3   OH218956   3.965   4.311   2.949  0.1019 -0.0602  0.1148
 6317TIP3    H118957   3.910   4.247   2.904  0.6874  0.8337 -1.9789
 6317TIP3    H218958   4.019   4.349   2.880  0.9089  1.5455  1.5612
 6318TIP3   OH218959   1.876   2.222   4.830 -0.4326  0.4828 -0.3910
 6318TIP3    H118960   1.817   2.229   4.905 -0.2793 -0.2398 -0.1933
 6318TIP3    H218961   1.939   2.293   4.842  0.4935 -0.5197  0.9897
 6319TIP3   OH218962   5.606   2.411   3.247  0.3698 -0.2960  0.2164
 6319TIP3    H118963   5.528   2.398   3.194  0.4190  1.5373 -0.3852
 6319TIP3    H218964   5.575   2.406   3.338 -0.5793  0.9085 -0.0097
 6320TIP3   OH218965   1.091   3.674   1.783 -0.3809  0.0659 -0.4267
 6320TIP3    H118966   1.160   3.608   1.774  2.1970  2.4718  0.1599
 6320TIP3    H218967   1.013   3.624   1.805  1.8876 -2.6644  2.4697
 6321TIP3   OH218968   1.173   0.927   2.965  1.0457 -0.2295  0.0093
 6321TIP3    H118969   1.086   0.920   2.927  1.3109  0.6678 -0.7940
 6321TIP3    H218970   1.185   0.844   3.012  0.1203 -0.7369 -0.6125
 6322TIP3   OH218971   6.013   1.264   2.593  0.4464 -0.1642  0.1859
 6322TIP3    H118972   5.931   1.312   2.582  0.1230 -1.0031 -1.2920
 6322TIP3    H218973   6.017   1.247   2.688 -0.4263  0.9880  0.4599
 6323TIP3   OH218974   1.903   2.439   1.419  0.0608  0.2330  0.0569
 6323TIP3    H118975   1.950   2.522   1.415  0.6271  0.0016  1.4008
 6323TIP3    H218976   1.824   2.458   1.469  1.1653 -0.4382  2.1417
 6324TIP3   OH218977   3.799   4.616   0.394 -0.3296  0.2579  0.2871
 6324TIP3    H118978   3.859   4.651   0.460  1.5629  0.7916 -1.5749
 6324TIP3    H218979   3.813   4.521   0.397  0.3586  0.3465  0.1290
 6325TIP3   OH218980   3.593   4.347   4.478  0.0368  0.2983  0.1008
 6325TIP3    H118981   3.499   4.361   4.463 -0.2342  0.1799  1.5139
 6325TIP3    H218982   3.606   4.253   4.460 -0.5226 -0.1107  1.6586
 6326TIP3   OH218983   5.382   5.921   4.798 -0.1153  0.3207  0.1290
 6326TIP3    H118984   5.387   5.852   4.732  0.2205  0.6685 -0.2154
 6326TIP3    H218985   5.410   6.001   4.752  0.2595  0.5414  0.7241
 6327TIP3   OH218986   3.121   3.354   0.249 -0.2760  0.0740  0.1546
 6327TIP3    H118987   3.081   3.280   0.203  0.0042  0.1758 -0.2556
 6327TIP3    H218988   3.212   3.355   0.220 -0.1870  0.3593  0.4339
 6328TIP3   OH218989   5.713   2.077   4.508 -0.1462  0.0325 -0.3204
 6328TIP3    H118990   5.724   2.032   4.591 -2.1349 -0.0239 -0.0276
 6328TIP3    H218991   5.659   2.153   4.529 -0.8362 -0.0849 -1.5689
 6329TIP3   OH218992   5.580   5.937   3.424 -0.0249 -0.3271 -0.0376
 6329TIP3    H118993   5.517   5.936   3.353  0.1823  3.6636 -0.4738
 6329TIP3    H218994   5.529   5.961   3.502  0.4472 -0.3627  0.2906
 6330TIP3   OH218995   0.129   4.646   2.314 -0.4035  0.4461  0.2959
 6330TIP3    H118996   0.147   4.738   2.291  0.0102  0.0906 -0.8584
 6330TIP3    H218997   0.066   4.617   2.248  0.1119 -0.3475  0.1401
 6331TIP3   OH218998   0.802   2.908   3.532  0.6702 -0.1014 -0.2312
 6331TIP3    H118999   0.755   2.876   3.455 -0.8329  0.2374  0.5028
 6331TIP3    H219000   0.734   2.944   3.588  1.5580 -1.4364  1.8353
 6332TIP3   OH219001   4.046   5.037   3.068 -0.3807  0.7392 -0.3945
 6332TIP3    H119002   4.093   5.110   3.107  1.5810 -0.9483  0.5599
 6332TIP3    H219003   4.114   4.976   3.040 -1.9160 -0.3491 -1.9975
 6333TIP3   OH219004   0.340   1.830   3.207  0.3084 -0.0145  0.2668
 6333TIP3    H119005   0.302   1.752   3.166 -1.2541  0.5449  0.5933
 6333TIP3    H219006   0.434   1.815   3.202  0.0794 -1.4190 -0.6616
 6334TIP3   OH219007   2.719   1.910   0.818 -0.0294  0.4203  0.2277
 6334TIP3    H119008   2.653   1.969   0.854 -1.3634  0.4993 -2.1629
 6334TIP3    H219009   2.779   1.967   0.770 -0.9310  0.0018 -1.5090
 6335TIP3   OH219010   1.451   3.712   1.921 -0.5586  0.3222  0.1875
 6335TIP3    H119011   1.466   3.619   1.935 -1.8758  0.3379  2.0425
 6335TIP3    H219012   1.531   3.754   1.953 -1.2032 -0.0280  2.3821
 6336TIP3   OH219013   1.347   0.182   3.269  0.6260 -0.4399 -0.2259
 6336TIP3    H119014   1.382   0.102   3.308 -0.2231  0.1156  1.8031
 6336TIP3    H219015   1.402   0.252   3.303  0.6552 -0.0351 -1.0696
 6337TIP3   OH219016   3.763   3.630   3.627  0.2489 -0.4966  0.1379
 6337TIP3    H119017   3.849   3.588   3.634 -0.5494 -2.2712 -0.1770
 6337TIP3    H219018   3.730   3.633   3.717  0.1733 -0.8939  0.1279
 6338TIP3   OH219019   1.095   3.141   4.530  0.1792  0.2144  0.5443
 6338TIP3    H119020   1.085   3.049   4.557 -0.2147 -0.0512 -0.4776
 6338TIP3    H219021   1.108   3.188   4.612 -0.3510 -0.6611  1.1516
 6339TIP3   OH219022   3.597   3.157   3.418  0.0394 -0.4127 -0.2231
 6339TIP3    H119023   3.686   3.153   3.382 -0.0269 -0.7530 -0.3497
 6339TIP3    H219024   3.548   3.091   3.368 -0.6690  0.8176 -1.1995
 6340TIP3   OH219025   1.873   5.288   3.426 -0.2477 -0.4364  0.8075
 6340TIP3    H119026   1.787   5.272   3.465 -0.1179 -0.9708  0.8868
 6340TIP3    H219027   1.872   5.380   3.401 -1.4875 -0.8315 -0.7801
 6341TIP3   OH219028   2.271   1.231   2.637 -0.3849 -0.0316  0.2508
 6341TIP3    H119029   2.187   1.192   2.659 -0.9433  0.6675 -0.5684
 6341TIP3    H219030   2.303   1.267   2.720 -0.9452 -0.2069  0.5451
 6342TIP3   OH219031   4.527   0.170   0.076 -0.3001 -0.1609 -0.3948
 6342TIP3    H119032   4.436   0.172   0.046 -1.1473 -1.0943  1.8560
 6342TIP3    H219033   4.570   0.109   0.017 -0.9150  0.8696 -1.9647
 6343TIP3   OH219034   1.853   3.723   1.818  0.0732  0.0402 -0.1660
 6343TIP3    H119035   1.934   3.718   1.767 -0.0279 -1.8131 -0.1910
 6343TIP3    H219036   1.787   3.753   1.755  0.7954  2.1335 -0.0129
 6344TIP3   OH219037   3.854   4.666   3.834  0.0714 -0.1736  0.2041
 6344TIP3    H119038   3.882   4.633   3.748  1.7401  0.4187  0.4785
 6344TIP3    H219039   3.766   4.700   3.818 -0.2838 -1.4670 -0.8969
 6345TIP3   OH219040   5.543   1.748   1.237 -0.2039  0.0344 -0.1496
 6345TIP3    H119041   5.616   1.806   1.216  0.6972 -1.1459 -0.3730
 6345TIP3    H219042   5.584   1.675   1.284 -1.0508 -1.2410 -1.3370
 6346TIP3   OH219043   4.499   3.160   5.090  0.4264 -0.4361  0.1473
 6346TIP3    H119044   4.574   3.180   5.035  0.0571  2.7411  0.5962
 6346TIP3    H219045   4.423   3.175   5.034  0.0908  1.2369  0.9700
 6347TIP3   OH219046   6.190   0.144   2.359  0.2115  0.1300 -0.4249
 6347TIP3    H119047   6.278   0.106   2.362  0.9605  1.2038 -3.8426
 6347TIP3    H219048   6.147   0.100   2.286 -0.8891  1.8791 -0.8926
 6348TIP3   OH219049   4.709   4.477   2.681  0.3410 -0.4258  0.4814
 6348TIP3    H119050   4.760   4.553   2.709 -0.1515 -0.0943  0.4930
 6348TIP3    H219051   4.774   4.407   2.671  0.9280  0.2043 -0.2996
 6349TIP3   OH219052   0.450   5.707   2.884  0.4184  0.6120 -0.4140
 6349TIP3    H119053   0.448   5.759   2.804 -2.6532  2.3803  0.6433
 6349TIP3    H219054   0.450   5.772   2.955 -0.8207 -0.8237  0.9795
 6350TIP3   OH219055   3.965   0.928   1.352 -0.0693 -0.0712  0.2413
 6350TIP3    H119056   3.907   0.975   1.412 -0.4448 -0.6916  0.3723
 6350TIP3    H219057   4.012   0.866   1.407 -1.5134 -1.7226 -0.2710
 6351TIP3   OH219058   1.828   1.833   3.775  0.4312  0.2685  0.8418
 6351TIP3    H119059   1.835   1.923   3.806  0.3497  0.0328  1.5637
 6351TIP3    H219060   1.841   1.780   3.854  2.4010 -0.3973  0.1321
 6352TIP3   OH219061   0.326   0.804   4.629 -0.5595 -0.8464  0.1777
 6352TIP3    H119062   0.399   0.759   4.587 -1.8348 -1.1974 -1.7700
 6352TIP3    H219063   0.333   0.780   4.721  1.1185 -1.7599 -0.1546
 6353TIP3   OH219064   4.410   0.592   3.251 -0.2980  0.3448  0.0255
 6353TIP3    H119065   4.414   0.680   3.288 -0.6859  0.4826 -0.2468
 6353TIP3    H219066   4.496   0.578   3.212  0.0412  0.2810  0.7831
 6354TIP3   OH219067   1.137   3.830   1.132  0.1839 -0.2393  0.4321
 6354TIP3    H119068   1.164   3.912   1.173 -1.1223  0.8758 -0.8387
 6354TIP3    H219069   1.058   3.804   1.180 -0.9732  0.7279 -0.8548
 6355TIP3   OH219070   0.563   5.507   2.735 -0.2236 -0.0967 -0.2680
 6355TIP3    H119071   0.534   5.583   2.786  0.8470  0.0621  0.1358
 6355TIP3    H219072   0.491   5.445   2.742 -0.8109  0.6027  0.0045
 6356TIP3   OH219073   4.041   3.848   0.671 -0.4449  0.5079 -0.2483
 6356TIP3    H119074   3.962   3.902   0.679  0.1201  1.6831 -2.0383
 6356TIP3    H219075   4.086   3.883   0.594  2.1191  0.2360  1.0527
 6357TIP3   OH219076   3.473   4.410   1.830  0.0906 -0.1246 -0.0221
 6357TIP3    H119077   3.466   4.367   1.916  0.1348  0.1651  0.1268
 6357TIP3    H219078   3.386   4.398   1.791  0.1470 -0.4798 -0.0452
 6358TIP3   OH219079   2.741   0.149   4.345 -0.1788 -0.2512 -0.2668
 6358TIP3    H119080   2.735   0.055   4.329 -0.3155 -0.2101 -0.4483
 6358TIP3    H219081   2.679   0.165   4.417 -0.3633 -0.2527 -0.4253
 6359TIP3   OH219082   0.039   4.573   1.023  0.2747  0.1284 -0.1289
 6359TIP3    H119083   0.044   4.561   1.118  2.1833  1.0023 -0.0791
 6359TIP3    H219084   0.083   4.495   0.987  0.7336  0.4347 -0.2396
 6360TIP3   OH219085   3.771   0.827   4.568  0.1249 -0.0460 -0.3214
 6360TIP3    H119086   3.812   0.914   4.557  2.6319 -0.6294  2.8354
 6360TIP3    H219087   3.691   0.845   4.617 -0.1247  0.5764 -0.9278
 6361TIP3   OH219088   2.460   1.835   4.004  0.0338  0.2294 -0.2615
 6361TIP3    H119089   2.483   1.928   4.004 -1.1706  0.5545  0.5681
 6361TIP3    H219090   2.436   1.816   4.095 -3.7665  0.2002 -1.0794
 6362TIP3   OH219091   2.674   1.353   0.285 -0.0530  0.0882  0.2143
 6362TIP3    H119092   2.735   1.288   0.320  2.1907  1.5433 -0.7734
 6362TIP3    H219093   2.724   1.434   0.283 -2.2950  1.5511  0.0240
 6363TIP3   OH219094   6.195   5.010   0.903  0.4471 -0.7795 -0.1464
 6363TIP3    H119095   6.282   4.973   0.919  0.1027 -1.3041  0.5615
 6363TIP3    H219096   6.139   4.969   0.969 -0.2534 -0.1232 -0.3215
 6364TIP3   OH219097   4.603   3.746   2.988  0.1629  0.3283  0.1013
 6364TIP3    H119098   4.697   3.737   3.003  0.3802  0.2617 -1.2483
 6364TIP3    H219099   4.563   3.708   3.067  1.2510  0.6646  0.8458
 6365TIP3   OH219100   4.400   3.480   0.604 -0.5192  0.3777  0.7712
 6365TIP3    H119101   4.481   3.494   0.556 -0.3932  0.5649  1.0312
 6365TIP3    H219102   4.332   3.518   0.549 -0.5607 -0.6743  0.0882
 6366TIP3   OH219103   6.162   1.946   2.933 -0.1619  0.5267  0.5034
 6366TIP3    H119104   6.212   2.006   2.879 -0.8310  0.0829 -0.6314
 6366TIP3    H219105   6.226   1.911   2.996  1.1091 -0.4822 -1.2760
 6367TIP3   OH219106   0.254   1.671   1.479  0.1267  0.5465  0.4051
 6367TIP3    H119107   0.311   1.748   1.489 -1.1380  1.4278  1.2510
 6367TIP3    H219108   0.169   1.701   1.512 -0.2839 -1.3735  1.1927
 6368TIP3   OH219109   1.561   2.277   2.251 -0.1645  0.1423  0.3090
 6368TIP3    H119110   1.494   2.338   2.281  0.7067  0.4429  1.7073
 6368TIP3    H219111   1.628   2.333   2.210 -0.4537 -0.0995 -0.5121
 6369TIP3   OH219112   4.419   5.311   2.836 -0.4191  0.4266 -0.2354
 6369TIP3    H119113   4.419   5.262   2.918  0.1679  1.6150  0.5110
 6369TIP3    H219114   4.329   5.305   2.805 -0.3463 -1.1643 -0.2237
 6370TIP3   OH219115   4.635   2.802   0.932  0.8207  0.0810 -0.2631
 6370TIP3    H119116   4.660   2.741   1.002  1.2032 -0.0636 -0.5242
 6370TIP3    H219117   4.637   2.749   0.853 -0.9116 -0.0924 -0.2264
 6371TIP3   OH219118   4.380   2.614   4.711 -0.2602 -0.3139 -0.0023
 6371TIP3    H119119   4.293   2.575   4.698 -0.4848  0.1339  0.1490
 6371TIP3    H219120   4.383   2.688   4.652  0.4304 -0.9469 -0.7899
 6372TIP3   OH219121   5.085   0.673   1.260  0.2453 -0.1313  0.6700
 6372TIP3    H119122   5.133   0.664   1.178  1.1129 -0.1026  1.1575
 6372TIP3    H219123   5.023   0.744   1.245  0.2495 -0.2674 -0.0231
 6373TIP3   OH219124   2.432   5.275   4.141 -0.0881 -0.0764 -0.7069
 6373TIP3    H119125   2.396   5.306   4.058  0.7798 -2.4934 -2.0549
 6373TIP3    H219126   2.527   5.280   4.130  0.0437 -1.3883 -0.2605
 6374TIP3   OH219127   4.261   2.664   3.360 -0.2294  0.3062  0.4334
 6374TIP3    H119128   4.177   2.620   3.376 -0.2230  0.1419  0.0196
 6374TIP3    H219129   4.309   2.654   3.443 -0.5409  0.2288  0.6061
 6375TIP3   OH219130   2.281   2.194   0.709 -0.6670  0.2165  0.0136
 6375TIP3    H119131   2.338   2.245   0.651  0.3117 -0.2867  0.5190
 6375TIP3    H219132   2.305   2.103   0.693  0.5058  0.1043  2.0531
 6376TIP3   OH219133   1.226   3.707   0.329 -0.6657  0.3648 -0.2263
 6376TIP3    H119134   1.232   3.620   0.367  1.4690  0.3313 -0.5334
 6376TIP3    H219135   1.225   3.766   0.405 -2.2136  0.1225 -0.0143
 6377TIP3   OH219136   0.969   3.668   2.180  0.2290  0.3525 -0.5883
 6377TIP3    H119137   0.904   3.690   2.113 -0.1730  0.7164 -0.0901
 6377TIP3    H219138   1.012   3.751   2.199 -0.4277  0.4798  0.4004
 6378TIP3   OH219139   2.979   2.063   0.749  0.1052 -0.1154 -0.1721
 6378TIP3    H119140   3.069   2.084   0.774  0.2290 -0.0439 -0.6571
 6378TIP3    H219141   2.967   2.109   0.665 -0.6665  0.5858  0.3065
 6379TIP3   OH219142   3.622   4.713   3.623 -0.1738 -0.3244 -0.4332
 6379TIP3    H119143   3.678   4.747   3.553 -0.8455  0.8186 -0.4314
 6379TIP3    H219144   3.639   4.619   3.623  0.4277 -0.2339 -1.6014
 6380TIP3   OH219145   4.833   4.157   4.951 -0.7019 -0.5524  0.4223
 6380TIP3    H119146   4.889   4.159   4.873  0.3170  1.9490  1.0941
 6380TIP3    H219147   4.744   4.147   4.917 -0.2550  0.2466 -1.0581
 6381TIP3   OH219148   0.694   0.756   4.878 -0.0966 -0.2603 -0.1004
 6381TIP3    H119149   0.787   0.771   4.863  0.2183 -0.6052  1.3438
 6381TIP3    H219150   0.653   0.840   4.860  0.8524  0.6637  1.7610
 6382TIP3   OH219151   0.354   4.598   4.242  0.3002 -0.6397  0.0023
 6382TIP3    H119152   0.259   4.587   4.243  0.2401 -0.1701 -0.3324
 6382TIP3    H219153   0.379   4.594   4.335 -0.0625 -0.5969  0.1028
 6383TIP3   OH219154   3.107   5.314   1.830 -0.0129 -0.4140  0.3338
 6383TIP3    H119155   3.088   5.355   1.746 -0.6944 -1.1565  0.1134
 6383TIP3    H219156   3.132   5.387   1.887  2.2779 -0.0784 -0.9627
 6384TIP3   OH219157   5.864   0.274   4.525  0.4091 -0.3755  0.1653
 6384TIP3    H119158   5.831   0.223   4.599 -1.0836  0.7714  0.3355
 6384TIP3    H219159   5.934   0.328   4.562 -0.7430  0.6510  0.9401
 6385TIP3   OH219160   4.353   1.976   0.329 -0.2238 -0.1626  0.0444
 6385TIP3    H119161   4.379   2.027   0.406  0.7990 -0.3827 -0.1339
 6385TIP3    H219162   4.395   1.890   0.342 -1.9420 -0.9949  0.3608
 6386TIP3   OH219163   0.999   1.668   1.631  0.6216 -0.3330 -0.1278
 6386TIP3    H119164   1.011   1.761   1.653  0.2517  0.1872 -1.9368
 6386TIP3    H219165   0.951   1.632   1.705  0.9216  0.8796  0.6890
 6387TIP3   OH219166   1.621   3.239   2.095 -0.5564 -0.3206 -0.2479
 6387TIP3    H119167   1.595   3.307   2.033 -1.2177  0.2031  0.5720
 6387TIP3    H219168   1.625   3.284   2.179  1.7900 -0.6827 -0.1149
 6388TIP3   OH219169   2.974   5.761   1.565 -0.6025 -0.0418  0.9477
 6388TIP3    H119170   2.903   5.824   1.577  0.3120  1.6210 -1.5653
 6388TIP3    H219171   3.046   5.796   1.617 -0.1220  1.0149 -0.3826
 6389TIP3   OH219172   6.277   5.649   4.268 -0.0151  0.0918  0.3731
 6389TIP3    H119173   6.230   5.683   4.344 -1.0175  1.9434 -1.0058
 6389TIP3    H219174   6.307   5.727   4.221 -0.2832 -0.9532 -1.6464
 6390TIP3   OH219175   2.339   1.768   0.933 -0.4651  0.0330 -0.1256
 6390TIP3    H119176   2.322   1.674   0.923  0.0633 -0.0880  0.0808
 6390TIP3    H219177   2.377   1.776   1.021  0.6250  0.2742 -0.6026
 6391TIP3   OH219178   2.098   2.156   3.988 -0.0375 -0.0073 -0.2374
 6391TIP3    H119179   2.123   2.070   4.022 -0.4349  0.1750  0.5482
 6391TIP3    H219180   2.110   2.150   3.894  1.2216 -0.5030 -0.0655
 6392TIP3   OH219181   0.654   1.608   0.762  0.2400  0.1164 -0.3820
 6392TIP3    H119182   0.620   1.547   0.827  0.5518 -0.2569 -0.5672
 6392TIP3    H219183   0.584   1.673   0.752 -1.2950 -1.6610 -2.1467
 6393TIP3   OH219184   5.646   3.227   0.891  0.4269  0.3043  0.6824
 6393TIP3    H119185   5.627   3.257   0.980 -0.3022  0.2755  0.5446
 6393TIP3    H219186   5.705   3.153   0.903  0.3684  0.3285  1.1390
 6394TIP3   OH219187   4.141   0.465   4.714 -0.0772 -0.2534  0.4437
 6394TIP3    H119188   4.194   0.392   4.746 -1.1399 -0.2891  2.2184
 6394TIP3    H219189   4.071   0.423   4.664  0.1505 -0.3374  0.1855
 6395TIP3   OH219190   5.191   0.219   5.092  0.0678 -0.0834  0.1432
 6395TIP3    H119191   5.231   0.218   5.179  0.1883 -1.1876  0.0921
 6395TIP3    H219192   5.241   0.154   5.042 -0.8774 -0.4583 -0.3389
 6396TIP3   OH219193   4.281   2.181   1.998  0.1697 -0.1988  0.2425
 6396TIP3    H119194   4.248   2.255   2.048 -0.8589 -0.1955 -0.4326
 6396TIP3    H219195   4.368   2.164   2.036  0.4566  1.3759  0.3589
 6397TIP3   OH219196   5.230   3.171   2.373 -0.3712 -0.1471 -0.4649
 6397TIP3    H119197   5.307   3.150   2.319 -0.3271 -2.3733  0.3565
 6397TIP3    H219198   5.262   3.165   2.463 -1.9513 -3.6878  0.0230
 6398TIP3   OH219199   0.378   0.168   2.378 -0.5364  0.1882  0.4541
 6398TIP3    H119200   0.373   0.247   2.432  0.0051  0.3571  0.2676
 6398TIP3    H219201   0.448   0.187   2.315 -0.8394 -0.1919  0.0005
 6399TIP3   OH219202   6.230   4.973   1.935 -0.0454  0.2989  0.2095
 6399TIP3    H119203   6.242   5.059   1.975 -1.8000 -0.0384  1.6340
 6399TIP3    H219204   6.315   4.930   1.945 -0.1362  0.5427  3.0074
 6400TIP3   OH219205   5.205   5.905   1.718  0.2056  0.3578  0.2280
 6400TIP3    H119206   5.266   5.851   1.668  0.1046  1.3385 -1.0082
 6400TIP3    H219207   5.254   5.985   1.739 -0.2218  0.5823  0.3999
 6401TIP3   OH219208   2.261   1.016   4.546  0.2133  0.6888 -0.1054
 6401TIP3    H119209   2.309   1.053   4.471  1.6753 -2.5538 -0.9423
 6401TIP3    H219210   2.329   0.982   4.603 -0.8934  2.8671  2.7290
 6402TIP3   OH219211   1.452   3.650   1.322 -0.6685  0.1012  0.0707
 6402TIP3    H119212   1.457   3.566   1.368  1.2756  0.4363  0.5863
 6402TIP3    H219213   1.372   3.691   1.355 -1.1992 -1.1826  0.4457
 6403TIP3   OH219214   4.990   2.569   2.508  0.6848 -0.0255  0.3293
 6403TIP3    H119215   4.950   2.647   2.547  1.7902  0.5562  0.3665
 6403TIP3    H219216   5.013   2.514   2.582 -0.4873 -0.5925  0.2787
 6404TIP3   OH219217   0.439   4.998   0.504  0.2809 -0.1744  0.0602
 6404TIP3    H119218   0.359   4.954   0.536  0.0134  0.0780 -0.2552
 6404TIP3    H219219   0.452   4.964   0.416  0.8601 -0.6560  0.3280
 6405TIP3   OH219220   1.674   2.850   1.686  0.4453  0.5420  0.6899
 6405TIP3    H119221   1.598   2.889   1.730 -2.1229 -0.6766 -2.3111
 6405TIP3    H219222   1.669   2.882   1.596  1.8309 -1.7392 -0.2980
 6406TIP3   OH219223   1.453   1.882   5.082 -0.2957 -0.3224  0.0601
 6406TIP3    H119224   1.498   1.861   5.164 -0.2223 -1.1563 -0.1899
 6406TIP3    H219225   1.491   1.822   5.018  0.0722  0.7246 -0.7262
 6407TIP3   OH219226   0.502   1.439   0.240  0.2464 -0.4665 -0.2411
 6407TIP3    H119227   0.483   1.433   0.334  0.3231  2.0889  0.0116
 6407TIP3    H219228   0.594   1.463   0.236 -0.2515  1.5261 -0.8318
 6408TIP3   OH219229   4.336   1.912   2.767  0.4334 -0.3966 -0.0311
 6408TIP3    H119230   4.312   1.984   2.709 -0.8010 -1.2506 -0.6229
 6408TIP3    H219231   4.303   1.834   2.723 -0.8116 -1.0658  1.9582
 6409TIP3   OH219232   2.713   1.770   1.141 -0.4852  0.7367 -1.0819
 6409TIP3    H119233   2.621   1.769   1.115 -0.2717 -0.0207 -1.8488
 6409TIP3    H219234   2.760   1.804   1.065 -0.0234  0.0353 -1.1252
 6410TIP3   OH219235   3.905   2.220   2.033 -0.2412  0.0075  0.0270
 6410TIP3    H119236   3.817   2.182   2.039 -0.4264  0.5675  1.1903
 6410TIP3    H219237   3.960   2.162   2.085  0.2123 -0.6366 -1.1229
 6411TIP3   OH219238   2.968   1.925   2.422 -0.0773  0.0911  0.4751
 6411TIP3    H119239   2.914   1.948   2.497  0.8565 -1.1145  1.5689
 6411TIP3    H219240   3.051   1.895   2.460  0.5574 -0.2044 -1.0498
 6412TIP3   OH219241   6.180   4.504   5.152  0.0227 -0.0765 -0.1080
 6412TIP3    H119242   6.271   4.530   5.166 -0.2440  1.2032 -0.6378
 6412TIP3    H219243   6.185   4.420   5.106  0.9599  0.7259 -1.5207
 6413TIP3   OH219244   4.351   0.824   0.512  0.1820  0.0574  0.0009
 6413TIP3    H119245   4.295   0.889   0.469  0.9595  0.5053 -0.3609
 6413TIP3    H219246   4.334   0.836   0.605 -0.0434  0.4404 -0.0847
 6414TIP3   OH219247   2.950   2.818   1.016  0.2056  0.0852  0.3082
 6414TIP3    H119248   2.931   2.840   0.924  0.5699 -3.5245 -0.7954
 6414TIP3    H219249   3.045   2.827   1.023  0.1246  0.8437  0.5044
 6415TIP3   OH219250   4.383   1.589   5.068  0.0677  0.6538  0.0658
 6415TIP3    H119251   4.373   1.588   4.973 -1.3492  0.0087  0.2012
 6415TIP3    H219252   4.457   1.532   5.086 -0.5050 -0.3013 -0.5729
 6416TIP3   OH219253   3.564   3.907   3.770  0.3831 -0.3628  0.6451
 6416TIP3    H119254   3.645   3.856   3.763 -0.3091 -1.6257  1.5884
 6416TIP3    H219255   3.575   3.977   3.705  2.4853 -0.1306  1.1739
 6417TIP3   OH219256   0.831   0.647   0.040  0.3750 -0.0762 -0.5317
 6417TIP3    H119257   0.836   0.598  -0.041 -1.7240 -2.6514  0.7422
 6417TIP3    H219258   0.887   0.599   0.101 -0.2542  0.1762  0.2626
 6418TIP3   OH219259   2.113   0.334   1.398  0.7357  0.0294  0.3072
 6418TIP3    H119260   2.043   0.299   1.453 -1.3206  0.2657 -2.0089
 6418TIP3    H219261   2.176   0.262   1.392 -0.5230 -1.1237  0.4251
 6419TIP3   OH219262   2.386   3.101   3.011 -0.1351 -0.4113 -0.2935
 6419TIP3    H119263   2.477   3.074   3.024 -0.2839 -1.5028 -1.3737
 6419TIP3    H219264   2.388   3.196   3.018  0.8354 -0.5008  1.1246
 6420TIP3   OH219265   2.221   4.986   4.047 -0.2641 -0.0683  0.4793
 6420TIP3    H119266   2.272   5.022   4.120 -0.9746 -0.2212  1.0542
 6420TIP3    H219267   2.263   5.023   3.969 -1.6431  2.9769  1.0552
 6421TIP3   OH219268   2.875   5.946   4.228 -0.3929 -0.3672 -0.5012
 6421TIP3    H119269   2.825   5.985   4.156  0.2265 -0.6026 -1.0669
 6421TIP3    H219270   2.965   5.939   4.194 -0.4131 -1.9518 -0.2912
 6422TIP3   OH219271   0.982   3.572   1.388 -0.3444  0.0960 -0.2933
 6422TIP3    H119272   1.015   3.528   1.309  0.3298  1.3654 -0.7486
 6422TIP3    H219273   1.018   3.521   1.460  0.2678 -0.1988 -0.7953
 6423TIP3   OH219274   3.930   5.456   0.722  0.3567  0.4319  0.5967
 6423TIP3    H119275   3.865   5.445   0.653  1.7244  0.5556 -0.7779
 6423TIP3    H219276   3.938   5.551   0.732  1.4003  0.4713 -0.3621
 6424TIP3   OH219277   1.303   3.560   0.726 -0.1826 -0.4011  0.0183
 6424TIP3    H119278   1.394   3.587   0.713  0.0035 -0.8032  0.4550
 6424TIP3    H219279   1.267   3.626   0.786  0.1517 -0.8667  0.7506
 6425TIP3   OH219280   1.046   1.190   3.881  0.3753 -0.0660 -0.3195
 6425TIP3    H119281   1.003   1.118   3.928  0.1250  0.4358  0.2375
 6425TIP3    H219282   1.127   1.152   3.848  0.4376 -0.4980  0.3074
 6426TIP3   OH219283   0.794   3.323   1.193 -0.1921 -0.1909  0.0290
 6426TIP3    H119284   0.833   3.259   1.134  0.5173  0.4830 -0.2385
 6426TIP3    H219285   0.818   3.292   1.280  2.3016  1.0103 -0.1421
 6427TIP3   OH219286   6.030   2.550   0.039 -0.7302  0.1106  0.1420
 6427TIP3    H119287   5.967   2.607   0.082 -0.6249  1.2184 -1.1176
 6427TIP3    H219288   6.002   2.546  -0.052  1.5750  1.5593 -0.7384
 6428TIP3   OH219289   3.521   3.723   2.449 -0.6529  0.2948 -0.3340
 6428TIP3    H119290   3.492   3.644   2.495  0.7680 -0.2674 -0.3579
 6428TIP3    H219291   3.531   3.789   2.519 -0.1072 -0.0786 -0.0507
 6429TIP3   OH219292   5.958   0.713   4.903 -0.1667 -0.6414  0.0140
 6429TIP3    H119293   5.900   0.637   4.901 -0.4784 -0.6003  3.2713
 6429TIP3    H219294   6.042   0.678   4.935  0.0505  0.1752  0.3471
 6430TIP3   OH219295   5.417   0.977   4.615 -0.0482 -0.5948 -0.2848
 6430TIP3    H119296   5.387   0.942   4.531  2.8973  0.9586 -2.1571
 6430TIP3    H219297   5.464   0.905   4.656 -0.4675 -1.0094 -0.5224
 6431TIP3   OH219298   4.319   3.601   3.601  0.2316  0.6703  0.3180
 6431TIP3    H119299   4.246   3.550   3.565 -0.0671  1.1043  0.3087
 6431TIP3    H219300   4.318   3.581   3.694  1.2160 -0.7232  0.0627
 6432TIP3   OH219301   4.976   3.718   2.700 -0.6331  0.1988  0.5533
 6432TIP3    H119302   5.025   3.721   2.782  0.6110  0.5214 -0.1800
 6432TIP3    H219303   5.009   3.792   2.649 -2.8388  1.2545  0.5314
 6433TIP3   OH219304   0.319   5.181   3.313 -0.0971 -0.0682  0.1210
 6433TIP3    H119305   0.257   5.200   3.383  0.2705 -0.5788  0.5917
 6433TIP3    H219306   0.264   5.153   3.240 -0.4123 -0.8376  0.6412
 6434TIP3   OH219307   4.342   5.611   2.577  0.0393 -0.6415 -0.4927
 6434TIP3    H119308   4.284   5.686   2.564 -1.3610 -1.6672 -0.4054
 6434TIP3    H219309   4.389   5.601   2.494  2.1716  1.8426  0.2961
 6435TIP3   OH219310   0.677   0.775   2.980 -0.3050  0.2702 -0.0449
 6435TIP3    H119311   0.613   0.831   3.024 -0.7050  0.7826 -1.2405
 6435TIP3    H219312   0.762   0.814   2.999 -0.6605  2.3365 -2.2001
 6436TIP3   OH219313   0.767   0.188   0.594 -0.5645  0.0653 -0.5779
 6436TIP3    H119314   0.820   0.165   0.518  0.8469  1.0256  0.0730
 6436TIP3    H219315   0.831   0.201   0.664 -1.7617  0.1436  0.5345
 6437TIP3   OH219316   2.262   3.206   0.289 -0.0425 -0.3998 -0.4198
 6437TIP3    H119317   2.195   3.230   0.225 -0.2582  1.3689  0.4245
 6437TIP3    H219318   2.296   3.122   0.256 -2.7771 -1.5041 -0.7708
 6438TIP3   OH219319   0.185   4.471   1.217 -0.0046 -0.3956  0.5605
 6438TIP3    H119320   0.273   4.445   1.192 -0.9937 -1.8560 -1.7210
 6438TIP3    H219321   0.197   4.523   1.297  2.9893  0.4555 -0.3141
 6439TIP3   OH219322   1.777   5.074   4.173 -0.3778 -0.4342 -0.2246
 6439TIP3    H119323   1.700   5.018   4.164 -1.8372  1.5921 -1.2669
 6439TIP3    H219324   1.773   5.105   4.263 -1.6028  0.6901 -0.6330
 6440TIP3   OH219325   4.170   3.662   2.432 -0.0203 -0.2843 -0.4672
 6440TIP3    H119326   4.078   3.684   2.421 -0.6768 -2.1889  0.7180
 6440TIP3    H219327   4.192   3.608   2.356 -0.1631 -0.6400 -0.2564
 6441TIP3   OH219328   3.902   3.662   1.145  0.1600  0.4089 -0.0467
 6441TIP3    H119329   3.946   3.710   1.075 -0.9350 -0.7335 -1.5946
 6441TIP3    H219330   3.869   3.730   1.204  1.6131  1.3739 -0.2874
 6442TIP3   OH219331   0.354   2.976   1.733 -0.5429 -0.0575  0.8167
 6442TIP3    H119332   0.290   2.929   1.786  0.5197 -0.8284  1.4387
 6442TIP3    H219333   0.346   3.067   1.761 -0.5859 -0.3264  1.6957
 6443TIP3   OH219334   4.243   3.120   2.146 -0.8182  0.5228  0.8318
 6443TIP3    H119335   4.158   3.119   2.190 -1.0034  1.9653  0.5563
 6443TIP3    H219336   4.293   3.052   2.190 -2.1765 -0.4930  0.8665
 6444TIP3   OH219337   6.132   2.941   2.499  0.1748  0.3669  0.2093
 6444TIP3    H119338   6.120   3.028   2.535  1.1350  0.7264 -0.2902
 6444TIP3    H219339   6.075   2.938   2.422 -0.1139  0.4289  0.4211
 6445TIP3   OH219340   5.734   3.896   2.759 -0.0577  0.3477  0.1910
 6445TIP3    H119341   5.819   3.853   2.748 -0.6225 -0.9245  0.6549
 6445TIP3    H219342   5.683   3.868   2.684 -0.9909 -1.2224  1.3552
 6446TIP3   OH219343   6.059   4.922   1.322  0.2937  0.1647  0.1578
 6446TIP3    H119344   6.041   4.929   1.229 -1.2197  1.7532  0.5185
 6446TIP3    H219345   6.095   5.007   1.346 -2.2336  0.9466  1.5504
 6447TIP3   OH219346   5.199   4.140   3.205 -0.1390  0.1585 -0.0708
 6447TIP3    H119347   5.157   4.206   3.149 -2.6903  0.0324  1.5502
 6447TIP3    H219348   5.260   4.190   3.259 -0.6562  0.9031 -0.1570
 6448TIP3   OH219349   1.278   1.415   2.552 -0.7927 -0.2073 -0.0926
 6448TIP3    H119350   1.347   1.466   2.510 -0.2488 -1.1715 -0.4029
 6448TIP3    H219351   1.213   1.480   2.579 -1.0492  0.4949 -2.1910
 6449TIP3   OH219352   1.072   2.648   0.507 -0.4615 -0.2658 -0.0867
 6449TIP3    H119353   1.149   2.661   0.452  0.9782 -2.5093  1.2016
 6449TIP3    H219354   0.999   2.680   0.455  0.9544 -1.0394 -2.7432
 6450TIP3   OH219355   2.929   2.588   0.030 -0.2021  0.9318 -0.3861
 6450TIP3    H119356   2.854   2.546   0.072  0.7728  0.5339  1.0334
 6450TIP3    H219357   2.958   2.654   0.093  2.0408 -0.5052  0.2151
 6451TIP3   OH219358   2.177   3.649   2.142  0.0830 -0.2953  0.1772
 6451TIP3    H119359   2.095   3.666   2.188 -0.0730 -0.1803 -0.1405
 6451TIP3    H219360   2.203   3.734   2.107  0.1928 -0.3840  0.0419
 6452TIP3   OH219361   5.329   3.357   5.029  0.5471  0.6454 -0.2319
 6452TIP3    H119362   5.376   3.436   5.051  0.5842  0.9240 -1.2457
 6452TIP3    H219363   5.396   3.297   4.996  0.1091  1.5729 -3.1389
 6453TIP3   OH219364   1.422   4.363   0.205 -0.3504 -0.5998  0.1728
 6453TIP3    H119365   1.497   4.353   0.145 -1.6692 -0.0054 -1.6548
 6453TIP3    H219366   1.441   4.301   0.276  1.3430 -1.2705 -0.7833
 6454TIP3   OH219367   4.897   2.530   3.327  0.4492  0.2172 -0.1931
 6454TIP3    H119368   4.803   2.523   3.315  0.1195  0.2011  2.0216
 6454TIP3    H219369   4.914   2.485   3.410  2.4399  0.0194 -0.6614
 6455TIP3   OH219370   0.166   4.139   2.864 -0.1850  0.7261 -0.7688
 6455TIP3    H119371   0.233   4.136   2.796  0.9339 -0.0496  0.3225
 6455TIP3    H219372   0.177   4.226   2.904 -0.6338  1.0591 -1.3601
 6456TIP3   OH219373   4.742   3.192   2.512 -0.4588 -0.2393  0.3443
 6456TIP3    H119374   4.740   3.249   2.435  1.5081 -1.7867 -0.9550
 6456TIP3    H219375   4.794   3.241   2.576 -0.9388  0.4713  0.2076
 6457TIP3   OH219376   2.876   1.686   3.399  0.1619 -0.3847 -0.2767
 6457TIP3    H119377   2.786   1.673   3.429  0.3944 -0.6076  0.3254
 6457TIP3    H219378   2.931   1.662   3.473  0.6888  1.5561  0.0327
 6458TIP3   OH219379   0.660   1.889   1.075  0.0560 -0.3472 -0.1547
 6458TIP3    H119380   0.572   1.860   1.052  0.2680  0.3555 -2.0534
 6458TIP3    H219381   0.648   1.977   1.110 -0.3287 -1.6153  3.3254
 6459TIP3   OH219382   5.910   3.533   3.714  0.1399  0.1380  0.1435
 6459TIP3    H119383   5.979   3.470   3.732  0.0117  0.2873  1.2579
 6459TIP3    H219384   5.881   3.513   3.625  1.6747  0.1463 -0.3845
 6460TIP3   OH219385   4.055   0.710   1.034 -0.1377  0.2198 -0.2773
 6460TIP3    H119386   4.002   0.630   1.032 -0.0120  0.1370 -2.6188
 6460TIP3    H219387   4.122   0.693   1.100 -1.7863 -0.4404  1.3450
 6461TIP3   OH219388   3.402   1.888   1.859  0.0182 -0.0527 -0.2419
 6461TIP3    H119389   3.426   1.797   1.844 -0.8447 -0.3062 -0.1741
 6461TIP3    H219390   3.310   1.884   1.885 -0.0192  0.8353 -0.2100
 6462TIP3   OH219391   3.165   1.626   1.152  0.9583 -0.3589  0.0100
 6462TIP3    H119392   3.182   1.550   1.208  2.3164 -1.5461 -1.9256
 6462TIP3    H219393   3.149   1.589   1.065 -1.7773  1.3889 -0.3520
 6463TIP3   OH219394   5.225   4.607   1.798  0.0522 -0.8675  0.2712
 6463TIP3    H119395   5.207   4.524   1.842  0.7534 -0.4163  1.4520
 6463TIP3    H219396   5.304   4.590   1.748  0.0306 -0.9979  0.2793
 6464TIP3   OH219397   4.269   0.196   1.441 -0.8551 -0.2510 -0.3218
 6464TIP3    H119398   4.321   0.267   1.403 -2.0435  0.3499 -0.8669
 6464TIP3    H219399   4.228   0.153   1.366 -0.7822 -1.0290  0.0667
 6465TIP3   OH219400   2.483   4.457   1.279 -0.1487 -0.0647 -0.1806
 6465TIP3    H119401   2.525   4.534   1.243 -0.2834  0.3695  0.5657
 6465TIP3    H219402   2.402   4.489   1.318 -0.5281 -0.6859 -0.4377
 6466TIP3   OH219403   2.474   1.200   3.262  0.4000 -0.5552  0.3523
 6466TIP3    H119404   2.409   1.196   3.192  1.2124  3.6308 -0.8805
 6466TIP3    H219405   2.554   1.163   3.223  0.3045 -0.1819 -0.1995
 6467TIP3   OH219406   3.780   0.983   4.975  0.4205 -0.0862 -0.1408
 6467TIP3    H119407   3.768   1.073   5.005  1.5460  0.1215 -0.2979
 6467TIP3    H219408   3.699   0.939   5.002 -0.1449  0.9605 -0.0664
 6468TIP3   OH219409   0.594   0.937   0.336  0.1474  0.2342  0.4420
 6468TIP3    H119410   0.554   0.952   0.251  0.5632  1.2917  0.4115
 6468TIP3    H219411   0.580   1.019   0.384 -0.7776 -0.6127  1.6968
 6469TIP3   OH219412   4.359   3.665   4.120  0.3846 -0.2536 -0.2489
 6469TIP3    H119413   4.368   3.574   4.149 -0.7261 -0.1079  0.5893
 6469TIP3    H219414   4.333   3.713   4.198 -0.2918  0.5672 -0.9673
 6470TIP3   OH219415   3.104   4.799   4.098  0.0870  0.7062 -0.2960
 6470TIP3    H119416   3.045   4.797   4.023 -1.5996  0.2585  0.9756
 6470TIP3    H219417   3.089   4.717   4.144  0.6703  1.1938  0.8311
 6471TIP3   OH219418   1.565   3.328   4.563  0.1473 -0.7109 -0.0494
 6471TIP3    H119419   1.583   3.304   4.654  0.4253  0.3043  0.1791
 6471TIP3    H219420   1.519   3.253   4.527  0.8723 -1.5174  0.6653
 6472TIP3   OH219421   2.347   0.544   2.762  0.3453  0.2566  0.3255
 6472TIP3    H119422   2.323   0.628   2.723  0.6977  1.4850  2.5838
 6472TIP3    H219423   2.271   0.520   2.815  0.7269 -0.2285  0.6627
 6473TIP3   OH219424   5.798   5.046   1.363  0.6984  0.0809 -0.3211
 6473TIP3    H119425   5.754   5.123   1.327  1.5759 -0.0946 -1.8493
 6473TIP3    H219426   5.840   5.005   1.288  0.0472 -2.0488  0.4225
 6474TIP3   OH219427   5.082   0.142   4.454 -0.2747 -0.0527  0.0631
 6474TIP3    H119428   5.175   0.163   4.454  0.2543 -2.0121  1.7679
 6474TIP3    H219429   5.066   0.103   4.368  0.1063  1.6194 -0.7927
 6475TIP3   OH219430   4.182   4.528   3.711  0.1590  0.4306 -0.5263
 6475TIP3    H119431   4.105   4.539   3.655 -0.7039 -1.5742  0.1901
 6475TIP3    H219432   4.245   4.482   3.655  0.4631  1.1389 -0.7800
 6476TIP3   OH219433   4.857   2.882   4.789 -0.2909 -0.2133  0.4933
 6476TIP3    H119434   4.905   2.964   4.800 -0.3545 -0.0992 -0.0435
 6476TIP3    H219435   4.799   2.899   4.715 -1.1043 -0.3752  1.0795
 6477TIP3   OH219436   2.217   0.326   4.625  0.2111  0.3830 -0.1631
 6477TIP3    H119437   2.190   0.332   4.533 -1.0507  0.0751  0.1656
 6477TIP3    H219438   2.207   0.233   4.646 -0.0522  0.5532  0.4521
 6478TIP3   OH219439   2.001   4.492  -0.017  0.6074  0.2372  0.1336
 6478TIP3    H119440   2.078   4.436  -0.003 -1.8670 -3.0926  1.8685
 6478TIP3    H219441   1.981   4.527   0.069 -0.6898 -0.2850  0.0678
 6479TIP3   OH219442   0.366   2.936   2.700  0.2594  0.2349  0.1356
 6479TIP3    H119443   0.387   3.007   2.760  1.0906 -0.1348  0.2913
 6479TIP3    H219444   0.271   2.923   2.711 -0.9337  4.1697 -3.0277
 6480TIP3   OH219445   2.166   3.644   4.739  0.5541  0.2468  0.3256
 6480TIP3    H119446   2.097   3.678   4.682  0.7305 -0.3166 -0.2261
 6480TIP3    H219447   2.247   3.664   4.693  0.7547  0.6725  0.8497
 6481TIP3   OH219448   5.490   0.522   3.479 -0.0676  0.5292 -0.3123
 6481TIP3    H119449   5.578   0.546   3.508  0.2837 -0.2299 -0.7108
 6481TIP3    H219450   5.436   0.598   3.501  1.2197  2.2754 -2.7783
 6482TIP3   OH219451   1.678   3.848   1.205 -0.0020  0.2521  0.1604
 6482TIP3    H119452   1.675   3.865   1.111 -0.7898  1.1979  0.3394
 6482TIP3    H219453   1.605   3.788   1.221  0.1211  0.1051  0.1705
 6483TIP3   OH219454   2.007   4.828   1.099 -1.0665 -0.0266 -0.6677
 6483TIP3    H119455   1.960   4.903   1.063 -0.9828  0.3883  0.0659
 6483TIP3    H219456   2.011   4.845   1.194  0.6472  0.0209 -0.7093
 6484TIP3   OH219457   3.941   5.595   3.486  0.2259  0.2149  0.2595
 6484TIP3    H119458   3.910   5.671   3.436  0.7735  1.3342  1.5534
 6484TIP3    H219459   3.971   5.533   3.420 -1.5684  0.5040 -0.9048
 6485TIP3   OH219460   1.051   5.058   0.151  0.3687  0.0635 -0.1552
 6485TIP3    H119461   1.064   4.967   0.179  1.3846  0.5433  1.0365
 6485TIP3    H219462   1.131   5.103   0.179  0.4000  1.1017 -1.7859
 6486TIP3   OH219463   5.535   5.327   1.874  0.0213  0.1960  0.5892
 6486TIP3    H119464   5.512   5.237   1.854  1.6801 -0.4585  1.4487
 6486TIP3    H219465   5.601   5.321   1.943  1.4547  1.9675 -0.5115
 6487TIP3   OH219466   0.054   2.970   4.393 -0.2062 -0.2488 -0.1445
 6487TIP3    H119467  -0.033   2.933   4.376 -0.4545 -0.0959  0.7662
 6487TIP3    H219468   0.094   2.911   4.456  0.6394 -0.7085 -1.0852
 6488TIP3   OH219469   4.971   3.867   4.292 -0.0409 -0.2548  0.3995
 6488TIP3    H119470   4.890   3.879   4.342 -0.8963 -0.9661 -0.7616
 6488TIP3    H219471   5.002   3.780   4.318  0.1172 -0.1605  0.5246
 6489TIP3   OH219472   5.823   4.586   2.299  0.2286 -0.4050  0.2625
 6489TIP3    H119473   5.863   4.511   2.343 -1.7351 -0.9426  1.2531
 6489TIP3    H219474   5.736   4.556   2.274 -0.9045  1.7287  1.3329
 6490TIP3   OH219475   0.484   1.495   3.737 -0.1639 -0.3679 -0.0360
 6490TIP3    H119476   0.415   1.514   3.673 -0.3463  1.7967  0.7183
 6490TIP3    H219477   0.545   1.437   3.691  0.0537  1.6249 -2.4072
 6491TIP3   OH219478   4.005   0.081   4.634  0.1450 -0.2531 -0.4695
 6491TIP3    H119479   4.080   0.055   4.687 -0.5708 -0.4168  0.4984
 6491TIP3    H219480   4.040   0.143   4.570  1.6642 -2.6183 -2.0643
 6492TIP3   OH219481   1.984   2.741   5.147  0.3237  0.2043  0.1798
 6492TIP3    H119482   1.942   2.729   5.232 -2.1750 -1.6635 -1.2127
 6492TIP3    H219483   1.988   2.836   5.136 -0.3369  0.4689  1.8831
 6493TIP3   OH219484   4.979   0.026   3.914 -0.4835 -0.2142  0.0745
 6493TIP3    H119485   5.026   0.048   3.834  0.6755  1.0409  1.0714
 6493TIP3    H219486   4.923   0.102   3.931  0.9772  0.5444  1.6701
 6494TIP3   OH219487   1.887   0.549   0.455 -1.1727 -0.3607  0.0436
 6494TIP3    H119488   1.834   0.518   0.528 -2.0067 -1.0947 -0.8460
 6494TIP3    H219489   1.828   0.603   0.403 -0.7481 -0.3100 -0.3938
 6495TIP3   OH219490   5.564   4.409   4.478  0.2683  0.3266  0.1932
 6495TIP3    H119491   5.541   4.460   4.400  0.2677  1.2750  0.7953
 6495TIP3    H219492   5.659   4.414   4.483  0.6078 -2.5651 -1.6044
 6496TIP3   OH219493   4.297   3.388   2.907 -0.4003 -0.1732 -0.5143
 6496TIP3    H119494   4.323   3.379   2.815 -0.1963 -0.7084 -0.4105
 6496TIP3    H219495   4.260   3.476   2.913 -0.7567 -0.2709 -1.1909
 6497TIP3   OH219496   1.208   4.500   2.921  0.0974 -0.2499 -0.1612
 6497TIP3    H119497   1.115   4.479   2.929  0.2926 -0.5718  1.7803
 6497TIP3    H219498   1.235   4.458   2.840 -1.2969 -0.7575 -0.3945
 6498TIP3   OH219499   5.308   1.578   2.491  0.3232 -0.5237 -0.2449
 6498TIP3    H119500   5.323   1.553   2.399  3.8499 -0.5940  0.2174
 6498TIP3    H219501   5.394   1.603   2.523 -1.1653  1.6571  2.4970
 6499TIP3   OH219502   6.293   1.081   3.511 -0.0018 -0.4568  0.0717
 6499TIP3    H119503   6.364   1.027   3.477 -0.9938 -1.1565 -0.9723
 6499TIP3    H219504   6.259   1.031   3.585  1.6577  0.6966  1.6826
 6500TIP3   OH219505   2.303   5.148   0.599  0.0357 -0.0402 -0.0278
 6500TIP3    H119506   2.383   5.123   0.553 -1.0725 -1.1992 -1.4400
 6500TIP3    H219507   2.280   5.234   0.563 -0.4132 -0.6053 -1.1433
 6501TIP3   OH219508   2.830   4.459   2.713 -0.6986  0.1064 -0.6583
 6501TIP3    H119509   2.903   4.521   2.724 -2.8372  2.5842  0.7083
 6501TIP3    H219510   2.815   4.424   2.801 -2.9516  1.9166 -0.2370
 6502TIP3   OH219511   5.685   2.274   0.563 -0.1395 -0.3467  0.0985
 6502TIP3    H119512   5.719   2.254   0.476  0.0203  1.2726 -0.2330
 6502TIP3    H219513   5.591   2.258   0.555  0.0679 -1.6425  0.0730
 6503TIP3   OH219514   4.336   0.351   3.723 -0.2360  0.1346 -0.9553
 6503TIP3    H119515   4.304   0.353   3.633 -0.2365 -0.9886 -0.9832
 6503TIP3    H219516   4.292   0.276   3.763 -1.0020  1.1815  0.2818
 6504TIP3   OH219517   0.884   4.366   4.725  0.0648 -0.2763  0.6504
 6504TIP3    H119518   0.976   4.358   4.700  0.1273 -0.2107  0.8530
 6504TIP3    H219519   0.869   4.290   4.782  0.1222 -0.0288  0.9960
 6505TIP3   OH219520   5.740   2.329   0.077 -0.4394 -0.2880 -0.1795
 6505TIP3    H119521   5.663   2.354   0.026  0.8729  0.9674 -1.6399
 6505TIP3    H219522   5.748   2.397   0.143 -1.0675 -0.9088  0.5577
 6506TIP3   OH219523   3.169   2.664   0.215  0.3776  0.0467 -0.4585
 6506TIP3    H119524   3.262   2.683   0.225 -0.0015  0.7343  2.3739
 6506TIP3    H219525   3.127   2.750   0.212 -0.4180 -0.1841  1.9018
 6507TIP3   OH219526   4.866   2.584   0.671  0.3185  0.5419  0.4161
 6507TIP3    H119527   4.774   2.571   0.691 -0.3035 -0.1094 -2.4811
 6507TIP3    H219528   4.896   2.499   0.640  2.1653  0.5287  2.0107
 6508TIP3   OH219529   5.388   0.887   1.506  0.2707  0.0209  0.4044
 6508TIP3    H119530   5.369   0.897   1.412 -3.3400 -3.7604  0.4195
 6508TIP3    H219531   5.321   0.940   1.549  0.6645  0.2073  0.7836
 6509TIP3   OH219532   2.758   1.299   3.494 -0.3731  0.8386  0.1049
 6509TIP3    H119533   2.788   1.220   3.449  1.7949  1.8981 -0.4549
 6509TIP3    H219534   2.697   1.340   3.433  2.0912  1.9605 -1.8084
 6510TIP3   OH219535   1.995   1.510   1.978  0.5806  0.4057  0.5036
 6510TIP3    H119536   2.035   1.576   1.920  0.1431 -0.1790 -0.4930
 6510TIP3    H219537   2.064   1.444   1.988  0.6105  0.4418  0.5375
 6511TIP3   OH219538   4.397   4.815   0.981  0.3873  0.3021  0.3938
 6511TIP3    H119539   4.464   4.826   0.913  0.3890 -0.0911  0.3277
 6511TIP3    H219540   4.415   4.884   1.044  0.6299  0.4264  0.1892
 6512TIP3   OH219541   2.380   5.010   3.398 -0.3544 -0.2174 -0.3755
 6512TIP3    H119542   2.384   4.954   3.476  0.8004  1.5614  0.9277
 6512TIP3    H219543   2.338   5.090   3.429  0.7860  0.7979 -1.3903
 6513TIP3   OH219544   1.927   1.554   4.414 -0.6204 -0.0418 -0.5190
 6513TIP3    H119545   1.932   1.646   4.440  1.9816 -0.5751  1.2433
 6513TIP3    H219546   1.981   1.550   4.334 -3.2887  0.4074 -2.4963
 6514TIP3   OH219547   2.442   4.665   2.988 -0.2292  0.0940  0.3851
 6514TIP3    H119548   2.458   4.573   2.964 -0.1558 -0.0686  1.0128
 6514TIP3    H219549   2.363   4.689   2.941  0.3360  0.0364 -0.6081
 6515TIP3   OH219550   1.149   5.081   2.078  0.1714 -0.5339  0.2954
 6515TIP3    H119551   1.081   5.039   2.129 -0.7637 -1.3156 -1.5135
 6515TIP3    H219552   1.211   5.011   2.058  0.8778 -0.0916  0.8792
 6516TIP3   OH219553   2.541   2.001   1.008 -0.3333  0.3015  0.0348
 6516TIP3    H119554   2.522   1.951   1.087  0.1601 -0.3867 -0.2728
 6516TIP3    H219555   2.456   2.010   0.965 -0.4918  0.0624  0.2891
 6517TIP3   OH219556   6.195   2.708   2.160 -0.0914 -0.6079  0.5833
 6517TIP3    H119557   6.120   2.755   2.124 -0.3437 -1.1693  0.3709
 6517TIP3    H219558   6.215   2.640   2.095  0.6658 -0.4020  0.5837
 6518TIP3   OH219559   3.352   5.479   5.087 -0.1638  0.0442  0.0900
 6518TIP3    H119560   3.304   5.424   5.149 -0.7680 -0.2680 -0.6386
 6518TIP3    H219561   3.415   5.527   5.141 -0.8327 -0.0480  0.9683
 6519TIP3   OH219562   2.061   4.711   3.368  0.0303  0.3495 -0.0184
 6519TIP3    H119563   1.970   4.735   3.386  0.3146  1.0145  0.5448
 6519TIP3    H219564   2.107   4.794   3.360  0.5250  0.0242 -0.6834
 6520TIP3   OH219565   1.681   2.216   4.216 -0.0200  0.1813 -0.8265
 6520TIP3    H119566   1.723   2.282   4.161  0.0463 -0.9480 -2.1931
 6520TIP3    H219567   1.587   2.226   4.197 -0.2057  1.2058  0.5132
 6521TIP3   OH219568   4.564   4.676   2.109 -0.0019 -0.3487  0.1264
 6521TIP3    H119569   4.616   4.601   2.138  0.9418  0.3948  0.4339
 6521TIP3    H219570   4.559   4.666   2.014 -1.4684 -1.7720  0.3260
 6522TIP3   OH219571   0.564   3.021   0.467  0.2034  0.2155 -0.0690
 6522TIP3    H119572   0.571   2.972   0.549  0.9960 -0.3121 -0.4399
 6522TIP3    H219573   0.543   3.110   0.494 -1.4806 -0.3518  0.6168
 6523TIP3   OH219574   5.396   1.424   3.719 -0.2971  0.4414  0.1036
 6523TIP3    H119575   5.382   1.480   3.795  0.2214 -0.2741  0.7405
 6523TIP3    H219576   5.340   1.347   3.735 -1.4467  1.0025 -1.0339
 6524TIP3   OH219577   3.107   5.788   0.040 -0.2718  0.3513  0.3787
 6524TIP3    H119578   3.148   5.703   0.055  0.2328  0.9401  2.8173
 6524TIP3    H219579   3.174   5.852   0.066 -1.1594  1.4427  0.0759
 6525TIP3   OH219580   6.049   2.549   4.953 -0.3932  0.0309  0.3623
 6525TIP3    H119581   6.102   2.501   5.018  0.6370  1.8708  0.9498
 6525TIP3    H219582   5.960   2.543   4.986 -0.0847 -0.2782  1.1826
 6526TIP3   OH219583   1.650   1.620   2.098  0.0062  0.2061  0.1659
 6526TIP3    H119584   1.711   1.564   2.146 -0.9139 -0.0494  1.0793
 6526TIP3    H219585   1.619   1.565   2.027  0.5256  0.2009 -0.0612
 6527TIP3   OH219586   3.754   3.136   0.932  0.0004  0.5593  0.3773
 6527TIP3    H119587   3.724   3.226   0.942  1.1384  1.4116 -2.7028
 6527TIP3    H219588   3.847   3.144   0.910  0.2351 -1.4019  0.4871
 6528TIP3   OH219589   6.035   5.248   2.990  0.0003 -0.1492 -0.2854
 6528TIP3    H119590   6.023   5.293   3.074 -0.0038 -1.4221  0.4211
 6528TIP3    H219591   5.947   5.239   2.954  0.0239  0.6021 -0.5490
 6529TIP3   OH219592   1.415   2.331   1.805 -0.5783 -0.2014 -0.5368
 6529TIP3    H119593   1.319   2.327   1.808 -0.5278 -1.5849 -0.1101
 6529TIP3    H219594   1.435   2.346   1.712 -1.2094 -0.0262 -0.6512
 6530TIP3   OH219595   5.719   1.166  -0.004 -0.3494 -0.1694  0.2183
 6530TIP3    H119596   5.651   1.112   0.036  0.8748 -1.7257  0.2780
 6530TIP3    H219597   5.781   1.184   0.067 -0.6131  1.1141  0.1345
 6531TIP3   OH219598   4.308   4.333   4.747  0.1520  0.1824 -0.2413
 6531TIP3    H119599   4.326   4.329   4.653 -0.9745 -0.4690 -0.4491
 6531TIP3    H219600   4.340   4.249   4.781  0.8059  0.5260  0.0191
 6532TIP3   OH219601   0.326   4.701   0.859  0.3645  0.4904 -0.4858
 6532TIP3    H119602   0.365   4.616   0.840  1.1893  0.8982 -0.7026
 6532TIP3    H219603   0.287   4.729   0.776 -1.2629 -0.3382 -0.0296
 6533TIP3   OH219604   6.309   5.799   1.426 -0.0223  0.1669 -0.0267
 6533TIP3    H119605   6.282   5.845   1.505 -1.3796  0.8485 -0.8347
 6533TIP3    H219606   6.335   5.869   1.366 -1.8305 -0.0594 -1.1698
 6534TIP3   OH219607   2.264   5.503   1.479  0.1759  0.3393 -0.3657
 6534TIP3    H119608   2.207   5.579   1.486 -1.0656 -0.6213  0.3688
 6534TIP3    H219609   2.210   5.438   1.433  0.6946 -0.5683  0.2915
 6535TIP3   OH219610   0.164   1.330   1.844  0.6286 -0.1265 -0.0140
 6535TIP3    H119611   0.210   1.250   1.873  1.1734 -0.0963 -0.7551
 6535TIP3    H219612   0.229   1.400   1.856  0.9336 -0.1410 -1.4306
 6536TIP3   OH219613   3.253   0.074   2.759  0.6307 -0.0451  1.0709
 6536TIP3    H119614   3.160   0.065   2.742  0.8880  0.5494 -0.9311
 6536TIP3    H219615   3.266   0.035   2.846 -1.5448  0.3911  1.6439
 6537TIP3   OH219616   0.464   0.789   0.935  0.1101  0.3596 -0.4678
 6537TIP3    H119617   0.509   0.720   0.886  1.7653  0.9040  0.2060
 6537TIP3    H219618   0.489   0.773   1.026 -0.8868  0.8410 -0.0980
 6538TIP3   OH219619   0.974   2.489   2.938  0.2360  0.4151 -0.5959
 6538TIP3    H119620   0.968   2.419   3.003  3.0036  0.6571  0.0498
 6538TIP3    H219621   0.899   2.475   2.881 -0.4043 -1.8535  0.6726
 6539TIP3   OH219622   0.342   1.947   0.149 -0.4158  0.1972  0.1629
 6539TIP3    H119623   0.282   1.879   0.180 -0.2492 -0.0643 -0.0888
 6539TIP3    H219624   0.348   2.008   0.223  1.0007 -1.0976  1.1861
 6540TIP3   OH219625   0.870   0.516   2.996 -0.2009 -0.3055  0.4543
 6540TIP3    H119626   0.821   0.577   2.941 -0.0184 -0.2762  0.3204
 6540TIP3    H219627   0.859   0.432   2.952 -0.3227 -0.3408  0.5523
 6541TIP3   OH219628   5.733   1.327   2.780  0.3848  0.1970  0.1045
 6541TIP3    H119629   5.729   1.400   2.842 -1.2135 -0.5353  0.8977
 6541TIP3    H219630   5.799   1.268   2.816 -0.4863 -0.1910  1.0821
 6542TIP3   OH219631   3.396   2.724   4.211 -0.2405  0.4630  0.3021
 6542TIP3    H119632   3.395   2.656   4.143  1.9449  0.6662 -0.0222
 6542TIP3    H219633   3.352   2.684   4.286  0.5940 -1.1813 -0.0378
 6543TIP3   OH219634   4.108   5.128   1.787  0.3825  0.2935  0.6099
 6543TIP3    H119635   4.075   5.217   1.794  1.8826  0.9674 -0.3199
 6543TIP3    H219636   4.202   5.139   1.775  0.4294 -1.3518 -0.9092
 6544TIP3   OH219637   3.132   2.353   4.046  0.3772 -0.1905  0.1005
 6544TIP3    H119638   3.122   2.398   3.962  0.0855 -0.0904  0.1858
 6544TIP3    H219639   3.213   2.304   4.037  1.4069  1.3869  0.4880
 6545TIP3   OH219640   2.092   5.155   2.103 -0.5624 -0.0048  0.1247
 6545TIP3    H119641   2.036   5.217   2.057  1.7903  1.8944 -0.3815
 6545TIP3    H219642   2.163   5.209   2.139  1.4766 -2.3494 -0.1167
 6546TIP3   OH219643   5.473   0.598   1.460 -0.4265  0.2117  0.7598
 6546TIP3    H119644   5.444   0.688   1.449 -1.3620  0.0478  1.7248
 6546TIP3    H219645   5.414   0.562   1.527 -0.8705 -1.4733 -0.4814
 6547TIP3   OH219646   2.481   5.880   3.187  0.2245 -0.0811 -0.1941
 6547TIP3    H119647   2.468   5.847   3.097 -0.3399  0.4607 -0.3242
 6547TIP3    H219648   2.543   5.952   3.177 -0.6526  0.6842 -0.3231
 6548TIP3   OH219649   5.757   3.784   3.642 -0.0835  0.2098 -0.1109
 6548TIP3    H119650   5.787   3.872   3.621 -0.4676 -0.1903 -2.5563
 6548TIP3    H219651   5.665   3.783   3.616 -0.7216 -0.3028  1.9555
 6549TIP3   OH219652   0.020   2.671   4.450  0.0784  0.1601 -0.3893
 6549TIP3    H119653   0.046   2.696   4.539 -1.4190  1.6481 -0.3157
 6549TIP3    H219654   0.101   2.677   4.399  1.7361 -3.8932  1.3747
 6550TIP3   OH219655   4.166   5.497   0.543 -0.4419  0.1075  0.4567
 6550TIP3    H119656   4.180   5.576   0.596  0.6104 -0.0332  0.4131
 6550TIP3    H219657   4.076   5.470   0.563 -0.5944  0.9578  0.9550
 6551TIP3   OH219658   6.040   4.944   4.413  0.2727 -0.3422 -0.2820
 6551TIP3    H119659   5.976   4.900   4.356 -0.5056  0.0343  0.2730
 6551TIP3    H219660   5.990   4.965   4.492  1.1735 -0.2966  0.2832
 6552TIP3   OH219661   2.369   4.883   1.846 -0.1229  0.1046  0.7076
 6552TIP3    H119662   2.404   4.923   1.926 -0.0812  0.5863  0.4525
 6552TIP3    H219663   2.337   4.797   1.874  2.4210 -0.9343  0.7291
 6553TIP3   OH219664   3.262   1.639   2.835  0.1186  0.4615 -0.1638
 6553TIP3    H119665   3.336   1.694   2.861  0.2099  0.4991 -0.5076
 6553TIP3    H219666   3.290   1.550   2.855  0.7335  0.3620 -1.4119
 6554TIP3   OH219667   0.202   0.878   0.404  0.4265 -0.1000 -0.4111
 6554TIP3    H119668   0.151   0.804   0.435 -2.5363  1.9337 -0.0099
 6554TIP3    H219669   0.204   0.939   0.478  0.7657  1.1648 -1.4167
 6555TIP3   OH219670   4.826   4.016   3.308  0.0804  0.2749 -0.3842
 6555TIP3    H119671   4.904   4.030   3.361  0.3458 -1.0742 -0.3881
 6555TIP3    H219672   4.856   3.963   3.234 -0.6899  0.3939 -0.7910
 6556TIP3   OH219673   4.093   4.528   4.861 -0.4208 -0.1178 -0.0367
 6556TIP3    H119674   4.116   4.621   4.868 -0.1990 -0.2442  1.0338
 6556TIP3    H219675   4.142   4.498   4.784  0.3689  0.3964  0.2471
 6557TIP3   OH219676   1.491   5.063   2.795 -0.2233  0.0051 -0.2960
 6557TIP3    H119677   1.412   5.016   2.769 -0.9870 -0.0191  1.9025
 6557TIP3    H219678   1.477   5.153   2.765 -0.2418 -0.3921 -1.5259
 6558TIP3   OH219679   1.784   2.721   1.907 -0.5969 -0.2619 -0.1424
 6558TIP3    H119680   1.727   2.644   1.913 -2.4822  1.1652  1.0970
 6558TIP3    H219681   1.754   2.767   1.829  0.5100 -0.7064 -0.8635
 6559TIP3   OH219682   4.356   5.603   0.012 -0.5621  0.3809 -0.5794
 6559TIP3    H119683   4.273   5.649  -0.006 -0.9298 -0.0884 -0.1124
 6559TIP3    H219684   4.361   5.600   0.108 -0.3789 -0.2654 -0.6057
 6560TIP3   OH219685   4.540   1.843   1.505 -0.0195 -0.1496  0.2159
 6560TIP3    H119686   4.471   1.908   1.492 -0.0051 -0.6107 -2.7878
 6560TIP3    H219687   4.495   1.759   1.498  0.7791 -0.4624 -2.1604
 6561TIP3   OH219688   3.210   2.264   3.422  0.5049 -0.5925 -0.3041
 6561TIP3    H119689   3.200   2.343   3.475  0.3674  0.0491 -1.2643
 6561TIP3    H219690   3.160   2.197   3.468  1.2256 -0.3209  0.9174
 6562TIP3   OH219691   5.412   4.499   3.224  0.3028 -0.1047  0.1105
 6562TIP3    H119692   5.326   4.457   3.223  0.5712 -0.6632 -0.2401
 6562TIP3    H219693   5.433   4.511   3.131  1.0273 -0.8729  0.1620
 6563TIP3   OH219694   1.800   3.122   3.381  0.3277  0.3142  0.2562
 6563TIP3    H119695   1.889   3.127   3.415 -0.4680 -0.1466  2.6095
 6563TIP3    H219696   1.810   3.090   3.291  2.6746  3.0100 -0.5856
 6564TIP3   OH219697   3.658   4.353   2.451  0.0925  0.3006  0.1392
 6564TIP3    H119698   3.718   4.281   2.430  0.4892  0.2717  1.2944
 6564TIP3    H219699   3.663   4.411   2.375 -0.5659 -1.0825 -1.0204
 6565TIP3   OH219700   1.836   3.155   1.039  0.7464  0.1109 -0.4698
 6565TIP3    H119701   1.840   3.062   1.058  2.7480  0.3433  0.4827
 6565TIP3    H219702   1.807   3.195   1.121 -1.2049  0.2981 -1.1853
 6566TIP3   OH219703   5.494   1.245   2.416  0.3156  0.2825  0.0942
 6566TIP3    H119704   5.529   1.157   2.406  0.1781  0.1645  0.6655
 6566TIP3    H219705   5.424   1.237   2.480 -0.2982  0.6502 -0.5102
 6567TIP3   OH219706   3.932   4.997   1.355 -0.1642  0.4958  0.1253
 6567TIP3    H119707   3.877   4.919   1.348  0.7011 -0.0126 -1.5780
 6567TIP3    H219708   3.925   5.040   1.270  2.3880  0.1557 -0.3376
 6568TIP3   OH219709   1.493   0.870   4.230 -0.3078 -0.2574 -0.0440
 6568TIP3    H119710   1.403   0.897   4.248  0.4456  1.8572  0.8936
 6568TIP3    H219711   1.538   0.951   4.206  1.1014 -1.4636 -1.6568
 6569TIP3   OH219712   3.784   5.227   3.433  0.1122  0.2057 -0.7932
 6569TIP3    H119713   3.829   5.299   3.388  2.2333 -0.9970 -0.6879
 6569TIP3    H219714   3.778   5.158   3.367 -0.2697 -0.1944 -0.3468
 6570TIP3   OH219715   0.677   1.356   1.282 -0.1478  0.3628  0.2246
 6570TIP3    H119716   0.765   1.341   1.246  0.4515 -1.5137  2.2369
 6570TIP3    H219717   0.688   1.432   1.340  0.2818 -0.0935  0.7606
 6571TIP3   OH219718   0.466   0.616   4.235 -0.3729  0.0669 -0.7105
 6571TIP3    H119719   0.539   0.598   4.176 -0.4387 -2.1090 -0.2119
 6571TIP3    H219720   0.388   0.608   4.180 -0.4700 -2.5462 -0.2935
 6572TIP3   OH219721   5.473   0.170   2.359  0.1780  0.3544 -0.9236
 6572TIP3    H119722   5.443   0.128   2.279 -1.2682  0.3893 -0.4165
 6572TIP3    H219723   5.395   0.176   2.415  0.9566  1.1599  0.1264
 6573TIP3   OH219724   2.390   3.120   4.539 -0.1717  0.0513 -0.2166
 6573TIP3    H119725   2.442   3.199   4.522 -0.0806 -0.2228 -1.2705
 6573TIP3    H219726   2.300   3.144   4.518 -0.2631  0.1018  0.2229
 6574TIP3   OH219727   1.808   4.452   4.333 -0.2163 -0.2252 -0.0815
 6574TIP3    H119728   1.881   4.454   4.395 -0.0574 -1.0516 -0.2356
 6574TIP3    H219729   1.755   4.529   4.356  2.1026  2.0729 -1.7100
 6575TIP3   OH219730   5.007   2.061   4.381 -0.4366 -0.1443  0.4919
 6575TIP3    H119731   4.937   2.064   4.446 -2.1762 -1.6099 -1.1917
 6575TIP3    H219732   5.003   1.972   4.346  1.1473  0.2723 -0.8916
 6576TIP3   OH219733   3.146   4.271   0.488 -0.0160 -0.0888 -0.0499
 6576TIP3    H119734   3.226   4.301   0.447  0.5080 -0.6477  0.5420
 6576TIP3    H219735   3.173   4.238   0.574 -1.2173  1.9367  1.1910
 6577TIP3   OH219736   1.574   4.417   5.078 -0.7236 -0.6603  0.5174
 6577TIP3    H119737   1.607   4.371   5.000  0.1306 -1.5769  1.3828
 6577TIP3    H219738   1.572   4.349   5.146  2.6678  0.9634  2.4590
 6578TIP3   OH219739   4.820   1.090   4.384  0.6939  0.0271 -0.0215
 6578TIP3    H119740   4.822   1.033   4.307  0.5031  0.0398 -0.0372
 6578TIP3    H219741   4.912   1.106   4.405  0.7457  1.1037 -1.0429
 6579TIP3   OH219742   5.875   1.079   2.877  0.1565 -0.4241 -0.1320
 6579TIP3    H119743   5.918   1.001   2.843 -0.1826 -1.0344  0.7980
 6579TIP3    H219744   5.941   1.119   2.934  0.2845 -0.0888 -0.5080
 6580TIP3   OH219745   5.352   5.773   0.311 -0.2028 -0.0423 -0.4822
 6580TIP3    H119746   5.282   5.732   0.361  1.3955 -0.5897  1.4364
 6580TIP3    H219747   5.396   5.831   0.374  1.1450  0.1747 -1.5666
 6581TIP3   OH219748   5.519   1.887   3.466 -0.0551 -0.8541  0.3546
 6581TIP3    H119749   5.448   1.832   3.497 -0.5469 -0.2556  0.2968
 6581TIP3    H219750   5.598   1.846   3.501 -0.4510 -1.3314  0.6947
 6582TIP3   OH219751   5.088   2.795   0.518 -0.2264 -0.1604 -0.1773
 6582TIP3    H119752   5.029   2.817   0.446 -0.3900 -0.3803 -0.1096
 6582TIP3    H219753   5.152   2.736   0.479 -1.5331 -1.9874  0.3311
 6583TIP3   OH219754   4.460   4.966   1.209  0.0017  0.4892 -0.2081
 6583TIP3    H119755   4.533   5.008   1.255  0.2404  0.7156 -0.7726
 6583TIP3    H219756   4.385   5.023   1.225  0.7151  2.2417 -2.5008
 6584TIP3   OH219757   2.741   4.433   5.056 -0.3913 -0.1900 -0.7418
 6584TIP3    H119758   2.690   4.363   5.015  0.3768  0.3995 -2.8237
 6584TIP3    H219759   2.828   4.395   5.068 -0.8234 -0.6609  1.3200
 6585TIP3   OH219760   2.459   0.090   0.507 -0.1686  0.2204  0.1621
 6585TIP3    H119761   2.461  -0.005   0.508 -1.1033  0.1687 -0.7578
 6585TIP3    H219762   2.394   0.114   0.573  1.6666  0.3453  2.0244
 6586TIP3   OH219763   3.209   4.931   0.869  0.0063  0.1614 -0.3778
 6586TIP3    H119764   3.207   4.908   0.776  0.1062 -0.8122 -0.1586
 6586TIP3    H219765   3.128   4.892   0.904  0.1581  0.1972  0.0101
 6587TIP3   OH219766   1.697   4.754   1.389 -0.4101 -0.5238 -0.0348
 6587TIP3    H119767   1.654   4.837   1.411  1.5251  0.3560  0.6794
 6587TIP3    H219768   1.787   4.779   1.369  0.4050 -2.5298  0.8647
 6588TIP3   OH219769   1.697   4.274   2.375  0.0307 -0.9190 -0.4658
 6588TIP3    H119770   1.694   4.229   2.291 -1.2694  0.2096 -1.0483
 6588TIP3    H219771   1.617   4.246   2.420 -0.3512  0.1015 -0.4821
 6589TIP3   OH219772   0.507   0.994   3.634  0.0167 -0.8479 -0.4563
 6589TIP3    H119773   0.422   0.988   3.677  1.0223  0.6569  1.9316
 6589TIP3    H219774   0.539   0.904   3.631  0.2730 -0.9941  2.9418
 6590TIP3   OH219775   5.851   1.436   1.126 -0.4615 -0.0565  0.4295
 6590TIP3    H119776   5.884   1.505   1.069 -0.3980 -1.1179 -0.8631
 6590TIP3    H219777   5.756   1.447   1.126 -0.5536 -0.6642 -0.7470
 6591TIP3   OH219778   5.078   2.032   3.861  0.5718  0.2135  0.3366
 6591TIP3    H119779   5.150   2.013   3.801  0.3811  1.7286 -0.4061
 6591TIP3    H219780   5.041   1.946   3.883  1.7918 -0.4849 -0.2638
 6592TIP3   OH219781   5.113   3.534   4.344 -0.1611 -0.2758  0.3168
 6592TIP3    H119782   5.141   3.587   4.418 -0.3446  0.3447 -0.0529
 6592TIP3    H219783   5.112   3.444   4.378 -0.6586  0.0454  1.1924
 6593TIP3   OH219784   1.258   5.607   3.674 -0.3539  0.4404 -0.3460
 6593TIP3    H119785   1.350   5.634   3.679 -0.3058  0.2643 -0.2430
 6593TIP3    H219786   1.248   5.545   3.747 -1.3747  2.8251  1.6850
 6594TIP3   OH219787   5.042   1.450   4.446  0.7509 -0.0871 -0.1129
 6594TIP3    H119788   4.950   1.422   4.445  0.6745  0.0820  1.1251
 6594TIP3    H219789   5.072   1.435   4.356 -1.0124  1.6627 -1.0665
 6595TIP3   OH219790   2.940   2.029   4.655  0.1512  0.1449 -0.6075
 6595TIP3    H119791   2.869   2.011   4.593  0.2108  2.0238 -1.2816
 6595TIP3    H219792   3.013   1.977   4.622  0.1395  1.0111 -2.0697
 6596TIP3   OH219793   5.576   4.743   3.766 -0.1871 -0.1087 -0.2523
 6596TIP3    H119794   5.543   4.827   3.736  0.0338  0.5075  1.1886
 6596TIP3    H219795   5.510   4.710   3.826  1.4327  0.9048  2.2608
 6597TIP3   OH219796   2.384   1.366   2.855  0.5532  0.3502 -0.0702
 6597TIP3    H119797   2.363   1.392   2.944  1.7338  0.6666  0.1287
 6597TIP3    H219798   2.369   1.444   2.802  0.5555  0.3774 -0.0302
 6598TIP3   OH219799   3.404   0.392   0.283  0.3726  0.5069  0.6201
 6598TIP3    H119800   3.416   0.459   0.350  2.1013  1.1047 -0.2286
 6598TIP3    H219801   3.491   0.355   0.270  0.7307  2.1729 -3.0490
 6599TIP3   OH219802   0.197   0.902   2.816  0.0012  0.6928 -0.0010
 6599TIP3    H119803   0.131   0.837   2.792 -0.4623  1.3845 -0.6577
 6599TIP3    H219804   0.269   0.888   2.754  0.6457 -0.2840  0.9289
 6600TIP3   OH219805   1.682   3.982   3.417 -0.0778 -0.2612 -0.3414
 6600TIP3    H119806   1.700   3.960   3.508  0.7663  0.0974 -0.4126
 6600TIP3    H219807   1.718   4.070   3.406  2.4005 -1.3541 -1.7593
 6601TIP3   OH219808   0.622   2.572   3.948  0.5137  0.0030 -0.4332
 6601TIP3    H119809   0.671   2.616   4.018 -0.2229  0.6620 -0.3140
 6601TIP3    H219810   0.651   2.481   3.953 -0.5299 -0.2981  1.6962
 6602TIP3   OH219811   4.593   2.795   1.332  0.0242 -0.4114 -0.0546
 6602TIP3    H119812   4.513   2.753   1.300  1.2828 -2.2324 -1.0637
 6602TIP3    H219813   4.663   2.752   1.282  1.4931  2.8529 -1.0674
 6603TIP3   OH219814   0.628   5.192   1.485  0.7849 -0.1552  0.0903
 6603TIP3    H119815   0.724   5.194   1.477  0.7408  1.8930 -0.3522
 6603TIP3    H219816   0.598   5.258   1.422 -0.7747  1.1997  2.1587
 6604TIP3   OH219817   5.828   3.433   3.430  0.5238 -0.2791  0.0135
 6604TIP3    H119818   5.773   3.369   3.476 -0.3348 -0.1537 -0.8074
 6604TIP3    H219819   5.917   3.403   3.445  0.2310 -0.5403  1.2958
 6605TIP3   OH219820   4.981   0.112   1.959 -0.4661 -0.2741 -0.0109
 6605TIP3    H119821   4.897   0.114   2.005  0.2817  0.5894  1.3764
 6605TIP3    H219822   5.038   0.059   2.015  0.1619 -0.1245 -0.4909
 6606TIP3   OH219823   0.765   1.170   5.087  0.7175  0.2995 -0.6886
 6606TIP3    H119824   0.678   1.169   5.128  1.0449  0.3310  0.0064
 6606TIP3    H219825   0.788   1.262   5.082  0.6138  0.3080 -1.1028
 6607TIP3   OH219826   6.315   2.905   4.872  0.1844  0.5406 -0.3062
 6607TIP3    H119827   6.304   2.851   4.950  0.0731 -0.3446 -0.9151
 6607TIP3    H219828   6.311   2.995   4.904 -1.1236  0.2119  0.5432
 6608TIP3   OH219829   3.218   1.028   4.952 -0.0319  0.0885  0.4050
 6608TIP3    H119830   3.153   1.096   4.969 -0.4973 -0.6783  1.8434
 6608TIP3    H219831   3.172   0.963   4.899  0.4972  0.9689 -1.2273
 6609TIP3   OH219832   4.607   2.634   1.835 -0.4044  0.0420  0.0098
 6609TIP3    H119833   4.517   2.613   1.859 -0.5124 -0.1163 -0.5155
 6609TIP3    H219834   4.648   2.663   1.917 -0.8313 -0.2258  0.3219
 6610TIP3   OH219835   1.769   3.002   4.872  0.0811 -0.3396  0.1730
 6610TIP3    H119836   1.844   2.967   4.920  0.4307 -2.2543 -1.6045
 6610TIP3    H219837   1.806   3.041   4.793 -0.7193 -0.5770 -0.3400
 6611TIP3   OH219838   4.452   2.608   2.285  0.4900 -0.2746 -0.0693
 6611TIP3    H119839   4.532   2.646   2.321 -0.1030  0.6042  0.3824
 6611TIP3    H219840   4.391   2.682   2.279 -0.7049 -1.1394  0.7984
 6612TIP3   OH219841   4.591   2.668   0.690  0.0159  0.4187  0.3021
 6612TIP3    H119842   4.552   2.723   0.623  0.3101  1.4632  0.9712
 6612TIP3    H219843   4.539   2.588   0.688 -0.8571  0.9878 -0.2058
 6613TIP3   OH219844   3.127   3.947   2.187 -0.0043 -0.0471 -1.0602
 6613TIP3    H119845   3.102   4.035   2.218 -1.6271 -0.5597 -0.8162
 6613TIP3    H219846   3.062   3.889   2.226  1.1966 -1.4177 -1.0120
 6614TIP3   OH219847   0.181   5.323   4.382 -0.3761 -0.0844 -0.5311
 6614TIP3    H119848   0.143   5.335   4.295  0.9769  0.8210 -1.0230
 6614TIP3    H219849   0.208   5.411   4.409 -2.0615 -0.0896  1.4528
 6615TIP3   OH219850   2.653   2.407   4.122 -0.3717  1.2842 -0.6283
 6615TIP3    H119851   2.736   2.435   4.161 -0.2812  1.0054 -0.6193
 6615TIP3    H219852   2.613   2.351   4.188 -0.4867  1.2763 -0.7045
 6616TIP3   OH219853   0.644   5.609   5.042 -0.0601 -0.4587 -0.1085
 6616TIP3    H119854   0.666   5.526   5.084 -1.3979 -1.3447 -1.0694
 6616TIP3    H219855   0.551   5.621   5.059  0.2311  1.1621  0.4982
 6617TIP3   OH219856   2.473   3.742   4.833  0.3245  0.1175 -0.1805
 6617TIP3    H119857   2.554   3.726   4.883  0.2190  1.4856  0.4579
 6617TIP3    H219858   2.500   3.735   4.741  1.1585  0.4803  0.0284
 6618TIP3   OH219859   1.437   4.535   1.465 -0.0824 -0.8881  0.1332
 6618TIP3    H119860   1.412   4.622   1.433  0.6686 -0.4624  0.6956
 6618TIP3    H219861   1.362   4.480   1.441 -0.9658  0.0800  0.5387
 6619TIP3   OH219862   1.045   2.036   5.092  0.2961  0.2508 -0.1801
 6619TIP3    H119863   1.038   2.123   5.054  1.4066  2.2716  3.6590
 6619TIP3    H219864   0.972   2.030   5.153  1.7818 -0.2563  1.6535
 6620TIP3   OH219865   0.976   4.184   0.086 -0.5134 -0.9177  0.3414
 6620TIP3    H119866   0.888   4.156   0.061 -0.7659 -0.5125  0.7708
 6620TIP3    H219867   0.993   4.139   0.168 -0.1512 -1.3184  0.0527
 6621TIP3   OH219868   5.446   1.734   0.923 -0.1538  0.5821  0.1859
 6621TIP3    H119869   5.481   1.721   0.834 -0.3439 -1.7844  0.3824
 6621TIP3    H219870   5.521   1.762   0.975  1.0439 -2.1993  0.1212
 6622TIP3   OH219871   1.138   4.334   4.652 -0.1105 -0.0460 -0.5662
 6622TIP3    H119872   1.160   4.413   4.603  1.2856  1.0362  1.6702
 6622TIP3    H219873   1.210   4.274   4.634  0.6497  0.5300  0.4992
 6623TIP3   OH219874   5.252   4.501   4.289  0.6208 -0.7029  0.7596
 6623TIP3    H119875   5.331   4.555   4.279 -0.1466  0.6241  1.6180
 6623TIP3    H219876   5.268   4.425   4.233  2.3488 -0.2864  0.6312
 6624TIP3   OH219877   3.535   3.224   2.480  0.0938 -0.3242 -0.1017
 6624TIP3    H119878   3.586   3.270   2.547  0.4346  0.6361 -0.9784
 6624TIP3    H219879   3.589   3.230   2.401 -1.1203  0.2648 -0.9282
 6625TIP3   OH219880   5.412   0.061   1.161 -0.2961  0.0019 -0.0069
 6625TIP3    H119881   5.339   0.122   1.170 -0.1202 -0.0529  2.2394
 6625TIP3    H219882   5.471   0.103   1.098 -1.9655  0.2821 -1.4617
 6626TIP3   OH219883   3.286   3.111   2.234  0.4132  0.3884  0.0483
 6626TIP3    H119884   3.306   3.109   2.328  0.3831  0.5191  0.0580
 6626TIP3    H219885   3.342   3.044   2.196  1.9335  1.7134 -0.1271
 6627TIP3   OH219886   3.955   5.717   0.749 -0.0333  0.3907  0.0560
 6627TIP3    H119887   3.894   5.784   0.779  0.1992  0.2179  0.9607
 6627TIP3    H219888   4.035   5.734   0.800 -0.1673 -0.9347  0.7579
 6628TIP3   OH219889   6.168   2.979   0.825 -0.1493 -0.1528  0.1856
 6628TIP3    H119890   6.185   2.887   0.845  0.1195 -0.0859  0.2624
 6628TIP3    H219891   6.180   2.986   0.730 -1.3794 -0.4600 -0.0095
 6629TIP3   OH219892   4.822   0.769   4.519  0.2055  0.3672 -0.0978
 6629TIP3    H119893   4.861   0.718   4.590 -0.3909 -1.5264 -1.0615
 6629TIP3    H219894   4.839   0.860   4.543  0.3712 -0.2173  2.2523
 6630TIP3   OH219895   1.823   4.944   3.859  0.1277 -0.6673 -0.3140
 6630TIP3    H119896   1.750   4.888   3.884  0.2528 -0.4171  0.6524
 6630TIP3    H219897   1.887   4.885   3.820  0.1805 -1.1749  0.5273
 6631TIP3   OH219898   1.576   4.983   2.339 -0.0442  0.1672 -0.1335
 6631TIP3    H119899   1.543   5.058   2.389  0.0097  0.8829 -1.1409
 6631TIP3    H219900   1.671   4.995   2.337 -0.1662  1.0638 -1.7968
 6632TIP3   OH219901   0.612   1.916   5.027 -0.0155 -0.1175  0.0946
 6632TIP3    H119902   0.562   1.879   4.954 -0.3029  0.6393 -0.1027
 6632TIP3    H219903   0.694   1.946   4.987  0.4026 -0.8966  0.3304
 6633TIP3   OH219904   0.229   2.824   1.938 -0.0096  0.1079  0.7980
 6633TIP3    H119905   0.142   2.792   1.914  0.7351 -0.2538 -1.6994
 6633TIP3    H219906   0.275   2.746   1.971  0.2976 -0.4217 -0.7967
 6634TIP3   OH219907   3.399   1.655   4.423  0.1977 -0.6977  0.3360
 6634TIP3    H119908   3.469   1.668   4.486  0.6569 -0.4151 -0.2256
 6634TIP3    H219909   3.419   1.716   4.351  0.0211 -1.4326 -0.3598
 6635TIP3   OH219910   5.264   4.413   5.044 -0.4884  0.3195 -0.2283
 6635TIP3    H119911   5.203   4.427   5.117 -1.2925 -0.5475 -0.7236
 6635TIP3    H219912   5.307   4.498   5.034  0.4398  0.1945  1.9466
 6636TIP3   OH219913   1.339   4.532   4.940  0.2666  0.2599 -0.3726
 6636TIP3    H119914   1.396   4.503   5.011 -0.3342 -0.4357 -0.1571
 6636TIP3    H219915   1.364   4.478   4.865  0.7750  0.8655 -0.6444
 6637TIP3   OH219916   4.266   4.895   4.209 -0.0375  0.1810  0.2015
 6637TIP3    H119917   4.226   4.955   4.145  1.7672  0.6344 -0.5743
 6637TIP3    H219918   4.296   4.821   4.156  0.4703  0.0364  0.6864
 6638TIP3   OH219919   6.304   4.318   2.661 -0.7226  1.3576 -0.8154
 6638TIP3    H119920   6.232   4.372   2.628 -1.7462  1.3990  1.3407
 6638TIP3    H219921   6.382   4.371   2.646 -1.3629  2.1661 -1.3909
 6639TIP3   OH219922   1.094   1.271   3.384  0.1776 -0.4478 -0.4900
 6639TIP3    H119923   1.142   1.226   3.315  0.4832  1.6598 -1.7286
 6639TIP3    H219924   1.007   1.288   3.346  0.3454  0.7202 -0.3855
 6640TIP3   OH219925   4.668   1.378   0.538  0.7524 -0.2714 -0.2880
 6640TIP3    H119926   4.712   1.335   0.611  1.3782  2.1352  0.8703
 6640TIP3    H219927   4.575   1.378   0.563  1.1080  1.7932  1.3248
 6641TIP3   OH219928   3.309   0.757   4.822 -0.1085 -0.2517 -0.3871
 6641TIP3    H119929   3.251   0.790   4.753  0.4894 -1.1289 -1.3427
 6641TIP3    H219930   3.352   0.681   4.783  1.6065  0.2997  0.3435
 6642TIP3   OH219931   2.615   4.666   5.165 -0.2045 -0.3894  0.4606
 6642TIP3    H119932   2.657   4.583   5.142  2.4421  0.5844  1.4372
 6642TIP3    H219933   2.657   4.692   5.247 -0.0924  2.4957 -0.4377
 6643TIP3   OH219934   5.040   4.814   1.744  0.3197 -0.5585  0.3545
 6643TIP3    H119935   4.978   4.794   1.814 -0.2162 -2.2894 -0.5440
 6643TIP3    H219936   5.090   4.733   1.732  2.0470  0.4561  0.3227
 6644TIP3   OH219937   2.642   5.702   0.994 -0.2224  0.5817  0.2656
 6644TIP3    H119938   2.723   5.751   0.984  1.1700 -1.9813 -2.8261
 6644TIP3    H219939   2.664   5.612   0.967 -3.7732 -0.5434  0.5599
 6645TIP3   OH219940   4.172   0.793   0.207 -0.2530 -0.5424  0.2900
 6645TIP3    H119941   4.237   0.725   0.222 -0.4474 -0.5645  1.0625
 6645TIP3    H219942   4.189   0.858   0.275 -1.3102 -0.7590  0.7970
   6.35558   5.99209   5.18931   0.00000   0.00000  -2.11854   0.00000  -2.11854  -2.99605
